       N       E                     dE             d eps       ncg     rms          rms(c)
DAV:   1    -0.105917639218E+04   -0.10592E+04   -0.25839E-01 13248   0.117E+00    0.660E-02
RMM:   2    -0.105917639176E+04    0.42345E-06   -0.11728E-04  7646   0.203E-02    0.106E-01
RMM:   3    -0.105917639168E+04    0.78144E-07   -0.25871E-05  7081   0.106E-02    0.188E-02
RMM:   4    -0.105917639671E+04   -0.50225E-05   -0.10122E-05  6421   0.474E-03    0.130E-02
RMM:   5    -0.105917640013E+04   -0.34207E-05   -0.43447E-06  6266   0.383E-03    0.114E-02
RMM:   6    -0.105917640043E+04   -0.30095E-06   -0.21604E-06  4584   0.273E-03    0.290E-03
RMM:   7    -0.105917640044E+04   -0.78726E-08   -0.11245E-06  3299   0.225E-03    0.112E-03
RMM:   8    -0.105917640045E+04   -0.13781E-07   -0.63160E-07  2598   0.195E-03
   1 F= -.10591764E+04 E0= -.10591764E+04  d E =-.105918E+04  mag=    80.0000
       N       E                     dE             d eps       ncg     rms          rms(c)
DAV:   1    -0.105915467107E+04    0.21729E-01   -0.90063E+00 12416   0.341E+00    0.219E+00
RMM:   2    -0.105919410298E+04   -0.39432E-01   -0.29710E-01 12466   0.741E-01    0.156E+00
RMM:   3    -0.105919594873E+04   -0.18458E-02   -0.18215E-02 12871   0.227E-01    0.740E-01
RMM:   4    -0.105919304540E+04    0.29033E-02   -0.78263E-03 13168   0.101E-01    0.444E-01
RMM:   5    -0.105919237972E+04    0.66568E-03   -0.22345E-03 12872   0.578E-02    0.220E-01
RMM:   6    -0.105919243602E+04   -0.56303E-04   -0.41292E-04 10052   0.229E-02    0.124E-01
RMM:   7    -0.105919245973E+04   -0.23708E-04   -0.13230E-04  7897   0.155E-02    0.771E-02
RMM:   8    -0.105919248176E+04   -0.22034E-04   -0.79692E-05  7425   0.135E-02
   2 F= -.10591925E+04 E0= -.10591925E+04  d E =-.160813E-01  mag=    80.0000
       N       E                     dE             d eps       ncg     rms          rms(c)
DAV:   1    -0.105919229852E+04    0.16121E-03   -0.50965E-01 13376   0.813E-01    0.524E-01
RMM:   2    -0.105919450315E+04   -0.22046E-02   -0.16820E-02 12550   0.178E-01    0.375E-01
RMM:   3    -0.105919459807E+04   -0.94922E-04   -0.10077E-03 11780   0.532E-02    0.181E-01
RMM:   4    -0.105919441376E+04    0.18431E-03   -0.40835E-04 10239   0.246E-02    0.109E-01
RMM:   5    -0.105919436557E+04    0.48188E-04   -0.11690E-04  7459   0.162E-02    0.624E-02
RMM:   6    -0.105919436582E+04   -0.24879E-06   -0.29873E-05  7107   0.864E-03    0.385E-02
RMM:   7    -0.105919436372E+04    0.21051E-05   -0.12656E-05  6647   0.522E-03    0.184E-02
RMM:   8    -0.105919436087E+04    0.28489E-05   -0.74748E-06  6066   0.399E-03
   3 F= -.10591944E+04 E0= -.10591944E+04  d E =-.179604E-01  mag=    80.0000
       N       E                     dE             d eps       ncg     rms          rms(c)
DAV:   1    -0.105919716510E+04   -0.28014E-02   -0.65295E+00 12416   0.304E+00    0.124E+00
RMM:   2    -0.105921240550E+04   -0.15240E-01   -0.17128E-01 12569   0.590E-01    0.821E-01
RMM:   3    -0.105921273067E+04   -0.32517E-03   -0.11048E-02 13290   0.167E-01    0.517E-01
RMM:   4    -0.105921106150E+04    0.16692E-02   -0.26726E-03 13254   0.611E-02    0.256E-01
RMM:   5    -0.105921072000E+04    0.34150E-03   -0.11100E-03 12562   0.407E-02    0.654E-02
RMM:   6    -0.105921072711E+04   -0.71116E-05   -0.10197E-04  7679   0.166E-02    0.637E-02
RMM:   7    -0.105921073201E+04   -0.49050E-05   -0.42303E-05  7392   0.949E-03    0.303E-02
RMM:   8    -0.105921073444E+04   -0.24275E-05   -0.27381E-05  7266   0.754E-03
   4 F= -.10592107E+04 E0= -.10592107E+04  d E =-.163736E-01  mag=    80.0000
       N       E                     dE             d eps       ncg     rms          rms(c)
DAV:   1    -0.105920723141E+04    0.35006E-02   -0.34067E+00 12368   0.220E+00    0.889E-01
RMM:   2    -0.105921520209E+04   -0.79707E-02   -0.89479E-02 12566   0.425E-01    0.588E-01
RMM:   3    -0.105921537323E+04   -0.17114E-03   -0.58946E-03 13310   0.121E-01    0.372E-01
RMM:   4    -0.105921450338E+04    0.86985E-03   -0.14563E-03 13293   0.448E-02    0.184E-01
RMM:   5    -0.105921432887E+04    0.17451E-03   -0.57415E-04 11441   0.297E-02    0.479E-02
RMM:   6    -0.105921433429E+04   -0.54213E-05   -0.66015E-05  7464   0.133E-02    0.484E-02
RMM:   7    -0.105921433757E+04   -0.32798E-05   -0.29695E-05  7325   0.804E-03    0.231E-02
RMM:   8    -0.105921433910E+04   -0.15334E-05   -0.18613E-05  7077   0.644E-03
   5 F= -.10592143E+04 E0= -.10592143E+04  d E =-.199782E-01  mag=    80.0000
       N       E                     dE             d eps       ncg     rms          rms(c)
DAV:   1    -0.105920843591E+04    0.59017E-02   -0.65877E+00 12336   0.299E+00    0.992E-01
RMM:   2    -0.105922696785E+04   -0.18532E-01   -0.16878E-01 12700   0.546E-01    0.661E-01
RMM:   3    -0.105922758768E+04   -0.61983E-03   -0.92323E-03 13230   0.160E-01    0.385E-01
RMM:   4    -0.105922672924E+04    0.85844E-03   -0.23806E-03 14023   0.558E-02    0.193E-01
RMM:   5    -0.105922658952E+04    0.13973E-03   -0.73515E-04 11981   0.303E-02    0.556E-02
RMM:   6    -0.105922659704E+04   -0.75197E-05   -0.89716E-05  7561   0.133E-02    0.419E-02
RMM:   7    -0.105922660169E+04   -0.46525E-05   -0.47084E-05  7341   0.883E-03    0.295E-02
RMM:   8    -0.105922660370E+04   -0.20120E-05   -0.30215E-05  7221   0.769E-03
   6 F= -.10592266E+04 E0= -.10592266E+04  d E =-.122646E-01  mag=    80.0000
       N       E                     dE             d eps       ncg     rms          rms(c)
DAV:   1    -0.105922051963E+04    0.60821E-02   -0.31511E+00 12384   0.207E+00    0.685E-01
RMM:   2    -0.105922942520E+04   -0.89056E-02   -0.81121E-02 12707   0.378E-01    0.457E-01
RMM:   3    -0.105922971381E+04   -0.28861E-03   -0.44677E-03 12985   0.111E-01    0.266E-01
RMM:   4    -0.105922930158E+04    0.41223E-03   -0.11625E-03 12999   0.392E-02    0.134E-01
RMM:   5    -0.105922923572E+04    0.65866E-04   -0.33950E-04  9876   0.221E-02    0.397E-02
RMM:   6    -0.105922924204E+04   -0.63252E-05   -0.60299E-05  7358   0.124E-02    0.373E-02
RMM:   7    -0.105922924509E+04   -0.30456E-05   -0.31969E-05  7235   0.764E-03    0.234E-02
RMM:   8    -0.105922924653E+04   -0.14483E-05   -0.20083E-05  7041   0.698E-03
   7 F= -.10592292E+04 E0= -.10592292E+04  d E =-.149074E-01  mag=    80.0000
       N       E                     dE             d eps       ncg     rms          rms(c)
DAV:   1    -0.105921918174E+04    0.10063E-01   -0.82262E+00 12288   0.333E+00    0.912E-01
RMM:   2    -0.105923936815E+04   -0.20186E-01   -0.21107E-01 12604   0.603E-01    0.616E-01
RMM:   3    -0.105923955737E+04   -0.18921E-03   -0.11613E-02 13143   0.186E-01    0.356E-01
RMM:   4    -0.105923885862E+04    0.69874E-03   -0.27665E-03 14035   0.592E-02    0.196E-01
RMM:   5    -0.105923868254E+04    0.17608E-03   -0.80858E-04 11903   0.290E-02    0.850E-02
RMM:   6    -0.105923868932E+04   -0.67799E-05   -0.11408E-04  7795   0.138E-02    0.390E-02
RMM:   7    -0.105923869155E+04   -0.22372E-05   -0.49883E-05  7431   0.909E-03    0.255E-02
RMM:   8    -0.105923869222E+04   -0.67051E-06   -0.37908E-05  7308   0.756E-03
   8 F= -.10592387E+04 E0= -.10592387E+04  d E =-.944569E-02  mag=    80.0000
       N       E                     dE             d eps       ncg     rms          rms(c)
DAV:   1    -0.105923690218E+04    0.17894E-02   -0.10663E+00 12496   0.120E+00    0.326E-01
RMM:   2    -0.105923954545E+04   -0.26433E-02   -0.27668E-02 12641   0.217E-01    0.219E-01
RMM:   3    -0.105923955868E+04   -0.13229E-04   -0.15194E-03 11975   0.663E-02    0.127E-01
RMM:   4    -0.105923946496E+04    0.93728E-04   -0.33412E-04  9628   0.218E-02    0.708E-02
RMM:   5    -0.105923944296E+04    0.21995E-04   -0.10978E-04  7489   0.140E-02    0.415E-02
RMM:   6    -0.105923944546E+04   -0.25026E-05   -0.30885E-05  7196   0.903E-03    0.225E-02
RMM:   7    -0.105923944658E+04   -0.11165E-05   -0.17884E-05  6833   0.557E-03    0.132E-02
RMM:   8    -0.105923944661E+04   -0.26761E-07   -0.10418E-05  6540   0.492E-03
   9 F= -.10592394E+04 E0= -.10592394E+04  d E =-.102001E-01  mag=    80.0000
       N       E                     dE             d eps       ncg     rms          rms(c)
DAV:   1    -0.105922475758E+04    0.14689E-01   -0.74849E+00 12288   0.318E+00    0.963E-01
RMM:   2    -0.105924728101E+04   -0.22523E-01   -0.18733E-01 12710   0.575E-01    0.593E-01
RMM:   3    -0.105924856148E+04   -0.12805E-02   -0.10262E-02 13330   0.170E-01    0.339E-01
RMM:   4    -0.105924806559E+04    0.49588E-03   -0.17121E-03 14060   0.490E-02    0.196E-01
RMM:   5    -0.105924790680E+04    0.15879E-03   -0.91741E-04 11849   0.304E-02    0.544E-02
RMM:   6    -0.105924791603E+04   -0.92319E-05   -0.86385E-05  7512   0.145E-02    0.356E-02
RMM:   7    -0.105924792063E+04   -0.46015E-05   -0.44385E-05  7316   0.768E-03    0.237E-02
RMM:   8    -0.105924792268E+04   -0.20440E-05   -0.26476E-05  7175   0.738E-03
  10 F= -.10592479E+04 E0= -.10592479E+04  d E =-.847607E-02  mag=    80.0000
       N       E                     dE             d eps       ncg     rms          rms(c)
DAV:   1    -0.105923432016E+04    0.13600E-01   -0.52446E+00 12288   0.266E+00    0.804E-01
RMM:   2    -0.105925015776E+04   -0.15838E-01   -0.13179E-01 12732   0.481E-01    0.496E-01
RMM:   3    -0.105925103870E+04   -0.88094E-03   -0.71803E-03 13291   0.141E-01    0.285E-01
RMM:   4    -0.105925069082E+04    0.34788E-03   -0.11877E-03 13444   0.410E-02    0.166E-01
RMM:   5    -0.105925058097E+04    0.10985E-03   -0.65991E-04 11183   0.263E-02    0.462E-02
RMM:   6    -0.105925058874E+04   -0.77700E-05   -0.68193E-05  7437   0.131E-02    0.309E-02
RMM:   7    -0.105925059271E+04   -0.39697E-05   -0.36955E-05  7276   0.707E-03    0.201E-02
RMM:   8    -0.105925059459E+04   -0.18884E-05   -0.22169E-05  7095   0.713E-03
  11 F= -.10592506E+04 E0= -.10592506E+04  d E =-.111480E-01  mag=    80.0000
       N       E                     dE             d eps       ncg     rms          rms(c)
DAV:   1    -0.105924995910E+04    0.63361E-03   -0.15151E+00 12704   0.148E+00    0.603E-01
RMM:   2    -0.105925426678E+04   -0.43077E-02   -0.43438E-02 12587   0.283E-01    0.376E-01
RMM:   3    -0.105925443871E+04   -0.17192E-03   -0.26202E-03 12946   0.890E-02    0.207E-01
RMM:   4    -0.105925427311E+04    0.16560E-03   -0.65605E-04 12016   0.309E-02    0.131E-01
RMM:   5    -0.105925421491E+04    0.58199E-04   -0.27938E-04  8477   0.231E-02    0.977E-02
RMM:   6    -0.105925421629E+04   -0.13812E-05   -0.76623E-05  7261   0.142E-02    0.566E-02
RMM:   7    -0.105925421624E+04    0.47250E-07   -0.35666E-05  7123   0.812E-03    0.230E-02
RMM:   8    -0.105925421338E+04    0.28655E-05   -0.24741E-05  7063   0.843E-03
  12 F= -.10592542E+04 E0= -.10592542E+04  d E =-.361878E-02  mag=    80.0000
       N       E                     dE             d eps       ncg     rms          rms(c)
DAV:   1    -0.105925274541E+04    0.14708E-02   -0.80964E-01 12464   0.108E+00    0.440E-01
RMM:   2    -0.105925509718E+04   -0.23518E-02   -0.23392E-02 12585   0.207E-01    0.274E-01
RMM:   3    -0.105925520117E+04   -0.10400E-03   -0.14018E-03 12453   0.662E-02    0.150E-01
RMM:   4    -0.105925511041E+04    0.90763E-04   -0.29409E-04  8750   0.229E-02    0.999E-02
RMM:   5    -0.105925507889E+04    0.31520E-04   -0.13244E-04  7428   0.173E-02    0.845E-02
RMM:   6    -0.105925507950E+04   -0.61057E-06   -0.43542E-05  7143   0.116E-02    0.408E-02
RMM:   7    -0.105925507911E+04    0.39267E-06   -0.22902E-05  7064   0.628E-03    0.172E-02
RMM:   8    -0.105925507757E+04    0.15413E-05   -0.14071E-05  6928   0.655E-03
  13 F= -.10592551E+04 E0= -.10592551E+04  d E =-.448297E-02  mag=    80.0000
       N       E                     dE             d eps       ncg     rms          rms(c)
DAV:   1    -0.105925378999E+04    0.12891E-02   -0.13051E+00 12544   0.138E+00    0.481E-01
RMM:   2    -0.105925759774E+04   -0.38077E-02   -0.36525E-02 12736   0.258E-01    0.307E-01
RMM:   3    -0.105925774068E+04   -0.14294E-03   -0.19797E-03 12821   0.765E-02    0.164E-01
RMM:   4    -0.105925763705E+04    0.10362E-03   -0.49472E-04 10646   0.266E-02    0.865E-02
RMM:   5    -0.105925762370E+04    0.13355E-04   -0.14096E-04  7425   0.174E-02    0.633E-02
RMM:   6    -0.105925763006E+04   -0.63648E-05   -0.43297E-05  7144   0.113E-02    0.277E-02
RMM:   7    -0.105925763501E+04   -0.49460E-05   -0.24377E-05  6971   0.650E-03    0.130E-02
RMM:   8    -0.105925763930E+04   -0.42929E-05   -0.14613E-05  6930   0.622E-03
  14 F= -.10592576E+04 E0= -.10592576E+04  d E =-.256174E-02  mag=    80.0000
       N       E                     dE             d eps       ncg     rms          rms(c)
DAV:   1    -0.105925388350E+04    0.37515E-02   -0.15568E+00 12368   0.151E+00    0.526E-01
RMM:   2    -0.105925845246E+04   -0.45690E-02   -0.43725E-02 12733   0.282E-01    0.335E-01
RMM:   3    -0.105925863630E+04   -0.18384E-03   -0.23874E-03 12897   0.852E-02    0.179E-01
RMM:   4    -0.105925851856E+04    0.11774E-03   -0.59575E-04 11417   0.294E-02    0.938E-02
RMM:   5    -0.105925850228E+04    0.16276E-04   -0.16395E-04  7512   0.183E-02    0.660E-02
RMM:   6    -0.105925850911E+04   -0.68284E-05   -0.45782E-05  7182   0.117E-02    0.300E-02
RMM:   7    -0.105925851420E+04   -0.50928E-05   -0.26014E-05  7070   0.664E-03    0.138E-02
RMM:   8    -0.105925851836E+04   -0.41562E-05   -0.14598E-05  6997   0.638E-03
  15 F= -.10592585E+04 E0= -.10592585E+04  d E =-.344079E-02  mag=    80.0000
       N       E                     dE             d eps       ncg     rms          rms(c)
DAV:   1    -0.105925754144E+04    0.97276E-03   -0.93739E-01 12640   0.114E+00    0.345E-01
RMM:   2    -0.105926016602E+04   -0.26246E-02   -0.25224E-02 12452   0.219E-01    0.254E-01
RMM:   3    -0.105926028853E+04   -0.12251E-03   -0.15732E-03 12608   0.663E-02    0.147E-01
RMM:   4    -0.105926021409E+04    0.74442E-04   -0.17417E-04  7985   0.183E-02    0.921E-02
RMM:   5    -0.105926017831E+04    0.35782E-04   -0.18027E-04  7643   0.154E-02    0.348E-02
RMM:   6    -0.105926018104E+04   -0.27357E-05   -0.33163E-05  7110   0.103E-02    0.326E-02
RMM:   7    -0.105926018235E+04   -0.13132E-05   -0.15907E-05  6864   0.508E-03    0.959E-03
RMM:   8    -0.105926018230E+04    0.56723E-07   -0.81445E-06  6499   0.498E-03
  16 F= -.10592602E+04 E0= -.10592602E+04  d E =-.166394E-02  mag=    80.0000
