<?xml version="1.0" encoding="ISO-8859-1"?>
<modeling>
 <generator>
  <i name="program" type="string">vasp </i>
  <i name="version" type="string">5.4.1  </i>
  <i name="subversion" type="string">05Feb16 (build Jan 25 2017 20:16:33) complex                          parallel </i>
  <i name="platform" type="string">BWXE6 </i>
  <i name="date" type="string">2019 08 11 </i>
  <i name="time" type="string">11:57:52 </i>
 </generator>
 <incar>
  <i type="string" name="SYSTEM"> STF</i>
  <i type="string" name="PREC">normal</i>
  <i type="string" name="ALGO"> Fast</i>
  <i type="int" name="ISPIN">     2</i>
  <i type="int" name="NELM">    40</i>
  <i type="int" name="NELMIN">     8</i>
  <i type="int" name="IBRION">     2</i>
  <i name="EDIFF">      0.00010000</i>
  <i name="EDIFFG">     -0.03000000</i>
  <i type="int" name="NSW">    30</i>
  <i type="int" name="ISIF">     3</i>
  <i name="ENCUT">    520.00000000</i>
  <i type="int" name="NBANDS">   768</i>
  <v name="MAGMOM">      0.60000000      0.60000000      0.60000000      0.60000000      0.60000000      0.60000000      0.60000000      0.60000000      0.60000000      0.60000000      0.60000000      0.60000000      0.60000000      0.60000000      0.60000000      0.60000000      0.60000000      0.60000000      0.60000000      0.60000000
      0.60000000      0.60000000      0.60000000      0.60000000      0.60000000      0.60000000      0.60000000      0.60000000      0.60000000      0.60000000      0.60000000      0.60000000      0.60000000      0.60000000      0.60000000      0.60000000      0.60000000      0.60000000      0.60000000      0.60000000
      0.60000000      0.60000000      0.60000000      0.60000000      0.60000000      0.60000000      0.60000000      0.60000000      5.00000000      5.00000000      5.00000000      5.00000000      5.00000000      5.00000000      5.00000000      5.00000000      5.00000000      5.00000000      5.00000000      5.00000000
      5.00000000      5.00000000      5.00000000      5.00000000      0.60000000      0.60000000      0.60000000      0.60000000      0.60000000      0.60000000      0.60000000      0.60000000      0.60000000      0.60000000      0.60000000      0.60000000      0.60000000      0.60000000      0.60000000      0.60000000
      0.60000000      0.60000000      0.60000000      0.60000000      0.60000000      0.60000000      0.60000000      0.60000000      0.60000000      0.60000000      0.60000000      0.60000000      0.60000000      0.60000000      0.60000000      0.60000000      0.60000000      0.60000000      0.60000000      0.60000000
      0.60000000      0.60000000      0.60000000      0.60000000      0.60000000      0.60000000      0.60000000      0.60000000      0.60000000      0.60000000      0.60000000      0.60000000      0.60000000      0.60000000      0.60000000      0.60000000      0.60000000      0.60000000      0.60000000      0.60000000
      0.60000000      0.60000000      0.60000000      0.60000000      0.60000000      0.60000000      0.60000000      0.60000000      0.60000000      0.60000000      0.60000000      0.60000000      0.60000000      0.60000000      0.60000000      0.60000000      0.60000000      0.60000000      0.60000000      0.60000000
      0.60000000      0.60000000      0.60000000      0.60000000      0.60000000      0.60000000      0.60000000      0.60000000      0.60000000      0.60000000      0.60000000      0.60000000</v>
  <i type="string" name="LREAL"> Auto</i>
  <i type="int" name="ISMEAR">     0</i>
  <i name="SIGMA">      0.05000000</i>
  <i type="int" name="LMAXMIX">     4</i>
  <v type="int" name="KPOINT_BSE">    -1     0     0     0</v>
  <i type="int" name="NELM">    40</i>
  <i type="logical" name="LDAU"> T  </i>
  <v type="int" name="LDAUTYPE">     2</v>
  <v type="int" name="LDAUL">     0     2     2     0</v>
  <v name="LDAUU">      0.00000000      3.00000000      5.00000000      0.00000000</v>
  <v name="LDAUJ">      0.00000000      0.00000000      0.00000000      0.00000000</v>
  <i type="int" name="LDAUPRINT">     1</i>
 </incar>
 <kpoints>
  <generation param="Monkhorst-Pack">
   <v type="int" name="divisions">       2        2        2 </v>
   <v name="usershift">      0.00000000       0.00000000       0.00000000 </v>
   <v name="genvec1">      0.50000000       0.00000000      -0.00000000 </v>
   <v name="genvec2">     -0.00000000       0.50000000       0.00000000 </v>
   <v name="genvec3">      0.00000000       0.00000000       0.50000000 </v>
   <v name="shift">      0.50000000       0.50000000       0.50000000 </v>
  </generation>
  <varray name="kpointlist" >
   <v>       0.25000000       0.25000000       0.25000000 </v>
   <v>      -0.25000000       0.25000000       0.25000000 </v>
   <v>       0.25000000      -0.25000000       0.25000000 </v>
   <v>      -0.25000000      -0.25000000       0.25000000 </v>
  </varray>
  <varray name="weights" >
   <v>       0.25000000 </v>
   <v>       0.25000000 </v>
   <v>       0.25000000 </v>
   <v>       0.25000000 </v>
  </varray>
 </kpoints>
 <parameters>
  <separator name="general" >
   <i type="string" name="SYSTEM">STF</i>
   <i type="logical" name="LCOMPAT"> F  </i>
  </separator>
  <separator name="electronic" >
   <i type="string" name="PREC">normal</i>
   <i name="ENMAX">    520.00000000</i>
   <i name="ENAUG">    605.39200000</i>
   <i name="EDIFF">      0.00010000</i>
   <i type="int" name="IALGO">    68</i>
   <i type="int" name="IWAVPR">    11</i>
   <i type="int" name="NBANDS">   768</i>
   <i name="NELECT">   1040.00000000</i>
   <i type="int" name="TURBO">     0</i>
   <i type="int" name="IRESTART">     0</i>
   <i type="int" name="NREBOOT">     0</i>
   <i type="int" name="NMIN">     0</i>
   <i name="EREF">      0.00000000</i>
   <separator name="electronic smearing" >
    <i type="int" name="ISMEAR">     0</i>
    <i name="SIGMA">      0.05000000</i>
    <i name="KSPACING">      0.50000000</i>
    <i type="logical" name="KGAMMA"> T  </i>
   </separator>
   <separator name="electronic projectors" >
    <i type="logical" name="LREAL"> T  </i>
    <v name="ROPT">     -0.00050000     -0.00050000     -0.00050000     -0.00050000</v>
    <i type="int" name="LMAXPAW">  -100</i>
    <i type="int" name="LMAXMIX">     4</i>
    <i type="logical" name="NLSPLINE"> F  </i>
   </separator>
   <separator name="electronic startup" >
    <i type="int" name="ISTART">     1</i>
    <i type="int" name="ICHARG">     0</i>
    <i type="int" name="INIWAV">     1</i>
   </separator>
   <separator name="electronic spin" >
    <i type="int" name="ISPIN">     2</i>
    <i type="logical" name="LNONCOLLINEAR"> F  </i>
    <v name="MAGMOM">      0.60000000      0.60000000      0.60000000      0.60000000      0.60000000      0.60000000      0.60000000      0.60000000      0.60000000      0.60000000      0.60000000      0.60000000      0.60000000      0.60000000      0.60000000      0.60000000      0.60000000      0.60000000      0.60000000      0.60000000
      0.60000000      0.60000000      0.60000000      0.60000000      0.60000000      0.60000000      0.60000000      0.60000000      0.60000000      0.60000000      0.60000000      0.60000000      0.60000000      0.60000000      0.60000000      0.60000000      0.60000000      0.60000000      0.60000000      0.60000000
      0.60000000      0.60000000      0.60000000      0.60000000      0.60000000      0.60000000      0.60000000      0.60000000      5.00000000      5.00000000      5.00000000      5.00000000      5.00000000      5.00000000      5.00000000      5.00000000      5.00000000      5.00000000      5.00000000      5.00000000
      5.00000000      5.00000000      5.00000000      5.00000000      0.60000000      0.60000000      0.60000000      0.60000000      0.60000000      0.60000000      0.60000000      0.60000000      0.60000000      0.60000000      0.60000000      0.60000000      0.60000000      0.60000000      0.60000000      0.60000000
      0.60000000      0.60000000      0.60000000      0.60000000      0.60000000      0.60000000      0.60000000      0.60000000      0.60000000      0.60000000      0.60000000      0.60000000      0.60000000      0.60000000      0.60000000      0.60000000      0.60000000      0.60000000      0.60000000      0.60000000
      0.60000000      0.60000000      0.60000000      0.60000000      0.60000000      0.60000000      0.60000000      0.60000000      0.60000000      0.60000000      0.60000000      0.60000000      0.60000000      0.60000000      0.60000000      0.60000000      0.60000000      0.60000000      0.60000000      0.60000000
      0.60000000      0.60000000      0.60000000      0.60000000      0.60000000      0.60000000      0.60000000      0.60000000      0.60000000      0.60000000      0.60000000      0.60000000      0.60000000      0.60000000      0.60000000      0.60000000      0.60000000      0.60000000      0.60000000      0.60000000
      0.60000000      0.60000000      0.60000000      0.60000000      0.60000000      0.60000000      0.60000000      0.60000000      0.60000000      0.60000000      0.60000000      0.60000000</v>
    <i name="NUPDOWN">     -1.00000000</i>
    <i type="logical" name="LSORBIT"> F  </i>
    <v name="SAXIS">      0.00000000      0.00000000      1.00000000</v>
    <i type="logical" name="LSPIRAL"> F  </i>
    <v name="QSPIRAL">      0.00000000      0.00000000      0.00000000</v>
    <i type="logical" name="LZEROZ"> F  </i>
   </separator>
   <separator name="electronic exchange-correlation" >
    <i type="logical" name="LASPH"> F  </i>
    <i type="logical" name="LMETAGGA"> F  </i>
   </separator>
   <separator name="electronic convergence" >
    <i type="int" name="NELM">    40</i>
    <i type="int" name="NELMDL">     0</i>
    <i type="int" name="NELMIN">     8</i>
    <i name="ENINI">    520.00000000</i>
    <separator name="electronic convergence detail" >
     <i type="logical" name="LDIAG"> T  </i>
     <i type="logical" name="LSUBROT"> F  </i>
     <i name="WEIMIN">      0.00100000</i>
     <i name="EBREAK">      0.00000003</i>
     <i name="DEPER">      0.30000000</i>
     <i type="int" name="NRMM">     4</i>
     <i name="TIME">      0.40000000</i>
    </separator>
   </separator>
   <separator name="electronic mixer" >
    <i name="AMIX">      0.40000000</i>
    <i name="BMIX">      1.00000000</i>
    <i name="AMIN">      0.10000000</i>
    <i name="AMIX_MAG">      1.60000000</i>
    <i name="BMIX_MAG">      1.00000000</i>
    <separator name="electronic mixer details" >
     <i type="int" name="IMIX">     4</i>
     <i type="logical" name="MIXFIRST"> F  </i>
     <i type="int" name="MAXMIX">   -45</i>
     <i name="WC">    100.00000000</i>
     <i type="int" name="INIMIX">     1</i>
     <i type="int" name="MIXPRE">     1</i>
     <i type="int" name="MREMOVE">     5</i>
    </separator>
   </separator>
   <separator name="electronic dipolcorrection" >
    <i type="logical" name="LDIPOL"> F  </i>
    <i type="logical" name="LMONO"> F  </i>
    <i type="int" name="IDIPOL">     0</i>
    <i name="EPSILON">      1.00000000</i>
    <v name="DIPOL">   -100.00000000   -100.00000000   -100.00000000</v>
    <i name="EFIELD">      0.00000000</i>
   </separator>
  </separator>
  <separator name="grids" >
   <i type="int" name="NGX">    64</i>
   <i type="int" name="NGY">    64</i>
   <i type="int" name="NGZ">    90</i>
   <i type="int" name="NGXF">   128</i>
   <i type="int" name="NGYF">   128</i>
   <i type="int" name="NGZF">   180</i>
   <i type="logical" name="ADDGRID"> F  </i>
  </separator>
  <separator name="ionic" >
   <i type="int" name="NSW">    30</i>
   <i type="int" name="IBRION">     2</i>
   <i type="int" name="ISIF">     3</i>
   <i name="PSTRESS">      0.00000000</i>
   <i name="EDIFFG">     -0.03000000</i>
   <i type="int" name="NFREE">     1</i>
   <i name="POTIM">      0.50000000</i>
   <i name="SMASS">     -3.00000000</i>
   <i name="SCALEE">      1.00000000</i>
  </separator>
  <separator name="ionic md" >
   <i name="TEBEG">      0.00010000</i>
   <i name="TEEND">      0.00010000</i>
   <i type="int" name="NBLOCK">     1</i>
   <i type="int" name="KBLOCK">    30</i>
   <i type="int" name="NPACO">   256</i>
   <i name="APACO">     16.00000000</i>
  </separator>
  <separator name="symmetry" >
   <i type="int" name="ISYM">     2</i>
   <i name="SYMPREC">      0.00001000</i>
  </separator>
  <separator name="dos" >
   <i type="logical" name="LORBIT"> F  </i>
   <v name="RWIGS">     -1.00000000     -1.00000000     -1.00000000     -1.00000000</v>
   <i type="int" name="NEDOS">   301</i>
   <i name="EMIN">     10.00000000</i>
   <i name="EMAX">    -10.00000000</i>
   <i name="EFERMI">      0.00000000</i>
  </separator>
  <separator name="writing" >
   <i type="int" name="NWRITE">     2</i>
   <i type="logical" name="LWAVE"> T  </i>
   <i type="logical" name="LCHARG"> T  </i>
   <i type="logical" name="LPARD"> F  </i>
   <i type="logical" name="LVTOT"> F  </i>
   <i type="logical" name="LVHAR"> F  </i>
   <i type="logical" name="LELF"> F  </i>
   <i type="logical" name="LOPTICS"> F  </i>
   <v name="STM">      0.00000000      0.00000000      0.00000000      0.00000000      0.00000000      0.00000000      0.00000000</v>
  </separator>
  <separator name="performance" >
   <i type="int" name="NPAR">     2</i>
   <i type="int" name="NSIM">     4</i>
   <i type="int" name="NBLK">    -1</i>
   <i type="logical" name="LPLANE"> T  </i>
   <i type="logical" name="LSCALAPACK"> T  </i>
   <i type="logical" name="LSCAAWARE"> F  </i>
   <i type="logical" name="LSCALU"> F  </i>
   <i type="logical" name="LASYNC"> F  </i>
   <i type="logical" name="LORBITALREAL"> F  </i>
  </separator>
  <separator name="miscellaneous" >
   <i type="int" name="IDIOT">     3</i>
   <i type="logical" name="LMUSIC"> F  </i>
   <v name="POMASS">     87.62000000     47.88000000     55.84700000     16.00000000</v>
   <v name="DARWINR">      0.00000000      0.00000000      0.00000000      0.00000000</v>
   <v name="DARWINV">      1.00000000      1.00000000      1.00000000      1.00000000</v>
   <i type="logical" name="LCORR"> T  </i>
  </separator>
  <i type="logical" name="GGA_COMPAT"> T  </i>
  <i type="logical" name="LBERRY"> F  </i>
  <i type="int" name="ICORELEVEL">     0</i>
  <i type="logical" name="LDAU"> T  </i>
  <v type="int" name="LDAUTYPE">     2</v>
  <v type="int" name="LDAUL">     0</v>
  <v name="LDAUU">      0.00000000</v>
  <v name="LDAUJ">      0.00000000</v>
  <i type="int" name="LDAUPRINT">     1</i>
  <i type="int" name="I_CONSTRAINED_M">     0</i>
  <separator name="electronic exchange-correlation" >
   <i type="string" name="GGA">--</i>
   <i type="int" name="VOSKOWN">     0</i>
   <i type="logical" name="LHFCALC"> F  </i>
   <i type="string" name="PRECFOCK"></i>
   <i type="logical" name="LSYMGRAD"> F  </i>
   <i type="logical" name="LHFONE"> F  </i>
   <i type="logical" name="LRHFCALC"> F  </i>
   <i type="logical" name="LTHOMAS"> F  </i>
   <i type="logical" name="LMODELHF"> F  </i>
   <i name="ENCUT4O">     -1.00000000</i>
   <i type="int" name="EXXOEP">     0</i>
   <i type="int" name="FOURORBIT">     0</i>
   <i name="AEXX">      0.00000000</i>
   <i name="HFALPHA">      0.00000000</i>
   <i name="MCALPHA">      0.00000000</i>
   <i name="ALDAX">      1.00000000</i>
   <i name="AGGAX">      1.00000000</i>
   <i name="ALDAC">      1.00000000</i>
   <i name="AGGAC">      1.00000000</i>
   <i type="int" name="NKREDX">     1</i>
   <i type="int" name="NKREDY">     1</i>
   <i type="int" name="NKREDZ">     1</i>
   <i type="logical" name="SHIFTRED"> F  </i>
   <i type="logical" name="ODDONLY"> F  </i>
   <i type="logical" name="EVENONLY"> F  </i>
   <i type="int" name="LMAXFOCK">     0</i>
   <i type="int" name="NMAXFOCKAE">     0</i>
   <i type="logical" name="LFOCKAEDFT"> F  </i>
   <i name="HFSCREEN">      0.00000000</i>
   <i name="HFSCREENC">      0.00000000</i>
   <i type="int" name="NBANDSGWLOW">     0</i>
  </separator>
  <separator name="vdW DFT" >
   <i type="logical" name="LUSE_VDW"> F  </i>
   <i name="Zab_VDW">     -0.84910000</i>
   <i name="PARAM1">      0.12340000</i>
   <i name="PARAM2">      1.00000000</i>
   <i name="PARAM3">      0.00000000</i>
  </separator>
  <separator name="model GW" >
   <i type="int" name="MODEL_GW">     0</i>
   <i name="MODEL_EPS0">      7.97437231</i>
   <i name="MODEL_ALPHA">      1.00000000</i>
  </separator>
  <separator name="linear response parameters" >
   <i type="logical" name="LEPSILON"> F  </i>
   <i type="logical" name="LRPA"> F  </i>
   <i type="logical" name="LNABLA"> F  </i>
   <i type="logical" name="LVEL"> F  </i>
   <i type="int" name="KINTER">     0</i>
   <i name="CSHIFT">      0.10000000</i>
   <i name="OMEGAMAX">     -1.00000000</i>
   <i name="DEG_THRESHOLD">      0.00200000</i>
  </separator>
  <separator name="orbital magnetization" >
   <i type="logical" name="NUCIND"> F  </i>
   <v name="MAGPOS">      0.00000000      0.00000000      0.00000000</v>
   <i type="logical" name="LNICSALL"> T  </i>
   <i type="logical" name="ORBITALMAG"> F  </i>
   <i type="logical" name="LMAGBLOCH"> F  </i>
   <i type="logical" name="LCHIMAG"> F  </i>
   <i type="logical" name="LGAUGE"> T  </i>
   <i type="int" name="MAGATOM">     0</i>
   <v name="MAGDIPOL">      0.00000000      0.00000000      0.00000000</v>
   <v name="AVECCONST">      0.00000000      0.00000000      0.00000000</v>
  </separator>
  <separator name="response functions" >
   <i type="logical" name="LADDER"> F  </i>
   <i type="logical" name="LFXC"> F  </i>
   <i type="logical" name="LHARTREE"> T  </i>
   <i type="int" name="IBSE">     0</i>
   <v type="int" name="KPOINT">    -1     0     0     0</v>
   <i type="logical" name="LTCTE"> F  </i>
   <i type="logical" name="LTETE"> F  </i>
   <i type="logical" name="LTRIPLET"> F  </i>
   <i type="logical" name="LFXCEPS"> F  </i>
   <i type="logical" name="LFXHEG"> F  </i>
   <i type="int" name="NATURALO">     0</i>
   <i type="logical" name="L2ORDER"> F  </i>
   <i type="logical" name="LUSEW"> F  </i>
   <i name="ENCUTGW">     -2.00000000</i>
   <i name="ENCUTGWSOFT">     -2.00000000</i>
   <i name="ENCUTLF">     -1.00000000</i>
   <i type="int" name="LMAXMP2">    -1</i>
   <i name="SCISSOR">      0.00000000</i>
   <i type="int" name="NOMEGA">     0</i>
   <i type="int" name="NOMEGAR">     0</i>
   <i type="int" name="NBANDSGW">    -1</i>
   <i type="int" name="NBANDSO">    -1</i>
   <i type="int" name="NBANDSV">    -1</i>
   <i type="int" name="NELM">    40</i>
   <i type="int" name="NELMHF">     1</i>
   <i type="int" name="DIM">     3</i>
   <i type="int" name="ANTIRES">     0</i>
   <i name="OMEGAMAX">    -30.00000000</i>
   <i name="OMEGAMIN">    -30.00000000</i>
   <i name="OMEGATL">   -200.00000000</i>
   <i type="int" name="OMEGAGRID">     0</i>
   <i name="CSHIFT">     -0.10000000</i>
   <i type="logical" name="SELFENERGY"> F  </i>
   <i type="logical" name="LSPECTRAL"> F  </i>
   <i type="logical" name="LSPECTRALGW"> F  </i>
   <i type="logical" name="LSINGLES"> F  </i>
   <i type="logical" name="LFERMIGW"> F  </i>
   <i type="logical" name="ODDONLYGW"> F  </i>
   <i type="logical" name="EVENONLYGW"> F  </i>
   <i type="int" name="NKREDLFX">     1</i>
   <i type="int" name="NKREDLFY">     1</i>
   <i type="int" name="NKREDLFZ">     1</i>
   <i type="int" name="MAXMEM">  1800</i>
   <i type="int" name="TELESCOPE">     0</i>
   <i type="int" name="TAUPAR">     1</i>
   <i type="int" name="OMEGAPAR">    -1</i>
   <i name="LAMBDA">      1.00000000</i>
  </separator>
  <separator name="External order field" >
   <i name="OFIELD_KAPPA">      0.00000000</i>
   <v name="OFIELD_K">      0.00000000      0.00000000      0.00000000</v>
   <i name="OFIELD_Q6_NEAR">      0.00000000</i>
   <i name="OFIELD_Q6_FAR">      0.00000000</i>
   <i name="OFIELD_A">      0.00000000</i>
  </separator>
 </parameters>
 <atominfo>
  <atoms>     152 </atoms>
  <types>       4 </types>
  <array name="atoms" >
   <dimension dim="1">ion</dimension>
   <field type="string">element</field>
   <field type="int">atomtype</field>
   <set>
    <rc><c>Sr</c><c>   1</c></rc>
    <rc><c>Sr</c><c>   1</c></rc>
    <rc><c>Sr</c><c>   1</c></rc>
    <rc><c>Sr</c><c>   1</c></rc>
    <rc><c>Sr</c><c>   1</c></rc>
    <rc><c>Sr</c><c>   1</c></rc>
    <rc><c>Sr</c><c>   1</c></rc>
    <rc><c>Sr</c><c>   1</c></rc>
    <rc><c>Sr</c><c>   1</c></rc>
    <rc><c>Sr</c><c>   1</c></rc>
    <rc><c>Sr</c><c>   1</c></rc>
    <rc><c>Sr</c><c>   1</c></rc>
    <rc><c>Sr</c><c>   1</c></rc>
    <rc><c>Sr</c><c>   1</c></rc>
    <rc><c>Sr</c><c>   1</c></rc>
    <rc><c>Sr</c><c>   1</c></rc>
    <rc><c>Sr</c><c>   1</c></rc>
    <rc><c>Sr</c><c>   1</c></rc>
    <rc><c>Sr</c><c>   1</c></rc>
    <rc><c>Sr</c><c>   1</c></rc>
    <rc><c>Sr</c><c>   1</c></rc>
    <rc><c>Sr</c><c>   1</c></rc>
    <rc><c>Sr</c><c>   1</c></rc>
    <rc><c>Sr</c><c>   1</c></rc>
    <rc><c>Sr</c><c>   1</c></rc>
    <rc><c>Sr</c><c>   1</c></rc>
    <rc><c>Sr</c><c>   1</c></rc>
    <rc><c>Sr</c><c>   1</c></rc>
    <rc><c>Sr</c><c>   1</c></rc>
    <rc><c>Sr</c><c>   1</c></rc>
    <rc><c>Sr</c><c>   1</c></rc>
    <rc><c>Sr</c><c>   1</c></rc>
    <rc><c>Ti</c><c>   2</c></rc>
    <rc><c>Ti</c><c>   2</c></rc>
    <rc><c>Ti</c><c>   2</c></rc>
    <rc><c>Ti</c><c>   2</c></rc>
    <rc><c>Ti</c><c>   2</c></rc>
    <rc><c>Ti</c><c>   2</c></rc>
    <rc><c>Ti</c><c>   2</c></rc>
    <rc><c>Ti</c><c>   2</c></rc>
    <rc><c>Ti</c><c>   2</c></rc>
    <rc><c>Ti</c><c>   2</c></rc>
    <rc><c>Ti</c><c>   2</c></rc>
    <rc><c>Ti</c><c>   2</c></rc>
    <rc><c>Ti</c><c>   2</c></rc>
    <rc><c>Ti</c><c>   2</c></rc>
    <rc><c>Ti</c><c>   2</c></rc>
    <rc><c>Ti</c><c>   2</c></rc>
    <rc><c>Fe</c><c>   3</c></rc>
    <rc><c>Fe</c><c>   3</c></rc>
    <rc><c>Fe</c><c>   3</c></rc>
    <rc><c>Fe</c><c>   3</c></rc>
    <rc><c>Fe</c><c>   3</c></rc>
    <rc><c>Fe</c><c>   3</c></rc>
    <rc><c>Fe</c><c>   3</c></rc>
    <rc><c>Fe</c><c>   3</c></rc>
    <rc><c>Fe</c><c>   3</c></rc>
    <rc><c>Fe</c><c>   3</c></rc>
    <rc><c>Fe</c><c>   3</c></rc>
    <rc><c>Fe</c><c>   3</c></rc>
    <rc><c>Fe</c><c>   3</c></rc>
    <rc><c>Fe</c><c>   3</c></rc>
    <rc><c>Fe</c><c>   3</c></rc>
    <rc><c>Fe</c><c>   3</c></rc>
    <rc><c>O </c><c>   4</c></rc>
    <rc><c>O </c><c>   4</c></rc>
    <rc><c>O </c><c>   4</c></rc>
    <rc><c>O </c><c>   4</c></rc>
    <rc><c>O </c><c>   4</c></rc>
    <rc><c>O </c><c>   4</c></rc>
    <rc><c>O </c><c>   4</c></rc>
    <rc><c>O </c><c>   4</c></rc>
    <rc><c>O </c><c>   4</c></rc>
    <rc><c>O </c><c>   4</c></rc>
    <rc><c>O </c><c>   4</c></rc>
    <rc><c>O </c><c>   4</c></rc>
    <rc><c>O </c><c>   4</c></rc>
    <rc><c>O </c><c>   4</c></rc>
    <rc><c>O </c><c>   4</c></rc>
    <rc><c>O </c><c>   4</c></rc>
    <rc><c>O </c><c>   4</c></rc>
    <rc><c>O </c><c>   4</c></rc>
    <rc><c>O </c><c>   4</c></rc>
    <rc><c>O </c><c>   4</c></rc>
    <rc><c>O </c><c>   4</c></rc>
    <rc><c>O </c><c>   4</c></rc>
    <rc><c>O </c><c>   4</c></rc>
    <rc><c>O </c><c>   4</c></rc>
    <rc><c>O </c><c>   4</c></rc>
    <rc><c>O </c><c>   4</c></rc>
    <rc><c>O </c><c>   4</c></rc>
    <rc><c>O </c><c>   4</c></rc>
    <rc><c>O </c><c>   4</c></rc>
    <rc><c>O </c><c>   4</c></rc>
    <rc><c>O </c><c>   4</c></rc>
    <rc><c>O </c><c>   4</c></rc>
    <rc><c>O </c><c>   4</c></rc>
    <rc><c>O </c><c>   4</c></rc>
    <rc><c>O </c><c>   4</c></rc>
    <rc><c>O </c><c>   4</c></rc>
    <rc><c>O </c><c>   4</c></rc>
    <rc><c>O </c><c>   4</c></rc>
    <rc><c>O </c><c>   4</c></rc>
    <rc><c>O </c><c>   4</c></rc>
    <rc><c>O </c><c>   4</c></rc>
    <rc><c>O </c><c>   4</c></rc>
    <rc><c>O </c><c>   4</c></rc>
    <rc><c>O </c><c>   4</c></rc>
    <rc><c>O </c><c>   4</c></rc>
    <rc><c>O </c><c>   4</c></rc>
    <rc><c>O </c><c>   4</c></rc>
    <rc><c>O </c><c>   4</c></rc>
    <rc><c>O </c><c>   4</c></rc>
    <rc><c>O </c><c>   4</c></rc>
    <rc><c>O </c><c>   4</c></rc>
    <rc><c>O </c><c>   4</c></rc>
    <rc><c>O </c><c>   4</c></rc>
    <rc><c>O </c><c>   4</c></rc>
    <rc><c>O </c><c>   4</c></rc>
    <rc><c>O </c><c>   4</c></rc>
    <rc><c>O </c><c>   4</c></rc>
    <rc><c>O </c><c>   4</c></rc>
    <rc><c>O </c><c>   4</c></rc>
    <rc><c>O </c><c>   4</c></rc>
    <rc><c>O </c><c>   4</c></rc>
    <rc><c>O </c><c>   4</c></rc>
    <rc><c>O </c><c>   4</c></rc>
    <rc><c>O </c><c>   4</c></rc>
    <rc><c>O </c><c>   4</c></rc>
    <rc><c>O </c><c>   4</c></rc>
    <rc><c>O </c><c>   4</c></rc>
    <rc><c>O </c><c>   4</c></rc>
    <rc><c>O </c><c>   4</c></rc>
    <rc><c>O </c><c>   4</c></rc>
    <rc><c>O </c><c>   4</c></rc>
    <rc><c>O </c><c>   4</c></rc>
    <rc><c>O </c><c>   4</c></rc>
    <rc><c>O </c><c>   4</c></rc>
    <rc><c>O </c><c>   4</c></rc>
    <rc><c>O </c><c>   4</c></rc>
    <rc><c>O </c><c>   4</c></rc>
    <rc><c>O </c><c>   4</c></rc>
    <rc><c>O </c><c>   4</c></rc>
    <rc><c>O </c><c>   4</c></rc>
    <rc><c>O </c><c>   4</c></rc>
    <rc><c>O </c><c>   4</c></rc>
    <rc><c>O </c><c>   4</c></rc>
    <rc><c>O </c><c>   4</c></rc>
    <rc><c>O </c><c>   4</c></rc>
    <rc><c>O </c><c>   4</c></rc>
    <rc><c>O </c><c>   4</c></rc>
    <rc><c>O </c><c>   4</c></rc>
   </set>
  </array>
  <array name="atomtypes" >
   <dimension dim="1">type</dimension>
   <field type="int">atomspertype</field>
   <field type="string">element</field>
   <field>mass</field>
   <field>valence</field>
   <field type="string">pseudopotential</field>
   <set>
    <rc><c>  32</c><c>Sr</c><c>     87.62000000</c><c>     10.00000000</c><c>  PAW_PBE Sr_sv 07Sep2000               </c></rc>
    <rc><c>  16</c><c>Ti</c><c>     47.88000000</c><c>      4.00000000</c><c>  PAW_PBE Ti 08Apr2002                  </c></rc>
    <rc><c>  16</c><c>Fe</c><c>     55.84700000</c><c>      8.00000000</c><c>  PAW_PBE Fe 06Sep2000                  </c></rc>
    <rc><c>  88</c><c>O </c><c>     16.00000000</c><c>      6.00000000</c><c>  PAW_PBE O 08Apr2002                   </c></rc>
   </set>
  </array>
 </atominfo>
 <structure name="initialpos" >
  <crystal>
   <varray name="basis" >
    <v>      11.22871016       0.00205340       0.00691898 </v>
    <v>       0.00208812      11.35200628       0.00740090 </v>
    <v>       0.00994292       0.00978641      15.84844689 </v>
   </varray>
   <i name="volume">   2020.17431920 </i>
   <varray name="rec_basis" >
    <v>       0.08905746      -0.00001635      -0.00005586 </v>
    <v>      -0.00001608       0.08809019      -0.00005439 </v>
    <v>      -0.00003887      -0.00004113       0.06309772 </v>
   </varray>
  </crystal>
  <varray name="positions" >
   <v>       0.99906817       0.24117267       0.10903362 </v>
   <v>       0.99797863       0.24962090       0.63461226 </v>
   <v>       0.99906817       0.74117267       0.10903362 </v>
   <v>       0.99797863       0.74962090       0.63461226 </v>
   <v>       0.49906817       0.24117267       0.10903362 </v>
   <v>       0.49797863       0.24962090       0.63461226 </v>
   <v>       0.49906817       0.74117267       0.10903362 </v>
   <v>       0.49797863       0.74962090       0.63461226 </v>
   <v>       0.00005577       0.24168205       0.38829304 </v>
   <v>       0.99720682       0.24926869       0.87328200 </v>
   <v>       0.00005577       0.74168205       0.38829304 </v>
   <v>       0.99720682       0.74926869       0.87328200 </v>
   <v>       0.50005577       0.24168205       0.38829304 </v>
   <v>       0.49720682       0.24926869       0.87328200 </v>
   <v>       0.50005577       0.74168205       0.38829304 </v>
   <v>       0.49720682       0.74926869       0.87328200 </v>
   <v>       0.24831787       0.00888623       0.10910068 </v>
   <v>       0.24794584       0.00118065       0.63466610 </v>
   <v>       0.24831787       0.50888623       0.10910068 </v>
   <v>       0.24794584       0.50118065       0.63466610 </v>
   <v>       0.74831787       0.00888623       0.10910068 </v>
   <v>       0.74794584       0.00118065       0.63466610 </v>
   <v>       0.74831787       0.50888623       0.10910068 </v>
   <v>       0.74794584       0.50118065       0.63466610 </v>
   <v>       0.25027405       0.00917144       0.38832283 </v>
   <v>       0.24727931       0.00127953       0.87303342 </v>
   <v>       0.25027405       0.50917144       0.38832283 </v>
   <v>       0.24727931       0.50127953       0.87303342 </v>
   <v>       0.75027405       0.00917144       0.38832283 </v>
   <v>       0.74727931       0.00127953       0.87303342 </v>
   <v>       0.75027405       0.50917144       0.38832283 </v>
   <v>       0.74727931       0.50127953       0.87303342 </v>
   <v>       0.99635027       0.99830433       0.99822158 </v>
   <v>       0.24807356       0.75131994       0.50039317 </v>
   <v>       0.74807356       0.25131994       0.50039317 </v>
   <v>       0.49635027       0.99830433       0.99822158 </v>
   <v>       0.99635027       0.49830433       0.99822158 </v>
   <v>       0.49814562       0.49914261       0.50142685 </v>
   <v>       0.74775891       0.25279897       0.75375265 </v>
   <v>       0.99814562       0.49914261       0.50142685 </v>
   <v>       0.74807356       0.75131994       0.50039317 </v>
   <v>       0.24775891       0.75279897       0.75375265 </v>
   <v>       0.24775891       0.25279897       0.75375265 </v>
   <v>       0.74775891       0.75279897       0.75375265 </v>
   <v>       0.49635027       0.49830433       0.99822158 </v>
   <v>       0.49814562       0.99914261       0.50142685 </v>
   <v>       0.99814562       0.99914261       0.50142685 </v>
   <v>       0.24807356       0.25131994       0.50039317 </v>
   <v>       0.74639928       0.25074000       0.99917097 </v>
   <v>       0.26569440       0.78576419       0.25092544 </v>
   <v>       0.49766719       0.49834049       0.75147882 </v>
   <v>       0.74639928       0.75074000       0.99917097 </v>
   <v>       0.01586949       0.46451926       0.24972410 </v>
   <v>       0.49766719       0.99834049       0.75147882 </v>
   <v>       0.26569440       0.28576419       0.25092544 </v>
   <v>       0.99766719       0.49834049       0.75147882 </v>
   <v>       0.76569440       0.28576419       0.25092544 </v>
   <v>       0.24639928       0.75074000       0.99917097 </v>
   <v>       0.01586949       0.96451926       0.24972410 </v>
   <v>       0.99766719       0.99834049       0.75147882 </v>
   <v>       0.76569440       0.78576419       0.25092544 </v>
   <v>       0.24639928       0.25074000       0.99917097 </v>
   <v>       0.51586949       0.96451926       0.24972410 </v>
   <v>       0.51586949       0.46451926       0.24972410 </v>
   <v>       0.98678477       0.02257211       0.14089652 </v>
   <v>       0.99628483       0.98843672       0.61913771 </v>
   <v>       0.98678477       0.52257211       0.14089652 </v>
   <v>       0.99628483       0.48843672       0.61913771 </v>
   <v>       0.48678477       0.02257211       0.14089652 </v>
   <v>       0.49628483       0.98843672       0.61913771 </v>
   <v>       0.48678477       0.52257211       0.14089652 </v>
   <v>       0.49628483       0.48843672       0.61913771 </v>
   <v>       0.98853918       0.02321664       0.35897929 </v>
   <v>       0.99615499       0.98843543       0.87746771 </v>
   <v>       0.98853918       0.52321664       0.35897929 </v>
   <v>       0.99615499       0.48843543       0.87746771 </v>
   <v>       0.48853918       0.02321664       0.35897929 </v>
   <v>       0.49615499       0.98843543       0.87746771 </v>
   <v>       0.48853918       0.52321664       0.35897929 </v>
   <v>       0.49615499       0.48843543       0.87746771 </v>
   <v>       0.24020048       0.22904540       0.36179445 </v>
   <v>       0.24599421       0.25921071       0.87598324 </v>
   <v>       0.24020048       0.72904540       0.36179445 </v>
   <v>       0.24599421       0.75921071       0.87598324 </v>
   <v>       0.74020048       0.22904540       0.36179445 </v>
   <v>       0.74599421       0.25921071       0.87598324 </v>
   <v>       0.74020048       0.72904540       0.36179445 </v>
   <v>       0.74599421       0.75921071       0.87598324 </v>
   <v>       0.23364811       0.22333497       0.14553206 </v>
   <v>       0.24646001       0.26117888       0.61954908 </v>
   <v>       0.23364811       0.72333497       0.14553206 </v>
   <v>       0.24646001       0.76117888       0.61954908 </v>
   <v>       0.73364811       0.22333497       0.14553206 </v>
   <v>       0.74646001       0.26117888       0.61954908 </v>
   <v>       0.73364811       0.72333497       0.14553206 </v>
   <v>       0.74646001       0.76117888       0.61954908 </v>
   <v>       0.18510609       0.43481636       0.25059302 </v>
   <v>       0.43513315       0.31571474       0.25017951 </v>
   <v>       0.68510609       0.43481636       0.25059302 </v>
   <v>       0.93513315       0.31571474       0.25017951 </v>
   <v>       0.18510609       0.93481636       0.25059302 </v>
   <v>       0.43513315       0.81571474       0.25017951 </v>
   <v>       0.68510609       0.93481636       0.25059302 </v>
   <v>       0.93513315       0.81571474       0.25017951 </v>
   <v>       0.12549707       0.12192625       0.50058482 </v>
   <v>       0.37551673       0.12883617       0.50074350 </v>
   <v>       0.62549707       0.12192625       0.50058482 </v>
   <v>       0.87551673       0.12883617       0.50074350 </v>
   <v>       0.12086047       0.37407719       0.48544081 </v>
   <v>       0.37078649       0.37664625       0.48548279 </v>
   <v>       0.62086047       0.37407719       0.48544081 </v>
   <v>       0.87078649       0.37664625       0.48548279 </v>
   <v>       0.12549707       0.62192625       0.50058482 </v>
   <v>       0.37551673       0.62883617       0.50074350 </v>
   <v>       0.62549707       0.62192625       0.50058482 </v>
   <v>       0.87551673       0.62883617       0.50074350 </v>
   <v>       0.12086047       0.87407719       0.48544081 </v>
   <v>       0.37078649       0.87664625       0.48548279 </v>
   <v>       0.62086047       0.87407719       0.48544081 </v>
   <v>       0.87078649       0.87664625       0.48548279 </v>
   <v>       0.11613211       0.13351636       0.74803771 </v>
   <v>       0.36462797       0.11851649       0.74812368 </v>
   <v>       0.61613211       0.13351636       0.74803771 </v>
   <v>       0.86462797       0.11851649       0.74812368 </v>
   <v>       0.13236643       0.38363332       0.74788300 </v>
   <v>       0.38117590       0.36514216       0.74800207 </v>
   <v>       0.63236643       0.38363332       0.74788300 </v>
   <v>       0.88117590       0.36514216       0.74800207 </v>
   <v>       0.11613211       0.63351636       0.74803771 </v>
   <v>       0.36462797       0.61851649       0.74812368 </v>
   <v>       0.61613211       0.63351636       0.74803771 </v>
   <v>       0.86462797       0.61851649       0.74812368 </v>
   <v>       0.13236643       0.88363332       0.74788300 </v>
   <v>       0.38117590       0.86514216       0.74800207 </v>
   <v>       0.63236643       0.88363332       0.74788300 </v>
   <v>       0.88117590       0.86514216       0.74800207 </v>
   <v>       0.12210553       0.12183768       0.99776824 </v>
   <v>       0.37349031       0.12595024       0.99788856 </v>
   <v>       0.62210553       0.12183768       0.99776824 </v>
   <v>       0.87349031       0.12595024       0.99788856 </v>
   <v>       0.12005692       0.37508951       0.01240461 </v>
   <v>       0.37099309       0.37567447       0.01209009 </v>
   <v>       0.62005692       0.37508951       0.01240461 </v>
   <v>       0.87099309       0.37567447       0.01209009 </v>
   <v>       0.12210553       0.62183768       0.99776824 </v>
   <v>       0.37349031       0.62595024       0.99788856 </v>
   <v>       0.62210553       0.62183768       0.99776824 </v>
   <v>       0.87349031       0.62595024       0.99788856 </v>
   <v>       0.12005692       0.87508951       0.01240461 </v>
   <v>       0.37099309       0.87567447       0.01209009 </v>
   <v>       0.62005692       0.87508951       0.01240461 </v>
   <v>       0.87099309       0.87567447       0.01209009 </v>
  </varray>
 </structure>
 <calculation>
  <scstep>
   <time name="dav">  303.01  303.01</time>
   <time name="total">  306.78  306.86</time>
   <energy>
    <i name="alphaZ">   5574.88400156 </i>
    <i name="ewald"> -61667.38671496 </i>
    <i name="hartreedc"> -17818.11347392 </i>
    <i name="XCdc">   3185.56734015 </i>
    <i name="pawpsdc"> 117995.35990370 </i>
    <i name="pawaedc">-117198.00814788 </i>
    <i name="eentropy">     -0.00000000 </i>
    <i name="bandstr">  -7181.65542721 </i>
    <i name="atom">  76050.17612637 </i>
    <i name="e_fr_energy">  -1059.17639218 </i>
    <i name="e_wo_entrp">  -1059.17639218 </i>
    <i name="e_0_energy">  -1059.17639218 </i>
   </energy>
  </scstep>
  <scstep>
   <time name="diag">   33.47   33.47</time>
   <time name="diis">   33.76   33.77</time>
   <time name="orth">   19.07   19.07</time>
   <time name="total">   90.07   90.17</time>
   <energy>
    <i name="e_fr_energy">  -1059.17639176 </i>
    <i name="e_wo_entrp">  -1059.17639176 </i>
    <i name="e_0_energy">  -1059.17639176 </i>
   </energy>
  </scstep>
  <scstep>
   <time name="diag">   33.49   33.49</time>
   <time name="diis">   31.57   31.58</time>
   <time name="orth">   19.11   19.11</time>
   <time name="total">   87.92   87.96</time>
   <energy>
    <i name="e_fr_energy">  -1059.17639168 </i>
    <i name="e_wo_entrp">  -1059.17639168 </i>
    <i name="e_0_energy">  -1059.17639168 </i>
   </energy>
  </scstep>
  <scstep>
   <time name="diag">   33.47   33.49</time>
   <time name="diis">   30.39   30.41</time>
   <time name="orth">   19.13   19.13</time>
   <time name="total">   86.75   86.91</time>
   <energy>
    <i name="e_fr_energy">  -1059.17639671 </i>
    <i name="e_wo_entrp">  -1059.17639671 </i>
    <i name="e_0_energy">  -1059.17639671 </i>
   </energy>
  </scstep>
  <scstep>
   <time name="diag">   33.50   33.50</time>
   <time name="diis">   30.16   30.16</time>
   <time name="orth">   19.12   19.12</time>
   <time name="total">   86.55   86.57</time>
   <energy>
    <i name="e_fr_energy">  -1059.17640013 </i>
    <i name="e_wo_entrp">  -1059.17640013 </i>
    <i name="e_0_energy">  -1059.17640013 </i>
   </energy>
  </scstep>
  <scstep>
   <time name="diag">   33.46   33.47</time>
   <time name="diis">   27.63   27.63</time>
   <time name="orth">   19.06   19.06</time>
   <time name="total">   83.92   83.96</time>
   <energy>
    <i name="e_fr_energy">  -1059.17640043 </i>
    <i name="e_wo_entrp">  -1059.17640043 </i>
    <i name="e_0_energy">  -1059.17640043 </i>
   </energy>
  </scstep>
  <scstep>
   <time name="diag">   33.47   33.51</time>
   <time name="diis">   25.69   25.71</time>
   <time name="orth">   19.13   19.12</time>
   <time name="total">   82.06   82.24</time>
   <energy>
    <i name="e_fr_energy">  -1059.17640044 </i>
    <i name="e_wo_entrp">  -1059.17640044 </i>
    <i name="e_0_energy">  -1059.17640044 </i>
   </energy>
  </scstep>
  <scstep>
   <time name="diag">   33.51   33.53</time>
   <time name="diis">   24.68   24.68</time>
   <time name="orth">   19.11   19.10</time>
   <time name="total">   77.88   77.93</time>
   <energy>
    <i name="alphaZ">   5574.88400156 </i>
    <i name="ewald"> -61667.38671496 </i>
    <i name="hartreedc"> -17818.06513492 </i>
    <i name="XCdc">   3185.56242587 </i>
    <i name="pawpsdc"> 117983.72330126 </i>
    <i name="pawaedc">-117186.37133387 </i>
    <i name="eentropy">     -0.00000000 </i>
    <i name="bandstr">  -7181.69907176 </i>
    <i name="atom">  76050.17612637 </i>
    <i name="e_fr_energy">  -1059.17640045 </i>
    <i name="e_wo_entrp">  -1059.17640045 </i>
    <i name="e_0_energy">  -1059.17640045 </i>
   </energy>
  </scstep>
  <structure>
   <crystal>
    <varray name="basis" >
     <v>      11.22871016       0.00205340       0.00691898 </v>
     <v>       0.00208812      11.35200628       0.00740090 </v>
     <v>       0.00994292       0.00978641      15.84844689 </v>
    </varray>
    <i name="volume">   2020.17431920 </i>
    <varray name="rec_basis" >
     <v>       0.08905746      -0.00001635      -0.00005586 </v>
     <v>      -0.00001608       0.08809019      -0.00005439 </v>
     <v>      -0.00003887      -0.00004113       0.06309772 </v>
    </varray>
   </crystal>
   <varray name="positions" >
    <v>       0.99906817       0.24117267       0.10903362 </v>
    <v>       0.99797863       0.24962090       0.63461226 </v>
    <v>       0.99906817       0.74117267       0.10903362 </v>
    <v>       0.99797863       0.74962090       0.63461226 </v>
    <v>       0.49906817       0.24117267       0.10903362 </v>
    <v>       0.49797863       0.24962090       0.63461226 </v>
    <v>       0.49906817       0.74117267       0.10903362 </v>
    <v>       0.49797863       0.74962090       0.63461226 </v>
    <v>       0.00005577       0.24168205       0.38829304 </v>
    <v>       0.99720682       0.24926869       0.87328200 </v>
    <v>       0.00005577       0.74168205       0.38829304 </v>
    <v>       0.99720682       0.74926869       0.87328200 </v>
    <v>       0.50005577       0.24168205       0.38829304 </v>
    <v>       0.49720682       0.24926869       0.87328200 </v>
    <v>       0.50005577       0.74168205       0.38829304 </v>
    <v>       0.49720682       0.74926869       0.87328200 </v>
    <v>       0.24831787       0.00888623       0.10910068 </v>
    <v>       0.24794584       0.00118065       0.63466610 </v>
    <v>       0.24831787       0.50888623       0.10910068 </v>
    <v>       0.24794584       0.50118065       0.63466610 </v>
    <v>       0.74831787       0.00888623       0.10910068 </v>
    <v>       0.74794584       0.00118065       0.63466610 </v>
    <v>       0.74831787       0.50888623       0.10910068 </v>
    <v>       0.74794584       0.50118065       0.63466610 </v>
    <v>       0.25027405       0.00917144       0.38832283 </v>
    <v>       0.24727931       0.00127953       0.87303342 </v>
    <v>       0.25027405       0.50917144       0.38832283 </v>
    <v>       0.24727931       0.50127953       0.87303342 </v>
    <v>       0.75027405       0.00917144       0.38832283 </v>
    <v>       0.74727931       0.00127953       0.87303342 </v>
    <v>       0.75027405       0.50917144       0.38832283 </v>
    <v>       0.74727931       0.50127953       0.87303342 </v>
    <v>       0.99635027       0.99830433       0.99822158 </v>
    <v>       0.24807356       0.75131994       0.50039317 </v>
    <v>       0.74807356       0.25131994       0.50039317 </v>
    <v>       0.49635027       0.99830433       0.99822158 </v>
    <v>       0.99635027       0.49830433       0.99822158 </v>
    <v>       0.49814562       0.49914261       0.50142685 </v>
    <v>       0.74775891       0.25279897       0.75375265 </v>
    <v>       0.99814562       0.49914261       0.50142685 </v>
    <v>       0.74807356       0.75131994       0.50039317 </v>
    <v>       0.24775891       0.75279897       0.75375265 </v>
    <v>       0.24775891       0.25279897       0.75375265 </v>
    <v>       0.74775891       0.75279897       0.75375265 </v>
    <v>       0.49635027       0.49830433       0.99822158 </v>
    <v>       0.49814562       0.99914261       0.50142685 </v>
    <v>       0.99814562       0.99914261       0.50142685 </v>
    <v>       0.24807356       0.25131994       0.50039317 </v>
    <v>       0.74639928       0.25074000       0.99917097 </v>
    <v>       0.26569440       0.78576419       0.25092544 </v>
    <v>       0.49766719       0.49834049       0.75147882 </v>
    <v>       0.74639928       0.75074000       0.99917097 </v>
    <v>       0.01586949       0.46451926       0.24972410 </v>
    <v>       0.49766719       0.99834049       0.75147882 </v>
    <v>       0.26569440       0.28576419       0.25092544 </v>
    <v>       0.99766719       0.49834049       0.75147882 </v>
    <v>       0.76569440       0.28576419       0.25092544 </v>
    <v>       0.24639928       0.75074000       0.99917097 </v>
    <v>       0.01586949       0.96451926       0.24972410 </v>
    <v>       0.99766719       0.99834049       0.75147882 </v>
    <v>       0.76569440       0.78576419       0.25092544 </v>
    <v>       0.24639928       0.25074000       0.99917097 </v>
    <v>       0.51586949       0.96451926       0.24972410 </v>
    <v>       0.51586949       0.46451926       0.24972410 </v>
    <v>       0.98678477       0.02257211       0.14089652 </v>
    <v>       0.99628483       0.98843672       0.61913771 </v>
    <v>       0.98678477       0.52257211       0.14089652 </v>
    <v>       0.99628483       0.48843672       0.61913771 </v>
    <v>       0.48678477       0.02257211       0.14089652 </v>
    <v>       0.49628483       0.98843672       0.61913771 </v>
    <v>       0.48678477       0.52257211       0.14089652 </v>
    <v>       0.49628483       0.48843672       0.61913771 </v>
    <v>       0.98853918       0.02321664       0.35897929 </v>
    <v>       0.99615499       0.98843543       0.87746771 </v>
    <v>       0.98853918       0.52321664       0.35897929 </v>
    <v>       0.99615499       0.48843543       0.87746771 </v>
    <v>       0.48853918       0.02321664       0.35897929 </v>
    <v>       0.49615499       0.98843543       0.87746771 </v>
    <v>       0.48853918       0.52321664       0.35897929 </v>
    <v>       0.49615499       0.48843543       0.87746771 </v>
    <v>       0.24020048       0.22904540       0.36179445 </v>
    <v>       0.24599421       0.25921071       0.87598324 </v>
    <v>       0.24020048       0.72904540       0.36179445 </v>
    <v>       0.24599421       0.75921071       0.87598324 </v>
    <v>       0.74020048       0.22904540       0.36179445 </v>
    <v>       0.74599421       0.25921071       0.87598324 </v>
    <v>       0.74020048       0.72904540       0.36179445 </v>
    <v>       0.74599421       0.75921071       0.87598324 </v>
    <v>       0.23364811       0.22333497       0.14553206 </v>
    <v>       0.24646001       0.26117888       0.61954908 </v>
    <v>       0.23364811       0.72333497       0.14553206 </v>
    <v>       0.24646001       0.76117888       0.61954908 </v>
    <v>       0.73364811       0.22333497       0.14553206 </v>
    <v>       0.74646001       0.26117888       0.61954908 </v>
    <v>       0.73364811       0.72333497       0.14553206 </v>
    <v>       0.74646001       0.76117888       0.61954908 </v>
    <v>       0.18510609       0.43481636       0.25059302 </v>
    <v>       0.43513315       0.31571474       0.25017951 </v>
    <v>       0.68510609       0.43481636       0.25059302 </v>
    <v>       0.93513315       0.31571474       0.25017951 </v>
    <v>       0.18510609       0.93481636       0.25059302 </v>
    <v>       0.43513315       0.81571474       0.25017951 </v>
    <v>       0.68510609       0.93481636       0.25059302 </v>
    <v>       0.93513315       0.81571474       0.25017951 </v>
    <v>       0.12549707       0.12192625       0.50058482 </v>
    <v>       0.37551673       0.12883617       0.50074350 </v>
    <v>       0.62549707       0.12192625       0.50058482 </v>
    <v>       0.87551673       0.12883617       0.50074350 </v>
    <v>       0.12086047       0.37407719       0.48544081 </v>
    <v>       0.37078649       0.37664625       0.48548279 </v>
    <v>       0.62086047       0.37407719       0.48544081 </v>
    <v>       0.87078649       0.37664625       0.48548279 </v>
    <v>       0.12549707       0.62192625       0.50058482 </v>
    <v>       0.37551673       0.62883617       0.50074350 </v>
    <v>       0.62549707       0.62192625       0.50058482 </v>
    <v>       0.87551673       0.62883617       0.50074350 </v>
    <v>       0.12086047       0.87407719       0.48544081 </v>
    <v>       0.37078649       0.87664625       0.48548279 </v>
    <v>       0.62086047       0.87407719       0.48544081 </v>
    <v>       0.87078649       0.87664625       0.48548279 </v>
    <v>       0.11613211       0.13351636       0.74803771 </v>
    <v>       0.36462797       0.11851649       0.74812368 </v>
    <v>       0.61613211       0.13351636       0.74803771 </v>
    <v>       0.86462797       0.11851649       0.74812368 </v>
    <v>       0.13236643       0.38363332       0.74788300 </v>
    <v>       0.38117590       0.36514216       0.74800207 </v>
    <v>       0.63236643       0.38363332       0.74788300 </v>
    <v>       0.88117590       0.36514216       0.74800207 </v>
    <v>       0.11613211       0.63351636       0.74803771 </v>
    <v>       0.36462797       0.61851649       0.74812368 </v>
    <v>       0.61613211       0.63351636       0.74803771 </v>
    <v>       0.86462797       0.61851649       0.74812368 </v>
    <v>       0.13236643       0.88363332       0.74788300 </v>
    <v>       0.38117590       0.86514216       0.74800207 </v>
    <v>       0.63236643       0.88363332       0.74788300 </v>
    <v>       0.88117590       0.86514216       0.74800207 </v>
    <v>       0.12210553       0.12183768       0.99776824 </v>
    <v>       0.37349031       0.12595024       0.99788856 </v>
    <v>       0.62210553       0.12183768       0.99776824 </v>
    <v>       0.87349031       0.12595024       0.99788856 </v>
    <v>       0.12005692       0.37508951       0.01240461 </v>
    <v>       0.37099309       0.37567447       0.01209009 </v>
    <v>       0.62005692       0.37508951       0.01240461 </v>
    <v>       0.87099309       0.37567447       0.01209009 </v>
    <v>       0.12210553       0.62183768       0.99776824 </v>
    <v>       0.37349031       0.62595024       0.99788856 </v>
    <v>       0.62210553       0.62183768       0.99776824 </v>
    <v>       0.87349031       0.62595024       0.99788856 </v>
    <v>       0.12005692       0.87508951       0.01240461 </v>
    <v>       0.37099309       0.87567447       0.01209009 </v>
    <v>       0.62005692       0.87508951       0.01240461 </v>
    <v>       0.87099309       0.87567447       0.01209009 </v>
   </varray>
  </structure>
  <varray name="forces" >
   <v>      -0.02563876       0.01834973      -0.04874131 </v>
   <v>      -0.01237840       0.00380648      -0.00839604 </v>
   <v>      -0.02563876       0.01834973      -0.04874131 </v>
   <v>      -0.01237840       0.00380648      -0.00839604 </v>
   <v>      -0.02563876       0.01834973      -0.04874131 </v>
   <v>      -0.01237840       0.00380648      -0.00839604 </v>
   <v>      -0.02563876       0.01834973      -0.04874131 </v>
   <v>      -0.01237840       0.00380648      -0.00839604 </v>
   <v>      -0.02384092       0.00777150      -0.00158108 </v>
   <v>      -0.01801848       0.00493625       0.03389398 </v>
   <v>      -0.02384092       0.00777150      -0.00158108 </v>
   <v>      -0.01801848       0.00493625       0.03389398 </v>
   <v>      -0.02384092       0.00777150      -0.00158108 </v>
   <v>      -0.01801848       0.00493625       0.03389398 </v>
   <v>      -0.02384092       0.00777150      -0.00158108 </v>
   <v>      -0.01801848       0.00493625       0.03389398 </v>
   <v>      -0.02577234      -0.03318378      -0.06061027 </v>
   <v>      -0.00739258       0.00317963      -0.00237828 </v>
   <v>      -0.02577234      -0.03318378      -0.06061027 </v>
   <v>      -0.00739258       0.00317963      -0.00237828 </v>
   <v>      -0.02577234      -0.03318378      -0.06061027 </v>
   <v>      -0.00739258       0.00317963      -0.00237828 </v>
   <v>      -0.02577234      -0.03318378      -0.06061027 </v>
   <v>      -0.00739258       0.00317963      -0.00237828 </v>
   <v>      -0.01228625      -0.00407978      -0.00891097 </v>
   <v>      -0.02338586      -0.01013166       0.03687939 </v>
   <v>      -0.01228625      -0.00407978      -0.00891097 </v>
   <v>      -0.02338586      -0.01013166       0.03687939 </v>
   <v>      -0.01228625      -0.00407978      -0.00891097 </v>
   <v>      -0.02338586      -0.01013166       0.03687939 </v>
   <v>      -0.01228625      -0.00407978      -0.00891097 </v>
   <v>      -0.02338586      -0.01013166       0.03687939 </v>
   <v>       0.00598606      -0.02772596      -0.06267541 </v>
   <v>       0.02934756       0.04801171       0.11270501 </v>
   <v>       0.02934756       0.04801171       0.11270501 </v>
   <v>       0.00598606      -0.02772596      -0.06267541 </v>
   <v>       0.00598606      -0.02772596      -0.06267541 </v>
   <v>      -0.01206502      -0.02624414       0.07093452 </v>
   <v>      -0.01175584      -0.00636011       0.04326528 </v>
   <v>      -0.01206502      -0.02624414       0.07093452 </v>
   <v>       0.02934756       0.04801171       0.11270501 </v>
   <v>      -0.01175584      -0.00636011       0.04326528 </v>
   <v>      -0.01175584      -0.00636011       0.04326528 </v>
   <v>      -0.01175584      -0.00636011       0.04326528 </v>
   <v>       0.00598606      -0.02772596      -0.06267541 </v>
   <v>      -0.01206502      -0.02624414       0.07093452 </v>
   <v>      -0.01206502      -0.02624414       0.07093452 </v>
   <v>       0.02934756       0.04801171       0.11270501 </v>
   <v>      -0.00326776       0.01344395       0.03733079 </v>
   <v>      -0.00337631      -0.08445249      -0.10174371 </v>
   <v>      -0.00919502       0.01164361       0.01615924 </v>
   <v>      -0.00326776       0.01344395       0.03733079 </v>
   <v>      -0.00812722       0.07485187      -0.21084203 </v>
   <v>      -0.00919502       0.01164361       0.01615924 </v>
   <v>      -0.00337631      -0.08445249      -0.10174371 </v>
   <v>      -0.00919502       0.01164361       0.01615924 </v>
   <v>      -0.00337631      -0.08445249      -0.10174371 </v>
   <v>      -0.00326776       0.01344395       0.03733079 </v>
   <v>      -0.00812722       0.07485187      -0.21084203 </v>
   <v>      -0.00919502       0.01164361       0.01615924 </v>
   <v>      -0.00337631      -0.08445249      -0.10174371 </v>
   <v>      -0.00326776       0.01344395       0.03733079 </v>
   <v>      -0.00812722       0.07485187      -0.21084203 </v>
   <v>      -0.00812722       0.07485187      -0.21084203 </v>
   <v>       0.07213765      -0.04786986       0.11870286 </v>
   <v>       0.00179146       0.08461785       0.00977284 </v>
   <v>       0.07213765      -0.04786986       0.11870286 </v>
   <v>       0.00179146       0.08461785       0.00977284 </v>
   <v>       0.07213765      -0.04786986       0.11870286 </v>
   <v>       0.00179146       0.08461785       0.00977284 </v>
   <v>       0.07213765      -0.04786986       0.11870286 </v>
   <v>       0.00179146       0.08461785       0.00977284 </v>
   <v>       0.02046108       0.04851283       0.09845240 </v>
   <v>      -0.00857228       0.06250293       0.02979836 </v>
   <v>       0.02046108       0.04851283       0.09845240 </v>
   <v>      -0.00857228       0.06250293       0.02979836 </v>
   <v>       0.02046108       0.04851283       0.09845240 </v>
   <v>      -0.00857228       0.06250293       0.02979836 </v>
   <v>       0.02046108       0.04851283       0.09845240 </v>
   <v>      -0.00857228       0.06250293       0.02979836 </v>
   <v>      -0.00034316      -0.04376442       0.06933834 </v>
   <v>       0.00255843      -0.05549157      -0.10737524 </v>
   <v>      -0.00034316      -0.04376442       0.06933834 </v>
   <v>       0.00255843      -0.05549157      -0.10737524 </v>
   <v>      -0.00034316      -0.04376442       0.06933834 </v>
   <v>       0.00255843      -0.05549157      -0.10737524 </v>
   <v>      -0.00034316      -0.04376442       0.06933834 </v>
   <v>       0.00255843      -0.05549157      -0.10737524 </v>
   <v>       0.05307017       0.02451299       0.03172981 </v>
   <v>      -0.00338962      -0.07983415      -0.03905398 </v>
   <v>       0.05307017       0.02451299       0.03172981 </v>
   <v>      -0.00338962      -0.07983415      -0.03905398 </v>
   <v>       0.05307017       0.02451299       0.03172981 </v>
   <v>      -0.00338962      -0.07983415      -0.03905398 </v>
   <v>       0.05307017       0.02451299       0.03172981 </v>
   <v>      -0.00338962      -0.07983415      -0.03905398 </v>
   <v>       0.01836929       0.02977725       0.01332253 </v>
   <v>       0.04364095      -0.00537225       0.00402361 </v>
   <v>       0.01836929       0.02977725       0.01332253 </v>
   <v>       0.04364095      -0.00537225       0.00402361 </v>
   <v>       0.01836929       0.02977725       0.01332253 </v>
   <v>       0.04364095      -0.00537225       0.00402361 </v>
   <v>       0.01836929       0.02977725       0.01332253 </v>
   <v>       0.04364095      -0.00537225       0.00402361 </v>
   <v>      -0.03316956       0.00665787      -0.04340631 </v>
   <v>       0.00037861      -0.03989391      -0.04440281 </v>
   <v>      -0.03316956       0.00665787      -0.04340631 </v>
   <v>       0.00037861      -0.03989391      -0.04440281 </v>
   <v>       0.00589944       0.03956116       0.00896496 </v>
   <v>       0.03332935      -0.00809662       0.01624594 </v>
   <v>       0.00589944       0.03956116       0.00896496 </v>
   <v>       0.03332935      -0.00809662       0.01624594 </v>
   <v>      -0.03316956       0.00665787      -0.04340631 </v>
   <v>       0.00037861      -0.03989391      -0.04440281 </v>
   <v>      -0.03316956       0.00665787      -0.04340631 </v>
   <v>       0.00037861      -0.03989391      -0.04440281 </v>
   <v>       0.00589944       0.03956116       0.00896496 </v>
   <v>       0.03332935      -0.00809662       0.01624594 </v>
   <v>       0.00589944       0.03956116       0.00896496 </v>
   <v>       0.03332935      -0.00809662       0.01624594 </v>
   <v>       0.00639439       0.01069234      -0.00408182 </v>
   <v>      -0.01324501       0.02339616      -0.00210894 </v>
   <v>       0.00639439       0.01069234      -0.00408182 </v>
   <v>      -0.01324501       0.02339616      -0.00210894 </v>
   <v>      -0.00721395      -0.05476580      -0.01151774 </v>
   <v>      -0.06786965       0.00604997      -0.00952353 </v>
   <v>      -0.00721395      -0.05476580      -0.01151774 </v>
   <v>      -0.06786965       0.00604997      -0.00952353 </v>
   <v>       0.00639439       0.01069234      -0.00408182 </v>
   <v>      -0.01324501       0.02339616      -0.00210894 </v>
   <v>       0.00639439       0.01069234      -0.00408182 </v>
   <v>      -0.01324501       0.02339616      -0.00210894 </v>
   <v>      -0.00721395      -0.05476580      -0.01151774 </v>
   <v>      -0.06786965       0.00604997      -0.00952353 </v>
   <v>      -0.00721395      -0.05476580      -0.01151774 </v>
   <v>      -0.06786965       0.00604997      -0.00952353 </v>
   <v>       0.01144828      -0.00251805       0.02434221 </v>
   <v>      -0.00260359       0.00137758       0.02438962 </v>
   <v>       0.01144828      -0.00251805       0.02434221 </v>
   <v>      -0.00260359       0.00137758       0.02438962 </v>
   <v>       0.00400200       0.01575576      -0.01965530 </v>
   <v>       0.02409285      -0.00962488      -0.01324693 </v>
   <v>       0.00400200       0.01575576      -0.01965530 </v>
   <v>       0.02409285      -0.00962488      -0.01324693 </v>
   <v>       0.01144828      -0.00251805       0.02434221 </v>
   <v>      -0.00260359       0.00137758       0.02438962 </v>
   <v>       0.01144828      -0.00251805       0.02434221 </v>
   <v>      -0.00260359       0.00137758       0.02438962 </v>
   <v>       0.00400200       0.01575576      -0.01965530 </v>
   <v>       0.02409285      -0.00962488      -0.01324693 </v>
   <v>       0.00400200       0.01575576      -0.01965530 </v>
   <v>       0.02409285      -0.00962488      -0.01324693 </v>
  </varray>
  <varray name="stress" >
   <v>      -2.70307418      -0.07856460      -0.26794443 </v>
   <v>      -0.07856417      -1.74239490       0.12358088 </v>
   <v>      -0.26794459       0.12358123       0.97657579 </v>
  </varray>
  <energy>
   <i name="e_fr_energy">  -1059.17640045 </i>
   <i name="e_wo_entrp">  -1059.17640045 </i>
   <i name="e_0_energy">     -0.00000000 </i>
  </energy>
  <time name="totalsc"> 1055.13 1057.32</time>
 </calculation>
 <calculation>
  <scstep>
   <time name="dav">  287.71  287.71</time>
   <time name="total">  291.47  291.55</time>
   <energy>
    <i name="alphaZ">   5582.63365088 </i>
    <i name="ewald"> -61695.00064384 </i>
    <i name="hartreedc"> -17826.71692360 </i>
    <i name="XCdc">   3187.41876003 </i>
    <i name="pawpsdc"> 117983.70878034 </i>
    <i name="pawaedc">-117186.35747977 </i>
    <i name="eentropy">     -0.00000000 </i>
    <i name="bandstr">  -7155.01694148 </i>
    <i name="atom">  76050.17612637 </i>
    <i name="e_fr_energy">  -1059.15467107 </i>
    <i name="e_wo_entrp">  -1059.15467107 </i>
    <i name="e_0_energy">  -1059.15467107 </i>
   </energy>
  </scstep>
  <scstep>
   <time name="diag">   33.57   33.58</time>
   <time name="diis">   52.70   52.73</time>
   <time name="orth">   19.07   19.07</time>
   <time name="total">  109.09  109.14</time>
   <energy>
    <i name="e_fr_energy">  -1059.19410298 </i>
    <i name="e_wo_entrp">  -1059.19410298 </i>
    <i name="e_0_energy">  -1059.19410298 </i>
   </energy>
  </scstep>
  <scstep>
   <time name="diag">   33.55   33.57</time>
   <time name="diis">   54.30   54.31</time>
   <time name="orth">   19.04   19.04</time>
   <time name="total">  110.67  110.77</time>
   <energy>
    <i name="e_fr_energy">  -1059.19594873 </i>
    <i name="e_wo_entrp">  -1059.19594873 </i>
    <i name="e_0_energy">  -1059.19594873 </i>
   </energy>
  </scstep>
  <scstep>
   <time name="diag">   33.56   33.56</time>
   <time name="diis">   55.40   55.41</time>
   <time name="orth">   19.02   19.01</time>
   <time name="total">  111.76  111.86</time>
   <energy>
    <i name="e_fr_energy">  -1059.19304540 </i>
    <i name="e_wo_entrp">  -1059.19304540 </i>
    <i name="e_0_energy">  -1059.19304540 </i>
   </energy>
  </scstep>
  <scstep>
   <time name="diag">   33.54   33.55</time>
   <time name="diis">   54.41   54.43</time>
   <time name="orth">   19.08   19.08</time>
   <time name="total">  110.83  110.86</time>
   <energy>
    <i name="e_fr_energy">  -1059.19237972 </i>
    <i name="e_wo_entrp">  -1059.19237972 </i>
    <i name="e_0_energy">  -1059.19237972 </i>
   </energy>
  </scstep>
  <scstep>
   <time name="diag">   33.57   33.57</time>
   <time name="diis">   43.11   43.11</time>
   <time name="orth">   19.08   19.08</time>
   <time name="total">   99.54   99.60</time>
   <energy>
    <i name="e_fr_energy">  -1059.19243602 </i>
    <i name="e_wo_entrp">  -1059.19243602 </i>
    <i name="e_0_energy">  -1059.19243602 </i>
   </energy>
  </scstep>
  <scstep>
   <time name="diag">   33.50   33.51</time>
   <time name="diis">   34.82   34.82</time>
   <time name="orth">   19.05   19.05</time>
   <time name="total">   91.13   91.18</time>
   <energy>
    <i name="e_fr_energy">  -1059.19245973 </i>
    <i name="e_wo_entrp">  -1059.19245973 </i>
    <i name="e_0_energy">  -1059.19245973 </i>
   </energy>
  </scstep>
  <scstep>
   <time name="diag">   33.49   33.50</time>
   <time name="diis">   33.16   33.16</time>
   <time name="orth">   19.03   19.03</time>
   <time name="total">   86.26   86.32</time>
   <energy>
    <i name="alphaZ">   5582.63365088 </i>
    <i name="ewald"> -61695.00064384 </i>
    <i name="hartreedc"> -17805.37470235 </i>
    <i name="XCdc">   3186.03542632 </i>
    <i name="pawpsdc"> 118284.82935774 </i>
    <i name="pawaedc">-117487.63062863 </i>
    <i name="eentropy">     -0.00000000 </i>
    <i name="bandstr">  -7174.86106826 </i>
    <i name="atom">  76050.17612637 </i>
    <i name="e_fr_energy">  -1059.19248176 </i>
    <i name="e_wo_entrp">  -1059.19248176 </i>
    <i name="e_0_energy">  -1059.19248176 </i>
   </energy>
  </scstep>
  <structure>
   <crystal>
    <varray name="basis" >
     <v>      11.21656278       0.00169927       0.00571775 </v>
     <v>       0.00172816      11.34409096       0.00796499 </v>
     <v>       0.00823245       0.01056307      15.85464013 </v>
    </varray>
    <i name="volume">   2017.36997209 </i>
    <varray name="rec_basis" >
     <v>       0.08915390      -0.00001355      -0.00004628 </v>
     <v>      -0.00001332       0.08815166      -0.00005872 </v>
     <v>      -0.00003215      -0.00004428       0.06307306 </v>
    </varray>
   </crystal>
   <varray name="positions" >
    <v>       0.99895813       0.24125080       0.10888526 </v>
    <v>       0.99792546       0.24963711       0.63458672 </v>
    <v>       0.99895813       0.74125080       0.10888526 </v>
    <v>       0.99792546       0.74963711       0.63458672 </v>
    <v>       0.49895813       0.24125080       0.10888526 </v>
    <v>       0.49792546       0.24963711       0.63458672 </v>
    <v>       0.49895813       0.74125080       0.10888526 </v>
    <v>       0.49792546       0.74963711       0.63458672 </v>
    <v>      -0.00004666       0.24171510       0.38828826 </v>
    <v>       0.99712931       0.24928959       0.87338520 </v>
    <v>      -0.00004666       0.74171510       0.38828826 </v>
    <v>       0.99712931       0.74928959       0.87338520 </v>
    <v>       0.49995334       0.24171510       0.38828826 </v>
    <v>       0.49712931       0.24928959       0.87338520 </v>
    <v>       0.49995334       0.74171510       0.38828826 </v>
    <v>       0.49712931       0.74928959       0.87338520 </v>
    <v>       0.24820734       0.00874539       0.10891630 </v>
    <v>       0.24791408       0.00119417       0.63465887 </v>
    <v>       0.24820734       0.50874539       0.10891630 </v>
    <v>       0.24791408       0.50119417       0.63465887 </v>
    <v>       0.74820734       0.00874539       0.10891630 </v>
    <v>       0.74791408       0.00119417       0.63465887 </v>
    <v>       0.74820734       0.50874539       0.10891630 </v>
    <v>       0.74791408       0.50119417       0.63465887 </v>
    <v>       0.25022129       0.00915414       0.38829574 </v>
    <v>       0.24717874       0.00123639       0.87314574 </v>
    <v>       0.25022129       0.50915414       0.38829574 </v>
    <v>       0.24717874       0.50123639       0.87314574 </v>
    <v>       0.75022129       0.00915414       0.38829574 </v>
    <v>       0.74717874       0.00123639       0.87314574 </v>
    <v>       0.75022129       0.50915414       0.38829574 </v>
    <v>       0.74717874       0.50123639       0.87314574 </v>
    <v>       0.99637618       0.99818666       0.99803084 </v>
    <v>       0.24819931       0.75152366       0.50073609 </v>
    <v>       0.74819931       0.25152366       0.50073609 </v>
    <v>       0.49637618       0.99818666       0.99803084 </v>
    <v>       0.99637618       0.49818666       0.99803084 </v>
    <v>       0.49809361       0.49903090       0.50164285 </v>
    <v>       0.74770829       0.25277184       0.75388438 </v>
    <v>       0.99809361       0.49903090       0.50164285 </v>
    <v>       0.74819931       0.75152366       0.50073609 </v>
    <v>       0.24770829       0.75277184       0.75388438 </v>
    <v>       0.24770829       0.25277184       0.75388438 </v>
    <v>       0.74770829       0.75277184       0.75388438 </v>
    <v>       0.49637618       0.49818666       0.99803084 </v>
    <v>       0.49809361       0.99903090       0.50164285 </v>
    <v>       0.99809361       0.99903090       0.50164285 </v>
    <v>       0.24819931       0.25152366       0.50073609 </v>
    <v>       0.74638513       0.25079704       0.99928458 </v>
    <v>       0.26568023       0.78540557       0.25061591 </v>
    <v>       0.49762763       0.49838993       0.75152800 </v>
    <v>       0.74638513       0.75079704       0.99928458 </v>
    <v>       0.01583508       0.46483792       0.24908217 </v>
    <v>       0.49762763       0.99838993       0.75152800 </v>
    <v>       0.26568023       0.28540557       0.25061591 </v>
    <v>       0.99762763       0.49838993       0.75152800 </v>
    <v>       0.76568023       0.28540557       0.25061591 </v>
    <v>       0.24638513       0.75079704       0.99928458 </v>
    <v>       0.01583508       0.96483792       0.24908217 </v>
    <v>       0.99762763       0.99838993       0.75152800 </v>
    <v>       0.76568023       0.78540557       0.25061591 </v>
    <v>       0.24638513       0.25079704       0.99928458 </v>
    <v>       0.51583508       0.96483792       0.24908217 </v>
    <v>       0.51583508       0.46483792       0.24908217 </v>
    <v>       0.98709442       0.02236831       0.14125782 </v>
    <v>       0.99629243       0.98879630       0.61916729 </v>
    <v>       0.98709442       0.52236831       0.14125782 </v>
    <v>       0.99629243       0.48879630       0.61916729 </v>
    <v>       0.48709442       0.02236831       0.14125782 </v>
    <v>       0.49629243       0.98879630       0.61916729 </v>
    <v>       0.48709442       0.52236831       0.14125782 </v>
    <v>       0.49629243       0.48879630       0.61916729 </v>
    <v>       0.98862679       0.02342253       0.35927884 </v>
    <v>       0.99611803       0.98870098       0.87755831 </v>
    <v>       0.98862679       0.52342253       0.35927884 </v>
    <v>       0.99611803       0.48870098       0.87755831 </v>
    <v>       0.48862679       0.02342253       0.35927884 </v>
    <v>       0.49611803       0.98870098       0.87755831 </v>
    <v>       0.48862679       0.52342253       0.35927884 </v>
    <v>       0.49611803       0.48870098       0.87755831 </v>
    <v>       0.24019885       0.22885924       0.36200560 </v>
    <v>       0.24600553       0.25897516       0.87565650 </v>
    <v>       0.24019885       0.72885924       0.36200560 </v>
    <v>       0.24600553       0.75897516       0.87565650 </v>
    <v>       0.74019885       0.22885924       0.36200560 </v>
    <v>       0.74600553       0.25897516       0.87565650 </v>
    <v>       0.74019885       0.72885924       0.36200560 </v>
    <v>       0.74600553       0.75897516       0.87565650 </v>
    <v>       0.23387602       0.22343902       0.14562849 </v>
    <v>       0.24644562       0.26083971       0.61943036 </v>
    <v>       0.23387602       0.72343902       0.14562849 </v>
    <v>       0.24644562       0.76083971       0.61943036 </v>
    <v>       0.73387602       0.22343902       0.14562849 </v>
    <v>       0.74644562       0.26083971       0.61943036 </v>
    <v>       0.73387602       0.72343902       0.14562849 </v>
    <v>       0.74644562       0.76083971       0.61943036 </v>
    <v>       0.18518496       0.43494285       0.25063348 </v>
    <v>       0.43532064       0.31569187       0.25019168 </v>
    <v>       0.68518496       0.43494285       0.25063348 </v>
    <v>       0.93532064       0.31569187       0.25019168 </v>
    <v>       0.18518496       0.93494285       0.25063348 </v>
    <v>       0.43532064       0.81569187       0.25019168 </v>
    <v>       0.68518496       0.93494285       0.25063348 </v>
    <v>       0.93532064       0.81569187       0.25019168 </v>
    <v>       0.12535467       0.12195469       0.50045274 </v>
    <v>       0.37551851       0.12866675       0.50060842 </v>
    <v>       0.62535467       0.12195469       0.50045274 </v>
    <v>       0.87551851       0.12866675       0.50060842 </v>
    <v>       0.12088576       0.37424529       0.48546801 </v>
    <v>       0.37092965       0.37661177       0.48553220 </v>
    <v>       0.62088576       0.37424529       0.48546801 </v>
    <v>       0.87092965       0.37661177       0.48553220 </v>
    <v>       0.12535467       0.62195469       0.50045274 </v>
    <v>       0.37551851       0.62866675       0.50060842 </v>
    <v>       0.62535467       0.62195469       0.50045274 </v>
    <v>       0.87551851       0.62866675       0.50060842 </v>
    <v>       0.12088576       0.87424529       0.48546801 </v>
    <v>       0.37092965       0.87661177       0.48553220 </v>
    <v>       0.62088576       0.87424529       0.48546801 </v>
    <v>       0.87092965       0.87661177       0.48553220 </v>
    <v>       0.11615958       0.13356180       0.74802525 </v>
    <v>       0.36457106       0.11861593       0.74811723 </v>
    <v>       0.61615958       0.13356180       0.74802525 </v>
    <v>       0.86457106       0.11861593       0.74811723 </v>
    <v>       0.13233551       0.38340062       0.74784806 </v>
    <v>       0.38088433       0.36516795       0.74797319 </v>
    <v>       0.63233551       0.38340062       0.74784806 </v>
    <v>       0.88088433       0.36516795       0.74797319 </v>
    <v>       0.11615958       0.63356180       0.74802525 </v>
    <v>       0.36457106       0.61861593       0.74811723 </v>
    <v>       0.61615958       0.63356180       0.74802525 </v>
    <v>       0.86457106       0.61861593       0.74811723 </v>
    <v>       0.13233551       0.88340062       0.74784806 </v>
    <v>       0.38088433       0.86516795       0.74797319 </v>
    <v>       0.63233551       0.88340062       0.74784806 </v>
    <v>       0.88088433       0.86516795       0.74797319 </v>
    <v>       0.12215465       0.12182690       0.99784232 </v>
    <v>       0.37347905       0.12595604       0.99796281 </v>
    <v>       0.62215465       0.12182690       0.99784232 </v>
    <v>       0.87347905       0.12595604       0.99796281 </v>
    <v>       0.12007415       0.37515652       0.01234474 </v>
    <v>       0.37109665       0.37563358       0.01204974 </v>
    <v>       0.62007415       0.37515652       0.01234474 </v>
    <v>       0.87109665       0.37563358       0.01204974 </v>
    <v>       0.12215465       0.62182690       0.99784232 </v>
    <v>       0.37347905       0.62595604       0.99796281 </v>
    <v>       0.62215465       0.62182690       0.99784232 </v>
    <v>       0.87347905       0.62595604       0.99796281 </v>
    <v>       0.12007415       0.87515652       0.01234474 </v>
    <v>       0.37109665       0.87563358       0.01204974 </v>
    <v>       0.62007415       0.87515652       0.01234474 </v>
    <v>       0.87109665       0.87563358       0.01204974 </v>
   </varray>
  </structure>
  <varray name="forces" >
   <v>      -0.02163553       0.00840948       0.00722582 </v>
   <v>      -0.00361455      -0.00983615      -0.03218321 </v>
   <v>      -0.02163553       0.00840948       0.00722582 </v>
   <v>      -0.00361455      -0.00983615      -0.03218321 </v>
   <v>      -0.02163553       0.00840948       0.00722582 </v>
   <v>      -0.00361455      -0.00983615      -0.03218321 </v>
   <v>      -0.02163553       0.00840948       0.00722582 </v>
   <v>      -0.00361455      -0.00983615      -0.03218321 </v>
   <v>      -0.01128739       0.00762259       0.00186207 </v>
   <v>      -0.02025228      -0.00527938      -0.00175432 </v>
   <v>      -0.01128739       0.00762259       0.00186207 </v>
   <v>      -0.02025228      -0.00527938      -0.00175432 </v>
   <v>      -0.01128739       0.00762259       0.00186207 </v>
   <v>      -0.02025228      -0.00527938      -0.00175432 </v>
   <v>      -0.01128739       0.00762259       0.00186207 </v>
   <v>      -0.02025228      -0.00527938      -0.00175432 </v>
   <v>      -0.02481204      -0.02619246       0.00239949 </v>
   <v>      -0.01047872       0.01498391      -0.02868077 </v>
   <v>      -0.02481204      -0.02619246       0.00239949 </v>
   <v>      -0.01047872       0.01498391      -0.02868077 </v>
   <v>      -0.02481204      -0.02619246       0.00239949 </v>
   <v>      -0.01047872       0.01498391      -0.02868077 </v>
   <v>      -0.02481204      -0.02619246       0.00239949 </v>
   <v>      -0.01047872       0.01498391      -0.02868077 </v>
   <v>      -0.01799044      -0.00000115      -0.00033348 </v>
   <v>      -0.02306812      -0.00137323      -0.00207625 </v>
   <v>      -0.01799044      -0.00000115      -0.00033348 </v>
   <v>      -0.02306812      -0.00137323      -0.00207625 </v>
   <v>      -0.01799044      -0.00000115      -0.00033348 </v>
   <v>      -0.02306812      -0.00137323      -0.00207625 </v>
   <v>      -0.01799044      -0.00000115      -0.00033348 </v>
   <v>      -0.02306812      -0.00137323      -0.00207625 </v>
   <v>      -0.00870114       0.02371940      -0.03880791 </v>
   <v>      -0.01415657      -0.04049989      -0.05833341 </v>
   <v>      -0.01415657      -0.04049989      -0.05833341 </v>
   <v>      -0.00870114       0.02371940      -0.03880791 </v>
   <v>      -0.00870114       0.02371940      -0.03880791 </v>
   <v>       0.01636156       0.04328370      -0.07622759 </v>
   <v>      -0.01381968      -0.03219520      -0.05430938 </v>
   <v>       0.01636156       0.04328370      -0.07622759 </v>
   <v>      -0.01415657      -0.04049989      -0.05833341 </v>
   <v>      -0.01381968      -0.03219520      -0.05430938 </v>
   <v>      -0.01381968      -0.03219520      -0.05430938 </v>
   <v>      -0.01381968      -0.03219520      -0.05430938 </v>
   <v>      -0.00870114       0.02371940      -0.03880791 </v>
   <v>       0.01636156       0.04328370      -0.07622759 </v>
   <v>       0.01636156       0.04328370      -0.07622759 </v>
   <v>      -0.01415657      -0.04049989      -0.05833341 </v>
   <v>       0.00119129      -0.01614019      -0.01484760 </v>
   <v>       0.00673649      -0.01727864       0.15498553 </v>
   <v>      -0.00798203       0.01982265      -0.04967105 </v>
   <v>       0.00119129      -0.01614019      -0.01484760 </v>
   <v>       0.00552116       0.03338105       0.19961964 </v>
   <v>      -0.00798203       0.01982265      -0.04967105 </v>
   <v>       0.00673649      -0.01727864       0.15498553 </v>
   <v>      -0.00798203       0.01982265      -0.04967105 </v>
   <v>       0.00673649      -0.01727864       0.15498553 </v>
   <v>       0.00119129      -0.01614019      -0.01484760 </v>
   <v>       0.00552116       0.03338105       0.19961964 </v>
   <v>      -0.00798203       0.01982265      -0.04967105 </v>
   <v>       0.00673649      -0.01727864       0.15498553 </v>
   <v>       0.00119129      -0.01614019      -0.01484760 </v>
   <v>       0.00552116       0.03338105       0.19961964 </v>
   <v>       0.00552116       0.03338105       0.19961964 </v>
   <v>       0.02124669       0.03959297      -0.12616647 </v>
   <v>       0.00062052       0.06470640       0.12607903 </v>
   <v>       0.02124669       0.03959297      -0.12616647 </v>
   <v>       0.00062052       0.06470640       0.12607903 </v>
   <v>       0.02124669       0.03959297      -0.12616647 </v>
   <v>       0.00062052       0.06470640       0.12607903 </v>
   <v>       0.02124669       0.03959297      -0.12616647 </v>
   <v>       0.00062052       0.06470640       0.12607903 </v>
   <v>       0.03999073      -0.02013571      -0.06874258 </v>
   <v>      -0.00416496       0.04615637       0.01199304 </v>
   <v>       0.03999073      -0.02013571      -0.06874258 </v>
   <v>      -0.00416496       0.04615637       0.01199304 </v>
   <v>       0.03999073      -0.02013571      -0.06874258 </v>
   <v>      -0.00416496       0.04615637       0.01199304 </v>
   <v>       0.03999073      -0.02013571      -0.06874258 </v>
   <v>      -0.00416496       0.04615637       0.01199304 </v>
   <v>       0.02062024       0.01419784      -0.05314544 </v>
   <v>      -0.00019906      -0.04646174       0.08552832 </v>
   <v>       0.02062024       0.01419784      -0.05314544 </v>
   <v>      -0.00019906      -0.04646174       0.08552832 </v>
   <v>       0.02062024       0.01419784      -0.05314544 </v>
   <v>      -0.00019906      -0.04646174       0.08552832 </v>
   <v>       0.02062024       0.01419784      -0.05314544 </v>
   <v>      -0.00019906      -0.04646174       0.08552832 </v>
[...]
       <r>   -17.0231     0.0000    32.0000 </r>
       <r>   -16.8700     0.0000    32.0000 </r>
       <r>   -16.7170     0.0000    32.0000 </r>
       <r>   -16.5640     0.0000    32.0000 </r>
       <r>   -16.4110     0.0000    32.0000 </r>
       <r>   -16.2580     0.0000    32.0000 </r>
       <r>   -16.1049     0.0000    32.0000 </r>
       <r>   -15.9519     0.0000    32.0000 </r>
       <r>   -15.7989     0.0000    32.0000 </r>
       <r>   -15.6459     0.0000    32.0000 </r>
       <r>   -15.4929     0.0000    32.0000 </r>
       <r>   -15.3398     2.5642    32.3924 </r>
       <r>   -15.1868    14.6081    34.6277 </r>
       <r>   -15.0338    18.9419    37.5263 </r>
       <r>   -14.8808    51.1196    45.3487 </r>
       <r>   -14.7277    52.1839    53.3339 </r>
       <r>   -14.5747    42.1039    59.7767 </r>
       <r>   -14.4217    45.8411    66.7914 </r>
       <r>   -14.2687    52.4798    74.8219 </r>
       <r>   -14.1157    58.6818    83.8015 </r>
       <r>   -13.9626   107.5062   100.2523 </r>
       <r>   -13.8096    51.5025   108.1333 </r>
       <r>   -13.6566    66.0072   118.2338 </r>
       <r>   -13.5036    11.5421   120.0000 </r>
       <r>   -13.3506     0.0001   120.0000 </r>
       <r>   -13.1975     0.0000   120.0000 </r>
       <r>   -13.0445     0.0000   120.0000 </r>
       <r>   -12.8915     0.1000   120.0153 </r>
       <r>   -12.7385    22.3091   123.4291 </r>
       <r>   -12.5854   118.3505   141.5393 </r>
       <r>   -12.4324    82.4816   154.1607 </r>
       <r>   -12.2794   105.6351   170.3252 </r>
       <r>   -12.1264   100.5884   185.7173 </r>
       <r>   -11.9734    81.7274   198.2234 </r>
       <r>   -11.8203    42.4561   204.7201 </r>
       <r>   -11.6673    50.0173   212.3738 </r>
       <r>   -11.5143    23.6949   215.9997 </r>
       <r>   -11.3613     0.0023   216.0000 </r>
       <r>   -11.2083     0.0000   216.0000 </r>
       <r>   -11.0552     0.0000   216.0000 </r>
       <r>   -10.9022     0.0000   216.0000 </r>
       <r>   -10.7492     0.0000   216.0000 </r>
       <r>   -10.5962     0.0000   216.0000 </r>
       <r>   -10.4431     0.0000   216.0000 </r>
       <r>   -10.2901     0.0000   216.0000 </r>
       <r>   -10.1371     0.0000   216.0000 </r>
       <r>    -9.9841     0.0000   216.0000 </r>
       <r>    -9.8311     0.0000   216.0000 </r>
       <r>    -9.6780     0.0000   216.0000 </r>
       <r>    -9.5250     0.0000   216.0000 </r>
       <r>    -9.3720     0.0000   216.0000 </r>
       <r>    -9.2190     0.0000   216.0000 </r>
       <r>    -9.0659     0.0000   216.0000 </r>
       <r>    -8.9129     0.0000   216.0000 </r>
       <r>    -8.7599     0.0000   216.0000 </r>
       <r>    -8.6069     0.0000   216.0000 </r>
       <r>    -8.4539     0.0000   216.0000 </r>
       <r>    -8.3008     0.0000   216.0000 </r>
       <r>    -8.1478     0.0000   216.0000 </r>
       <r>    -7.9948     0.0000   216.0000 </r>
       <r>    -7.8418     0.0000   216.0000 </r>
       <r>    -7.6888     0.0000   216.0000 </r>
       <r>    -7.5357     0.0000   216.0000 </r>
       <r>    -7.3827     0.0000   216.0000 </r>
       <r>    -7.2297     0.0000   216.0000 </r>
       <r>    -7.0767     0.0000   216.0000 </r>
       <r>    -6.9236     0.0000   216.0000 </r>
       <r>    -6.7706     0.0000   216.0000 </r>
       <r>    -6.6176     0.0000   216.0000 </r>
       <r>    -6.4646     0.0000   216.0000 </r>
       <r>    -6.3116     0.0000   216.0000 </r>
       <r>    -6.1585     0.0000   216.0000 </r>
       <r>    -6.0055     0.0000   216.0000 </r>
       <r>    -5.8525     0.0000   216.0000 </r>
       <r>    -5.6995     0.0000   216.0000 </r>
       <r>    -5.5465     0.0000   216.0000 </r>
       <r>    -5.3934     0.0000   216.0000 </r>
       <r>    -5.2404     0.0000   216.0000 </r>
       <r>    -5.0874     0.0000   216.0000 </r>
       <r>    -4.9344     0.0000   216.0000 </r>
       <r>    -4.7813     0.0000   216.0000 </r>
       <r>    -4.6283     0.0000   216.0000 </r>
       <r>    -4.4753     0.0000   216.0000 </r>
       <r>    -4.3223     0.0000   216.0000 </r>
       <r>    -4.1693     0.0000   216.0000 </r>
       <r>    -4.0162     0.0000   216.0000 </r>
       <r>    -3.8632     0.0000   216.0000 </r>
       <r>    -3.7102     0.0000   216.0000 </r>
       <r>    -3.5572     0.0000   216.0000 </r>
       <r>    -3.4042     0.0000   216.0000 </r>
       <r>    -3.2511     0.0000   216.0000 </r>
       <r>    -3.0981     0.0000   216.0000 </r>
       <r>    -2.9451     0.0000   216.0000 </r>
       <r>    -2.7921     0.0000   216.0000 </r>
       <r>    -2.6390     0.0000   216.0000 </r>
       <r>    -2.4860     1.3561   216.2075 </r>
       <r>    -2.3330    12.6258   218.1395 </r>
       <r>    -2.1800    23.0559   221.6676 </r>
       <r>    -2.0270    35.7385   227.1363 </r>
       <r>    -1.8739    20.4784   230.2700 </r>
       <r>    -1.7209    36.1311   235.7988 </r>
       <r>    -1.5679    45.5703   242.7721 </r>
       <r>    -1.4149    42.1484   249.2217 </r>
       <r>    -1.2619    50.3966   256.9334 </r>
       <r>    -1.1088    96.6210   271.7185 </r>
       <r>    -0.9558    74.5883   283.1321 </r>
       <r>    -0.8028    81.9938   295.6790 </r>
       <r>    -0.6498    82.0353   308.2321 </r>
       <r>    -0.4967    88.0262   321.7020 </r>
       <r>    -0.3437    87.8160   335.1398 </r>
       <r>    -0.1907    78.5801   347.1642 </r>
       <r>    -0.0377    64.4914   357.0328 </r>
       <r>     0.1153    44.2680   363.8068 </r>
       <r>     0.2684    39.0735   369.7859 </r>
       <r>     0.4214    59.6885   378.9195 </r>
       <r>     0.5744    64.0051   388.7136 </r>
       <r>     0.7274    49.0197   396.2147 </r>
       <r>     0.8805    66.0855   406.3272 </r>
       <r>     1.0335    62.7968   415.9365 </r>
       <r>     1.1865    71.7599   426.9173 </r>
       <r>     1.3395    91.4086   440.9048 </r>
       <r>     1.4925    63.8278   450.6718 </r>
       <r>     1.6456    73.5782   461.9308 </r>
       <r>     1.7986    47.3847   469.1817 </r>
       <r>     1.9516    33.5021   474.3083 </r>
       <r>     2.1046    24.1189   477.9990 </r>
       <r>     2.2576     7.7993   479.1924 </r>
       <r>     2.4107     5.2762   479.9998 </r>
       <r>     2.5637     0.0012   480.0000 </r>
       <r>     2.7167     0.0000   480.0000 </r>
       <r>     2.8697     0.0000   480.0000 </r>
       <r>     3.0228     0.0000   480.0000 </r>
       <r>     3.1758     0.0000   480.0000 </r>
       <r>     3.3288     0.0000   480.0000 </r>
       <r>     3.4818     0.0000   480.0000 </r>
       <r>     3.6348     0.0000   480.0000 </r>
       <r>     3.7879     0.0000   480.0000 </r>
       <r>     3.9409     0.0000   480.0000 </r>
       <r>     4.0939     0.0000   480.0000 </r>
       <r>     4.2469     0.0509   480.0078 </r>
       <r>     4.3999    27.0647   484.1493 </r>
       <r>     4.5530    32.8132   489.1704 </r>
       <r>     4.7060    70.0450   499.8888 </r>
       <r>     4.8590    49.8596   507.5184 </r>
       <r>     5.0120    67.8822   517.9058 </r>
       <r>     5.1651    79.3985   530.0555 </r>
       <r>     5.3181    76.0700   541.6959 </r>
       <r>     5.4711    79.5508   553.8688 </r>
       <r>     5.6241    66.3438   564.0209 </r>
       <r>     5.7771    91.0836   577.9586 </r>
       <r>     5.9302    46.6190   585.0923 </r>
       <r>     6.0832    95.4313   599.6954 </r>
       <r>     6.2362    63.9280   609.4777 </r>
       <r>     6.3892     3.4131   610.0000 </r>
       <r>     6.5422     9.1161   611.3950 </r>
       <r>     6.6953    16.7192   613.9534 </r>
       <r>     6.8483     0.6055   614.0461 </r>
       <r>     7.0013    17.9008   616.7853 </r>
       <r>     7.1543    11.9796   618.6184 </r>
       <r>     7.3074    16.1649   621.0920 </r>
       <r>     7.4604    13.5099   623.1593 </r>
       <r>     7.6134    18.2619   625.9537 </r>
       <r>     7.7664    14.5071   628.1737 </r>
       <r>     7.9194    15.4505   630.5379 </r>
       <r>     8.0725    42.6998   637.0719 </r>
       <r>     8.2255    22.3283   640.4886 </r>
       <r>     8.3785    13.4884   642.5526 </r>
       <r>     8.5315    26.1587   646.5555 </r>
       <r>     8.6845    34.0132   651.7602 </r>
       <r>     8.8376    29.1349   656.2185 </r>
       <r>     8.9906    29.7874   660.7766 </r>
       <r>     9.1436    37.0769   666.4502 </r>
       <r>     9.2966    39.8560   672.5490 </r>
       <r>     9.4497    48.5690   679.9811 </r>
       <r>     9.6027    53.2254   688.1257 </r>
       <r>     9.7557    47.6336   695.4147 </r>
       <r>     9.9087    58.8164   704.4149 </r>
       <r>    10.0617    61.1854   713.7775 </r>
       <r>    10.2148    52.2542   721.7736 </r>
       <r>    10.3678    59.5507   730.8861 </r>
       <r>    10.5208    57.4262   739.6735 </r>
       <r>    10.6738    39.6051   745.7340 </r>
       <r>    10.8268    54.7551   754.1127 </r>
       <r>    10.9799    74.4129   765.4995 </r>
       <r>    11.1329    16.3300   767.9983 </r>
       <r>    11.2859     0.0110   768.0000 </r>
       <r>    11.4389     0.0000   768.0000 </r>
       <r>    11.5920     0.0000   768.0000 </r>
       <r>    11.7450     0.0000   768.0000 </r>
       <r>    11.8980     0.0000   768.0000 </r>
       <r>    12.0510     0.0000   768.0000 </r>
       <r>    12.2040     0.0000   768.0000 </r>
       <r>    12.3571     0.0000   768.0000 </r>
       <r>    12.5101     0.0000   768.0000 </r>
       <r>    12.6631     0.0000   768.0000 </r>
       <r>    12.8161     0.0000   768.0000 </r>
       <r>    12.9692     0.0000   768.0000 </r>
       <r>    13.1222     0.0000   768.0000 </r>
      </set>
     </set>
    </array>
   </total>
  </dos>
 </calculation>
 <structure name="finalpos" >
  <crystal>
   <varray name="basis" >
    <v>      11.21006511       0.00082753       0.00677079 </v>
    <v>       0.00084798      11.33068964       0.00712165 </v>
    <v>       0.00968830       0.00934249      15.89747153 </v>
   </varray>
   <i name="volume">   2019.25986000 </i>
   <varray name="rec_basis" >
    <v>       0.08920558      -0.00000664      -0.00005436 </v>
    <v>      -0.00000648       0.08825591      -0.00005186 </v>
    <v>      -0.00003799      -0.00003953       0.06290313 </v>
   </varray>
  </crystal>
  <varray name="positions" >
   <v>       0.99845272       0.24158007       0.10839839 </v>
   <v>       0.99712118       0.24955039       0.63515393 </v>
   <v>       0.99845272       0.74158007       0.10839839 </v>
   <v>       0.99712118       0.74955039       0.63515393 </v>
   <v>       0.49845272       0.24158007       0.10839839 </v>
   <v>       0.49712118       0.24955039       0.63515393 </v>
   <v>       0.49845272       0.74158007       0.10839839 </v>
   <v>       0.49712118       0.74955039       0.63515393 </v>
   <v>      -0.00018351       0.24253792       0.38873907 </v>
   <v>       0.99594231       0.24923170       0.87343739 </v>
   <v>      -0.00018351       0.74253792       0.38873907 </v>
   <v>       0.99594231       0.74923170       0.87343739 </v>
   <v>       0.49981649       0.24253792       0.38873907 </v>
   <v>       0.49594231       0.24923170       0.87343739 </v>
   <v>       0.49981649       0.74253792       0.38873907 </v>
   <v>       0.49594231       0.74923170       0.87343739 </v>
   <v>       0.24759264       0.00781711       0.10827322 </v>
   <v>       0.24695764       0.00156024       0.63527394 </v>
   <v>       0.24759264       0.50781711       0.10827322 </v>
   <v>       0.24695764       0.50156024       0.63527394 </v>
   <v>       0.74759264       0.00781711       0.10827322 </v>
   <v>       0.74695764       0.00156024       0.63527394 </v>
   <v>       0.74759264       0.50781711       0.10827322 </v>
   <v>       0.74695764       0.50156024       0.63527394 </v>
   <v>       0.25008413       0.00868287       0.38862020 </v>
   <v>       0.24572615       0.00114586       0.87311106 </v>
   <v>       0.25008413       0.50868287       0.38862020 </v>
   <v>       0.24572615       0.50114586       0.87311106 </v>
   <v>       0.75008413       0.00868287       0.38862020 </v>
   <v>       0.74572615       0.00114586       0.87311106 </v>
   <v>       0.75008413       0.50868287       0.38862020 </v>
   <v>       0.74572615       0.50114586       0.87311106 </v>
   <v>       0.99609722       0.99845201       0.99742165 </v>
   <v>       0.24813604       0.75116650       0.50132831 </v>
   <v>       0.74813604       0.25116650       0.50132831 </v>
   <v>       0.49609722       0.99845201       0.99742165 </v>
   <v>       0.99609722       0.49845201       0.99742165 </v>
   <v>       0.49813183       0.49952298       0.50227425 </v>
   <v>       0.74679916       0.25217678       0.75401041 </v>
   <v>       0.99813183       0.49952298       0.50227425 </v>
   <v>       0.74813604       0.75116650       0.50132831 </v>
   <v>       0.24679916       0.75217678       0.75401041 </v>
   <v>       0.24679916       0.25217678       0.75401041 </v>
   <v>       0.74679916       0.75217678       0.75401041 </v>
   <v>       0.49609722       0.49845201       0.99742165 </v>
   <v>       0.49813183       0.99952298       0.50227425 </v>
   <v>       0.99813183       0.99952298       0.50227425 </v>
   <v>       0.24813604       0.25116650       0.50132831 </v>
   <v>       0.74621085       0.25029161       0.99908728 </v>
   <v>       0.26692677       0.78500433       0.25052733 </v>
   <v>       0.49656213       0.49883815       0.75145232 </v>
   <v>       0.74621085       0.75029161       0.99908728 </v>
   <v>       0.01716202       0.46519436       0.24932626 </v>
   <v>       0.49656213       0.99883815       0.75145232 </v>
   <v>       0.26692677       0.28500433       0.25052733 </v>
   <v>       0.99656213       0.49883815       0.75145232 </v>
   <v>       0.76692677       0.28500433       0.25052733 </v>
   <v>       0.24621085       0.75029161       0.99908728 </v>
   <v>       0.01716202       0.96519436       0.24932626 </v>
   <v>       0.99656213       0.99883815       0.75145232 </v>
   <v>       0.76692677       0.78500433       0.25052733 </v>
   <v>       0.24621085       0.25029161       0.99908728 </v>
   <v>       0.51716202       0.96519436       0.24932626 </v>
   <v>       0.51716202       0.46519436       0.24932626 </v>
   <v>       0.98952752       0.02162267       0.14061584 </v>
   <v>       0.99642959       0.99243437       0.61984762 </v>
   <v>       0.98952752       0.52162267       0.14061584 </v>
   <v>       0.99642959       0.49243437       0.61984762 </v>
   <v>       0.48952752       0.02162267       0.14061584 </v>
   <v>       0.49642959       0.99243437       0.61984762 </v>
   <v>       0.48952752       0.52162267       0.14061584 </v>
   <v>       0.49642959       0.49243437       0.61984762 </v>
   <v>       0.99022106       0.02251666       0.35938052 </v>
   <v>       0.99551662       0.99136611       0.87721955 </v>
   <v>       0.99022106       0.52251666       0.35938052 </v>
   <v>       0.99551662       0.49136611       0.87721955 </v>
   <v>       0.49022106       0.02251666       0.35938052 </v>
   <v>       0.49551662       0.99136611       0.87721955 </v>
   <v>       0.49022106       0.52251666       0.35938052 </v>
   <v>       0.49551662       0.49136611       0.87721955 </v>
   <v>       0.24134509       0.22971845       0.36182500 </v>
   <v>       0.24622520       0.25671184       0.87559206 </v>
   <v>       0.24134509       0.72971845       0.36182500 </v>
   <v>       0.24622520       0.75671184       0.87559206 </v>
   <v>       0.74134509       0.22971845       0.36182500 </v>
   <v>       0.74622520       0.25671184       0.87559206 </v>
   <v>       0.74134509       0.72971845       0.36182500 </v>
   <v>       0.74622520       0.75671184       0.87559206 </v>
   <v>       0.23645551       0.22432943       0.14447675 </v>
   <v>       0.24627681       0.25766017       0.62001133 </v>
   <v>       0.23645551       0.72432943       0.14447675 </v>
   <v>       0.24627681       0.75766017       0.62001133 </v>
   <v>       0.73645551       0.22432943       0.14447675 </v>
   <v>       0.74627681       0.25766017       0.62001133 </v>
   <v>       0.73645551       0.72432943       0.14447675 </v>
   <v>       0.74627681       0.75766017       0.62001133 </v>
   <v>       0.18695021       0.43509585       0.25035377 </v>
   <v>       0.43697680       0.31540224       0.24993326 </v>
   <v>       0.68695021       0.43509585       0.25035377 </v>
   <v>       0.93697680       0.31540224       0.24993326 </v>
   <v>       0.18695021       0.93509585       0.25035377 </v>
   <v>       0.43697680       0.81540224       0.24993326 </v>
   <v>       0.68695021       0.93509585       0.25035377 </v>
   <v>       0.93697680       0.81540224       0.24993326 </v>
   <v>       0.12419323       0.12338670       0.49960394 </v>
   <v>       0.37424253       0.12734444       0.49973181 </v>
   <v>       0.62419323       0.12338670       0.49960394 </v>
   <v>       0.87424253       0.12734444       0.49973181 </v>
   <v>       0.12221913       0.37535114       0.48730410 </v>
   <v>       0.37221457       0.37557386       0.48738251 </v>
   <v>       0.62221913       0.37535114       0.48730410 </v>
   <v>       0.87221457       0.37557386       0.48738251 </v>
   <v>       0.12419323       0.62338670       0.49960394 </v>
   <v>       0.37424253       0.62734444       0.49973181 </v>
   <v>       0.62419323       0.62338670       0.49960394 </v>
   <v>       0.87424253       0.62734444       0.49973181 </v>
   <v>       0.12221913       0.87535114       0.48730410 </v>
   <v>       0.37221457       0.87557386       0.48738251 </v>
   <v>       0.62221913       0.87535114       0.48730410 </v>
   <v>       0.87221457       0.87557386       0.48738251 </v>
   <v>       0.11573514       0.13260567       0.74834579 </v>
   <v>       0.36440377       0.11947022       0.74830579 </v>
   <v>       0.61573514       0.13260567       0.74834579 </v>
   <v>       0.86440377       0.11947022       0.74830579 </v>
   <v>       0.12968199       0.38185394       0.74778593 </v>
   <v>       0.37832820       0.36698458       0.74763492 </v>
   <v>       0.62968199       0.38185394       0.74778593 </v>
   <v>       0.87832820       0.36698458       0.74763492 </v>
   <v>       0.11573514       0.63260567       0.74834579 </v>
   <v>       0.36440377       0.61947022       0.74830579 </v>
   <v>       0.61573514       0.63260567       0.74834579 </v>
   <v>       0.86440377       0.61947022       0.74830579 </v>
   <v>       0.12968199       0.88185394       0.74778593 </v>
   <v>       0.37832820       0.86698458       0.74763492 </v>
   <v>       0.62968199       0.88185394       0.74778593 </v>
   <v>       0.87832820       0.86698458       0.74763492 </v>
   <v>       0.12211782       0.12198159       0.99825896 </v>
   <v>       0.37327974       0.12553826       0.99870916 </v>
   <v>       0.62211782       0.12198159       0.99825896 </v>
   <v>       0.87327974       0.12553826       0.99870916 </v>
   <v>       0.12039201       0.37509666       0.01051775 </v>
   <v>       0.37154817       0.37520227       0.01072860 </v>
   <v>       0.62039201       0.37509666       0.01051775 </v>
   <v>       0.87154817       0.37520227       0.01072860 </v>
   <v>       0.12211782       0.62198159       0.99825896 </v>
   <v>       0.37327974       0.62553826       0.99870916 </v>
   <v>       0.62211782       0.62198159       0.99825896 </v>
   <v>       0.87327974       0.62553826       0.99870916 </v>
   <v>       0.12039201       0.87509666       0.01051775 </v>
   <v>       0.37154817       0.87520227       0.01072860 </v>
   <v>       0.62039201       0.87509666       0.01051775 </v>
   <v>       0.87154817       0.87520227       0.01072860 </v>
  </varray>
 </structure>
</modeling>
