       N       E                     dE             d eps       ncg     rms          rms(c)
DAV:   1    -0.115238744689E+04   -0.11524E+04   -0.25554E-02 13240   0.366E-01    0.147E-02
RMM:   2    -0.115238744748E+04   -0.59041E-06   -0.14931E-05  6946   0.623E-03    0.227E-02
RMM:   3    -0.115238744777E+04   -0.28880E-06   -0.56428E-06  5811   0.437E-03    0.358E-03
RMM:   4    -0.115238744818E+04   -0.40729E-06   -0.34100E-06  3800   0.264E-03    0.308E-03
RMM:   5    -0.115238744845E+04   -0.26572E-06   -0.19638E-06  3532   0.283E-03    0.276E-03
RMM:   6    -0.115238744866E+04   -0.21627E-06   -0.10764E-06  2322   0.205E-03    0.844E-04
RMM:   7    -0.115238744874E+04   -0.77955E-07   -0.60689E-07  2187   0.218E-03    0.473E-04
RMM:   8    -0.115238744878E+04   -0.37442E-07   -0.27982E-07  1759   0.192E-03
   1 F= -.11523874E+04 E0= -.11523874E+04  d E =-.115239E+04  mag=    20.0000
       N       E                     dE             d eps       ncg     rms          rms(c)
DAV:   1    -0.115238793373E+04   -0.48499E-03   -0.47924E-01 12544   0.820E-01    0.304E-01
RMM:   2    -0.115238889850E+04   -0.96478E-03   -0.15405E-02 12305   0.162E-01    0.238E-01
RMM:   3    -0.115238879174E+04    0.10676E-03   -0.80937E-04 11738   0.501E-02    0.144E-01
RMM:   4    -0.115238867010E+04    0.12165E-03   -0.44264E-04 10518   0.238E-02    0.780E-02
RMM:   5    -0.115238864186E+04    0.28236E-04   -0.81166E-05  7753   0.136E-02    0.485E-02
RMM:   6    -0.115238864149E+04    0.37046E-06   -0.22702E-05  7106   0.730E-03    0.206E-02
RMM:   7    -0.115238864036E+04    0.11321E-05   -0.10520E-05  6699   0.494E-03    0.132E-02
RMM:   8    -0.115238863959E+04    0.76329E-06   -0.59678E-06  6098   0.362E-03
   2 F= -.11523886E+04 E0= -.11523886E+04  d E =-.119082E-02  mag=    20.0000
       N       E                     dE             d eps       ncg     rms          rms(c)
DAV:   1    -0.115238868353E+04   -0.43174E-04   -0.19538E-02 12992   0.166E-01    0.611E-02
RMM:   2    -0.115238872296E+04   -0.39433E-04   -0.61417E-04 11335   0.329E-02    0.479E-02
RMM:   3    -0.115238871826E+04    0.47032E-05   -0.28853E-05  6734   0.107E-02    0.298E-02
RMM:   4    -0.115238871372E+04    0.45388E-05   -0.18469E-05  6508   0.585E-03    0.198E-02
RMM:   5    -0.115238871339E+04    0.33212E-06   -0.46475E-06  5385   0.377E-03    0.171E-02
RMM:   6    -0.115238871364E+04   -0.24670E-06   -0.82025E-07  2685   0.205E-03    0.543E-03
RMM:   7    -0.115238871380E+04   -0.16476E-06   -0.27807E-07  2135   0.194E-03    0.299E-03
RMM:   8    -0.115238871400E+04   -0.20316E-06   -0.40116E-07  2090   0.190E-03
   3 F= -.11523887E+04 E0= -.11523887E+04  d E =-.126523E-02  mag=    20.0000
       N       E                     dE             d eps       ncg     rms          rms(c)
DAV:   1    -0.115238852276E+04    0.19104E-03   -0.57684E-01 12824   0.894E-01    0.227E-01
RMM:   2    -0.115238995210E+04   -0.14293E-02   -0.14885E-02 12331   0.157E-01    0.167E-01
RMM:   3    -0.115238996511E+04   -0.13006E-04   -0.71201E-04 11017   0.512E-02    0.102E-01
RMM:   4    -0.115238991248E+04    0.52622E-04   -0.20767E-04  7691   0.176E-02    0.580E-02
RMM:   5    -0.115238990828E+04    0.42051E-05   -0.60428E-05  7078   0.116E-02    0.552E-02
RMM:   6    -0.115238991066E+04   -0.23797E-05   -0.23519E-05  6913   0.763E-03    0.122E-02
RMM:   7    -0.115238991176E+04   -0.11046E-05   -0.11506E-05  6434   0.505E-03    0.133E-02
RMM:   8    -0.115238991243E+04   -0.66624E-06   -0.69638E-06  5964   0.417E-03
   4 F= -.11523899E+04 E0= -.11523899E+04  d E =-.119842E-02  mag=    20.0000
       N       E                     dE             d eps       ncg     rms          rms(c)
DAV:   1    -0.115238973245E+04    0.17931E-03   -0.13591E-01 12480   0.434E-01    0.110E-01
RMM:   2    -0.115239007810E+04   -0.34565E-03   -0.35894E-03 12324   0.770E-02    0.815E-02
RMM:   3    -0.115239007711E+04    0.99502E-06   -0.13934E-04  7291   0.240E-02    0.499E-02
RMM:   4    -0.115239006730E+04    0.98030E-05   -0.59616E-05  7011   0.101E-02    0.319E-02
RMM:   5    -0.115239006733E+04   -0.27867E-07   -0.21422E-05  6834   0.727E-03    0.335E-02
RMM:   6    -0.115239006838E+04   -0.10469E-05   -0.11310E-05  6400   0.434E-03    0.563E-03
RMM:   7    -0.115239006888E+04   -0.49673E-06   -0.48209E-06  5388   0.381E-03    0.873E-03
RMM:   8    -0.115239006915E+04   -0.27535E-06   -0.30500E-06  3846   0.252E-03
   5 F= -.11523901E+04 E0= -.11523901E+04  d E =-.135515E-02  mag=    20.0000
       N       E                     dE             d eps       ncg     rms          rms(c)
DAV:   1    -0.115238989712E+04    0.17175E-03   -0.56564E-01 12704   0.877E-01    0.191E-01
RMM:   2    -0.115239118204E+04   -0.12849E-02   -0.14234E-02 12355   0.152E-01    0.143E-01
RMM:   3    -0.115239116713E+04    0.14910E-04   -0.69934E-04 10842   0.505E-02    0.890E-02
RMM:   4    -0.115239112969E+04    0.37436E-04   -0.19617E-04  7546   0.167E-02    0.563E-02
RMM:   5    -0.115239112493E+04    0.47636E-05   -0.53138E-05  7039   0.109E-02    0.471E-02
RMM:   6    -0.115239112845E+04   -0.35226E-05   -0.24363E-05  6955   0.737E-03    0.126E-02
RMM:   7    -0.115239113075E+04   -0.23037E-05   -0.12493E-05  6597   0.533E-03    0.123E-02
RMM:   8    -0.115239113215E+04   -0.13959E-05   -0.77542E-06  5723   0.424E-03
   6 F= -.11523911E+04 E0= -.11523911E+04  d E =-.106300E-02  mag=    20.0000
       N       E                     dE             d eps       ncg     rms          rms(c)
DAV:   1    -0.115239024345E+04    0.88731E-03   -0.57509E-01 12560   0.884E-01    0.193E-01
RMM:   2    -0.115239155956E+04   -0.13161E-02   -0.14558E-02 12391   0.153E-01    0.145E-01
RMM:   3    -0.115239154060E+04    0.18959E-04   -0.69753E-04 10821   0.496E-02    0.900E-02
RMM:   4    -0.115239150266E+04    0.37942E-04   -0.19768E-04  7554   0.166E-02    0.586E-02
RMM:   5    -0.115239149784E+04    0.48223E-05   -0.53580E-05  7068   0.108E-02    0.477E-02
RMM:   6    -0.115239150148E+04   -0.36363E-05   -0.26040E-05  6980   0.741E-03    0.127E-02
RMM:   7    -0.115239150380E+04   -0.23217E-05   -0.13106E-05  6694   0.546E-03    0.125E-02
RMM:   8    -0.115239150517E+04   -0.13679E-05   -0.83031E-06  5949   0.426E-03
   7 F= -.11523915E+04 E0= -.11523915E+04  d E =-.143601E-02  mag=    20.0000
       N       E                     dE             d eps       ncg     rms          rms(c)
DAV:   1    -0.115239122408E+04    0.27972E-03   -0.58234E-01 12336   0.883E-01    0.207E-01
RMM:   2    -0.115239247966E+04   -0.12556E-02   -0.14455E-02 12406   0.151E-01    0.138E-01
RMM:   3    -0.115239245641E+04    0.23254E-04   -0.71865E-04 10902   0.504E-02    0.835E-02
RMM:   4    -0.115239241747E+04    0.38936E-04   -0.19998E-04  7545   0.167E-02    0.604E-02
RMM:   5    -0.115239240863E+04    0.88401E-05   -0.50294E-05  7046   0.106E-02    0.383E-02
RMM:   6    -0.115239240970E+04   -0.10665E-05   -0.24838E-05  6962   0.678E-03    0.117E-02
RMM:   7    -0.115239240979E+04   -0.98138E-07   -0.11906E-05  6503   0.524E-03    0.111E-02
RMM:   8    -0.115239240979E+04    0.19500E-08   -0.73978E-06  5246   0.374E-03
   8 F= -.11523924E+04 E0= -.11523924E+04  d E =-.904628E-03  mag=    20.0000
