<?xml version="1.0" encoding="ISO-8859-1"?>
<modeling>
 <generator>
  <i name="program" type="string">vasp </i>
  <i name="version" type="string">5.4.1  </i>
  <i name="subversion" type="string">05Feb16 (build Jan 25 2017 20:16:33) complex                          parallel </i>
  <i name="platform" type="string">BWXE6 </i>
  <i name="date" type="string">2019 06 20 </i>
  <i name="time" type="string">11:07:00 </i>
 </generator>
 <incar>
  <i type="string" name="SYSTEM"> STF</i>
  <i type="string" name="PREC">normal</i>
  <i type="string" name="ALGO"> Fast</i>
  <i type="int" name="ISPIN">     2</i>
  <i type="int" name="NELM">    40</i>
  <i type="int" name="NELMIN">     8</i>
  <i type="int" name="IBRION">     2</i>
  <i name="EDIFF">      0.00010000</i>
  <i name="EDIFFG">     -0.03000000</i>
  <i type="int" name="NSW">    30</i>
  <i type="int" name="ISIF">     3</i>
  <i name="ENCUT">    520.00000000</i>
  <i type="int" name="NBANDS">   768</i>
  <v name="MAGMOM">      0.60000000      0.60000000      0.60000000      0.60000000      0.60000000      0.60000000      0.60000000      0.60000000      0.60000000      0.60000000      0.60000000      0.60000000      0.60000000      0.60000000      0.60000000      0.60000000      0.60000000      0.60000000      0.60000000      0.60000000
      0.60000000      0.60000000      0.60000000      0.60000000      0.60000000      0.60000000      0.60000000      0.60000000      0.60000000      0.60000000      0.60000000      0.60000000      0.60000000      0.60000000      0.60000000      0.60000000      0.60000000      0.60000000      0.60000000      0.60000000
      0.60000000      0.60000000      0.60000000      0.60000000      0.60000000      0.60000000      0.60000000      0.60000000      0.60000000      0.60000000      0.60000000      0.60000000      0.60000000      0.60000000      0.60000000      0.60000000      0.60000000      0.60000000      0.60000000      0.60000000
      5.00000000      5.00000000      5.00000000      5.00000000      0.60000000      0.60000000      0.60000000      0.60000000      0.60000000      0.60000000      0.60000000      0.60000000      0.60000000      0.60000000      0.60000000      0.60000000      0.60000000      0.60000000      0.60000000      0.60000000
      0.60000000      0.60000000      0.60000000      0.60000000      0.60000000      0.60000000      0.60000000      0.60000000      0.60000000      0.60000000      0.60000000      0.60000000      0.60000000      0.60000000      0.60000000      0.60000000      0.60000000      0.60000000      0.60000000      0.60000000
      0.60000000      0.60000000      0.60000000      0.60000000      0.60000000      0.60000000      0.60000000      0.60000000      0.60000000      0.60000000      0.60000000      0.60000000      0.60000000      0.60000000      0.60000000      0.60000000      0.60000000      0.60000000      0.60000000      0.60000000
      0.60000000      0.60000000      0.60000000      0.60000000      0.60000000      0.60000000      0.60000000      0.60000000      0.60000000      0.60000000      0.60000000      0.60000000      0.60000000      0.60000000      0.60000000      0.60000000      0.60000000      0.60000000      0.60000000      0.60000000
      0.60000000      0.60000000      0.60000000      0.60000000      0.60000000      0.60000000      0.60000000      0.60000000      0.60000000      0.60000000      0.60000000      0.60000000      0.60000000      0.60000000      0.60000000      0.60000000      0.60000000      0.60000000</v>
  <i type="string" name="LREAL"> Auto</i>
  <i type="int" name="ISMEAR">     0</i>
  <i name="SIGMA">      0.05000000</i>
  <i type="int" name="LMAXMIX">     4</i>
  <v type="int" name="KPOINT_BSE">    -1     0     0     0</v>
  <i type="int" name="NELM">    40</i>
  <i type="logical" name="LDAU"> T  </i>
  <v type="int" name="LDAUTYPE">     2</v>
  <v type="int" name="LDAUL">     0     2     2     0</v>
  <v name="LDAUU">      0.00000000      3.00000000      5.00000000      0.00000000</v>
  <v name="LDAUJ">      0.00000000      0.00000000      0.00000000      0.00000000</v>
  <i type="int" name="LDAUPRINT">     1</i>
 </incar>
 <kpoints>
  <generation param="Monkhorst-Pack">
   <v type="int" name="divisions">       2        2        2 </v>
   <v name="usershift">      0.00000000       0.00000000       0.00000000 </v>
   <v name="genvec1">      0.50000000      -0.00000000      -0.00000000 </v>
   <v name="genvec2">      0.00000000       0.50000000      -0.00000000 </v>
   <v name="genvec3">      0.00000000       0.00000000       0.50000000 </v>
   <v name="shift">      0.50000000       0.50000000       0.50000000 </v>
  </generation>
  <varray name="kpointlist" >
   <v>       0.25000000       0.25000000       0.25000000 </v>
   <v>      -0.25000000       0.25000000       0.25000000 </v>
   <v>       0.25000000      -0.25000000       0.25000000 </v>
   <v>      -0.25000000      -0.25000000       0.25000000 </v>
  </varray>
  <varray name="weights" >
   <v>       0.25000000 </v>
   <v>       0.25000000 </v>
   <v>       0.25000000 </v>
   <v>       0.25000000 </v>
  </varray>
 </kpoints>
 <parameters>
  <separator name="general" >
   <i type="string" name="SYSTEM">STF</i>
   <i type="logical" name="LCOMPAT"> F  </i>
  </separator>
  <separator name="electronic" >
   <i type="string" name="PREC">normal</i>
   <i name="ENMAX">    520.00000000</i>
   <i name="ENAUG">    605.39200000</i>
   <i name="EDIFF">      0.00010000</i>
   <i type="int" name="IALGO">    68</i>
   <i type="int" name="IWAVPR">    11</i>
   <i type="int" name="NBANDS">   768</i>
   <i name="NELECT">   1028.00000000</i>
   <i type="int" name="TURBO">     0</i>
   <i type="int" name="IRESTART">     0</i>
   <i type="int" name="NREBOOT">     0</i>
   <i type="int" name="NMIN">     0</i>
   <i name="EREF">      0.00000000</i>
   <separator name="electronic smearing" >
    <i type="int" name="ISMEAR">     0</i>
    <i name="SIGMA">      0.05000000</i>
    <i name="KSPACING">      0.50000000</i>
    <i type="logical" name="KGAMMA"> T  </i>
   </separator>
   <separator name="electronic projectors" >
    <i type="logical" name="LREAL"> T  </i>
    <v name="ROPT">     -0.00050000     -0.00050000     -0.00050000     -0.00050000</v>
    <i type="int" name="LMAXPAW">  -100</i>
    <i type="int" name="LMAXMIX">     4</i>
    <i type="logical" name="NLSPLINE"> F  </i>
   </separator>
   <separator name="electronic startup" >
    <i type="int" name="ISTART">     1</i>
    <i type="int" name="ICHARG">     0</i>
    <i type="int" name="INIWAV">     1</i>
   </separator>
   <separator name="electronic spin" >
    <i type="int" name="ISPIN">     2</i>
    <i type="logical" name="LNONCOLLINEAR"> F  </i>
    <v name="MAGMOM">      0.60000000      0.60000000      0.60000000      0.60000000      0.60000000      0.60000000      0.60000000      0.60000000      0.60000000      0.60000000      0.60000000      0.60000000      0.60000000      0.60000000      0.60000000      0.60000000      0.60000000      0.60000000      0.60000000      0.60000000
      0.60000000      0.60000000      0.60000000      0.60000000      0.60000000      0.60000000      0.60000000      0.60000000      0.60000000      0.60000000      0.60000000      0.60000000      0.60000000      0.60000000      0.60000000      0.60000000      0.60000000      0.60000000      0.60000000      0.60000000
      0.60000000      0.60000000      0.60000000      0.60000000      0.60000000      0.60000000      0.60000000      0.60000000      0.60000000      0.60000000      0.60000000      0.60000000      0.60000000      0.60000000      0.60000000      0.60000000      0.60000000      0.60000000      0.60000000      0.60000000
      5.00000000      5.00000000      5.00000000      5.00000000      0.60000000      0.60000000      0.60000000      0.60000000      0.60000000      0.60000000      0.60000000      0.60000000      0.60000000      0.60000000      0.60000000      0.60000000      0.60000000      0.60000000      0.60000000      0.60000000
      0.60000000      0.60000000      0.60000000      0.60000000      0.60000000      0.60000000      0.60000000      0.60000000      0.60000000      0.60000000      0.60000000      0.60000000      0.60000000      0.60000000      0.60000000      0.60000000      0.60000000      0.60000000      0.60000000      0.60000000
      0.60000000      0.60000000      0.60000000      0.60000000      0.60000000      0.60000000      0.60000000      0.60000000      0.60000000      0.60000000      0.60000000      0.60000000      0.60000000      0.60000000      0.60000000      0.60000000      0.60000000      0.60000000      0.60000000      0.60000000
      0.60000000      0.60000000      0.60000000      0.60000000      0.60000000      0.60000000      0.60000000      0.60000000      0.60000000      0.60000000      0.60000000      0.60000000      0.60000000      0.60000000      0.60000000      0.60000000      0.60000000      0.60000000      0.60000000      0.60000000
      0.60000000      0.60000000      0.60000000      0.60000000      0.60000000      0.60000000      0.60000000      0.60000000      0.60000000      0.60000000      0.60000000      0.60000000      0.60000000      0.60000000      0.60000000      0.60000000      0.60000000      0.60000000</v>
    <i name="NUPDOWN">     -1.00000000</i>
    <i type="logical" name="LSORBIT"> F  </i>
    <v name="SAXIS">      0.00000000      0.00000000      1.00000000</v>
    <i type="logical" name="LSPIRAL"> F  </i>
    <v name="QSPIRAL">      0.00000000      0.00000000      0.00000000</v>
    <i type="logical" name="LZEROZ"> F  </i>
   </separator>
   <separator name="electronic exchange-correlation" >
    <i type="logical" name="LASPH"> F  </i>
    <i type="logical" name="LMETAGGA"> F  </i>
   </separator>
   <separator name="electronic convergence" >
    <i type="int" name="NELM">    40</i>
    <i type="int" name="NELMDL">     0</i>
    <i type="int" name="NELMIN">     8</i>
    <i name="ENINI">    520.00000000</i>
    <separator name="electronic convergence detail" >
     <i type="logical" name="LDIAG"> T  </i>
     <i type="logical" name="LSUBROT"> F  </i>
     <i name="WEIMIN">      0.00100000</i>
     <i name="EBREAK">      0.00000003</i>
     <i name="DEPER">      0.30000000</i>
     <i type="int" name="NRMM">     4</i>
     <i name="TIME">      0.40000000</i>
    </separator>
   </separator>
   <separator name="electronic mixer" >
    <i name="AMIX">      0.40000000</i>
    <i name="BMIX">      1.00000000</i>
    <i name="AMIN">      0.10000000</i>
    <i name="AMIX_MAG">      1.60000000</i>
    <i name="BMIX_MAG">      1.00000000</i>
    <separator name="electronic mixer details" >
     <i type="int" name="IMIX">     4</i>
     <i type="logical" name="MIXFIRST"> F  </i>
     <i type="int" name="MAXMIX">   -45</i>
     <i name="WC">    100.00000000</i>
     <i type="int" name="INIMIX">     1</i>
     <i type="int" name="MIXPRE">     1</i>
     <i type="int" name="MREMOVE">     5</i>
    </separator>
   </separator>
   <separator name="electronic dipolcorrection" >
    <i type="logical" name="LDIPOL"> F  </i>
    <i type="logical" name="LMONO"> F  </i>
    <i type="int" name="IDIPOL">     0</i>
    <i name="EPSILON">      1.00000000</i>
    <v name="DIPOL">   -100.00000000   -100.00000000   -100.00000000</v>
    <i name="EFIELD">      0.00000000</i>
   </separator>
  </separator>
  <separator name="grids" >
   <i type="int" name="NGX">    64</i>
   <i type="int" name="NGY">    64</i>
   <i type="int" name="NGZ">    90</i>
   <i type="int" name="NGXF">   128</i>
   <i type="int" name="NGYF">   128</i>
   <i type="int" name="NGZF">   180</i>
   <i type="logical" name="ADDGRID"> F  </i>
  </separator>
  <separator name="ionic" >
   <i type="int" name="NSW">    30</i>
   <i type="int" name="IBRION">     2</i>
   <i type="int" name="ISIF">     3</i>
   <i name="PSTRESS">      0.00000000</i>
   <i name="EDIFFG">     -0.03000000</i>
   <i type="int" name="NFREE">     1</i>
   <i name="POTIM">      0.50000000</i>
   <i name="SMASS">     -3.00000000</i>
   <i name="SCALEE">      1.00000000</i>
  </separator>
  <separator name="ionic md" >
   <i name="TEBEG">      0.00010000</i>
   <i name="TEEND">      0.00010000</i>
   <i type="int" name="NBLOCK">     1</i>
   <i type="int" name="KBLOCK">    30</i>
   <i type="int" name="NPACO">   256</i>
   <i name="APACO">     16.00000000</i>
  </separator>
  <separator name="symmetry" >
   <i type="int" name="ISYM">     2</i>
   <i name="SYMPREC">      0.00001000</i>
  </separator>
  <separator name="dos" >
   <i type="logical" name="LORBIT"> F  </i>
   <v name="RWIGS">     -1.00000000     -1.00000000     -1.00000000     -1.00000000</v>
   <i type="int" name="NEDOS">   301</i>
   <i name="EMIN">     10.00000000</i>
   <i name="EMAX">    -10.00000000</i>
   <i name="EFERMI">      0.00000000</i>
  </separator>
  <separator name="writing" >
   <i type="int" name="NWRITE">     2</i>
   <i type="logical" name="LWAVE"> T  </i>
   <i type="logical" name="LCHARG"> T  </i>
   <i type="logical" name="LPARD"> F  </i>
   <i type="logical" name="LVTOT"> F  </i>
   <i type="logical" name="LVHAR"> F  </i>
   <i type="logical" name="LELF"> F  </i>
   <i type="logical" name="LOPTICS"> F  </i>
   <v name="STM">      0.00000000      0.00000000      0.00000000      0.00000000      0.00000000      0.00000000      0.00000000</v>
  </separator>
  <separator name="performance" >
   <i type="int" name="NPAR">     2</i>
   <i type="int" name="NSIM">     4</i>
   <i type="int" name="NBLK">    -1</i>
   <i type="logical" name="LPLANE"> T  </i>
   <i type="logical" name="LSCALAPACK"> T  </i>
   <i type="logical" name="LSCAAWARE"> F  </i>
   <i type="logical" name="LSCALU"> F  </i>
   <i type="logical" name="LASYNC"> F  </i>
   <i type="logical" name="LORBITALREAL"> F  </i>
  </separator>
  <separator name="miscellaneous" >
   <i type="int" name="IDIOT">     3</i>
   <i type="logical" name="LMUSIC"> F  </i>
   <v name="POMASS">     87.62000000     47.88000000     55.84700000     16.00000000</v>
   <v name="DARWINR">      0.00000000      0.00000000      0.00000000      0.00000000</v>
   <v name="DARWINV">      1.00000000      1.00000000      1.00000000      1.00000000</v>
   <i type="logical" name="LCORR"> T  </i>
  </separator>
  <i type="logical" name="GGA_COMPAT"> T  </i>
  <i type="logical" name="LBERRY"> F  </i>
  <i type="int" name="ICORELEVEL">     0</i>
  <i type="logical" name="LDAU"> T  </i>
  <v type="int" name="LDAUTYPE">     2</v>
  <v type="int" name="LDAUL">     0</v>
  <v name="LDAUU">      0.00000000</v>
  <v name="LDAUJ">      0.00000000</v>
  <i type="int" name="LDAUPRINT">     1</i>
  <i type="int" name="I_CONSTRAINED_M">     0</i>
  <separator name="electronic exchange-correlation" >
   <i type="string" name="GGA">--</i>
   <i type="int" name="VOSKOWN">     0</i>
   <i type="logical" name="LHFCALC"> F  </i>
   <i type="string" name="PRECFOCK"></i>
   <i type="logical" name="LSYMGRAD"> F  </i>
   <i type="logical" name="LHFONE"> F  </i>
   <i type="logical" name="LRHFCALC"> F  </i>
   <i type="logical" name="LTHOMAS"> F  </i>
   <i type="logical" name="LMODELHF"> F  </i>
   <i name="ENCUT4O">     -1.00000000</i>
   <i type="int" name="EXXOEP">     0</i>
   <i type="int" name="FOURORBIT">     0</i>
   <i name="AEXX">      0.00000000</i>
   <i name="HFALPHA">      0.00000000</i>
   <i name="MCALPHA">      0.00000000</i>
   <i name="ALDAX">      1.00000000</i>
   <i name="AGGAX">      1.00000000</i>
   <i name="ALDAC">      1.00000000</i>
   <i name="AGGAC">      1.00000000</i>
   <i type="int" name="NKREDX">     1</i>
   <i type="int" name="NKREDY">     1</i>
   <i type="int" name="NKREDZ">     1</i>
   <i type="logical" name="SHIFTRED"> F  </i>
   <i type="logical" name="ODDONLY"> F  </i>
   <i type="logical" name="EVENONLY"> F  </i>
   <i type="int" name="LMAXFOCK">     0</i>
   <i type="int" name="NMAXFOCKAE">     0</i>
   <i type="logical" name="LFOCKAEDFT"> F  </i>
   <i name="HFSCREEN">      0.00000000</i>
   <i name="HFSCREENC">      0.00000000</i>
   <i type="int" name="NBANDSGWLOW">     0</i>
  </separator>
  <separator name="vdW DFT" >
   <i type="logical" name="LUSE_VDW"> F  </i>
   <i name="Zab_VDW">     -0.84910000</i>
   <i name="PARAM1">      0.12340000</i>
   <i name="PARAM2">      1.00000000</i>
   <i name="PARAM3">      0.00000000</i>
  </separator>
  <separator name="model GW" >
   <i type="int" name="MODEL_GW">     0</i>
   <i name="MODEL_EPS0">      7.61688818</i>
   <i name="MODEL_ALPHA">      1.00000000</i>
  </separator>
  <separator name="linear response parameters" >
   <i type="logical" name="LEPSILON"> F  </i>
   <i type="logical" name="LRPA"> F  </i>
   <i type="logical" name="LNABLA"> F  </i>
   <i type="logical" name="LVEL"> F  </i>
   <i type="int" name="KINTER">     0</i>
   <i name="CSHIFT">      0.10000000</i>
   <i name="OMEGAMAX">     -1.00000000</i>
   <i name="DEG_THRESHOLD">      0.00200000</i>
  </separator>
  <separator name="orbital magnetization" >
   <i type="logical" name="NUCIND"> F  </i>
   <v name="MAGPOS">      0.00000000      0.00000000      0.00000000</v>
   <i type="logical" name="LNICSALL"> T  </i>
   <i type="logical" name="ORBITALMAG"> F  </i>
   <i type="logical" name="LMAGBLOCH"> F  </i>
   <i type="logical" name="LCHIMAG"> F  </i>
   <i type="logical" name="LGAUGE"> T  </i>
   <i type="int" name="MAGATOM">     0</i>
   <v name="MAGDIPOL">      0.00000000      0.00000000      0.00000000</v>
   <v name="AVECCONST">      0.00000000      0.00000000      0.00000000</v>
  </separator>
  <separator name="response functions" >
   <i type="logical" name="LADDER"> F  </i>
   <i type="logical" name="LFXC"> F  </i>
   <i type="logical" name="LHARTREE"> T  </i>
   <i type="int" name="IBSE">     0</i>
   <v type="int" name="KPOINT">    -1     0     0     0</v>
   <i type="logical" name="LTCTE"> F  </i>
   <i type="logical" name="LTETE"> F  </i>
   <i type="logical" name="LTRIPLET"> F  </i>
   <i type="logical" name="LFXCEPS"> F  </i>
   <i type="logical" name="LFXHEG"> F  </i>
   <i type="int" name="NATURALO">     0</i>
   <i type="logical" name="L2ORDER"> F  </i>
   <i type="logical" name="LUSEW"> F  </i>
   <i name="ENCUTGW">     -2.00000000</i>
   <i name="ENCUTGWSOFT">     -2.00000000</i>
   <i name="ENCUTLF">     -1.00000000</i>
   <i type="int" name="LMAXMP2">    -1</i>
   <i name="SCISSOR">      0.00000000</i>
   <i type="int" name="NOMEGA">     0</i>
   <i type="int" name="NOMEGAR">     0</i>
   <i type="int" name="NBANDSGW">    -1</i>
   <i type="int" name="NBANDSO">    -1</i>
   <i type="int" name="NBANDSV">    -1</i>
   <i type="int" name="NELM">    40</i>
   <i type="int" name="NELMHF">     1</i>
   <i type="int" name="DIM">     3</i>
   <i type="int" name="ANTIRES">     0</i>
   <i name="OMEGAMAX">    -30.00000000</i>
   <i name="OMEGAMIN">    -30.00000000</i>
   <i name="OMEGATL">   -200.00000000</i>
   <i type="int" name="OMEGAGRID">     0</i>
   <i name="CSHIFT">     -0.10000000</i>
   <i type="logical" name="SELFENERGY"> F  </i>
   <i type="logical" name="LSPECTRAL"> F  </i>
   <i type="logical" name="LSPECTRALGW"> F  </i>
   <i type="logical" name="LSINGLES"> F  </i>
   <i type="logical" name="LFERMIGW"> F  </i>
   <i type="logical" name="ODDONLYGW"> F  </i>
   <i type="logical" name="EVENONLYGW"> F  </i>
   <i type="int" name="NKREDLFX">     1</i>
   <i type="int" name="NKREDLFY">     1</i>
   <i type="int" name="NKREDLFZ">     1</i>
   <i type="int" name="MAXMEM">  1800</i>
   <i type="int" name="TELESCOPE">     0</i>
   <i type="int" name="TAUPAR">     1</i>
   <i type="int" name="OMEGAPAR">    -1</i>
   <i name="LAMBDA">      1.00000000</i>
  </separator>
  <separator name="External order field" >
   <i name="OFIELD_KAPPA">      0.00000000</i>
   <v name="OFIELD_K">      0.00000000      0.00000000      0.00000000</v>
   <i name="OFIELD_Q6_NEAR">      0.00000000</i>
   <i name="OFIELD_Q6_FAR">      0.00000000</i>
   <i name="OFIELD_A">      0.00000000</i>
  </separator>
 </parameters>
 <atominfo>
  <atoms>     158 </atoms>
  <types>       4 </types>
  <array name="atoms" >
   <dimension dim="1">ion</dimension>
   <field type="string">element</field>
   <field type="int">atomtype</field>
   <set>
    <rc><c>Sr</c><c>   1</c></rc>
    <rc><c>Sr</c><c>   1</c></rc>
    <rc><c>Sr</c><c>   1</c></rc>
    <rc><c>Sr</c><c>   1</c></rc>
    <rc><c>Sr</c><c>   1</c></rc>
    <rc><c>Sr</c><c>   1</c></rc>
    <rc><c>Sr</c><c>   1</c></rc>
    <rc><c>Sr</c><c>   1</c></rc>
    <rc><c>Sr</c><c>   1</c></rc>
    <rc><c>Sr</c><c>   1</c></rc>
    <rc><c>Sr</c><c>   1</c></rc>
    <rc><c>Sr</c><c>   1</c></rc>
    <rc><c>Sr</c><c>   1</c></rc>
    <rc><c>Sr</c><c>   1</c></rc>
    <rc><c>Sr</c><c>   1</c></rc>
    <rc><c>Sr</c><c>   1</c></rc>
    <rc><c>Sr</c><c>   1</c></rc>
    <rc><c>Sr</c><c>   1</c></rc>
    <rc><c>Sr</c><c>   1</c></rc>
    <rc><c>Sr</c><c>   1</c></rc>
    <rc><c>Sr</c><c>   1</c></rc>
    <rc><c>Sr</c><c>   1</c></rc>
    <rc><c>Sr</c><c>   1</c></rc>
    <rc><c>Sr</c><c>   1</c></rc>
    <rc><c>Sr</c><c>   1</c></rc>
    <rc><c>Sr</c><c>   1</c></rc>
    <rc><c>Sr</c><c>   1</c></rc>
    <rc><c>Sr</c><c>   1</c></rc>
    <rc><c>Sr</c><c>   1</c></rc>
    <rc><c>Sr</c><c>   1</c></rc>
    <rc><c>Sr</c><c>   1</c></rc>
    <rc><c>Sr</c><c>   1</c></rc>
    <rc><c>Ti</c><c>   2</c></rc>
    <rc><c>Ti</c><c>   2</c></rc>
    <rc><c>Ti</c><c>   2</c></rc>
    <rc><c>Ti</c><c>   2</c></rc>
    <rc><c>Ti</c><c>   2</c></rc>
    <rc><c>Ti</c><c>   2</c></rc>
    <rc><c>Ti</c><c>   2</c></rc>
    <rc><c>Ti</c><c>   2</c></rc>
    <rc><c>Ti</c><c>   2</c></rc>
    <rc><c>Ti</c><c>   2</c></rc>
    <rc><c>Ti</c><c>   2</c></rc>
    <rc><c>Ti</c><c>   2</c></rc>
    <rc><c>Ti</c><c>   2</c></rc>
    <rc><c>Ti</c><c>   2</c></rc>
    <rc><c>Ti</c><c>   2</c></rc>
    <rc><c>Ti</c><c>   2</c></rc>
    <rc><c>Ti</c><c>   2</c></rc>
    <rc><c>Ti</c><c>   2</c></rc>
    <rc><c>Ti</c><c>   2</c></rc>
    <rc><c>Ti</c><c>   2</c></rc>
    <rc><c>Ti</c><c>   2</c></rc>
    <rc><c>Ti</c><c>   2</c></rc>
    <rc><c>Ti</c><c>   2</c></rc>
    <rc><c>Ti</c><c>   2</c></rc>
    <rc><c>Ti</c><c>   2</c></rc>
    <rc><c>Ti</c><c>   2</c></rc>
    <rc><c>Ti</c><c>   2</c></rc>
    <rc><c>Ti</c><c>   2</c></rc>
    <rc><c>Fe</c><c>   3</c></rc>
    <rc><c>Fe</c><c>   3</c></rc>
    <rc><c>Fe</c><c>   3</c></rc>
    <rc><c>Fe</c><c>   3</c></rc>
    <rc><c>O </c><c>   4</c></rc>
    <rc><c>O </c><c>   4</c></rc>
    <rc><c>O </c><c>   4</c></rc>
    <rc><c>O </c><c>   4</c></rc>
    <rc><c>O </c><c>   4</c></rc>
    <rc><c>O </c><c>   4</c></rc>
    <rc><c>O </c><c>   4</c></rc>
    <rc><c>O </c><c>   4</c></rc>
    <rc><c>O </c><c>   4</c></rc>
    <rc><c>O </c><c>   4</c></rc>
    <rc><c>O </c><c>   4</c></rc>
    <rc><c>O </c><c>   4</c></rc>
    <rc><c>O </c><c>   4</c></rc>
    <rc><c>O </c><c>   4</c></rc>
    <rc><c>O </c><c>   4</c></rc>
    <rc><c>O </c><c>   4</c></rc>
    <rc><c>O </c><c>   4</c></rc>
    <rc><c>O </c><c>   4</c></rc>
    <rc><c>O </c><c>   4</c></rc>
    <rc><c>O </c><c>   4</c></rc>
    <rc><c>O </c><c>   4</c></rc>
    <rc><c>O </c><c>   4</c></rc>
    <rc><c>O </c><c>   4</c></rc>
    <rc><c>O </c><c>   4</c></rc>
    <rc><c>O </c><c>   4</c></rc>
    <rc><c>O </c><c>   4</c></rc>
    <rc><c>O </c><c>   4</c></rc>
    <rc><c>O </c><c>   4</c></rc>
    <rc><c>O </c><c>   4</c></rc>
    <rc><c>O </c><c>   4</c></rc>
    <rc><c>O </c><c>   4</c></rc>
    <rc><c>O </c><c>   4</c></rc>
    <rc><c>O </c><c>   4</c></rc>
    <rc><c>O </c><c>   4</c></rc>
    <rc><c>O </c><c>   4</c></rc>
    <rc><c>O </c><c>   4</c></rc>
    <rc><c>O </c><c>   4</c></rc>
    <rc><c>O </c><c>   4</c></rc>
    <rc><c>O </c><c>   4</c></rc>
    <rc><c>O </c><c>   4</c></rc>
    <rc><c>O </c><c>   4</c></rc>
    <rc><c>O </c><c>   4</c></rc>
    <rc><c>O </c><c>   4</c></rc>
    <rc><c>O </c><c>   4</c></rc>
    <rc><c>O </c><c>   4</c></rc>
    <rc><c>O </c><c>   4</c></rc>
    <rc><c>O </c><c>   4</c></rc>
    <rc><c>O </c><c>   4</c></rc>
    <rc><c>O </c><c>   4</c></rc>
    <rc><c>O </c><c>   4</c></rc>
    <rc><c>O </c><c>   4</c></rc>
    <rc><c>O </c><c>   4</c></rc>
    <rc><c>O </c><c>   4</c></rc>
    <rc><c>O </c><c>   4</c></rc>
    <rc><c>O </c><c>   4</c></rc>
    <rc><c>O </c><c>   4</c></rc>
    <rc><c>O </c><c>   4</c></rc>
    <rc><c>O </c><c>   4</c></rc>
    <rc><c>O </c><c>   4</c></rc>
    <rc><c>O </c><c>   4</c></rc>
    <rc><c>O </c><c>   4</c></rc>
    <rc><c>O </c><c>   4</c></rc>
    <rc><c>O </c><c>   4</c></rc>
    <rc><c>O </c><c>   4</c></rc>
    <rc><c>O </c><c>   4</c></rc>
    <rc><c>O </c><c>   4</c></rc>
    <rc><c>O </c><c>   4</c></rc>
    <rc><c>O </c><c>   4</c></rc>
    <rc><c>O </c><c>   4</c></rc>
    <rc><c>O </c><c>   4</c></rc>
    <rc><c>O </c><c>   4</c></rc>
    <rc><c>O </c><c>   4</c></rc>
    <rc><c>O </c><c>   4</c></rc>
    <rc><c>O </c><c>   4</c></rc>
    <rc><c>O </c><c>   4</c></rc>
    <rc><c>O </c><c>   4</c></rc>
    <rc><c>O </c><c>   4</c></rc>
    <rc><c>O </c><c>   4</c></rc>
    <rc><c>O </c><c>   4</c></rc>
    <rc><c>O </c><c>   4</c></rc>
    <rc><c>O </c><c>   4</c></rc>
    <rc><c>O </c><c>   4</c></rc>
    <rc><c>O </c><c>   4</c></rc>
    <rc><c>O </c><c>   4</c></rc>
    <rc><c>O </c><c>   4</c></rc>
    <rc><c>O </c><c>   4</c></rc>
    <rc><c>O </c><c>   4</c></rc>
    <rc><c>O </c><c>   4</c></rc>
    <rc><c>O </c><c>   4</c></rc>
    <rc><c>O </c><c>   4</c></rc>
    <rc><c>O </c><c>   4</c></rc>
    <rc><c>O </c><c>   4</c></rc>
    <rc><c>O </c><c>   4</c></rc>
    <rc><c>O </c><c>   4</c></rc>
   </set>
  </array>
  <array name="atomtypes" >
   <dimension dim="1">type</dimension>
   <field type="int">atomspertype</field>
   <field type="string">element</field>
   <field>mass</field>
   <field>valence</field>
   <field type="string">pseudopotential</field>
   <set>
    <rc><c>  32</c><c>Sr</c><c>     87.62000000</c><c>     10.00000000</c><c>  PAW_PBE Sr_sv 07Sep2000               </c></rc>
    <rc><c>  28</c><c>Ti</c><c>     47.88000000</c><c>      4.00000000</c><c>  PAW_PBE Ti 08Apr2002                  </c></rc>
    <rc><c>   4</c><c>Fe</c><c>     55.84700000</c><c>      8.00000000</c><c>  PAW_PBE Fe 06Sep2000                  </c></rc>
    <rc><c>  94</c><c>O </c><c>     16.00000000</c><c>      6.00000000</c><c>  PAW_PBE O 08Apr2002                   </c></rc>
   </set>
  </array>
 </atominfo>
 <structure name="initialpos" >
  <crystal>
   <varray name="basis" >
    <v>      11.20560976      -0.01116409       0.00306700 </v>
    <v>      -0.01116785      11.20705300      -0.00451217 </v>
    <v>       0.00437923      -0.00644203      15.97191651 </v>
   </varray>
   <i name="volume">   2005.78055532 </i>
   <varray name="rec_basis" >
    <v>       0.08924111       0.00008892      -0.00002443 </v>
    <v>       0.00008889       0.08922963       0.00003597 </v>
    <v>      -0.00001711       0.00002519       0.06260991 </v>
   </varray>
  </crystal>
  <varray name="positions" >
   <v>       0.99804069       0.24867401       0.12242219 </v>
   <v>       0.00068151       0.24180706       0.62381551 </v>
   <v>       0.00303542       0.75427144       0.12331261 </v>
   <v>       0.99813519       0.75806237       0.62287334 </v>
   <v>       0.50558850       0.25029867       0.12044026 </v>
   <v>       0.50014933       0.24955589       0.62325013 </v>
   <v>       0.49756892       0.75000812       0.11923764 </v>
   <v>       0.49968183       0.74914335       0.62497739 </v>
   <v>       0.00003309       0.24891611       0.37736003 </v>
   <v>       0.99798275       0.24625343       0.87804861 </v>
   <v>       0.00133846       0.75323149       0.37738253 </v>
   <v>       0.99981005       0.75476625       0.87779081 </v>
   <v>       0.50288110       0.25683630       0.37851998 </v>
   <v>       0.50280759       0.24635351       0.87792782 </v>
   <v>       0.49751189       0.74541691       0.38179081 </v>
   <v>       0.49922546       0.75100418       0.87442686 </v>
   <v>       0.24676769       0.99908288       0.12005819 </v>
   <v>       0.25200548       0.99916877       0.62457533 </v>
   <v>       0.25229743       0.50110930       0.12202366 </v>
   <v>       0.26091171       0.50023116       0.62298376 </v>
   <v>       0.75212644       0.00926906       0.11634595 </v>
   <v>       0.74736596       0.00031909       0.62505169 </v>
   <v>       0.74754598       0.49124748       0.12048950 </v>
   <v>       0.73792789       0.49981618       0.62353302 </v>
   <v>       0.24464247       0.99880856       0.37946097 </v>
   <v>       0.25221839       0.99943191       0.87586634 </v>
   <v>       0.25427668       0.50133506       0.37951059 </v>
   <v>       0.25523478       0.49953980       0.87740168 </v>
   <v>       0.75486046       0.00678669       0.38104566 </v>
   <v>       0.74680300       0.00317392       0.87676985 </v>
   <v>       0.74639103       0.49434977       0.38095849 </v>
   <v>       0.74454618       0.49805428       0.87744160 </v>
   <v>       0.99902437       0.00149487       0.99948986 </v>
   <v>       0.00003875       0.00017776       0.50036628 </v>
   <v>       0.99882889       0.49963514       0.00491794 </v>
   <v>       0.50085471       0.99907715       0.49940049 </v>
   <v>       0.50119257       0.49885575       0.99996907 </v>
   <v>       0.25101344       0.24923701       0.00018904 </v>
   <v>       0.24986184       0.25273340       0.50039851 </v>
   <v>       0.25054759       0.75072832       0.99946263 </v>
   <v>       0.24910183       0.74707226       0.50176196 </v>
   <v>       0.75091984       0.25327346       0.50231013 </v>
   <v>       0.74837828       0.75137714       0.99988017 </v>
   <v>       0.74890264       0.74880156       0.50068016 </v>
   <v>       0.24725545       0.25504430       0.24988185 </v>
   <v>       0.25044659       0.24921537       0.74944092 </v>
   <v>       0.24979568       0.74867235       0.25031234 </v>
   <v>       0.24963664       0.74990872       0.74915047 </v>
   <v>       0.75180451       0.25062045       0.24945094 </v>
   <v>       0.75039206       0.25046775       0.75001036 </v>
   <v>       0.75812371       0.73509786       0.24961172 </v>
   <v>       0.75089592       0.74963124       0.74941105 </v>
   <v>       0.99986837       0.00151758       0.24993659 </v>
   <v>       0.99978733       0.00022524       0.75060845 </v>
   <v>       0.00479202       0.49720358       0.24969629 </v>
   <v>       0.00021229       0.50039990       0.75908818 </v>
   <v>       0.48611808       0.00796763       0.25074822 </v>
   <v>       0.49954037       0.00045214       0.75242307 </v>
   <v>       0.49917840       0.50050448       0.25088028 </v>
   <v>       0.49980562       0.49930054       0.74969482 </v>
   <v>       0.00025923       0.50056237       0.49022600 </v>
   <v>       0.50229061       0.99973792       0.99906012 </v>
   <v>       0.49995788       0.50017647       0.50023336 </v>
   <v>       0.74977383       0.24986460       0.99843225 </v>
   <v>       0.10668562       0.14422174       0.24993336 </v>
   <v>       0.10953262       0.14080468       0.75071779 </v>
   <v>       0.10228713       0.64493424       0.24870904 </v>
   <v>       0.10771680       0.63608224       0.73726997 </v>
   <v>       0.61249659       0.13324939       0.25325542 </v>
   <v>       0.61021114       0.14006748       0.75126725 </v>
   <v>       0.60326028       0.65207259       0.24968691 </v>
   <v>       0.61176253       0.63954903       0.75041277 </v>
   <v>       0.39425712       0.35408280       0.24938599 </v>
   <v>       0.38923072       0.35994559       0.75110351 </v>
   <v>       0.39555863       0.85424468       0.25269897 </v>
   <v>       0.38965974       0.85910558       0.75121462 </v>
   <v>       0.89589509       0.35709422       0.24958331 </v>
   <v>       0.89323450       0.36464838       0.73762741 </v>
   <v>       0.88199927       0.86176634       0.25045019 </v>
   <v>       0.89069011       0.85943434       0.75049675 </v>
   <v>       0.35322951       0.10577386       0.25155473 </v>
   <v>       0.35834060       0.10979086       0.75154099 </v>
   <v>       0.35368455       0.60477697       0.25005132 </v>
   <v>       0.35936161       0.61023555       0.75102998 </v>
   <v>       0.85951244       0.10906901       0.25095325 </v>
   <v>       0.86106436       0.11014727       0.74942938 </v>
   <v>       0.85366546       0.60173973       0.24874398 </v>
   <v>       0.86539262       0.60694572       0.73624452 </v>
   <v>       0.14644378       0.39713384       0.24930921 </v>
   <v>       0.13636084       0.39247789       0.73825461 </v>
   <v>       0.14102295       0.89184624       0.25051439 </v>
   <v>       0.13958121       0.88968155       0.75011892 </v>
   <v>       0.64284014       0.39311856       0.25095294 </v>
   <v>       0.64037989       0.39014823       0.75016868 </v>
   <v>       0.64055214       0.88878240       0.75203423 </v>
   <v>       0.36091323       0.38891577       0.00057641 </v>
   <v>       0.36330340       0.38422146       0.49902043 </v>
   <v>       0.36054661       0.88648875       0.00004905 </v>
   <v>       0.36199058       0.88732488       0.49573269 </v>
   <v>       0.86304890       0.39144511       0.99981852 </v>
   <v>       0.86634268       0.39067323       0.51180630 </v>
   <v>       0.86205502       0.88819322       0.99884959 </v>
   <v>       0.86198938       0.88910724       0.49982031 </v>
   <v>       0.13847503       0.11123200       0.99894471 </v>
   <v>       0.13764423       0.11212429       0.50035208 </v>
   <v>       0.13861846       0.61016568       0.00057254 </v>
   <v>       0.13266386       0.61138894       0.51264006 </v>
   <v>       0.63770774       0.11293504       0.99814758 </v>
   <v>       0.63798371       0.11236391       0.49790995 </v>
   <v>       0.63980658       0.61167029       0.00215722 </v>
   <v>       0.63802301       0.61485172       0.49794543 </v>
   <v>       0.11026177       0.36164468       0.99997969 </v>
   <v>       0.11196048       0.36445572       0.50961137 </v>
   <v>       0.11111841       0.86111380       0.00057170 </v>
   <v>       0.11157078       0.86261532       0.49939525 </v>
   <v>       0.61122382       0.36433954       0.99919350 </v>
   <v>       0.61563680       0.36298986       0.50043254 </v>
   <v>       0.61419888       0.85906076       0.99237102 </v>
   <v>       0.61194607       0.86220832       0.50377617 </v>
   <v>       0.38579674       0.13841204       0.00401627 </v>
   <v>       0.38837165       0.13452089       0.49080044 </v>
   <v>       0.38778953       0.63805873       0.99882832 </v>
   <v>       0.38352502       0.63672964       0.50080800 </v>
   <v>       0.89008210       0.13688090       0.00146683 </v>
   <v>       0.88847083       0.13772034       0.49868856 </v>
   <v>       0.88946087       0.64027571       0.00680558 </v>
   <v>       0.88773332       0.63848020       0.50215306 </v>
   <v>       0.00133487       0.99879245       0.12540883 </v>
   <v>       0.00024534       0.99983991       0.62513208 </v>
   <v>       0.00156326       0.49809057       0.12642141 </v>
   <v>       0.51557775       0.98562711       0.13250081 </v>
   <v>       0.49723333       0.00232924       0.62402929 </v>
   <v>       0.49999337       0.50026804       0.12541583 </v>
   <v>       0.49975786       0.50065674       0.62676930 </v>
   <v>       0.00126766       0.99965413       0.37469860 </v>
   <v>       0.00027437       0.99973986       0.87501470 </v>
   <v>       0.00143551       0.49947780       0.37228480 </v>
   <v>       0.99883265       0.50365805       0.87450035 </v>
   <v>       0.51703785       0.98402724       0.37005815 </v>
   <v>       0.49645035       0.00167801       0.87337458 </v>
   <v>       0.49969278       0.50006373       0.37288621 </v>
   <v>       0.50024355       0.50135404       0.87544234 </v>
   <v>       0.24303926       0.25457432       0.37425828 </v>
   <v>       0.24678298       0.25474155       0.87436559 </v>
   <v>       0.24295222       0.74372724       0.37571429 </v>
   <v>       0.24316054       0.74603568       0.87358644 </v>
   <v>       0.75525826       0.25612105       0.37638566 </v>
   <v>       0.75799290       0.25497472       0.87153033 </v>
   <v>       0.74297655       0.76017657       0.37122873 </v>
   <v>       0.75919991       0.73941450       0.87380088 </v>
   <v>       0.24706933       0.25057031       0.12599376 </v>
   <v>       0.25763674       0.24272011       0.62463350 </v>
   <v>       0.24949542       0.75012324       0.12568215 </v>
   <v>       0.25514794       0.75706718       0.62527625 </v>
   <v>       0.74899190       0.25109673       0.12734249 </v>
   <v>       0.74586037       0.24344695       0.62513176 </v>
   <v>       0.73908990       0.76480103       0.12901178 </v>
   <v>       0.74824313       0.75321560       0.62494902 </v>
  </varray>
 </structure>
 <calculation>
  <scstep>
   <time name="dav">  597.79  597.83</time>
   <time name="total">  605.06  605.16</time>
   <energy>
    <i name="alphaZ">   5631.86119280 </i>
    <i name="ewald"> -60982.36480995 </i>
    <i name="hartreedc"> -15513.64149692 </i>
    <i name="XCdc">   2852.39996991 </i>
    <i name="pawpsdc"> 111982.73709558 </i>
    <i name="pawaedc">-110730.79905306 </i>
    <i name="eentropy">     -0.00000000 </i>
    <i name="bandstr">  -7042.66397712 </i>
    <i name="atom">  72650.08363186 </i>
    <i name="e_fr_energy">  -1152.38744689 </i>
    <i name="e_wo_entrp">  -1152.38744689 </i>
    <i name="e_0_energy">  -1152.38744689 </i>
   </energy>
  </scstep>
  <scstep>
   <time name="diag">   64.98   64.99</time>
   <time name="diis">   62.61   62.61</time>
   <time name="orth">   33.50   33.50</time>
   <time name="total">  168.37  168.40</time>
   <energy>
    <i name="e_fr_energy">  -1152.38744748 </i>
    <i name="e_wo_entrp">  -1152.38744748 </i>
    <i name="e_0_energy">  -1152.38744748 </i>
   </energy>
  </scstep>
  <scstep>
   <time name="diag">   64.93   64.93</time>
   <time name="diis">   57.50   57.50</time>
   <time name="orth">   33.52   33.52</time>
   <time name="total">  163.24  163.36</time>
   <energy>
    <i name="e_fr_energy">  -1152.38744777 </i>
    <i name="e_wo_entrp">  -1152.38744777 </i>
    <i name="e_0_energy">  -1152.38744777 </i>
   </energy>
  </scstep>
  <scstep>
   <time name="diag">   64.97   64.98</time>
   <time name="diis">   50.35   50.35</time>
   <time name="orth">   33.47   33.47</time>
   <time name="total">  156.11  156.20</time>
   <energy>
    <i name="e_fr_energy">  -1152.38744818 </i>
    <i name="e_wo_entrp">  -1152.38744818 </i>
    <i name="e_0_energy">  -1152.38744818 </i>
   </energy>
  </scstep>
  <scstep>
   <time name="diag">   65.02   65.02</time>
   <time name="diis">   49.46   49.46</time>
   <time name="orth">   33.53   33.53</time>
   <time name="total">  155.29  155.38</time>
   <energy>
    <i name="e_fr_energy">  -1152.38744845 </i>
    <i name="e_wo_entrp">  -1152.38744845 </i>
    <i name="e_0_energy">  -1152.38744845 </i>
   </energy>
  </scstep>
  <scstep>
   <time name="diag">   64.98   64.98</time>
   <time name="diis">   45.17   45.17</time>
   <time name="orth">   33.54   33.54</time>
   <time name="total">  150.98  151.02</time>
   <energy>
    <i name="e_fr_energy">  -1152.38744866 </i>
    <i name="e_wo_entrp">  -1152.38744866 </i>
    <i name="e_0_energy">  -1152.38744866 </i>
   </energy>
  </scstep>
  <scstep>
   <time name="diag">   64.86   64.87</time>
   <time name="diis">   44.91   44.92</time>
   <time name="orth">   33.37   33.37</time>
   <time name="total">  150.43  150.50</time>
   <energy>
    <i name="e_fr_energy">  -1152.38744874 </i>
    <i name="e_wo_entrp">  -1152.38744874 </i>
    <i name="e_0_energy">  -1152.38744874 </i>
   </energy>
  </scstep>
  <scstep>
   <time name="diag">   64.89   64.89</time>
   <time name="diis">   43.51   43.52</time>
   <time name="orth">   33.37   33.37</time>
   <time name="total">  142.83  142.84</time>
   <energy>
    <i name="alphaZ">   5631.86119280 </i>
    <i name="ewald"> -60982.36480995 </i>
    <i name="hartreedc"> -15513.63106313 </i>
    <i name="XCdc">   2852.39847193 </i>
    <i name="pawpsdc"> 111982.01460881 </i>
    <i name="pawaedc">-110730.06631722 </i>
    <i name="eentropy">     -0.00000000 </i>
    <i name="bandstr">  -7042.68316388 </i>
    <i name="atom">  72650.08363186 </i>
    <i name="e_fr_energy">  -1152.38744878 </i>
    <i name="e_wo_entrp">  -1152.38744878 </i>
    <i name="e_0_energy">  -1152.38744878 </i>
   </energy>
  </scstep>
  <structure>
   <crystal>
    <varray name="basis" >
     <v>      11.20560976      -0.01116409       0.00306700 </v>
     <v>      -0.01116785      11.20705300      -0.00451217 </v>
     <v>       0.00437923      -0.00644203      15.97191651 </v>
    </varray>
    <i name="volume">   2005.78055532 </i>
    <varray name="rec_basis" >
     <v>       0.08924111       0.00008892      -0.00002443 </v>
     <v>       0.00008889       0.08922963       0.00003597 </v>
     <v>      -0.00001711       0.00002519       0.06260991 </v>
    </varray>
   </crystal>
   <varray name="positions" >
    <v>       0.99804069       0.24867401       0.12242219 </v>
    <v>       0.00068151       0.24180706       0.62381551 </v>
    <v>       0.00303542       0.75427144       0.12331261 </v>
    <v>       0.99813519       0.75806237       0.62287334 </v>
    <v>       0.50558850       0.25029867       0.12044026 </v>
    <v>       0.50014933       0.24955589       0.62325013 </v>
    <v>       0.49756892       0.75000812       0.11923764 </v>
    <v>       0.49968183       0.74914335       0.62497739 </v>
    <v>       0.00003309       0.24891611       0.37736003 </v>
    <v>       0.99798275       0.24625343       0.87804861 </v>
    <v>       0.00133846       0.75323149       0.37738253 </v>
    <v>       0.99981005       0.75476625       0.87779081 </v>
    <v>       0.50288110       0.25683630       0.37851998 </v>
    <v>       0.50280759       0.24635351       0.87792782 </v>
    <v>       0.49751189       0.74541691       0.38179081 </v>
    <v>       0.49922546       0.75100418       0.87442686 </v>
    <v>       0.24676769       0.99908288       0.12005819 </v>
    <v>       0.25200548       0.99916877       0.62457533 </v>
    <v>       0.25229743       0.50110930       0.12202366 </v>
    <v>       0.26091171       0.50023116       0.62298376 </v>
    <v>       0.75212644       0.00926906       0.11634595 </v>
    <v>       0.74736596       0.00031909       0.62505169 </v>
    <v>       0.74754598       0.49124748       0.12048950 </v>
    <v>       0.73792789       0.49981618       0.62353302 </v>
    <v>       0.24464247       0.99880856       0.37946097 </v>
    <v>       0.25221839       0.99943191       0.87586634 </v>
    <v>       0.25427668       0.50133506       0.37951059 </v>
    <v>       0.25523478       0.49953980       0.87740168 </v>
    <v>       0.75486046       0.00678669       0.38104566 </v>
    <v>       0.74680300       0.00317392       0.87676985 </v>
    <v>       0.74639103       0.49434977       0.38095849 </v>
    <v>       0.74454618       0.49805428       0.87744160 </v>
    <v>       0.99902437       0.00149487       0.99948986 </v>
    <v>       0.00003875       0.00017776       0.50036628 </v>
    <v>       0.99882889       0.49963514       0.00491794 </v>
    <v>       0.50085471       0.99907715       0.49940049 </v>
    <v>       0.50119257       0.49885575       0.99996907 </v>
    <v>       0.25101344       0.24923701       0.00018904 </v>
    <v>       0.24986184       0.25273340       0.50039851 </v>
    <v>       0.25054759       0.75072832       0.99946263 </v>
    <v>       0.24910183       0.74707226       0.50176196 </v>
    <v>       0.75091984       0.25327346       0.50231013 </v>
    <v>       0.74837828       0.75137714       0.99988017 </v>
    <v>       0.74890264       0.74880156       0.50068016 </v>
    <v>       0.24725545       0.25504430       0.24988185 </v>
    <v>       0.25044659       0.24921537       0.74944092 </v>
    <v>       0.24979568       0.74867235       0.25031234 </v>
    <v>       0.24963664       0.74990872       0.74915047 </v>
    <v>       0.75180451       0.25062045       0.24945094 </v>
    <v>       0.75039206       0.25046775       0.75001036 </v>
    <v>       0.75812371       0.73509786       0.24961172 </v>
    <v>       0.75089592       0.74963124       0.74941105 </v>
    <v>       0.99986837       0.00151758       0.24993659 </v>
    <v>       0.99978733       0.00022524       0.75060845 </v>
    <v>       0.00479202       0.49720358       0.24969629 </v>
    <v>       0.00021229       0.50039990       0.75908818 </v>
    <v>       0.48611808       0.00796763       0.25074822 </v>
    <v>       0.49954037       0.00045214       0.75242307 </v>
    <v>       0.49917840       0.50050448       0.25088028 </v>
    <v>       0.49980562       0.49930054       0.74969482 </v>
    <v>       0.00025923       0.50056237       0.49022600 </v>
    <v>       0.50229061       0.99973792       0.99906012 </v>
    <v>       0.49995788       0.50017647       0.50023336 </v>
    <v>       0.74977383       0.24986460       0.99843225 </v>
    <v>       0.10668562       0.14422174       0.24993336 </v>
    <v>       0.10953262       0.14080468       0.75071779 </v>
    <v>       0.10228713       0.64493424       0.24870904 </v>
    <v>       0.10771680       0.63608224       0.73726997 </v>
    <v>       0.61249659       0.13324939       0.25325542 </v>
    <v>       0.61021114       0.14006748       0.75126725 </v>
    <v>       0.60326028       0.65207259       0.24968691 </v>
    <v>       0.61176253       0.63954903       0.75041277 </v>
    <v>       0.39425712       0.35408280       0.24938599 </v>
    <v>       0.38923072       0.35994559       0.75110351 </v>
    <v>       0.39555863       0.85424468       0.25269897 </v>
    <v>       0.38965974       0.85910558       0.75121462 </v>
    <v>       0.89589509       0.35709422       0.24958331 </v>
    <v>       0.89323450       0.36464838       0.73762741 </v>
    <v>       0.88199927       0.86176634       0.25045019 </v>
    <v>       0.89069011       0.85943434       0.75049675 </v>
    <v>       0.35322951       0.10577386       0.25155473 </v>
    <v>       0.35834060       0.10979086       0.75154099 </v>
    <v>       0.35368455       0.60477697       0.25005132 </v>
    <v>       0.35936161       0.61023555       0.75102998 </v>
    <v>       0.85951244       0.10906901       0.25095325 </v>
    <v>       0.86106436       0.11014727       0.74942938 </v>
    <v>       0.85366546       0.60173973       0.24874398 </v>
    <v>       0.86539262       0.60694572       0.73624452 </v>
    <v>       0.14644378       0.39713384       0.24930921 </v>
    <v>       0.13636084       0.39247789       0.73825461 </v>
    <v>       0.14102295       0.89184624       0.25051439 </v>
    <v>       0.13958121       0.88968155       0.75011892 </v>
    <v>       0.64284014       0.39311856       0.25095294 </v>
    <v>       0.64037989       0.39014823       0.75016868 </v>
    <v>       0.64055214       0.88878240       0.75203423 </v>
    <v>       0.36091323       0.38891577       0.00057641 </v>
    <v>       0.36330340       0.38422146       0.49902043 </v>
    <v>       0.36054661       0.88648875       0.00004905 </v>
    <v>       0.36199058       0.88732488       0.49573269 </v>
    <v>       0.86304890       0.39144511       0.99981852 </v>
    <v>       0.86634268       0.39067323       0.51180630 </v>
    <v>       0.86205502       0.88819322       0.99884959 </v>
    <v>       0.86198938       0.88910724       0.49982031 </v>
    <v>       0.13847503       0.11123200       0.99894471 </v>
    <v>       0.13764423       0.11212429       0.50035208 </v>
    <v>       0.13861846       0.61016568       0.00057254 </v>
    <v>       0.13266386       0.61138894       0.51264006 </v>
    <v>       0.63770774       0.11293504       0.99814758 </v>
    <v>       0.63798371       0.11236391       0.49790995 </v>
    <v>       0.63980658       0.61167029       0.00215722 </v>
    <v>       0.63802301       0.61485172       0.49794543 </v>
    <v>       0.11026177       0.36164468       0.99997969 </v>
    <v>       0.11196048       0.36445572       0.50961137 </v>
    <v>       0.11111841       0.86111380       0.00057170 </v>
    <v>       0.11157078       0.86261532       0.49939525 </v>
    <v>       0.61122382       0.36433954       0.99919350 </v>
    <v>       0.61563680       0.36298986       0.50043254 </v>
    <v>       0.61419888       0.85906076       0.99237102 </v>
    <v>       0.61194607       0.86220832       0.50377617 </v>
    <v>       0.38579674       0.13841204       0.00401627 </v>
    <v>       0.38837165       0.13452089       0.49080044 </v>
    <v>       0.38778953       0.63805873       0.99882832 </v>
    <v>       0.38352502       0.63672964       0.50080800 </v>
    <v>       0.89008210       0.13688090       0.00146683 </v>
    <v>       0.88847083       0.13772034       0.49868856 </v>
    <v>       0.88946087       0.64027571       0.00680558 </v>
    <v>       0.88773332       0.63848020       0.50215306 </v>
    <v>       0.00133487       0.99879245       0.12540883 </v>
    <v>       0.00024534       0.99983991       0.62513208 </v>
    <v>       0.00156326       0.49809057       0.12642141 </v>
    <v>       0.51557775       0.98562711       0.13250081 </v>
    <v>       0.49723333       0.00232924       0.62402929 </v>
    <v>       0.49999337       0.50026804       0.12541583 </v>
    <v>       0.49975786       0.50065674       0.62676930 </v>
    <v>       0.00126766       0.99965413       0.37469860 </v>
    <v>       0.00027437       0.99973986       0.87501470 </v>
    <v>       0.00143551       0.49947780       0.37228480 </v>
    <v>       0.99883265       0.50365805       0.87450035 </v>
    <v>       0.51703785       0.98402724       0.37005815 </v>
    <v>       0.49645035       0.00167801       0.87337458 </v>
    <v>       0.49969278       0.50006373       0.37288621 </v>
    <v>       0.50024355       0.50135404       0.87544234 </v>
    <v>       0.24303926       0.25457432       0.37425828 </v>
    <v>       0.24678298       0.25474155       0.87436559 </v>
    <v>       0.24295222       0.74372724       0.37571429 </v>
    <v>       0.24316054       0.74603568       0.87358644 </v>
    <v>       0.75525826       0.25612105       0.37638566 </v>
    <v>       0.75799290       0.25497472       0.87153033 </v>
    <v>       0.74297655       0.76017657       0.37122873 </v>
    <v>       0.75919991       0.73941450       0.87380088 </v>
    <v>       0.24706933       0.25057031       0.12599376 </v>
    <v>       0.25763674       0.24272011       0.62463350 </v>
    <v>       0.24949542       0.75012324       0.12568215 </v>
    <v>       0.25514794       0.75706718       0.62527625 </v>
    <v>       0.74899190       0.25109673       0.12734249 </v>
    <v>       0.74586037       0.24344695       0.62513176 </v>
    <v>       0.73908990       0.76480103       0.12901178 </v>
    <v>       0.74824313       0.75321560       0.62494902 </v>
   </varray>
  </structure>
  <varray name="forces" >
   <v>       0.00679551       0.00800848       0.01498273 </v>
   <v>       0.00445840       0.00757214      -0.00247722 </v>
   <v>       0.00033238       0.00221116       0.01505018 </v>
   <v>      -0.00359733      -0.01835792       0.01042725 </v>
   <v>      -0.00347390      -0.00390741       0.01965682 </v>
   <v>      -0.00148167      -0.00274125       0.00884296 </v>
   <v>      -0.00002156       0.01205235       0.01509996 </v>
   <v>       0.00794501       0.00256519      -0.00038178 </v>
   <v>       0.00924161       0.01027739      -0.01787161 </v>
   <v>      -0.00581917      -0.00528247      -0.00601640 </v>
   <v>       0.00394282      -0.00616906      -0.00818167 </v>
   <v>      -0.00877789       0.00016376      -0.01060463 </v>
   <v>       0.00756349       0.00178984      -0.00966154 </v>
   <v>      -0.01039112      -0.01304745      -0.00599847 </v>
   <v>      -0.00301387       0.00768999      -0.01767781 </v>
   <v>       0.00099479       0.01637785       0.00306284 </v>
   <v>       0.01766624       0.00207874       0.01148981 </v>
   <v>       0.01945080       0.00889250       0.00387107 </v>
   <v>       0.00724505      -0.00036177       0.02288038 </v>
   <v>       0.00381101      -0.01425597       0.00263986 </v>
   <v>       0.00006839       0.00610644       0.00850632 </v>
   <v>      -0.02313975      -0.01404456       0.00232650 </v>
   <v>      -0.00597110      -0.00829295       0.01533933 </v>
   <v>       0.00655530       0.01063443       0.00265344 </v>
   <v>      -0.00339512       0.00635220      -0.00585197 </v>
   <v>       0.02821317      -0.00390693       0.00579170 </v>
   <v>      -0.00044965      -0.00016595      -0.01240354 </v>
   <v>       0.00497892      -0.00533414      -0.00933325 </v>
   <v>       0.00198879      -0.00535884      -0.01350644 </v>
   <v>      -0.01343893      -0.00270243       0.00027303 </v>
   <v>      -0.00011970       0.00098137      -0.00766158 </v>
   <v>      -0.00295993      -0.00521499      -0.00825044 </v>
   <v>      -0.00769199      -0.00888783      -0.00453372 </v>
   <v>       0.03751044      -0.00624753      -0.00013787 </v>
   <v>      -0.01193683      -0.01795611       0.00787999 </v>
   <v>      -0.00221194      -0.02019161       0.02551800 </v>
   <v>      -0.00558029      -0.01268568       0.01296036 </v>
   <v>       0.01781986      -0.01406796       0.00839205 </v>
   <v>      -0.00502877       0.00217564       0.00595466 </v>
   <v>       0.04696862       0.03014656       0.02062684 </v>
   <v>      -0.01295093      -0.00790494      -0.01349252 </v>
   <v>       0.00858093       0.03014382      -0.00059701 </v>
   <v>      -0.00633332       0.04288944      -0.00763924 </v>
   <v>       0.01897318      -0.02106571      -0.00465518 </v>
   <v>       0.00913616      -0.00737984      -0.00154400 </v>
   <v>       0.00242216       0.00942339      -0.00444159 </v>
   <v>       0.00911699      -0.00826371       0.01292392 </v>
   <v>      -0.00700498      -0.00834044      -0.01539428 </v>
   <v>      -0.01473916       0.00428413      -0.00700656 </v>
   <v>      -0.00465047       0.01005514       0.05039006 </v>
   <v>      -0.02065004       0.00728425       0.00618465 </v>
   <v>      -0.00595604      -0.00275828       0.00166707 </v>
   <v>      -0.02589782      -0.00398291      -0.01093950 </v>
   <v>      -0.00588700      -0.00391518       0.00594196 </v>
   <v>      -0.00400975      -0.00435405       0.00933036 </v>
   <v>      -0.01477443       0.00718028      -0.04586833 </v>
   <v>      -0.01972980       0.03987009       0.00035961 </v>
   <v>      -0.01140269       0.00038694      -0.00575701 </v>
   <v>       0.00621818       0.01927943      -0.00802011 </v>
   <v>       0.01017644      -0.01117972      -0.01637723 </v>
   <v>      -0.00990569       0.01292160      -0.00774685 </v>
   <v>      -0.02546301      -0.02232927       0.01398411 </v>
   <v>      -0.00097548      -0.00790016       0.00339907 </v>
   <v>       0.00584404       0.01989092      -0.00046409 </v>
   <v>      -0.00441346      -0.00490354      -0.00226625 </v>
   <v>      -0.00495511      -0.01175533      -0.00005124 </v>
   <v>       0.01629705       0.00444553      -0.01122021 </v>
   <v>       0.00374223      -0.01294425       0.00463723 </v>
   <v>      -0.00454935       0.00701102      -0.00850351 </v>
   <v>      -0.00518565      -0.00336995      -0.00835587 </v>
   <v>       0.00489724       0.00861563      -0.00260251 </v>
   <v>       0.01751427      -0.01139542      -0.00103827 </v>
   <v>      -0.00446330       0.02216915      -0.00120968 </v>
   <v>      -0.01481732       0.00084566       0.00017797 </v>
   <v>      -0.00528695       0.00282507      -0.00695715 </v>
   <v>       0.00732964      -0.00233110      -0.00085914 </v>
   <v>      -0.00336463      -0.01347763      -0.00253087 </v>
   <v>       0.00569284      -0.00284880       0.01330212 </v>
   <v>       0.00941361       0.00848312       0.00407018 </v>
   <v>       0.00189990       0.01790502       0.00654903 </v>
   <v>      -0.00214000      -0.00097068       0.00112225 </v>
   <v>      -0.00739368      -0.01398640      -0.00338687 </v>
   <v>       0.01102386       0.02049169      -0.00127460 </v>
   <v>       0.01313179       0.00596417      -0.00009103 </v>
   <v>       0.00331871       0.00163493       0.00047483 </v>
   <v>       0.00864647      -0.00071752      -0.00610062 </v>
   <v>       0.02359718      -0.01784186      -0.00468870 </v>
   <v>       0.01659113       0.00115347      -0.01421518 </v>
   <v>      -0.00070821       0.00170082      -0.00217283 </v>
   <v>      -0.00415878      -0.00840904       0.01404815 </v>
   <v>      -0.01941152      -0.01214731      -0.00416806 </v>
   <v>      -0.01401623      -0.00968607       0.00510341 </v>
   <v>      -0.00642380      -0.00124182       0.00071803 </v>
   <v>      -0.01643453      -0.01857683      -0.00159248 </v>
   <v>      -0.00003304       0.01085739      -0.00273073 </v>
   <v>      -0.00037076       0.00232035      -0.01732613 </v>
   <v>       0.01985420      -0.02140136       0.00578147 </v>
   <v>      -0.00994179      -0.01673958       0.01330003 </v>
   <v>      -0.00061308      -0.01104343      -0.00498715 </v>
   <v>       0.00645408      -0.00429618      -0.01374257 </v>
   <v>       0.00311765      -0.02001932       0.00425318 </v>
   <v>       0.00887239      -0.00671584      -0.00158646 </v>
   <v>       0.00446138      -0.00336926      -0.00356306 </v>
   <v>      -0.00861904      -0.00931848       0.00156482 </v>
   <v>      -0.01342176      -0.00264033       0.00201145 </v>
   <v>      -0.00829755       0.01038541      -0.01251432 </v>
   <v>      -0.00599958       0.00660347       0.01705560 </v>
   <v>       0.00320000       0.00728378       0.01323595 </v>
   <v>       0.01035391       0.01667940       0.00185213 </v>
   <v>      -0.00808182      -0.00450102      -0.01212489 </v>
   <v>      -0.01223422       0.01269283       0.00312274 </v>
   <v>       0.00452478       0.01138491      -0.01602395 </v>
   <v>       0.01483786       0.00898629       0.00201838 </v>
   <v>       0.00231834       0.00949145      -0.01529770 </v>
   <v>       0.00019851       0.03108694      -0.00494751 </v>
   <v>       0.00357617       0.00548202      -0.00734902 </v>
   <v>       0.02621652       0.00792147      -0.00268440 </v>
   <v>       0.01442858      -0.01956137       0.01241348 </v>
   <v>      -0.00091944      -0.00058434       0.01421349 </v>
   <v>       0.00482995       0.00605814       0.01311464 </v>
   <v>      -0.00936476       0.00887936       0.00051221 </v>
   <v>      -0.02317832      -0.01287891      -0.00620676 </v>
   <v>      -0.02590931      -0.01794392      -0.00337972 </v>
   <v>      -0.00325223      -0.00912921      -0.01197578 </v>
   <v>      -0.01099958      -0.02448189       0.00317661 </v>
   <v>      -0.01128215       0.00514331       0.00864648 </v>
   <v>      -0.01601726       0.00415459      -0.01184015 </v>
   <v>       0.00492096      -0.00323548      -0.01137937 </v>
   <v>      -0.00230920      -0.00320420      -0.00577132 </v>
   <v>       0.01020467      -0.00018633      -0.00132560 </v>
   <v>       0.00396582      -0.00314754      -0.01212202 </v>
   <v>      -0.00009126       0.00493642      -0.00069788 </v>
   <v>      -0.00773677      -0.00146290      -0.00741602 </v>
   <v>       0.00067817      -0.00176901       0.00819125 </v>
   <v>      -0.00172623      -0.00283642       0.02004525 </v>
   <v>       0.00284531       0.00781449      -0.00900276 </v>
   <v>       0.00542438       0.00014924       0.02001234 </v>
   <v>      -0.00627872       0.00489930       0.05223785 </v>
   <v>       0.02741196      -0.00921188      -0.00063710 </v>
   <v>       0.00514887      -0.00121363      -0.01857242 </v>
   <v>      -0.00529617      -0.00027850       0.01066062 </v>
   <v>       0.00482876      -0.00149386      -0.00472207 </v>
   <v>       0.00159165       0.00723980       0.01500619 </v>
   <v>      -0.00279467      -0.01316424      -0.02118032 </v>
   <v>      -0.00359694      -0.00113991       0.00025159 </v>
   <v>       0.00467908       0.00299798      -0.01194345 </v>
   <v>       0.00141947      -0.00346921       0.00584196 </v>
   <v>      -0.00731749      -0.00771385      -0.01250697 </v>
   <v>      -0.01514967       0.01289155       0.00948827 </v>
   <v>       0.00031772       0.00241996       0.00352809 </v>
   <v>      -0.00401910       0.01075163       0.00188057 </v>
   <v>      -0.01025041       0.00288529      -0.00678039 </v>
   <v>      -0.01940217      -0.01370782      -0.00404365 </v>
   <v>       0.00513747       0.00795466       0.00706805 </v>
   <v>       0.01373471       0.01167689      -0.00003129 </v>
   <v>       0.00903107       0.00515226       0.00031896 </v>
   <v>      -0.00000500       0.00160645      -0.01407375 </v>
   <v>       0.00536408       0.00530002      -0.00514856 </v>
  </varray>
  <varray name="stress" >
   <v>       0.06527771       0.00242653      -0.00803359 </v>
   <v>       0.00242606       0.08530188      -0.01484973 </v>
   <v>      -0.00803375      -0.01484984       0.37116338 </v>
  </varray>
  <energy>
   <i name="e_fr_energy">  -1152.38744878 </i>
   <i name="e_wo_entrp">  -1152.38744878 </i>
   <i name="e_0_energy">     -0.00000000 </i>
  </energy>
  <time name="totalsc"> 1957.71 1960.21</time>
 </calculation>
 <calculation>
  <scstep>
   <time name="dav">  570.67  570.67</time>
   <time name="total">  577.92  577.96</time>
   <energy>
    <i name="alphaZ">   5630.73817058 </i>
    <i name="ewald"> -60979.19601167 </i>
    <i name="hartreedc"> -15511.77957209 </i>
    <i name="XCdc">   2852.13607977 </i>
    <i name="pawpsdc"> 111982.01319672 </i>
    <i name="pawaedc">-110730.06490250 </i>
    <i name="eentropy">     -0.00000000 </i>
    <i name="bandstr">  -7046.31852641 </i>
    <i name="atom">  72650.08363186 </i>
    <i name="e_fr_energy">  -1152.38793373 </i>
    <i name="e_wo_entrp">  -1152.38793373 </i>
    <i name="e_0_energy">  -1152.38793373 </i>
   </energy>
  </scstep>
  <scstep>
   <time name="diag">   64.78   64.78</time>
   <time name="diis">  104.76  104.76</time>
   <time name="orth">   33.51   33.51</time>
   <time name="total">  210.31  210.35</time>
   <energy>
    <i name="e_fr_energy">  -1152.38889850 </i>
    <i name="e_wo_entrp">  -1152.38889850 </i>
    <i name="e_0_energy">  -1152.38889850 </i>
   </energy>
  </scstep>
  <scstep>
   <time name="diag">   64.73   64.73</time>
   <time name="diis">  100.39  100.39</time>
   <time name="orth">   33.55   33.55</time>
   <time name="total">  205.95  205.99</time>
   <energy>
    <i name="e_fr_energy">  -1152.38879174 </i>
    <i name="e_wo_entrp">  -1152.38879174 </i>
    <i name="e_0_energy">  -1152.38879174 </i>
   </energy>
  </scstep>
  <scstep>
   <time name="diag">   64.76   64.76</time>
   <time name="diis">   90.23   90.24</time>
   <time name="orth">   33.55   33.55</time>
   <time name="total">  195.82  195.88</time>
   <energy>
    <i name="e_fr_energy">  -1152.38867010 </i>
    <i name="e_wo_entrp">  -1152.38867010 </i>
    <i name="e_0_energy">  -1152.38867010 </i>
   </energy>
  </scstep>
  <scstep>
   <time name="diag">   64.81   64.81</time>
   <time name="diis">   68.68   68.68</time>
   <time name="orth">   33.54   33.54</time>
   <time name="total">  174.30  174.31</time>
   <energy>
    <i name="e_fr_energy">  -1152.38864186 </i>
    <i name="e_wo_entrp">  -1152.38864186 </i>
    <i name="e_0_energy">  -1152.38864186 </i>
   </energy>
  </scstep>
  <scstep>
   <time name="diag">   64.76   64.75</time>
   <time name="diis">   63.88   63.88</time>
   <time name="orth">   33.50   33.50</time>
   <time name="total">  169.41  169.48</time>
   <energy>
    <i name="e_fr_energy">  -1152.38864149 </i>
    <i name="e_wo_entrp">  -1152.38864149 </i>
    <i name="e_0_energy">  -1152.38864149 </i>
   </energy>
  </scstep>
  <scstep>
   <time name="diag">   64.96   64.96</time>
   <time name="diis">   61.88   61.88</time>
   <time name="orth">   33.39   33.39</time>
   <time name="total">  167.53  167.59</time>
   <energy>
    <i name="e_fr_energy">  -1152.38864036 </i>
    <i name="e_wo_entrp">  -1152.38864036 </i>
    <i name="e_0_energy">  -1152.38864036 </i>
   </energy>
  </scstep>
  <scstep>
   <time name="diag">   64.89   64.89</time>
   <time name="diis">   59.94   59.94</time>
   <time name="orth">   33.43   33.43</time>
   <time name="total">  159.31  159.38</time>
   <energy>
    <i name="alphaZ">   5630.73817058 </i>
    <i name="ewald"> -60979.19601167 </i>
    <i name="hartreedc"> -15514.47283546 </i>
    <i name="XCdc">   2852.32156183 </i>
    <i name="pawpsdc"> 111926.93150824 </i>
    <i name="pawaedc">-110674.96177622 </i>
    <i name="eentropy">     -0.00000000 </i>
    <i name="bandstr">  -7043.83288876 </i>
    <i name="atom">  72650.08363186 </i>
    <i name="e_fr_energy">  -1152.38863959 </i>
    <i name="e_wo_entrp">  -1152.38863959 </i>
    <i name="e_0_energy">  -1152.38863959 </i>
   </energy>
  </scstep>
  <structure>
   <crystal>
    <varray name="basis" >
     <v>      11.20588935      -0.01115408       0.00303309 </v>
     <v>      -0.01115772      11.20741844      -0.00457639 </v>
     <v>       0.00433028      -0.00653290      15.97418258 </v>
    </varray>
    <i name="volume">   2006.18059809 </i>
    <varray name="rec_basis" >
     <v>       0.08923888       0.00008883      -0.00002415 </v>
     <v>       0.00008880       0.08922672       0.00003647 </v>
     <v>      -0.00001692       0.00002555       0.06260103 </v>
    </varray>
   </crystal>
   <varray name="positions" >
    <v>       0.99806996       0.24870854       0.12246745 </v>
    <v>       0.00070074       0.24183967       0.62380804 </v>
    <v>       0.00303684       0.75428098       0.12335807 </v>
    <v>       0.99811961       0.75798335       0.62290482 </v>
    <v>       0.50557350       0.25028187       0.12049963 </v>
    <v>       0.50014293       0.24954410       0.62327684 </v>
    <v>       0.49756886       0.75006002       0.11928327 </v>
    <v>       0.49971605       0.74915443       0.62497623 </v>
    <v>       0.00007294       0.24896036       0.37730605 </v>
    <v>       0.99795768       0.24623065       0.87803044 </v>
    <v>       0.00135542       0.75320494       0.37735780 </v>
    <v>       0.99977227       0.75476690       0.87775879 </v>
    <v>       0.50291368       0.25684402       0.37849079 </v>
    <v>       0.50276280       0.24629729       0.87790969 </v>
    <v>       0.49749896       0.74544997       0.38173743 </v>
    <v>       0.49922981       0.75107469       0.87443613 </v>
    <v>       0.24684374       0.99909192       0.12009289 </v>
    <v>       0.25208925       0.99920714       0.62458702 </v>
    <v>       0.25232860       0.50110781       0.12209277 </v>
    <v>       0.26092805       0.50016982       0.62299171 </v>
    <v>       0.75212675       0.00929536       0.11637165 </v>
    <v>       0.74726627       0.00025854       0.62505872 </v>
    <v>       0.74752022       0.49121178       0.12053582 </v>
    <v>       0.73795616       0.49986199       0.62354104 </v>
    <v>       0.24462788       0.99883588       0.37944330 </v>
    <v>       0.25233983       0.99941523       0.87588381 </v>
    <v>       0.25427476       0.50133432       0.37947312 </v>
    <v>       0.25525620       0.49951685       0.87737347 </v>
    <v>       0.75486902       0.00676360       0.38100486 </v>
    <v>       0.74674513       0.00316222       0.87677068 </v>
    <v>       0.74639053       0.49435398       0.38093535 </v>
    <v>       0.74453342       0.49803181       0.87741667 </v>
    <v>       0.99899122       0.00145657       0.99947616 </v>
    <v>       0.00020022       0.00015102       0.50036582 </v>
    <v>       0.99877741       0.49955781       0.00494173 </v>
    <v>       0.50084507       0.99899027       0.49947754 </v>
    <v>       0.50116847       0.49880114       0.00000821 </v>
    <v>       0.25109008       0.24917654       0.00021436 </v>
    <v>       0.24984019       0.25274276       0.50041650 </v>
    <v>       0.25074991       0.75085833       0.99952493 </v>
    <v>       0.24904605       0.74703815       0.50172120 </v>
    <v>       0.75095691       0.25340325       0.50230836 </v>
    <v>       0.74835121       0.75156172       0.99985715 </v>
    <v>       0.74898424       0.74871095       0.50066606 </v>
    <v>       0.24729475       0.25501257       0.24987717 </v>
    <v>       0.25045706       0.24925593       0.74942751 </v>
    <v>       0.24983488       0.74863684       0.25035136 </v>
    <v>       0.24960646       0.74987276       0.74910397 </v>
    <v>       0.75174109       0.25063882       0.24942979 </v>
    <v>       0.75037202       0.25051111       0.75016257 </v>
    <v>       0.75803483       0.73512914       0.24963043 </v>
    <v>       0.75087027       0.74961935       0.74941609 </v>
    <v>       0.99975687       0.00150030       0.24990356 </v>
    <v>       0.99976196       0.00020837       0.75062639 </v>
    <v>       0.00477473       0.49718484       0.24972447 </v>
    <v>       0.00014877       0.50043067       0.75894966 </v>
    <v>       0.48603331       0.00813918       0.25074937 </v>
    <v>       0.49949128       0.00045375       0.75240569 </v>
    <v>       0.49920526       0.50058748       0.25085607 </v>
    <v>       0.49984940       0.49925243       0.74964533 </v>
    <v>       0.00021665       0.50061794       0.49020262 </v>
    <v>       0.50218087       0.99964172       0.99910235 </v>
    <v>       0.49995364       0.50014247       0.50024361 </v>
    <v>       0.74979908       0.24995024       0.99843087 </v>
    <v>       0.10666660       0.14420061       0.24992651 </v>
    <v>       0.10951124       0.14075405       0.75071762 </v>
    <v>       0.10235733       0.64495342       0.24867514 </v>
    <v>       0.10773285       0.63602655       0.73728396 </v>
    <v>       0.61247704       0.13327954       0.25322975 </v>
    <v>       0.61018881       0.14005294       0.75124201 </v>
    <v>       0.60328140       0.65210969       0.24967906 </v>
    <v>       0.61183789       0.63950005       0.75040961 </v>
    <v>       0.39423800       0.35417821       0.24938237 </v>
    <v>       0.38916693       0.35994917       0.75110406 </v>
    <v>       0.39553589       0.85425681       0.25267796 </v>
    <v>       0.38969128       0.85909558       0.75121202 </v>
    <v>       0.89588055       0.35703619       0.24957565 </v>
    <v>       0.89325898       0.36463617       0.73766758 </v>
    <v>       0.88203983       0.86180291       0.25046248 </v>
    <v>       0.89069836       0.85951143       0.75051655 </v>
    <v>       0.35322029       0.10576968       0.25155812 </v>
    <v>       0.35830871       0.10973061       0.75153075 </v>
    <v>       0.35373210       0.60486522       0.25004748 </v>
    <v>       0.35941817       0.61026128       0.75102970 </v>
    <v>       0.85952673       0.10907607       0.25095469 </v>
    <v>       0.86110159       0.11014421       0.74941095 </v>
    <v>       0.85376698       0.60166302       0.24872978 </v>
    <v>       0.86546407       0.60695073       0.73620157 </v>
    <v>       0.14644074       0.39714116       0.24930265 </v>
    <v>       0.13634288       0.39244170       0.73829704 </v>
    <v>       0.14093933       0.89179386       0.25050180 </v>
    <v>       0.13952082       0.88963981       0.75013434 </v>
    <v>       0.64281248       0.39311319       0.25095511 </v>
    <v>       0.64030905       0.39006819       0.75016386 </v>
    <v>       0.64055205       0.88882913       0.75202600 </v>
    <v>       0.36091166       0.38892573       0.00052408 </v>
    <v>       0.36338878       0.38412943       0.49903785 </v>
    <v>       0.36050372       0.88641667       0.00008921 </v>
    <v>       0.36198789       0.88727733       0.49571761 </v>
    <v>       0.86307668       0.39142662       0.99977700 </v>
    <v>       0.86635601       0.39058707       0.51181912 </v>
    <v>       0.86209319       0.88816435       0.99884479 </v>
    <v>       0.86200858       0.88909275       0.49980954 </v>
    <v>       0.13843788       0.11119186       0.99894944 </v>
    <v>       0.13758644       0.11211287       0.50035816 </v>
    <v>       0.13858280       0.61021033       0.00053476 </v>
    <v>       0.13263803       0.61141737       0.51269159 </v>
    <v>       0.63772153       0.11296643       0.99818756 </v>
    <v>       0.63802836       0.11243576       0.49791555 </v>
    <v>       0.63977178       0.61165086       0.00212060 </v>
    <v>       0.63797039       0.61490631       0.49795489 </v>
    <v>       0.11028132       0.36169368       0.99993130 </v>
    <v>       0.11202439       0.36449447       0.50961747 </v>
    <v>       0.11112845       0.86115464       0.00052550 </v>
    <v>       0.11157177       0.86274913       0.49938034 </v>
    <v>       0.61123925       0.36436314       0.99917131 </v>
    <v>       0.61574971       0.36302407       0.50042442 </v>
    <v>       0.61426090       0.85897664       0.99240848 </v>
    <v>       0.61194209       0.86220582       0.50381910 </v>
    <v>       0.38581754       0.13843816       0.00405588 </v>
    <v>       0.38833137       0.13455907       0.49080201 </v>
    <v>       0.38768970       0.63800318       0.99880957 </v>
    <v>       0.38341340       0.63665228       0.50079779 </v>
    <v>       0.89006807       0.13684157       0.00143065 </v>
    <v>       0.88842336       0.13761491       0.49869813 </v>
    <v>       0.88941231       0.64029782       0.00683171 </v>
    <v>       0.88766440       0.63849800       0.50211732 </v>
    <v>       0.00135605       0.99877852       0.12537445 </v>
    <v>       0.00023539       0.99982609       0.62511465 </v>
    <v>       0.00160719       0.49808980       0.12641740 </v>
    <v>       0.51559483       0.98561356       0.13246419 </v>
    <v>       0.49723296       0.00235049       0.62402719 </v>
    <v>       0.49996007       0.50026170       0.12539343 </v>
    <v>       0.49976077       0.50064914       0.62679404 </v>
    <v>       0.00126019       0.99964195       0.37475914 </v>
    <v>       0.00028666       0.99977350       0.87498752 </v>
    <v>       0.00145884       0.49947850       0.37234524 </v>
    <v>       0.99880558       0.50367921       0.87465814 </v>
    <v>       0.51715582       0.98398771       0.37005619 </v>
    <v>       0.49647254       0.00167278       0.87331848 </v>
    <v>       0.49966996       0.50006253       0.37291842 </v>
    <v>       0.50026434       0.50134762       0.87542807 </v>
    <v>       0.24304612       0.25460552       0.37430362 </v>
    <v>       0.24677092       0.25468484       0.87430160 </v>
    <v>       0.24293672       0.74372232       0.37571505 </v>
    <v>       0.24318071       0.74604858       0.87355036 </v>
    <v>       0.75526435       0.25610614       0.37640330 </v>
    <v>       0.75796138       0.25494146       0.87149255 </v>
    <v>       0.74291137       0.76023202       0.37125742 </v>
    <v>       0.75920129       0.73942492       0.87381154 </v>
    <v>       0.24705207       0.25061658       0.12599945 </v>
    <v>       0.25759263       0.24273248       0.62461303 </v>
    <v>       0.24941183       0.75006414       0.12566993 </v>
    <v>       0.25517009       0.75710146       0.62529761 </v>
    <v>       0.74905108       0.25114706       0.12734240 </v>
    <v>       0.74589928       0.24346917       0.62513272 </v>
    <v>       0.73908990       0.76480792       0.12896927 </v>
    <v>       0.74826625       0.75323843       0.62493347 </v>
   </varray>
  </structure>
  <varray name="forces" >
   <v>       0.00845772       0.00618131       0.00801650 </v>
   <v>      -0.00547300      -0.00672027       0.00057119 </v>
   <v>       0.00374491      -0.00434813       0.00045786 </v>
   <v>      -0.00210556      -0.00012012       0.01072615 </v>
   <v>       0.00361617       0.00109103       0.00733432 </v>
   <v>       0.00629264      -0.00801987       0.00154613 </v>
   <v>       0.00253828       0.00481929       0.01036165 </v>
   <v>       0.00242028       0.00170593       0.00020367 </v>
   <v>       0.00418475       0.00081046      -0.00677784 </v>
   <v>       0.00421653      -0.00290221      -0.00538225 </v>
   <v>       0.00411313       0.00345056      -0.00747614 </v>
   <v>       0.00224282      -0.00849506       0.00444853 </v>
   <v>       0.00869435       0.00187537       0.00942179 </v>
   <v>      -0.01025992      -0.00695951      -0.00483801 </v>
   <v>      -0.00250713       0.01006396      -0.00454086 </v>
   <v>       0.00119718       0.00008838      -0.00357095 </v>
   <v>      -0.00231798      -0.00218734       0.01090695 </v>
   <v>       0.00870382       0.00687130       0.00643974 </v>
   <v>      -0.00301486       0.00644465       0.00659968 </v>
   <v>       0.00410713      -0.01228776       0.00345399 </v>
   <v>       0.00388055       0.00657797       0.00023583 </v>
   <v>      -0.00847977      -0.00164956      -0.00495410 </v>
   <v>       0.00061758       0.00316652      -0.00003030 </v>
   <v>       0.00126972       0.00183430       0.00174570 </v>
   <v>      -0.00942687       0.00590705       0.00067986 </v>
   <v>       0.01066336      -0.00547617      -0.00572211 </v>
   <v>       0.00283639      -0.00592271      -0.00659287 </v>
   <v>      -0.00517472       0.00227978      -0.00193405 </v>
   <v>       0.00391052      -0.00007003       0.00876597 </v>
   <v>      -0.00706363       0.00047189      -0.00219737 </v>
   <v>      -0.00243105      -0.00293942      -0.00241465 </v>
   <v>      -0.00032064       0.00558364       0.00541322 </v>
   <v>       0.01071933      -0.00844626      -0.01593828 </v>
   <v>      -0.04404485       0.02401856       0.01624887 </v>
   <v>       0.02725185       0.04332964      -0.02599196 </v>
   <v>       0.01841894       0.00528427       0.00314283 </v>
   <v>       0.02821419       0.02909007      -0.03186367 </v>
   <v>      -0.01830849       0.00210722      -0.01071957 </v>
   <v>       0.00447774      -0.00243325       0.00264331 </v>
   <v>      -0.04495319      -0.03015078      -0.02503242 </v>
   <v>      -0.00210310      -0.00458632       0.00864942 </v>
   <v>       0.00968893      -0.02674621       0.01848571 </v>
   <v>       0.01170373      -0.03950983       0.00255393 </v>
   <v>      -0.00671306       0.03185618       0.00563353 </v>
   <v>      -0.01499749       0.00653505       0.01179617 </v>
   <v>      -0.02146264      -0.00738857       0.00193278 </v>
   <v>      -0.00820421       0.00636790      -0.00281616 </v>
   <v>      -0.00177664       0.00447615       0.00862612 </v>
   <v>       0.01468783      -0.00289226       0.00726415 </v>
   <v>       0.00197731      -0.01812573      -0.05454000 </v>
   <v>       0.03002127      -0.00789145      -0.00614364 </v>
   <v>      -0.00311823       0.01652378       0.00524108 </v>
   <v>      -0.00121002       0.00202957       0.00428165 </v>
   <v>       0.00504974       0.00946326      -0.02235042 </v>
   <v>      -0.00155093      -0.00207596      -0.02092365 </v>
   <v>       0.01131600      -0.00525000       0.08332757 </v>
   <v>       0.01953425      -0.01469606       0.01541015 </v>
   <v>      -0.01227884      -0.00150374      -0.01212739 </v>
[...]
       <r>   -15.7829     0.0000    32.0000 </r>
       <r>   -15.6311     0.0000    32.0000 </r>
       <r>   -15.4793     0.0000    32.0000 </r>
       <r>   -15.3274     0.0002    32.0000 </r>
       <r>   -15.1756     4.0617    32.6166 </r>
       <r>   -15.0238    19.9951    35.6521 </r>
       <r>   -14.8720    47.0814    42.7997 </r>
       <r>   -14.7202    55.2276    51.1839 </r>
       <r>   -14.5684    31.1660    55.9153 </r>
       <r>   -14.4166    33.5421    61.0073 </r>
       <r>   -14.2648    33.1006    66.0324 </r>
       <r>   -14.1130    85.8885    79.0713 </r>
       <r>   -13.9611   137.6939    99.9749 </r>
       <r>   -13.8093   128.5537   119.4909 </r>
       <r>   -13.6575    35.1959   124.8341 </r>
       <r>   -13.5057     7.4567   125.9661 </r>
       <r>   -13.3539     0.2234   126.0000 </r>
       <r>   -13.2021     0.0000   126.0000 </r>
       <r>   -13.0503     0.0000   126.0000 </r>
       <r>   -12.8985     0.0000   126.0000 </r>
       <r>   -12.7466     0.0140   126.0021 </r>
       <r>   -12.5948    18.2233   128.7686 </r>
       <r>   -12.4430   108.9991   145.3160 </r>
       <r>   -12.2912   173.5606   171.6646 </r>
       <r>   -12.1394   134.7258   192.1176 </r>
       <r>   -11.9876   127.0797   211.4098 </r>
       <r>   -11.8358    64.2747   221.1675 </r>
       <r>   -11.6840     5.4834   222.0000 </r>
       <r>   -11.5321     0.0002   222.0000 </r>
       <r>   -11.3803     0.0000   222.0000 </r>
       <r>   -11.2285     0.0000   222.0000 </r>
       <r>   -11.0767     0.0000   222.0000 </r>
       <r>   -10.9249     0.0000   222.0000 </r>
       <r>   -10.7731     0.0000   222.0000 </r>
       <r>   -10.6213     0.0000   222.0000 </r>
       <r>   -10.4695     0.0000   222.0000 </r>
       <r>   -10.3176     0.0000   222.0000 </r>
       <r>   -10.1658     0.0000   222.0000 </r>
       <r>   -10.0140     0.0000   222.0000 </r>
       <r>    -9.8622     0.0000   222.0000 </r>
       <r>    -9.7104     0.0000   222.0000 </r>
       <r>    -9.5586     0.0000   222.0000 </r>
       <r>    -9.4068     0.0000   222.0000 </r>
       <r>    -9.2550     0.0000   222.0000 </r>
       <r>    -9.1032     0.0000   222.0000 </r>
       <r>    -8.9513     0.0000   222.0000 </r>
       <r>    -8.7995     0.0000   222.0000 </r>
       <r>    -8.6477     0.0000   222.0000 </r>
       <r>    -8.4959     0.0000   222.0000 </r>
       <r>    -8.3441     0.0000   222.0000 </r>
       <r>    -8.1923     0.0000   222.0000 </r>
       <r>    -8.0405     0.0000   222.0000 </r>
       <r>    -7.8887     0.0000   222.0000 </r>
       <r>    -7.7368     0.0000   222.0000 </r>
       <r>    -7.5850     0.0000   222.0000 </r>
       <r>    -7.4332     0.0000   222.0000 </r>
       <r>    -7.2814     0.0000   222.0000 </r>
       <r>    -7.1296     0.0000   222.0000 </r>
       <r>    -6.9778     0.0000   222.0000 </r>
       <r>    -6.8260     0.0000   222.0000 </r>
       <r>    -6.6742     0.0000   222.0000 </r>
       <r>    -6.5223     0.0000   222.0000 </r>
       <r>    -6.3705     0.0000   222.0000 </r>
       <r>    -6.2187     0.0000   222.0000 </r>
       <r>    -6.0669     0.0000   222.0000 </r>
       <r>    -5.9151     0.0000   222.0000 </r>
       <r>    -5.7633     0.0000   222.0000 </r>
       <r>    -5.6115     0.0000   222.0000 </r>
       <r>    -5.4597     0.0000   222.0000 </r>
       <r>    -5.3079     0.0000   222.0000 </r>
       <r>    -5.1560     0.0000   222.0000 </r>
       <r>    -5.0042     0.0000   222.0000 </r>
       <r>    -4.8524     0.0000   222.0000 </r>
       <r>    -4.7006     0.0000   222.0000 </r>
       <r>    -4.5488     0.0000   222.0000 </r>
       <r>    -4.3970     0.0000   222.0000 </r>
       <r>    -4.2452     0.0000   222.0000 </r>
       <r>    -4.0934     0.0000   222.0000 </r>
       <r>    -3.9415     0.0000   222.0000 </r>
       <r>    -3.7897     0.0000   222.0000 </r>
       <r>    -3.6379     0.0000   222.0000 </r>
       <r>    -3.4861     0.0000   222.0000 </r>
       <r>    -3.3343     0.0000   222.0000 </r>
       <r>    -3.1825     0.0000   222.0000 </r>
       <r>    -3.0307     0.0000   222.0000 </r>
       <r>    -2.8789     0.0000   222.0000 </r>
       <r>    -2.7270     0.0000   222.0000 </r>
       <r>    -2.5752     0.0000   222.0000 </r>
       <r>    -2.4234     0.0035   222.0005 </r>
       <r>    -2.2716     7.9156   223.2022 </r>
       <r>    -2.1198    15.3689   225.5354 </r>
       <r>    -1.9680    27.2910   229.6785 </r>
       <r>    -1.8162    44.7520   236.4724 </r>
       <r>    -1.6644    60.5421   245.6634 </r>
       <r>    -1.5126    58.0109   254.4702 </r>
       <r>    -1.3607    59.3659   263.4826 </r>
       <r>    -1.2089    72.7539   274.5276 </r>
       <r>    -1.0571    68.0949   284.8652 </r>
       <r>    -0.9053    75.3427   296.3031 </r>
       <r>    -0.7535    77.3792   308.0502 </r>
       <r>    -0.6017    98.2922   322.9721 </r>
       <r>    -0.4499   129.0924   342.5699 </r>
       <r>    -0.2981    80.4306   354.7803 </r>
       <r>    -0.1462    52.7127   362.7827 </r>
       <r>     0.0056    49.5538   370.3055 </r>
       <r>     0.1574    40.6580   376.4779 </r>
       <r>     0.3092    46.5533   383.5453 </r>
       <r>     0.4610    52.0259   391.4434 </r>
       <r>     0.6128    60.5184   400.6309 </r>
       <r>     0.7646    43.1788   407.1859 </r>
       <r>     0.9164    45.9481   414.1614 </r>
       <r>     1.0683    61.4488   423.4901 </r>
       <r>     1.2201    82.3481   435.9915 </r>
       <r>     1.3719    84.8581   448.8740 </r>
       <r>     1.5237   104.2888   464.7063 </r>
       <r>     1.6755    77.3860   476.4544 </r>
       <r>     1.8273    76.5872   488.0813 </r>
       <r>     1.9791    46.9339   495.2064 </r>
       <r>     2.1309    31.6811   500.0160 </r>
       <r>     2.2828    26.0376   503.9688 </r>
       <r>     2.4346     0.2056   504.0000 </r>
       <r>     2.5864     0.0000   504.0000 </r>
       <r>     2.7382     0.0000   504.0000 </r>
       <r>     2.8900     0.0000   504.0000 </r>
       <r>     3.0418     0.0000   504.0000 </r>
       <r>     3.1936     0.0000   504.0000 </r>
       <r>     3.3454     0.0000   504.0000 </r>
       <r>     3.4972     0.0000   504.0000 </r>
       <r>     3.6491     0.0000   504.0000 </r>
       <r>     3.8009     0.0000   504.0000 </r>
       <r>     3.9527     0.0000   504.0000 </r>
       <r>     4.1045     0.0000   504.0000 </r>
       <r>     4.2563     0.0000   504.0000 </r>
       <r>     4.4081     0.0149   504.0023 </r>
       <r>     4.5599    11.3927   505.7318 </r>
       <r>     4.7117    26.0220   509.6823 </r>
       <r>     4.8636    41.4133   515.9693 </r>
       <r>     5.0154    17.6651   518.6511 </r>
       <r>     5.1672    31.9923   523.5079 </r>
       <r>     5.3190    56.8038   532.1314 </r>
       <r>     5.4708    71.4122   542.9726 </r>
       <r>     5.6226    58.6642   551.8785 </r>
       <r>     5.7744    70.0161   562.5078 </r>
       <r>     5.9262    88.1222   575.8858 </r>
       <r>     6.0781   102.8625   591.5016 </r>
       <r>     6.2299    71.5733   602.3673 </r>
       <r>     6.3817    57.2979   611.0658 </r>
       <r>     6.5335    33.8954   616.2115 </r>
       <r>     6.6853    21.6239   619.4943 </r>
       <r>     6.8371    22.4592   622.9039 </r>
       <r>     6.9889    22.2423   626.2805 </r>
       <r>     7.1407    21.6200   629.5627 </r>
       <r>     7.2925    18.0158   632.2977 </r>
       <r>     7.4444    15.2834   634.6179 </r>
       <r>     7.5962    10.9101   636.2742 </r>
       <r>     7.7480    14.3102   638.4467 </r>
       <r>     7.8998    17.9117   641.1659 </r>
       <r>     8.0516    27.9700   645.4121 </r>
       <r>     8.2034    22.6020   648.8433 </r>
       <r>     8.3552    24.0171   652.4894 </r>
       <r>     8.5070    25.7196   656.3940 </r>
       <r>     8.6589    23.5472   659.9687 </r>
       <r>     8.8107    23.5197   663.5393 </r>
       <r>     8.9625    27.7348   667.7498 </r>
       <r>     9.1143    42.1745   674.1524 </r>
       <r>     9.2661    36.0169   679.6202 </r>
       <r>     9.4179    40.6760   685.7953 </r>
       <r>     9.5697    44.5174   692.5535 </r>
       <r>     9.7215    39.3647   698.5296 </r>
       <r>     9.8734    58.7683   707.4513 </r>
       <r>    10.0252    69.0969   717.9411 </r>
       <r>    10.1770    72.1222   728.8901 </r>
       <r>    10.3288    70.1352   739.5374 </r>
       <r>    10.4806    55.7328   747.9984 </r>
       <r>    10.6324    59.4535   757.0241 </r>
       <r>    10.7842    53.8821   765.2041 </r>
       <r>    10.9360    18.4019   767.9977 </r>
       <r>    11.0878     0.0151   768.0000 </r>
       <r>    11.2397     0.0000   768.0000 </r>
       <r>    11.3915     0.0000   768.0000 </r>
       <r>    11.5433     0.0000   768.0000 </r>
       <r>    11.6951     0.0000   768.0000 </r>
       <r>    11.8469     0.0000   768.0000 </r>
       <r>    11.9987     0.0000   768.0000 </r>
       <r>    12.1505     0.0000   768.0000 </r>
       <r>    12.3023     0.0000   768.0000 </r>
       <r>    12.4542     0.0000   768.0000 </r>
       <r>    12.6060     0.0000   768.0000 </r>
       <r>    12.7578     0.0000   768.0000 </r>
       <r>    12.9096     0.0000   768.0000 </r>
      </set>
     </set>
    </array>
   </total>
  </dos>
 </calculation>
 <structure name="finalpos" >
  <crystal>
   <varray name="basis" >
    <v>      11.20635408      -0.01201764       0.00324978 </v>
    <v>      -0.01202161      11.20768622      -0.00479439 </v>
    <v>       0.00464024      -0.00684489      15.97153421 </v>
   </varray>
   <i name="volume">   2005.97873259 </i>
   <varray name="rec_basis" >
    <v>       0.08923520       0.00009570      -0.00002588 </v>
    <v>       0.00009567       0.08922460       0.00003821 </v>
    <v>      -0.00001813       0.00002676       0.06261141 </v>
   </varray>
  </crystal>
  <varray name="positions" >
   <v>       0.99824751       0.24881539       0.12257541 </v>
   <v>       0.00066999       0.24187438       0.62378688 </v>
   <v>       0.00316076       0.75431025       0.12345883 </v>
   <v>       0.99803791       0.75777830       0.62309326 </v>
   <v>       0.50559784       0.25034406       0.12064629 </v>
   <v>       0.50022677       0.24946683       0.62333358 </v>
   <v>       0.49755168       0.75019403       0.11949203 </v>
   <v>       0.49977784       0.74905792       0.62495532 </v>
   <v>       0.00021586       0.24910229       0.37711797 </v>
   <v>       0.99789930       0.24607332       0.87794871 </v>
   <v>       0.00148590       0.75322289       0.37722728 </v>
   <v>       0.99972715       0.75472604       0.87772587 </v>
   <v>       0.50315061       0.25695846       0.37856447 </v>
   <v>       0.50254993       0.24605742       0.87787723 </v>
   <v>       0.49739908       0.74562689       0.38160607 </v>
   <v>       0.49929085       0.75117720       0.87440394 </v>
   <v>       0.24693383       0.99907724       0.12031360 </v>
   <v>       0.25233464       0.99932438       0.62460193 </v>
   <v>       0.25249143       0.50117433       0.12229481 </v>
   <v>       0.26100014       0.49982578       0.62303076 </v>
   <v>       0.75216110       0.00951042       0.11636438 </v>
   <v>       0.74693603       0.00007355       0.62504312 </v>
   <v>       0.74743359       0.49120114       0.12060007 </v>
   <v>       0.73797797       0.50004436       0.62356544 </v>
   <v>       0.24437330       0.99898297       0.37945809 </v>
   <v>       0.25271362       0.99929575       0.87589274 </v>
   <v>       0.25440288       0.50122024       0.37931894 </v>
   <v>       0.25530975       0.49944965       0.87731232 </v>
   <v>       0.75494140       0.00673025       0.38102945 </v>
   <v>       0.74644035       0.00323630       0.87680466 </v>
   <v>       0.74627349       0.49435393       0.38091535 </v>
   <v>       0.74442433       0.49800745       0.87738871 </v>
   <v>       0.99906006       0.00147405       0.99933862 </v>
   <v>       0.00011913       0.00015589       0.50038406 </v>
   <v>       0.99887673       0.49966787       0.00489907 </v>
   <v>       0.50086255       0.99894541       0.49946244 </v>
   <v>       0.50124886       0.49881020      -0.00009123 </v>
   <v>       0.25112987       0.24912796       0.00024375 </v>
   <v>       0.24991894       0.25276983       0.50044980 </v>
   <v>       0.25064080       0.75076936       0.99945910 </v>
   <v>       0.24889944       0.74690174       0.50177609 </v>
   <v>       0.75110510       0.25336587       0.50240369 </v>
   <v>       0.74835200       0.75149560       0.99990600 </v>
   <v>       0.74896315       0.74881027       0.50065049 </v>
   <v>       0.24725693       0.25512135       0.24989967 </v>
   <v>       0.25023527       0.24919742       0.74944922 </v>
   <v>       0.24980492       0.74868200       0.25035647 </v>
   <v>       0.24956500       0.74981170       0.74901147 </v>
   <v>       0.75177609       0.25067649       0.24945595 </v>
   <v>       0.75035022       0.25038097       0.75004740 </v>
   <v>       0.75815796       0.73520524       0.24961393 </v>
   <v>       0.75084751       0.74976580       0.74942980 </v>
   <v>       0.99972133       0.00143676       0.24988103 </v>
   <v>       0.99970291       0.00023649       0.75059792 </v>
   <v>       0.00477316       0.49717931       0.24970472 </v>
   <v>       0.00012379       0.50039895       0.75914532 </v>
   <v>       0.48606114       0.00825973       0.25076227 </v>
   <v>       0.49926036       0.00044402       0.75237471 </v>
   <v>       0.49930540       0.50066269       0.25086864 </v>
   <v>       0.49982386       0.49913647       0.74965831 </v>
   <v>       0.00018824       0.50067536       0.49026002 </v>
   <v>       0.50226254       0.99966919       0.99933073 </v>
   <v>       0.49995151       0.50010348       0.50026226 </v>
   <v>       0.74988704       0.25006776       0.99843741 </v>
   <v>       0.10668885       0.14415883       0.24992764 </v>
   <v>       0.10953986       0.14056112       0.75060993 </v>
   <v>       0.10263358       0.64467744       0.24862265 </v>
   <v>       0.10801004       0.63568546       0.73730277 </v>
   <v>       0.61223994       0.13360232       0.25298208 </v>
   <v>       0.61003539       0.13995722       0.75109623 </v>
   <v>       0.60339750       0.65224842       0.24961226 </v>
   <v>       0.61236693       0.63913960       0.75039333 </v>
   <v>       0.39395073       0.35463579       0.24940173 </v>
   <v>       0.38886238       0.36000208       0.75103619 </v>
   <v>       0.39535411       0.85460542       0.25253386 </v>
   <v>       0.38984240       0.85903639       0.75113834 </v>
   <v>       0.89594314       0.35700989       0.24959229 </v>
   <v>       0.89328088       0.36461390       0.73791679 </v>
   <v>       0.88197562       0.86181971       0.25057555 </v>
   <v>       0.89048117       0.85967632       0.75065279 </v>
   <v>       0.35307929       0.10596255       0.25165184 </v>
   <v>       0.35814150       0.10947147       0.75140236 </v>
   <v>       0.35422169       0.60538711       0.25010058 </v>
   <v>       0.35973898       0.61037399       0.75093393 </v>
   <v>       0.85943929       0.10909885       0.25091946 </v>
   <v>       0.86111678       0.11026472       0.74933766 </v>
   <v>       0.85390337       0.60179040       0.24873912 </v>
   <v>       0.86583126       0.60706789       0.73586840 </v>
   <v>       0.14633558       0.39707974       0.24937780 </v>
   <v>       0.13620147       0.39223035       0.73855354 </v>
   <v>       0.14054129       0.89151275       0.25045501 </v>
   <v>       0.13926711       0.88920505       0.75019484 </v>
   <v>       0.64269265       0.39311574       0.25096897 </v>
   <v>       0.63996905       0.38963694       0.75011208 </v>
   <v>       0.64057215       0.88885504       0.75194414 </v>
   <v>       0.36095370       0.38871690       0.00029249 </v>
   <v>       0.36397301       0.38360731       0.49917171 </v>
   <v>       0.36070258       0.88641381       0.00036802 </v>
   <v>       0.36218807       0.88708465       0.49556246 </v>
   <v>       0.86320938       0.39133707       0.99960907 </v>
   <v>       0.86671769       0.39045530       0.51190213 </v>
   <v>       0.86213733       0.88803305       0.99880651 </v>
   <v>       0.86210928       0.88882582       0.49973061 </v>
   <v>       0.13856653       0.11119697       0.99903933 </v>
   <v>       0.13746184       0.11235663       0.50038876 </v>
   <v>       0.13823947       0.61045402       0.00037081 </v>
   <v>       0.13221554       0.61166970       0.51300693 </v>
   <v>       0.63762816       0.11300604       0.99846972 </v>
   <v>       0.63783374       0.11261750       0.49794592 </v>
   <v>       0.63962906       0.61169256       0.00196690 </v>
   <v>       0.63757801       0.61524142       0.49804387 </v>
   <v>       0.11041310       0.36180608       0.99974022 </v>
   <v>       0.11235396       0.36490373       0.50964233 </v>
   <v>       0.11133136       0.86129494       0.00031704 </v>
   <v>       0.11189414       0.86300722       0.49928934 </v>
   <v>       0.61133372       0.36445041       0.99916171 </v>
   <v>       0.61634356       0.36350640       0.50033810 </v>
   <v>       0.61410696       0.85893662       0.99257188 </v>
   <v>       0.61193185       0.86232712       0.50409337 </v>
   <v>       0.38595605       0.13836636       0.00428884 </v>
   <v>       0.38827646       0.13434949       0.49084691 </v>
   <v>       0.38740278       0.63779158       0.99880587 </v>
   <v>       0.38282148       0.63608754       0.50067125 </v>
   <v>       0.88993789       0.13668507       0.00127211 </v>
   <v>       0.88812206       0.13726282       0.49872984 </v>
   <v>       0.88910723       0.64021782       0.00709915 </v>
   <v>       0.88739527       0.63834027       0.50186318 </v>
   <v>       0.00133188       0.99866532       0.12536269 </v>
   <v>       0.00021553       0.99966239       0.62512474 </v>
   <v>       0.00182450       0.49793994       0.12645055 </v>
   <v>       0.51552395       0.98560444       0.13253541 </v>
   <v>       0.49716921       0.00241408       0.62399459 </v>
   <v>       0.49984506       0.50025505       0.12540154 </v>
   <v>       0.49982169       0.50056202       0.62680139 </v>
   <v>       0.00122706       0.99962736       0.37470301 </v>
   <v>       0.00031738       0.99996463       0.87492040 </v>
   <v>       0.00164291       0.49950882       0.37232119 </v>
   <v>       0.99853875       0.50388460       0.87468087 </v>
   <v>       0.51770162       0.98381428       0.36985797 </v>
   <v>       0.49652497       0.00156293       0.87335985 </v>
   <v>       0.49962876       0.50011816       0.37289051 </v>
   <v>       0.50038363       0.50129912       0.87532506 </v>
   <v>       0.24305766       0.25479970       0.37431781 </v>
   <v>       0.24682478       0.25418264       0.87421319 </v>
   <v>       0.24276655       0.74363257       0.37568423 </v>
   <v>       0.24350121       0.74614744       0.87346512 </v>
   <v>       0.75527364       0.25611060       0.37633099 </v>
   <v>       0.75767980       0.25477615       0.87150127 </v>
   <v>       0.74245856       0.76048130       0.37118062 </v>
   <v>       0.75919173       0.73954465       0.87378479 </v>
   <v>       0.24702886       0.25086142       0.12604521 </v>
   <v>       0.25732892       0.24279263       0.62466697 </v>
   <v>       0.24910781       0.74978548       0.12566627 </v>
   <v>       0.25524467       0.75730201       0.62528577 </v>
   <v>       0.74934540       0.25151298       0.12738884 </v>
   <v>       0.74609059       0.24373192       0.62518266 </v>
   <v>       0.73905582       0.76491397       0.12906904 </v>
   <v>       0.74845325       0.75331807       0.62495030 </v>
  </varray>
 </structure>
</modeling>
