<?xml version="1.0" encoding="ISO-8859-1"?>
<modeling>
 <generator>
  <i name="program" type="string">vasp </i>
  <i name="version" type="string">5.4.1  </i>
  <i name="subversion" type="string">05Feb16 (build Jan 25 2017 20:16:33) complex                          parallel </i>
  <i name="platform" type="string">BWXE6 </i>
  <i name="date" type="string">2019 06 18 </i>
  <i name="time" type="string">09:40:57 </i>
 </generator>
 <incar>
  <i type="string" name="SYSTEM"> STF</i>
  <i type="string" name="PREC">normal</i>
  <i type="string" name="ALGO"> Fast</i>
  <i type="int" name="ISPIN">     2</i>
  <i type="int" name="NELM">    40</i>
  <i type="int" name="NELMIN">     8</i>
  <i type="int" name="IBRION">     2</i>
  <i name="EDIFF">      0.00010000</i>
  <i name="EDIFFG">     -0.03000000</i>
  <i type="int" name="NSW">    30</i>
  <i type="int" name="ISIF">     3</i>
  <i name="ENCUT">    520.00000000</i>
  <i type="int" name="NBANDS">   768</i>
  <v name="MAGMOM">      0.60000000      0.60000000      0.60000000      0.60000000      0.60000000      0.60000000      0.60000000      0.60000000      0.60000000      0.60000000      0.60000000      0.60000000      0.60000000      0.60000000      0.60000000      0.60000000      0.60000000      0.60000000      0.60000000      0.60000000
      0.60000000      0.60000000      0.60000000      0.60000000      0.60000000      0.60000000      0.60000000      0.60000000      0.60000000      0.60000000      0.60000000      0.60000000      0.60000000      0.60000000      0.60000000      0.60000000      0.60000000      0.60000000      0.60000000      0.60000000
      0.60000000      0.60000000      0.60000000      0.60000000      0.60000000      0.60000000      0.60000000      0.60000000      0.60000000      0.60000000      0.60000000      0.60000000      5.00000000      5.00000000      5.00000000      5.00000000      5.00000000      5.00000000      5.00000000      5.00000000
      5.00000000      5.00000000      5.00000000      5.00000000      0.60000000      0.60000000      0.60000000      0.60000000      0.60000000      0.60000000      0.60000000      0.60000000      0.60000000      0.60000000      0.60000000      0.60000000      0.60000000      0.60000000      0.60000000      0.60000000
      0.60000000      0.60000000      0.60000000      0.60000000      0.60000000      0.60000000      0.60000000      0.60000000      0.60000000      0.60000000      0.60000000      0.60000000      0.60000000      0.60000000      0.60000000      0.60000000      0.60000000      0.60000000      0.60000000      0.60000000
      0.60000000      0.60000000      0.60000000      0.60000000      0.60000000      0.60000000      0.60000000      0.60000000      0.60000000      0.60000000      0.60000000      0.60000000      0.60000000      0.60000000      0.60000000      0.60000000      0.60000000      0.60000000      0.60000000      0.60000000
      0.60000000      0.60000000      0.60000000      0.60000000      0.60000000      0.60000000      0.60000000      0.60000000      0.60000000      0.60000000      0.60000000      0.60000000      0.60000000      0.60000000      0.60000000      0.60000000      0.60000000      0.60000000      0.60000000      0.60000000
      0.60000000      0.60000000      0.60000000      0.60000000      0.60000000      0.60000000      0.60000000      0.60000000      0.60000000      0.60000000      0.60000000      0.60000000      0.60000000      0.60000000</v>
  <i type="string" name="LREAL"> Auto</i>
  <i type="int" name="ISMEAR">     0</i>
  <i name="SIGMA">      0.05000000</i>
  <i type="int" name="LMAXMIX">     4</i>
  <v type="int" name="KPOINT_BSE">    -1     0     0     0</v>
  <i type="int" name="NELM">    40</i>
  <i type="logical" name="LDAU"> T  </i>
  <v type="int" name="LDAUTYPE">     2</v>
  <v type="int" name="LDAUL">     0     2     2     0</v>
  <v name="LDAUU">      0.00000000      3.00000000      5.00000000      0.00000000</v>
  <v name="LDAUJ">      0.00000000      0.00000000      0.00000000      0.00000000</v>
  <i type="int" name="LDAUPRINT">     1</i>
 </incar>
 <kpoints>
  <generation param="Monkhorst-Pack">
   <v type="int" name="divisions">       2        2        2 </v>
   <v name="usershift">      0.00000000       0.00000000       0.00000000 </v>
   <v name="genvec1">      0.50000000       0.00000000       0.00000000 </v>
   <v name="genvec2">      0.00000000       0.50000000       0.00000000 </v>
   <v name="genvec3">      0.00000000      -0.00000000       0.50000000 </v>
   <v name="shift">      0.50000000       0.50000000       0.50000000 </v>
  </generation>
  <varray name="kpointlist" >
   <v>       0.25000000       0.25000000       0.25000000 </v>
   <v>      -0.25000000       0.25000000       0.25000000 </v>
   <v>       0.25000000      -0.25000000       0.25000000 </v>
   <v>      -0.25000000      -0.25000000       0.25000000 </v>
  </varray>
  <varray name="weights" >
   <v>       0.25000000 </v>
   <v>       0.25000000 </v>
   <v>       0.25000000 </v>
   <v>       0.25000000 </v>
  </varray>
 </kpoints>
 <parameters>
  <separator name="general" >
   <i type="string" name="SYSTEM">STF</i>
   <i type="logical" name="LCOMPAT"> F  </i>
  </separator>
  <separator name="electronic" >
   <i type="string" name="PREC">normal</i>
   <i name="ENMAX">    520.00000000</i>
   <i name="ENAUG">    605.39200000</i>
   <i name="EDIFF">      0.00010000</i>
   <i type="int" name="IALGO">    68</i>
   <i type="int" name="IWAVPR">    11</i>
   <i type="int" name="NBANDS">   768</i>
   <i name="NELECT">   1036.00000000</i>
   <i type="int" name="TURBO">     0</i>
   <i type="int" name="IRESTART">     0</i>
   <i type="int" name="NREBOOT">     0</i>
   <i type="int" name="NMIN">     0</i>
   <i name="EREF">      0.00000000</i>
   <separator name="electronic smearing" >
    <i type="int" name="ISMEAR">     0</i>
    <i name="SIGMA">      0.05000000</i>
    <i name="KSPACING">      0.50000000</i>
    <i type="logical" name="KGAMMA"> T  </i>
   </separator>
   <separator name="electronic projectors" >
    <i type="logical" name="LREAL"> T  </i>
    <v name="ROPT">     -0.00050000     -0.00050000     -0.00050000     -0.00050000</v>
    <i type="int" name="LMAXPAW">  -100</i>
    <i type="int" name="LMAXMIX">     4</i>
    <i type="logical" name="NLSPLINE"> F  </i>
   </separator>
   <separator name="electronic startup" >
    <i type="int" name="ISTART">     1</i>
    <i type="int" name="ICHARG">     0</i>
    <i type="int" name="INIWAV">     1</i>
   </separator>
   <separator name="electronic spin" >
    <i type="int" name="ISPIN">     2</i>
    <i type="logical" name="LNONCOLLINEAR"> F  </i>
    <v name="MAGMOM">      0.60000000      0.60000000      0.60000000      0.60000000      0.60000000      0.60000000      0.60000000      0.60000000      0.60000000      0.60000000      0.60000000      0.60000000      0.60000000      0.60000000      0.60000000      0.60000000      0.60000000      0.60000000      0.60000000      0.60000000
      0.60000000      0.60000000      0.60000000      0.60000000      0.60000000      0.60000000      0.60000000      0.60000000      0.60000000      0.60000000      0.60000000      0.60000000      0.60000000      0.60000000      0.60000000      0.60000000      0.60000000      0.60000000      0.60000000      0.60000000
      0.60000000      0.60000000      0.60000000      0.60000000      0.60000000      0.60000000      0.60000000      0.60000000      0.60000000      0.60000000      0.60000000      0.60000000      5.00000000      5.00000000      5.00000000      5.00000000      5.00000000      5.00000000      5.00000000      5.00000000
      5.00000000      5.00000000      5.00000000      5.00000000      0.60000000      0.60000000      0.60000000      0.60000000      0.60000000      0.60000000      0.60000000      0.60000000      0.60000000      0.60000000      0.60000000      0.60000000      0.60000000      0.60000000      0.60000000      0.60000000
      0.60000000      0.60000000      0.60000000      0.60000000      0.60000000      0.60000000      0.60000000      0.60000000      0.60000000      0.60000000      0.60000000      0.60000000      0.60000000      0.60000000      0.60000000      0.60000000      0.60000000      0.60000000      0.60000000      0.60000000
      0.60000000      0.60000000      0.60000000      0.60000000      0.60000000      0.60000000      0.60000000      0.60000000      0.60000000      0.60000000      0.60000000      0.60000000      0.60000000      0.60000000      0.60000000      0.60000000      0.60000000      0.60000000      0.60000000      0.60000000
      0.60000000      0.60000000      0.60000000      0.60000000      0.60000000      0.60000000      0.60000000      0.60000000      0.60000000      0.60000000      0.60000000      0.60000000      0.60000000      0.60000000      0.60000000      0.60000000      0.60000000      0.60000000      0.60000000      0.60000000
      0.60000000      0.60000000      0.60000000      0.60000000      0.60000000      0.60000000      0.60000000      0.60000000      0.60000000      0.60000000      0.60000000      0.60000000      0.60000000      0.60000000</v>
    <i name="NUPDOWN">     -1.00000000</i>
    <i type="logical" name="LSORBIT"> F  </i>
    <v name="SAXIS">      0.00000000      0.00000000      1.00000000</v>
    <i type="logical" name="LSPIRAL"> F  </i>
    <v name="QSPIRAL">      0.00000000      0.00000000      0.00000000</v>
    <i type="logical" name="LZEROZ"> F  </i>
   </separator>
   <separator name="electronic exchange-correlation" >
    <i type="logical" name="LASPH"> F  </i>
    <i type="logical" name="LMETAGGA"> F  </i>
   </separator>
   <separator name="electronic convergence" >
    <i type="int" name="NELM">    40</i>
    <i type="int" name="NELMDL">     0</i>
    <i type="int" name="NELMIN">     8</i>
    <i name="ENINI">    520.00000000</i>
    <separator name="electronic convergence detail" >
     <i type="logical" name="LDIAG"> T  </i>
     <i type="logical" name="LSUBROT"> F  </i>
     <i name="WEIMIN">      0.00100000</i>
     <i name="EBREAK">      0.00000003</i>
     <i name="DEPER">      0.30000000</i>
     <i type="int" name="NRMM">     4</i>
     <i name="TIME">      0.40000000</i>
    </separator>
   </separator>
   <separator name="electronic mixer" >
    <i name="AMIX">      0.40000000</i>
    <i name="BMIX">      1.00000000</i>
    <i name="AMIN">      0.10000000</i>
    <i name="AMIX_MAG">      1.60000000</i>
    <i name="BMIX_MAG">      1.00000000</i>
    <separator name="electronic mixer details" >
     <i type="int" name="IMIX">     4</i>
     <i type="logical" name="MIXFIRST"> F  </i>
     <i type="int" name="MAXMIX">   -45</i>
     <i name="WC">    100.00000000</i>
     <i type="int" name="INIMIX">     1</i>
     <i type="int" name="MIXPRE">     1</i>
     <i type="int" name="MREMOVE">     5</i>
    </separator>
   </separator>
   <separator name="electronic dipolcorrection" >
    <i type="logical" name="LDIPOL"> F  </i>
    <i type="logical" name="LMONO"> F  </i>
    <i type="int" name="IDIPOL">     0</i>
    <i name="EPSILON">      1.00000000</i>
    <v name="DIPOL">   -100.00000000   -100.00000000   -100.00000000</v>
    <i name="EFIELD">      0.00000000</i>
   </separator>
  </separator>
  <separator name="grids" >
   <i type="int" name="NGX">    64</i>
   <i type="int" name="NGY">    64</i>
   <i type="int" name="NGZ">    90</i>
   <i type="int" name="NGXF">   128</i>
   <i type="int" name="NGYF">   128</i>
   <i type="int" name="NGZF">   180</i>
   <i type="logical" name="ADDGRID"> F  </i>
  </separator>
  <separator name="ionic" >
   <i type="int" name="NSW">    30</i>
   <i type="int" name="IBRION">     2</i>
   <i type="int" name="ISIF">     3</i>
   <i name="PSTRESS">      0.00000000</i>
   <i name="EDIFFG">     -0.03000000</i>
   <i type="int" name="NFREE">     1</i>
   <i name="POTIM">      0.50000000</i>
   <i name="SMASS">     -3.00000000</i>
   <i name="SCALEE">      1.00000000</i>
  </separator>
  <separator name="ionic md" >
   <i name="TEBEG">      0.00010000</i>
   <i name="TEEND">      0.00010000</i>
   <i type="int" name="NBLOCK">     1</i>
   <i type="int" name="KBLOCK">    30</i>
   <i type="int" name="NPACO">   256</i>
   <i name="APACO">     16.00000000</i>
  </separator>
  <separator name="symmetry" >
   <i type="int" name="ISYM">     2</i>
   <i name="SYMPREC">      0.00001000</i>
  </separator>
  <separator name="dos" >
   <i type="logical" name="LORBIT"> F  </i>
   <v name="RWIGS">     -1.00000000     -1.00000000     -1.00000000     -1.00000000</v>
   <i type="int" name="NEDOS">   301</i>
   <i name="EMIN">     10.00000000</i>
   <i name="EMAX">    -10.00000000</i>
   <i name="EFERMI">      0.00000000</i>
  </separator>
  <separator name="writing" >
   <i type="int" name="NWRITE">     2</i>
   <i type="logical" name="LWAVE"> T  </i>
   <i type="logical" name="LCHARG"> T  </i>
   <i type="logical" name="LPARD"> F  </i>
   <i type="logical" name="LVTOT"> F  </i>
   <i type="logical" name="LVHAR"> F  </i>
   <i type="logical" name="LELF"> F  </i>
   <i type="logical" name="LOPTICS"> F  </i>
   <v name="STM">      0.00000000      0.00000000      0.00000000      0.00000000      0.00000000      0.00000000      0.00000000</v>
  </separator>
  <separator name="performance" >
   <i type="int" name="NPAR">     2</i>
   <i type="int" name="NSIM">     4</i>
   <i type="int" name="NBLK">    -1</i>
   <i type="logical" name="LPLANE"> T  </i>
   <i type="logical" name="LSCALAPACK"> T  </i>
   <i type="logical" name="LSCAAWARE"> F  </i>
   <i type="logical" name="LSCALU"> F  </i>
   <i type="logical" name="LASYNC"> F  </i>
   <i type="logical" name="LORBITALREAL"> F  </i>
  </separator>
  <separator name="miscellaneous" >
   <i type="int" name="IDIOT">     3</i>
   <i type="logical" name="LMUSIC"> F  </i>
   <v name="POMASS">     87.62000000     47.88000000     55.84700000     16.00000000</v>
   <v name="DARWINR">      0.00000000      0.00000000      0.00000000      0.00000000</v>
   <v name="DARWINV">      1.00000000      1.00000000      1.00000000      1.00000000</v>
   <i type="logical" name="LCORR"> T  </i>
  </separator>
  <i type="logical" name="GGA_COMPAT"> T  </i>
  <i type="logical" name="LBERRY"> F  </i>
  <i type="int" name="ICORELEVEL">     0</i>
  <i type="logical" name="LDAU"> T  </i>
  <v type="int" name="LDAUTYPE">     2</v>
  <v type="int" name="LDAUL">     0</v>
  <v name="LDAUU">      0.00000000</v>
  <v name="LDAUJ">      0.00000000</v>
  <i type="int" name="LDAUPRINT">     1</i>
  <i type="int" name="I_CONSTRAINED_M">     0</i>
  <separator name="electronic exchange-correlation" >
   <i type="string" name="GGA">--</i>
   <i type="int" name="VOSKOWN">     0</i>
   <i type="logical" name="LHFCALC"> F  </i>
   <i type="string" name="PRECFOCK"></i>
   <i type="logical" name="LSYMGRAD"> F  </i>
   <i type="logical" name="LHFONE"> F  </i>
   <i type="logical" name="LRHFCALC"> F  </i>
   <i type="logical" name="LTHOMAS"> F  </i>
   <i type="logical" name="LMODELHF"> F  </i>
   <i name="ENCUT4O">     -1.00000000</i>
   <i type="int" name="EXXOEP">     0</i>
   <i type="int" name="FOURORBIT">     0</i>
   <i name="AEXX">      0.00000000</i>
   <i name="HFALPHA">      0.00000000</i>
   <i name="MCALPHA">      0.00000000</i>
   <i name="ALDAX">      1.00000000</i>
   <i name="AGGAX">      1.00000000</i>
   <i name="ALDAC">      1.00000000</i>
   <i name="AGGAC">      1.00000000</i>
   <i type="int" name="NKREDX">     1</i>
   <i type="int" name="NKREDY">     1</i>
   <i type="int" name="NKREDZ">     1</i>
   <i type="logical" name="SHIFTRED"> F  </i>
   <i type="logical" name="ODDONLY"> F  </i>
   <i type="logical" name="EVENONLY"> F  </i>
   <i type="int" name="LMAXFOCK">     0</i>
   <i type="int" name="NMAXFOCKAE">     0</i>
   <i type="logical" name="LFOCKAEDFT"> F  </i>
   <i name="HFSCREEN">      0.00000000</i>
   <i name="HFSCREENC">      0.00000000</i>
   <i type="int" name="NBANDSGWLOW">     0</i>
  </separator>
  <separator name="vdW DFT" >
   <i type="logical" name="LUSE_VDW"> F  </i>
   <i name="Zab_VDW">     -0.84910000</i>
   <i name="PARAM1">      0.12340000</i>
   <i name="PARAM2">      1.00000000</i>
   <i name="PARAM3">      0.00000000</i>
  </separator>
  <separator name="model GW" >
   <i type="int" name="MODEL_GW">     0</i>
   <i name="MODEL_EPS0">      7.81143484</i>
   <i name="MODEL_ALPHA">      1.00000000</i>
  </separator>
  <separator name="linear response parameters" >
   <i type="logical" name="LEPSILON"> F  </i>
   <i type="logical" name="LRPA"> F  </i>
   <i type="logical" name="LNABLA"> F  </i>
   <i type="logical" name="LVEL"> F  </i>
   <i type="int" name="KINTER">     0</i>
   <i name="CSHIFT">      0.10000000</i>
   <i name="OMEGAMAX">     -1.00000000</i>
   <i name="DEG_THRESHOLD">      0.00200000</i>
  </separator>
  <separator name="orbital magnetization" >
   <i type="logical" name="NUCIND"> F  </i>
   <v name="MAGPOS">      0.00000000      0.00000000      0.00000000</v>
   <i type="logical" name="LNICSALL"> T  </i>
   <i type="logical" name="ORBITALMAG"> F  </i>
   <i type="logical" name="LMAGBLOCH"> F  </i>
   <i type="logical" name="LCHIMAG"> F  </i>
   <i type="logical" name="LGAUGE"> T  </i>
   <i type="int" name="MAGATOM">     0</i>
   <v name="MAGDIPOL">      0.00000000      0.00000000      0.00000000</v>
   <v name="AVECCONST">      0.00000000      0.00000000      0.00000000</v>
  </separator>
  <separator name="response functions" >
   <i type="logical" name="LADDER"> F  </i>
   <i type="logical" name="LFXC"> F  </i>
   <i type="logical" name="LHARTREE"> T  </i>
   <i type="int" name="IBSE">     0</i>
   <v type="int" name="KPOINT">    -1     0     0     0</v>
   <i type="logical" name="LTCTE"> F  </i>
   <i type="logical" name="LTETE"> F  </i>
   <i type="logical" name="LTRIPLET"> F  </i>
   <i type="logical" name="LFXCEPS"> F  </i>
   <i type="logical" name="LFXHEG"> F  </i>
   <i type="int" name="NATURALO">     0</i>
   <i type="logical" name="L2ORDER"> F  </i>
   <i type="logical" name="LUSEW"> F  </i>
   <i name="ENCUTGW">     -2.00000000</i>
   <i name="ENCUTGWSOFT">     -2.00000000</i>
   <i name="ENCUTLF">     -1.00000000</i>
   <i type="int" name="LMAXMP2">    -1</i>
   <i name="SCISSOR">      0.00000000</i>
   <i type="int" name="NOMEGA">     0</i>
   <i type="int" name="NOMEGAR">     0</i>
   <i type="int" name="NBANDSGW">    -1</i>
   <i type="int" name="NBANDSO">    -1</i>
   <i type="int" name="NBANDSV">    -1</i>
   <i type="int" name="NELM">    40</i>
   <i type="int" name="NELMHF">     1</i>
   <i type="int" name="DIM">     3</i>
   <i type="int" name="ANTIRES">     0</i>
   <i name="OMEGAMAX">    -30.00000000</i>
   <i name="OMEGAMIN">    -30.00000000</i>
   <i name="OMEGATL">   -200.00000000</i>
   <i type="int" name="OMEGAGRID">     0</i>
   <i name="CSHIFT">     -0.10000000</i>
   <i type="logical" name="SELFENERGY"> F  </i>
   <i type="logical" name="LSPECTRAL"> F  </i>
   <i type="logical" name="LSPECTRALGW"> F  </i>
   <i type="logical" name="LSINGLES"> F  </i>
   <i type="logical" name="LFERMIGW"> F  </i>
   <i type="logical" name="ODDONLYGW"> F  </i>
   <i type="logical" name="EVENONLYGW"> F  </i>
   <i type="int" name="NKREDLFX">     1</i>
   <i type="int" name="NKREDLFY">     1</i>
   <i type="int" name="NKREDLFZ">     1</i>
   <i type="int" name="MAXMEM">  1800</i>
   <i type="int" name="TELESCOPE">     0</i>
   <i type="int" name="TAUPAR">     1</i>
   <i type="int" name="OMEGAPAR">    -1</i>
   <i name="LAMBDA">      1.00000000</i>
  </separator>
  <separator name="External order field" >
   <i name="OFIELD_KAPPA">      0.00000000</i>
   <v name="OFIELD_K">      0.00000000      0.00000000      0.00000000</v>
   <i name="OFIELD_Q6_NEAR">      0.00000000</i>
   <i name="OFIELD_Q6_FAR">      0.00000000</i>
   <i name="OFIELD_A">      0.00000000</i>
  </separator>
 </parameters>
 <atominfo>
  <atoms>     154 </atoms>
  <types>       4 </types>
  <array name="atoms" >
   <dimension dim="1">ion</dimension>
   <field type="string">element</field>
   <field type="int">atomtype</field>
   <set>
    <rc><c>Sr</c><c>   1</c></rc>
    <rc><c>Sr</c><c>   1</c></rc>
    <rc><c>Sr</c><c>   1</c></rc>
    <rc><c>Sr</c><c>   1</c></rc>
    <rc><c>Sr</c><c>   1</c></rc>
    <rc><c>Sr</c><c>   1</c></rc>
    <rc><c>Sr</c><c>   1</c></rc>
    <rc><c>Sr</c><c>   1</c></rc>
    <rc><c>Sr</c><c>   1</c></rc>
    <rc><c>Sr</c><c>   1</c></rc>
    <rc><c>Sr</c><c>   1</c></rc>
    <rc><c>Sr</c><c>   1</c></rc>
    <rc><c>Sr</c><c>   1</c></rc>
    <rc><c>Sr</c><c>   1</c></rc>
    <rc><c>Sr</c><c>   1</c></rc>
    <rc><c>Sr</c><c>   1</c></rc>
    <rc><c>Sr</c><c>   1</c></rc>
    <rc><c>Sr</c><c>   1</c></rc>
    <rc><c>Sr</c><c>   1</c></rc>
    <rc><c>Sr</c><c>   1</c></rc>
    <rc><c>Sr</c><c>   1</c></rc>
    <rc><c>Sr</c><c>   1</c></rc>
    <rc><c>Sr</c><c>   1</c></rc>
    <rc><c>Sr</c><c>   1</c></rc>
    <rc><c>Sr</c><c>   1</c></rc>
    <rc><c>Sr</c><c>   1</c></rc>
    <rc><c>Sr</c><c>   1</c></rc>
    <rc><c>Sr</c><c>   1</c></rc>
    <rc><c>Sr</c><c>   1</c></rc>
    <rc><c>Sr</c><c>   1</c></rc>
    <rc><c>Sr</c><c>   1</c></rc>
    <rc><c>Sr</c><c>   1</c></rc>
    <rc><c>Ti</c><c>   2</c></rc>
    <rc><c>Ti</c><c>   2</c></rc>
    <rc><c>Ti</c><c>   2</c></rc>
    <rc><c>Ti</c><c>   2</c></rc>
    <rc><c>Ti</c><c>   2</c></rc>
    <rc><c>Ti</c><c>   2</c></rc>
    <rc><c>Ti</c><c>   2</c></rc>
    <rc><c>Ti</c><c>   2</c></rc>
    <rc><c>Ti</c><c>   2</c></rc>
    <rc><c>Ti</c><c>   2</c></rc>
    <rc><c>Ti</c><c>   2</c></rc>
    <rc><c>Ti</c><c>   2</c></rc>
    <rc><c>Ti</c><c>   2</c></rc>
    <rc><c>Ti</c><c>   2</c></rc>
    <rc><c>Ti</c><c>   2</c></rc>
    <rc><c>Ti</c><c>   2</c></rc>
    <rc><c>Ti</c><c>   2</c></rc>
    <rc><c>Ti</c><c>   2</c></rc>
    <rc><c>Ti</c><c>   2</c></rc>
    <rc><c>Ti</c><c>   2</c></rc>
    <rc><c>Fe</c><c>   3</c></rc>
    <rc><c>Fe</c><c>   3</c></rc>
    <rc><c>Fe</c><c>   3</c></rc>
    <rc><c>Fe</c><c>   3</c></rc>
    <rc><c>Fe</c><c>   3</c></rc>
    <rc><c>Fe</c><c>   3</c></rc>
    <rc><c>Fe</c><c>   3</c></rc>
    <rc><c>Fe</c><c>   3</c></rc>
    <rc><c>Fe</c><c>   3</c></rc>
    <rc><c>Fe</c><c>   3</c></rc>
    <rc><c>Fe</c><c>   3</c></rc>
    <rc><c>Fe</c><c>   3</c></rc>
    <rc><c>O </c><c>   4</c></rc>
    <rc><c>O </c><c>   4</c></rc>
    <rc><c>O </c><c>   4</c></rc>
    <rc><c>O </c><c>   4</c></rc>
    <rc><c>O </c><c>   4</c></rc>
    <rc><c>O </c><c>   4</c></rc>
    <rc><c>O </c><c>   4</c></rc>
    <rc><c>O </c><c>   4</c></rc>
    <rc><c>O </c><c>   4</c></rc>
    <rc><c>O </c><c>   4</c></rc>
    <rc><c>O </c><c>   4</c></rc>
    <rc><c>O </c><c>   4</c></rc>
    <rc><c>O </c><c>   4</c></rc>
    <rc><c>O </c><c>   4</c></rc>
    <rc><c>O </c><c>   4</c></rc>
    <rc><c>O </c><c>   4</c></rc>
    <rc><c>O </c><c>   4</c></rc>
    <rc><c>O </c><c>   4</c></rc>
    <rc><c>O </c><c>   4</c></rc>
    <rc><c>O </c><c>   4</c></rc>
    <rc><c>O </c><c>   4</c></rc>
    <rc><c>O </c><c>   4</c></rc>
    <rc><c>O </c><c>   4</c></rc>
    <rc><c>O </c><c>   4</c></rc>
    <rc><c>O </c><c>   4</c></rc>
    <rc><c>O </c><c>   4</c></rc>
    <rc><c>O </c><c>   4</c></rc>
    <rc><c>O </c><c>   4</c></rc>
    <rc><c>O </c><c>   4</c></rc>
    <rc><c>O </c><c>   4</c></rc>
    <rc><c>O </c><c>   4</c></rc>
    <rc><c>O </c><c>   4</c></rc>
    <rc><c>O </c><c>   4</c></rc>
    <rc><c>O </c><c>   4</c></rc>
    <rc><c>O </c><c>   4</c></rc>
    <rc><c>O </c><c>   4</c></rc>
    <rc><c>O </c><c>   4</c></rc>
    <rc><c>O </c><c>   4</c></rc>
    <rc><c>O </c><c>   4</c></rc>
    <rc><c>O </c><c>   4</c></rc>
    <rc><c>O </c><c>   4</c></rc>
    <rc><c>O </c><c>   4</c></rc>
    <rc><c>O </c><c>   4</c></rc>
    <rc><c>O </c><c>   4</c></rc>
    <rc><c>O </c><c>   4</c></rc>
    <rc><c>O </c><c>   4</c></rc>
    <rc><c>O </c><c>   4</c></rc>
    <rc><c>O </c><c>   4</c></rc>
    <rc><c>O </c><c>   4</c></rc>
    <rc><c>O </c><c>   4</c></rc>
    <rc><c>O </c><c>   4</c></rc>
    <rc><c>O </c><c>   4</c></rc>
    <rc><c>O </c><c>   4</c></rc>
    <rc><c>O </c><c>   4</c></rc>
    <rc><c>O </c><c>   4</c></rc>
    <rc><c>O </c><c>   4</c></rc>
    <rc><c>O </c><c>   4</c></rc>
    <rc><c>O </c><c>   4</c></rc>
    <rc><c>O </c><c>   4</c></rc>
    <rc><c>O </c><c>   4</c></rc>
    <rc><c>O </c><c>   4</c></rc>
    <rc><c>O </c><c>   4</c></rc>
    <rc><c>O </c><c>   4</c></rc>
    <rc><c>O </c><c>   4</c></rc>
    <rc><c>O </c><c>   4</c></rc>
    <rc><c>O </c><c>   4</c></rc>
    <rc><c>O </c><c>   4</c></rc>
    <rc><c>O </c><c>   4</c></rc>
    <rc><c>O </c><c>   4</c></rc>
    <rc><c>O </c><c>   4</c></rc>
    <rc><c>O </c><c>   4</c></rc>
    <rc><c>O </c><c>   4</c></rc>
    <rc><c>O </c><c>   4</c></rc>
    <rc><c>O </c><c>   4</c></rc>
    <rc><c>O </c><c>   4</c></rc>
    <rc><c>O </c><c>   4</c></rc>
    <rc><c>O </c><c>   4</c></rc>
    <rc><c>O </c><c>   4</c></rc>
    <rc><c>O </c><c>   4</c></rc>
    <rc><c>O </c><c>   4</c></rc>
    <rc><c>O </c><c>   4</c></rc>
    <rc><c>O </c><c>   4</c></rc>
    <rc><c>O </c><c>   4</c></rc>
    <rc><c>O </c><c>   4</c></rc>
    <rc><c>O </c><c>   4</c></rc>
    <rc><c>O </c><c>   4</c></rc>
    <rc><c>O </c><c>   4</c></rc>
    <rc><c>O </c><c>   4</c></rc>
    <rc><c>O </c><c>   4</c></rc>
    <rc><c>O </c><c>   4</c></rc>
   </set>
  </array>
  <array name="atomtypes" >
   <dimension dim="1">type</dimension>
   <field type="int">atomspertype</field>
   <field type="string">element</field>
   <field>mass</field>
   <field>valence</field>
   <field type="string">pseudopotential</field>
   <set>
    <rc><c>  32</c><c>Sr</c><c>     87.62000000</c><c>     10.00000000</c><c>  PAW_PBE Sr_sv 07Sep2000               </c></rc>
    <rc><c>  20</c><c>Ti</c><c>     47.88000000</c><c>      4.00000000</c><c>  PAW_PBE Ti 08Apr2002                  </c></rc>
    <rc><c>  12</c><c>Fe</c><c>     55.84700000</c><c>      8.00000000</c><c>  PAW_PBE Fe 06Sep2000                  </c></rc>
    <rc><c>  90</c><c>O </c><c>     16.00000000</c><c>      6.00000000</c><c>  PAW_PBE O 08Apr2002                   </c></rc>
   </set>
  </array>
 </atominfo>
 <structure name="initialpos" >
  <crystal>
   <varray name="basis" >
    <v>      11.21942127       0.04902464      -0.00949979 </v>
    <v>       0.04902772      11.22022771       0.01056594 </v>
    <v>      -0.01353989       0.01519476      15.92711650 </v>
   </varray>
   <i name="volume">   2004.93494175 </i>
   <varray name="rec_basis" >
    <v>       0.08913292      -0.00038955       0.00007614 </v>
    <v>      -0.00038952       0.08912653      -0.00008536 </v>
    <v>       0.00005342      -0.00005936       0.06278611 </v>
   </varray>
  </crystal>
  <varray name="positions" >
   <v>       0.00325721       0.24994188       0.12867020 </v>
   <v>       0.00583331       0.24661170       0.63172110 </v>
   <v>       0.00134820       0.75241717       0.13298889 </v>
   <v>       0.01193021       0.75747050       0.62593244 </v>
   <v>       0.49649313       0.25348867       0.12867257 </v>
   <v>       0.49225194       0.24781961       0.62793502 </v>
   <v>       0.49935593       0.74304363       0.12994477 </v>
   <v>       0.49191066       0.74790360       0.62188521 </v>
   <v>       0.00388582       0.25707104       0.36742258 </v>
   <v>       0.00527356       0.24859993       0.87614216 </v>
   <v>       0.00558132       0.75039483       0.37406151 </v>
   <v>       0.00514737       0.75008219       0.87037450 </v>
   <v>       0.49559323       0.26097706       0.36921388 </v>
   <v>       0.49320319       0.24362736       0.87022581 </v>
   <v>       0.49880531       0.73796153       0.37483243 </v>
   <v>       0.48655933       0.74988721       0.86680340 </v>
   <v>       0.24291026       0.00017832       0.12671055 </v>
   <v>       0.25569243       0.99238676       0.63022683 </v>
   <v>       0.24057989       0.49693474       0.13104792 </v>
   <v>       0.25066910       0.51075219       0.62610332 </v>
   <v>       0.76059468       0.00139874       0.12968194 </v>
   <v>       0.74885758       0.99630631       0.62400451 </v>
   <v>       0.75442774       0.50380620       0.13357494 </v>
   <v>       0.74602506       0.50400388       0.62387839 </v>
   <v>       0.24593039       0.99684111       0.37241243 </v>
   <v>       0.24868588       0.99948639       0.86955136 </v>
   <v>       0.25840233       0.50308496       0.37114521 </v>
   <v>       0.23611651       0.49905942       0.86818824 </v>
   <v>       0.75999842       0.99904227       0.37547464 </v>
   <v>       0.75440456       0.00386997       0.87057644 </v>
   <v>       0.74408204       0.50711503       0.37021210 </v>
   <v>       0.75686009       0.49087426       0.86870378 </v>
   <v>       0.99960880       0.00029239       0.99682336 </v>
   <v>       0.99547111       0.49618345       0.99800069 </v>
   <v>       0.50260105       0.99579128       0.99332173 </v>
   <v>       0.48474465       0.48885565       0.99920438 </v>
   <v>       0.24778394       0.24365682       0.00234463 </v>
   <v>       0.26291939       0.25963410       0.49975782 </v>
   <v>       0.24869540       0.75077426       0.99987869 </v>
   <v>       0.25185386       0.75098513       0.49675344 </v>
   <v>       0.74760967       0.24709782       0.00447693 </v>
   <v>       0.74989424       0.25293430       0.49135350 </v>
   <v>       0.24741137       0.24841478       0.74944604 </v>
   <v>       0.25259023       0.74784921       0.25000333 </v>
   <v>       0.24777501       0.75163148       0.75046391 </v>
   <v>       0.74796541       0.25148963       0.24852230 </v>
   <v>       0.75117615       0.24880538       0.75756332 </v>
   <v>       0.74982087       0.75142500       0.73740261 </v>
   <v>       0.00171139       0.00304339       0.25306313 </v>
   <v>       0.99750613       0.50291997       0.25260870 </v>
   <v>       0.50422842       0.99703590       0.24095181 </v>
   <v>       0.50007782       0.50126082       0.74850986 </v>
   <v>       0.98972457       0.98920753       0.50383030 </v>
   <v>       0.00782824       0.48633956       0.50269682 </v>
   <v>       0.49960236       0.99989712       0.50980433 </v>
   <v>       0.50720049       0.50306562       0.50162401 </v>
   <v>       0.75627584       0.76601883       0.01364796 </v>
   <v>       0.73439600       0.76165387       0.49289449 </v>
   <v>       0.25128101       0.25011566       0.25093025 </v>
   <v>       0.75011881       0.75036661       0.25794047 </v>
   <v>       0.00101374       0.00266480       0.74673358 </v>
   <v>       0.99597417       0.50368409       0.74421383 </v>
   <v>       0.50184741       0.99741873       0.74989724 </v>
   <v>       0.50264796       0.50092420       0.25085909 </v>
   <v>       0.11979063       0.13072334       0.24777195 </v>
   <v>       0.11794964       0.13720543       0.75842777 </v>
   <v>       0.11752414       0.63271982       0.25038010 </v>
   <v>       0.11747990       0.63406183       0.75228134 </v>
   <v>       0.61809901       0.12835487       0.26346791 </v>
   <v>       0.62313281       0.13586393       0.73702065 </v>
   <v>       0.61843757       0.63310115       0.25699816 </v>
   <v>       0.62044436       0.63461361       0.75817977 </v>
   <v>       0.38250728       0.36765269       0.24373256 </v>
   <v>       0.38369820       0.36863812       0.74904926 </v>
   <v>       0.38529581       0.86870759       0.25460621 </v>
   <v>       0.38109011       0.86558377       0.75030337 </v>
   <v>       0.87992814       0.36776145       0.24378087 </v>
   <v>       0.87359976       0.36771796       0.73542949 </v>
   <v>       0.88331610       0.87515943       0.25517991 </v>
   <v>       0.87972062       0.86823960       0.74866428 </v>
   <v>       0.37715240       0.11156780       0.26333717 </v>
   <v>       0.36913226       0.11955853       0.75027165 </v>
   <v>       0.36679783       0.61685007       0.24400020 </v>
   <v>       0.36541128       0.61571350       0.75534802 </v>
   <v>       0.86874628       0.12200598       0.24924117 </v>
   <v>       0.86374221       0.12280275       0.73255754 </v>
   <v>       0.87056332       0.61929290       0.24352236 </v>
   <v>       0.86211357       0.62612411       0.76686129 </v>
   <v>       0.12824898       0.38427545       0.24983146 </v>
   <v>       0.13313638       0.38436631       0.73756255 </v>
   <v>       0.13200158       0.88189257       0.25388982 </v>
   <v>       0.13259413       0.88225953       0.75212421 </v>
   <v>       0.63286461       0.37898259       0.24794088 </v>
   <v>       0.63287026       0.37866762       0.74140368 </v>
   <v>       0.62723187       0.88625040       0.27525458 </v>
   <v>       0.63825305       0.87711695       0.76711417 </v>
   <v>       0.35337675       0.39171146       0.00551418 </v>
   <v>       0.36782183       0.38276860       0.50677121 </v>
   <v>       0.36103206       0.89110450       0.00097053 </v>
   <v>       0.37513573       0.87799331       0.48978541 </v>
   <v>       0.85518025       0.38510206       0.00536746 </v>
   <v>       0.85947789       0.38717010       0.50990733 </v>
   <v>       0.86053942       0.89148920       0.99315719 </v>
   <v>       0.87598691       0.86598992       0.50869116 </v>
   <v>       0.14207547       0.10844152       0.99621840 </v>
   <v>       0.12845083       0.61495434       0.99576125 </v>
   <v>       0.12330128       0.62382825       0.49646688 </v>
   <v>       0.64573643       0.10030366       0.99755463 </v>
   <v>       0.63069731       0.12242936       0.50189865 </v>
   <v>       0.64224346       0.61530786       0.49753124 </v>
   <v>       0.10732916       0.35846729       0.00392114 </v>
   <v>       0.11070466       0.34925535       0.50631686 </v>
   <v>       0.10997128       0.86191437       0.99868113 </v>
   <v>       0.13036749       0.88126690       0.49426722 </v>
   <v>       0.60664594       0.35469231       0.99620653 </v>
   <v>       0.62125079       0.36145930       0.52255859 </v>
   <v>       0.60848976       0.83880810       0.98308833 </v>
   <v>       0.61711974       0.88033576       0.47360240 </v>
   <v>       0.39480982       0.14016772       0.00176679 </v>
   <v>       0.37449100       0.12250329       0.48965939 </v>
   <v>       0.39123876       0.63990294       0.99982339 </v>
   <v>       0.37989946       0.63031545       0.50046690 </v>
   <v>       0.89103414       0.14181104       0.00421883 </v>
   <v>       0.87631006       0.13652852       0.51650465 </v>
   <v>       0.84818682       0.63062526       0.98257634 </v>
   <v>       0.00048697       0.99725600       0.12463788 </v>
   <v>       0.02710713       0.01090848       0.62144226 </v>
   <v>       0.99676264       0.50870378       0.12126484 </v>
   <v>       0.98038482       0.53210297       0.61964353 </v>
   <v>       0.51586355       0.99204407       0.12436296 </v>
   <v>       0.50771682       0.98293334       0.62661882 </v>
   <v>       0.52687344       0.51501711       0.11421262 </v>
   <v>       0.49822578       0.51400181       0.62928784 </v>
   <v>       0.00384510       0.02144926       0.38159242 </v>
   <v>       0.99202534       0.00686374       0.87455684 </v>
   <v>       0.98593485       0.50146760       0.37784036 </v>
   <v>       0.99762112       0.48428711       0.87481779 </v>
   <v>       0.49882456       0.00823124       0.87469527 </v>
   <v>       0.49901243       0.48851243       0.37785573 </v>
   <v>       0.51573949       0.50593445       0.87947605 </v>
   <v>       0.23891695       0.24922453       0.37931463 </v>
   <v>       0.25246704       0.25862995       0.87608217 </v>
   <v>       0.25279089       0.74262763       0.37206410 </v>
   <v>       0.24978924       0.75201186       0.87672804 </v>
   <v>       0.75438370       0.25822408       0.37502852 </v>
   <v>       0.75623190       0.24612759       0.87445181 </v>
   <v>       0.78188988       0.73099934       0.38054887 </v>
   <v>       0.25155866       0.24066130       0.12391547 </v>
   <v>       0.24680006       0.22676459       0.62060076 </v>
   <v>       0.24659399       0.75341726       0.12459793 </v>
   <v>       0.25085761       0.75054884       0.62424389 </v>
   <v>       0.73746756       0.23948666       0.12608688 </v>
   <v>       0.73814140       0.75956475       0.12938163 </v>
   <v>       0.74088633       0.74864299       0.62102012 </v>
  </varray>
 </structure>
 <calculation>
  <scstep>
   <time name="dav">  604.15  604.19</time>
   <time name="total">  611.29  611.36</time>
   <energy>
    <i name="alphaZ">   5623.12989664 </i>
    <i name="ewald"> -61728.41385497 </i>
    <i name="hartreedc"> -16842.05446159 </i>
    <i name="XCdc">   3073.94277430 </i>
    <i name="pawpsdc"> 112937.81855587 </i>
    <i name="pawaedc">-111989.47614145 </i>
    <i name="eentropy">     -0.00000000 </i>
    <i name="bandstr">  -7078.84384885 </i>
    <i name="atom">  74916.81196153 </i>
    <i name="e_fr_energy">  -1087.08511851 </i>
    <i name="e_wo_entrp">  -1087.08511851 </i>
    <i name="e_0_energy">  -1087.08511851 </i>
   </energy>
  </scstep>
  <scstep>
   <time name="diag">   64.91   64.91</time>
   <time name="diis">   60.72   60.73</time>
   <time name="orth">   33.55   33.54</time>
   <time name="total">  166.39  166.45</time>
   <energy>
    <i name="e_fr_energy">  -1087.08511843 </i>
    <i name="e_wo_entrp">  -1087.08511843 </i>
    <i name="e_0_energy">  -1087.08511843 </i>
   </energy>
  </scstep>
  <scstep>
   <time name="diag">   64.95   64.95</time>
   <time name="diis">   56.52   56.52</time>
   <time name="orth">   33.58   33.58</time>
   <time name="total">  162.27  162.31</time>
   <energy>
    <i name="e_fr_energy">  -1087.08511870 </i>
    <i name="e_wo_entrp">  -1087.08511870 </i>
    <i name="e_0_energy">  -1087.08511870 </i>
   </energy>
  </scstep>
  <scstep>
   <time name="diag">   64.86   64.86</time>
   <time name="diis">   48.04   48.04</time>
   <time name="orth">   33.51   33.52</time>
   <time name="total">  153.65  153.73</time>
   <energy>
    <i name="e_fr_energy">  -1087.08511884 </i>
    <i name="e_wo_entrp">  -1087.08511884 </i>
    <i name="e_0_energy">  -1087.08511884 </i>
   </energy>
  </scstep>
  <scstep>
   <time name="diag">   64.80   64.80</time>
   <time name="diis">   47.33   47.34</time>
   <time name="orth">   33.57   33.57</time>
   <time name="total">  152.92  153.08</time>
   <energy>
    <i name="e_fr_energy">  -1087.08511889 </i>
    <i name="e_wo_entrp">  -1087.08511889 </i>
    <i name="e_0_energy">  -1087.08511889 </i>
   </energy>
  </scstep>
  <scstep>
   <time name="diag">   64.96   64.96</time>
   <time name="diis">   44.42   44.42</time>
   <time name="orth">   33.53   33.54</time>
   <time name="total">  150.13  150.18</time>
   <energy>
    <i name="e_fr_energy">  -1087.08511894 </i>
    <i name="e_wo_entrp">  -1087.08511894 </i>
    <i name="e_0_energy">  -1087.08511894 </i>
   </energy>
  </scstep>
  <scstep>
   <time name="diag">   64.74   64.74</time>
   <time name="diis">   44.30   44.30</time>
   <time name="orth">   33.41   33.41</time>
   <time name="total">  149.67  149.78</time>
   <energy>
    <i name="e_fr_energy">  -1087.08511895 </i>
    <i name="e_wo_entrp">  -1087.08511895 </i>
    <i name="e_0_energy">  -1087.08511895 </i>
   </energy>
  </scstep>
  <scstep>
   <time name="diag">   64.72   64.72</time>
   <time name="diis">   43.16   43.16</time>
   <time name="orth">   33.43   33.43</time>
   <time name="total">  142.36  142.45</time>
   <energy>
    <i name="alphaZ">   5623.12989664 </i>
    <i name="ewald"> -61728.41385497 </i>
    <i name="hartreedc"> -16842.05721726 </i>
    <i name="XCdc">   3073.94210860 </i>
    <i name="pawpsdc"> 112937.32283159 </i>
    <i name="pawaedc">-111988.98222036 </i>
    <i name="eentropy">     -0.00000000 </i>
    <i name="bandstr">  -7078.83862474 </i>
    <i name="atom">  74916.81196153 </i>
    <i name="e_fr_energy">  -1087.08511897 </i>
    <i name="e_wo_entrp">  -1087.08511897 </i>
    <i name="e_0_energy">  -1087.08511897 </i>
   </energy>
  </scstep>
  <structure>
   <crystal>
    <varray name="basis" >
     <v>      11.21942127       0.04902464      -0.00949979 </v>
     <v>       0.04902772      11.22022771       0.01056594 </v>
     <v>      -0.01353989       0.01519476      15.92711650 </v>
    </varray>
    <i name="volume">   2004.93494175 </i>
    <varray name="rec_basis" >
     <v>       0.08913292      -0.00038955       0.00007614 </v>
     <v>      -0.00038952       0.08912653      -0.00008536 </v>
     <v>       0.00005342      -0.00005936       0.06278611 </v>
    </varray>
   </crystal>
   <varray name="positions" >
    <v>       0.00325721       0.24994188       0.12867020 </v>
    <v>       0.00583331       0.24661170       0.63172110 </v>
    <v>       0.00134820       0.75241717       0.13298889 </v>
    <v>       0.01193021       0.75747050       0.62593244 </v>
    <v>       0.49649313       0.25348867       0.12867257 </v>
    <v>       0.49225194       0.24781961       0.62793502 </v>
    <v>       0.49935593       0.74304363       0.12994477 </v>
    <v>       0.49191066       0.74790360       0.62188521 </v>
    <v>       0.00388582       0.25707104       0.36742258 </v>
    <v>       0.00527356       0.24859993       0.87614216 </v>
    <v>       0.00558132       0.75039483       0.37406151 </v>
    <v>       0.00514737       0.75008219       0.87037450 </v>
    <v>       0.49559323       0.26097706       0.36921388 </v>
    <v>       0.49320319       0.24362736       0.87022581 </v>
    <v>       0.49880531       0.73796153       0.37483243 </v>
    <v>       0.48655933       0.74988721       0.86680340 </v>
    <v>       0.24291026       0.00017832       0.12671055 </v>
    <v>       0.25569243       0.99238676       0.63022683 </v>
    <v>       0.24057989       0.49693474       0.13104792 </v>
    <v>       0.25066910       0.51075219       0.62610332 </v>
    <v>       0.76059468       0.00139874       0.12968194 </v>
    <v>       0.74885758       0.99630631       0.62400451 </v>
    <v>       0.75442774       0.50380620       0.13357494 </v>
    <v>       0.74602506       0.50400388       0.62387839 </v>
    <v>       0.24593039       0.99684111       0.37241243 </v>
    <v>       0.24868588       0.99948639       0.86955136 </v>
    <v>       0.25840233       0.50308496       0.37114521 </v>
    <v>       0.23611651       0.49905942       0.86818824 </v>
    <v>       0.75999842       0.99904227       0.37547464 </v>
    <v>       0.75440456       0.00386997       0.87057644 </v>
    <v>       0.74408204       0.50711503       0.37021210 </v>
    <v>       0.75686009       0.49087426       0.86870378 </v>
    <v>       0.99960880       0.00029239       0.99682336 </v>
    <v>       0.99547111       0.49618345       0.99800069 </v>
    <v>       0.50260105       0.99579128       0.99332173 </v>
    <v>       0.48474465       0.48885565       0.99920438 </v>
    <v>       0.24778394       0.24365682       0.00234463 </v>
    <v>       0.26291939       0.25963410       0.49975782 </v>
    <v>       0.24869540       0.75077426       0.99987869 </v>
    <v>       0.25185386       0.75098513       0.49675344 </v>
    <v>       0.74760967       0.24709782       0.00447693 </v>
    <v>       0.74989424       0.25293430       0.49135350 </v>
    <v>       0.24741137       0.24841478       0.74944604 </v>
    <v>       0.25259023       0.74784921       0.25000333 </v>
    <v>       0.24777501       0.75163148       0.75046391 </v>
    <v>       0.74796541       0.25148963       0.24852230 </v>
    <v>       0.75117615       0.24880538       0.75756332 </v>
    <v>       0.74982087       0.75142500       0.73740261 </v>
    <v>       0.00171139       0.00304339       0.25306313 </v>
    <v>       0.99750613       0.50291997       0.25260870 </v>
    <v>       0.50422842       0.99703590       0.24095181 </v>
    <v>       0.50007782       0.50126082       0.74850986 </v>
    <v>       0.98972457       0.98920753       0.50383030 </v>
    <v>       0.00782824       0.48633956       0.50269682 </v>
    <v>       0.49960236       0.99989712       0.50980433 </v>
    <v>       0.50720049       0.50306562       0.50162401 </v>
    <v>       0.75627584       0.76601883       0.01364796 </v>
    <v>       0.73439600       0.76165387       0.49289449 </v>
    <v>       0.25128101       0.25011566       0.25093025 </v>
    <v>       0.75011881       0.75036661       0.25794047 </v>
    <v>       0.00101374       0.00266480       0.74673358 </v>
    <v>       0.99597417       0.50368409       0.74421383 </v>
    <v>       0.50184741       0.99741873       0.74989724 </v>
    <v>       0.50264796       0.50092420       0.25085909 </v>
    <v>       0.11979063       0.13072334       0.24777195 </v>
    <v>       0.11794964       0.13720543       0.75842777 </v>
    <v>       0.11752414       0.63271982       0.25038010 </v>
    <v>       0.11747990       0.63406183       0.75228134 </v>
    <v>       0.61809901       0.12835487       0.26346791 </v>
    <v>       0.62313281       0.13586393       0.73702065 </v>
    <v>       0.61843757       0.63310115       0.25699816 </v>
    <v>       0.62044436       0.63461361       0.75817977 </v>
    <v>       0.38250728       0.36765269       0.24373256 </v>
    <v>       0.38369820       0.36863812       0.74904926 </v>
    <v>       0.38529581       0.86870759       0.25460621 </v>
    <v>       0.38109011       0.86558377       0.75030337 </v>
    <v>       0.87992814       0.36776145       0.24378087 </v>
    <v>       0.87359976       0.36771796       0.73542949 </v>
    <v>       0.88331610       0.87515943       0.25517991 </v>
    <v>       0.87972062       0.86823960       0.74866428 </v>
    <v>       0.37715240       0.11156780       0.26333717 </v>
    <v>       0.36913226       0.11955853       0.75027165 </v>
    <v>       0.36679783       0.61685007       0.24400020 </v>
    <v>       0.36541128       0.61571350       0.75534802 </v>
    <v>       0.86874628       0.12200598       0.24924117 </v>
    <v>       0.86374221       0.12280275       0.73255754 </v>
    <v>       0.87056332       0.61929290       0.24352236 </v>
    <v>       0.86211357       0.62612411       0.76686129 </v>
    <v>       0.12824898       0.38427545       0.24983146 </v>
    <v>       0.13313638       0.38436631       0.73756255 </v>
    <v>       0.13200158       0.88189257       0.25388982 </v>
    <v>       0.13259413       0.88225953       0.75212421 </v>
    <v>       0.63286461       0.37898259       0.24794088 </v>
    <v>       0.63287026       0.37866762       0.74140368 </v>
    <v>       0.62723187       0.88625040       0.27525458 </v>
    <v>       0.63825305       0.87711695       0.76711417 </v>
    <v>       0.35337675       0.39171146       0.00551418 </v>
    <v>       0.36782183       0.38276860       0.50677121 </v>
    <v>       0.36103206       0.89110450       0.00097053 </v>
    <v>       0.37513573       0.87799331       0.48978541 </v>
    <v>       0.85518025       0.38510206       0.00536746 </v>
    <v>       0.85947789       0.38717010       0.50990733 </v>
    <v>       0.86053942       0.89148920       0.99315719 </v>
    <v>       0.87598691       0.86598992       0.50869116 </v>
    <v>       0.14207547       0.10844152       0.99621840 </v>
    <v>       0.12845083       0.61495434       0.99576125 </v>
    <v>       0.12330128       0.62382825       0.49646688 </v>
    <v>       0.64573643       0.10030366       0.99755463 </v>
    <v>       0.63069731       0.12242936       0.50189865 </v>
    <v>       0.64224346       0.61530786       0.49753124 </v>
    <v>       0.10732916       0.35846729       0.00392114 </v>
    <v>       0.11070466       0.34925535       0.50631686 </v>
    <v>       0.10997128       0.86191437       0.99868113 </v>
    <v>       0.13036749       0.88126690       0.49426722 </v>
    <v>       0.60664594       0.35469231       0.99620653 </v>
    <v>       0.62125079       0.36145930       0.52255859 </v>
    <v>       0.60848976       0.83880810       0.98308833 </v>
    <v>       0.61711974       0.88033576       0.47360240 </v>
    <v>       0.39480982       0.14016772       0.00176679 </v>
    <v>       0.37449100       0.12250329       0.48965939 </v>
    <v>       0.39123876       0.63990294       0.99982339 </v>
    <v>       0.37989946       0.63031545       0.50046690 </v>
    <v>       0.89103414       0.14181104       0.00421883 </v>
    <v>       0.87631006       0.13652852       0.51650465 </v>
    <v>       0.84818682       0.63062526       0.98257634 </v>
    <v>       0.00048697       0.99725600       0.12463788 </v>
    <v>       0.02710713       0.01090848       0.62144226 </v>
    <v>       0.99676264       0.50870378       0.12126484 </v>
    <v>       0.98038482       0.53210297       0.61964353 </v>
    <v>       0.51586355       0.99204407       0.12436296 </v>
    <v>       0.50771682       0.98293334       0.62661882 </v>
    <v>       0.52687344       0.51501711       0.11421262 </v>
    <v>       0.49822578       0.51400181       0.62928784 </v>
    <v>       0.00384510       0.02144926       0.38159242 </v>
    <v>       0.99202534       0.00686374       0.87455684 </v>
    <v>       0.98593485       0.50146760       0.37784036 </v>
    <v>       0.99762112       0.48428711       0.87481779 </v>
    <v>       0.49882456       0.00823124       0.87469527 </v>
    <v>       0.49901243       0.48851243       0.37785573 </v>
    <v>       0.51573949       0.50593445       0.87947605 </v>
    <v>       0.23891695       0.24922453       0.37931463 </v>
    <v>       0.25246704       0.25862995       0.87608217 </v>
    <v>       0.25279089       0.74262763       0.37206410 </v>
    <v>       0.24978924       0.75201186       0.87672804 </v>
    <v>       0.75438370       0.25822408       0.37502852 </v>
    <v>       0.75623190       0.24612759       0.87445181 </v>
    <v>       0.78188988       0.73099934       0.38054887 </v>
    <v>       0.25155866       0.24066130       0.12391547 </v>
    <v>       0.24680006       0.22676459       0.62060076 </v>
    <v>       0.24659399       0.75341726       0.12459793 </v>
    <v>       0.25085761       0.75054884       0.62424389 </v>
    <v>       0.73746756       0.23948666       0.12608688 </v>
    <v>       0.73814140       0.75956475       0.12938163 </v>
    <v>       0.74088633       0.74864299       0.62102012 </v>
   </varray>
  </structure>
  <varray name="forces" >
   <v>       0.00961071       0.00321056       0.00881357 </v>
   <v>       0.00404733       0.00137787      -0.00520170 </v>
   <v>       0.00028741      -0.00252914      -0.00078207 </v>
   <v>      -0.00262529       0.01391705       0.01058652 </v>
   <v>      -0.00819324      -0.01000013      -0.00230960 </v>
   <v>      -0.00662941       0.00145058       0.00489135 </v>
   <v>       0.00114640      -0.00130624       0.01192943 </v>
   <v>      -0.00150432       0.00143031      -0.00111535 </v>
   <v>      -0.00093107      -0.00274517      -0.00768439 </v>
   <v>       0.00793695       0.00458111       0.00786728 </v>
   <v>      -0.01032986       0.00657780      -0.00106823 </v>
   <v>       0.00400336       0.00541811       0.00174806 </v>
   <v>       0.00454142       0.00008034       0.00829075 </v>
   <v>      -0.00253919      -0.00129695      -0.01511742 </v>
   <v>       0.00101267      -0.00584417       0.00324013 </v>
   <v>      -0.00250091      -0.01036544      -0.00087091 </v>
   <v>      -0.00189683      -0.00384492      -0.00298261 </v>
   <v>       0.00334359       0.00248946       0.00949559 </v>
   <v>      -0.01300116       0.00414222       0.00554700 </v>
   <v>       0.01023403       0.00220695       0.00310275 </v>
   <v>       0.00327586      -0.00542541       0.00239047 </v>
   <v>      -0.00459503      -0.00689516      -0.00020295 </v>
   <v>       0.00255045       0.00930565      -0.00109102 </v>
   <v>       0.00016937       0.01239434       0.00385015 </v>
   <v>      -0.00120998       0.00226954      -0.00894489 </v>
   <v>      -0.00135543       0.00071307      -0.00870112 </v>
   <v>      -0.00405388       0.00427633       0.00329826 </v>
   <v>      -0.00670661       0.00066294      -0.00992567 </v>
   <v>      -0.00765809      -0.00593234      -0.01181171 </v>
   <v>      -0.00079844      -0.00138553       0.00188475 </v>
   <v>      -0.00342506       0.01107740       0.00283093 </v>
   <v>      -0.00153895      -0.00539329      -0.00077216 </v>
   <v>      -0.00135628      -0.01618168       0.01263798 </v>
   <v>       0.00770294      -0.00366367       0.00395218 </v>
   <v>      -0.00598015      -0.00060246      -0.00620000 </v>
   <v>      -0.01258132       0.01155065       0.01215068 </v>
   <v>       0.00751777       0.00140671      -0.00095603 </v>
   <v>       0.00908752      -0.00223655       0.01362028 </v>
   <v>      -0.00223156       0.00053671       0.00902264 </v>
   <v>       0.01622013      -0.00089734       0.00342101 </v>
   <v>       0.01012221       0.00933673       0.00478366 </v>
   <v>      -0.00095418      -0.00109009      -0.00928214 </v>
   <v>      -0.00355473      -0.00570548       0.00187599 </v>
   <v>      -0.01175503       0.00567187      -0.01870733 </v>
   <v>      -0.00912848       0.00563600      -0.01712201 </v>
   <v>      -0.00280673      -0.00023244      -0.01041210 </v>
   <v>      -0.01126225      -0.01111306       0.00666014 </v>
   <v>      -0.01517888       0.01306314      -0.02196884 </v>
   <v>       0.00754095      -0.01614872      -0.00612040 </v>
   <v>       0.00778848       0.01207421       0.00303236 </v>
   <v>       0.01173079       0.00391937      -0.01302130 </v>
   <v>      -0.00088249       0.00538524      -0.00438692 </v>
   <v>      -0.01483718      -0.02166583       0.00179934 </v>
   <v>       0.01260435       0.00256096      -0.00606059 </v>
   <v>       0.00591294      -0.01130986       0.00832531 </v>
   <v>       0.00318312       0.01332636      -0.00086211 </v>
   <v>       0.01075541       0.01235495       0.01401356 </v>
   <v>       0.00600289      -0.00437319      -0.01503789 </v>
   <v>       0.00443747      -0.00513770      -0.00279894 </v>
   <v>      -0.00061802      -0.00387415      -0.00315267 </v>
   <v>       0.01281550      -0.00263071       0.00003373 </v>
   <v>       0.00231441      -0.00206306      -0.00163507 </v>
   <v>      -0.00636219       0.00508401      -0.00998127 </v>
   <v>       0.00306143       0.00214594       0.01291956 </v>
   <v>       0.00132260      -0.01237578       0.01333984 </v>
   <v>       0.00801535       0.00031569      -0.00043943 </v>
   <v>       0.00141488      -0.00397463       0.00253665 </v>
   <v>       0.00441264      -0.00693845       0.00019776 </v>
   <v>       0.00773314       0.00306487       0.02182020 </v>
   <v>       0.00615269       0.00520728       0.01431964 </v>
   <v>       0.00706291      -0.00230644       0.00561395 </v>
   <v>       0.00642806       0.00429393       0.01405271 </v>
   <v>      -0.00594326       0.00270062       0.00700794 </v>
   <v>      -0.00358499      -0.00631967      -0.00584643 </v>
   <v>      -0.01570480       0.01020128       0.00116432 </v>
   <v>       0.00093826       0.00314378      -0.00130548 </v>
   <v>      -0.00104469       0.00687380      -0.00499548 </v>
   <v>      -0.00297898      -0.00069240      -0.00524886 </v>
   <v>      -0.00654849       0.00615897      -0.00054144 </v>
   <v>      -0.00526766      -0.01032537      -0.00044105 </v>
   <v>       0.00000385      -0.00232056       0.00405995 </v>
   <v>      -0.00789009      -0.00674795      -0.00487189 </v>
   <v>       0.00844372       0.00590961      -0.00038481 </v>
   <v>       0.01067760       0.00610761      -0.00052258 </v>
   <v>       0.00563889      -0.00625858       0.00424185 </v>
   <v>      -0.00115986       0.00443474      -0.00245875 </v>
   <v>       0.01108918       0.00291417       0.00376922 </v>
   <v>       0.00365872      -0.01100806       0.00457008 </v>
   <v>      -0.00868613      -0.00727768      -0.00144448 </v>
   <v>      -0.00168000       0.00923436       0.00250656 </v>
   <v>       0.00299678      -0.00334637       0.00867573 </v>
   <v>       0.01089428      -0.00873122       0.01391249 </v>
   <v>      -0.00057406      -0.01096194      -0.01010662 </v>
   <v>       0.01643318      -0.01497816      -0.00486028 </v>
   <v>      -0.00782437      -0.00647911      -0.00483097 </v>
   <v>       0.00776737      -0.00750183       0.00687206 </v>
   <v>       0.00859437       0.00609441       0.00340573 </v>
   <v>       0.00783393      -0.01222908       0.01578297 </v>
   <v>       0.01134027       0.00857480       0.00734685 </v>
   <v>      -0.01321402      -0.00190632       0.00362996 </v>
   <v>      -0.00592538       0.00404750      -0.00142133 </v>
   <v>       0.00081453      -0.01501278       0.00615799 </v>
   <v>      -0.00910808       0.00331204       0.00847733 </v>
   <v>      -0.00353034      -0.00090452      -0.00263078 </v>
   <v>      -0.00847558      -0.00278913      -0.00703619 </v>
   <v>      -0.00477787       0.00138841      -0.00006783 </v>
   <v>       0.00419224       0.00463450      -0.00995587 </v>
   <v>       0.00211390       0.00510744      -0.00565221 </v>
   <v>       0.00311728       0.01096565      -0.01457914 </v>
   <v>       0.00508920       0.00527298      -0.00170271 </v>
   <v>      -0.00644564       0.00242363      -0.00249651 </v>
   <v>      -0.00189751      -0.00286787      -0.01053741 </v>
   <v>       0.00615909       0.00268044      -0.00196592 </v>
   <v>       0.00637408      -0.00107105      -0.00071484 </v>
   <v>       0.00492606       0.00883685       0.01010072 </v>
   <v>       0.01682210      -0.01021431       0.00786549 </v>
   <v>       0.00730075       0.00654218      -0.00364179 </v>
   <v>      -0.00839529      -0.00002422       0.00202508 </v>
   <v>       0.00921720      -0.00817766      -0.00731766 </v>
   <v>      -0.01185233       0.00708178      -0.00696047 </v>
   <v>       0.01099657      -0.01176366      -0.00354294 </v>
   <v>      -0.01774194       0.00135357       0.00143009 </v>
   <v>      -0.00038090       0.00488705       0.00731781 </v>
   <v>      -0.01100630       0.00747243      -0.00125233 </v>
   <v>      -0.00418708       0.00301602      -0.01106774 </v>
   <v>       0.00601995       0.00338233      -0.00636397 </v>
   <v>      -0.00310447       0.00517557      -0.01639128 </v>
   <v>       0.00143354       0.00146783      -0.00968937 </v>
   <v>       0.00253662      -0.00495166      -0.00296444 </v>
   <v>       0.00488762      -0.01304415      -0.00588836 </v>
   <v>       0.00727596       0.01899364      -0.00484343 </v>
   <v>      -0.00129576       0.00126292      -0.01477193 </v>
   <v>       0.00845335       0.00446818      -0.01487280 </v>
   <v>      -0.00242471       0.00474915      -0.00325972 </v>
   <v>      -0.00412939       0.00124418      -0.00610453 </v>
   <v>       0.00420949       0.00003624       0.00358965 </v>
   <v>      -0.01028343       0.01240036       0.00520359 </v>
   <v>      -0.00007671      -0.00840162       0.03352453 </v>
   <v>      -0.01012999      -0.01196409      -0.00377857 </v>
   <v>      -0.00863184      -0.00545964       0.00357309 </v>
   <v>      -0.00389645      -0.00082692       0.00675185 </v>
   <v>      -0.00215168       0.00671171       0.00469062 </v>
   <v>       0.00699694       0.01149389       0.02275445 </v>
   <v>       0.00337480       0.00156497      -0.01522475 </v>
   <v>       0.00925596      -0.00136734       0.01116641 </v>
   <v>       0.00465368       0.00330839       0.00363778 </v>
   <v>      -0.00951219       0.00975920       0.02150871 </v>
   <v>      -0.01070633      -0.00337688       0.00673414 </v>
   <v>      -0.00678100      -0.00952172      -0.01003585 </v>
   <v>      -0.01461822      -0.00280437      -0.00317178 </v>
   <v>      -0.00513565      -0.00316886      -0.01073865 </v>
   <v>      -0.01539383      -0.00038133      -0.02336818 </v>
   <v>      -0.00767094      -0.00839244      -0.00695752 </v>
   <v>      -0.00328096      -0.00084971       0.00220353 </v>
  </varray>
  <varray name="stress" >
   <v>       0.10266382      -0.06936452       0.00265028 </v>
   <v>      -0.06936465       0.10278856      -0.02445550 </v>
   <v>       0.00264965      -0.02445577      -0.02313656 </v>
  </varray>
  <energy>
   <i name="e_fr_energy">  -1087.08511897 </i>
   <i name="e_wo_entrp">  -1087.08511897 </i>
   <i name="e_0_energy">     -0.00000000 </i>
  </energy>
  <time name="totalsc"> 1952.61 1955.19</time>
 </calculation>
 <calculation>
  <scstep>
   <time name="dav">  568.56  568.60</time>
   <time name="total">  575.74  575.87</time>
   <energy>
    <i name="alphaZ">   5622.72803924 </i>
    <i name="ewald"> -61726.77554735 </i>
    <i name="hartreedc"> -16841.66221707 </i>
    <i name="XCdc">   3073.85013146 </i>
    <i name="pawpsdc"> 112937.32065062 </i>
    <i name="pawaedc">-111988.98001375 </i>
    <i name="eentropy">     -0.00000000 </i>
    <i name="bandstr">  -7080.37797606 </i>
    <i name="atom">  74916.81196153 </i>
    <i name="e_fr_energy">  -1087.08497137 </i>
    <i name="e_wo_entrp">  -1087.08497137 </i>
    <i name="e_0_energy">  -1087.08497137 </i>
   </energy>
  </scstep>
  <scstep>
   <time name="diag">   64.93   64.93</time>
   <time name="diis">  104.97  104.98</time>
   <time name="orth">   33.53   33.53</time>
   <time name="total">  210.56  210.59</time>
   <energy>
    <i name="e_fr_energy">  -1087.08582784 </i>
    <i name="e_wo_entrp">  -1087.08582784 </i>
    <i name="e_0_energy">  -1087.08582784 </i>
   </energy>
  </scstep>
  <scstep>
   <time name="diag">   64.87   64.88</time>
   <time name="diis">   86.78   86.79</time>
   <time name="orth">   33.51   33.51</time>
   <time name="total">  192.27  192.37</time>
   <energy>
    <i name="e_fr_energy">  -1087.08586619 </i>
    <i name="e_wo_entrp">  -1087.08586619 </i>
    <i name="e_0_energy">  -1087.08586619 </i>
   </energy>
  </scstep>
  <scstep>
   <time name="diag">   64.94   64.94</time>
   <time name="diis">   65.29   65.30</time>
   <time name="orth">   33.46   33.46</time>
   <time name="total">  170.79  170.87</time>
   <energy>
    <i name="e_fr_energy">  -1087.08582599 </i>
    <i name="e_wo_entrp">  -1087.08582599 </i>
    <i name="e_0_energy">  -1087.08582599 </i>
   </energy>
  </scstep>
  <scstep>
   <time name="diag">   64.94   64.94</time>
   <time name="diis">   64.22   64.23</time>
   <time name="orth">   33.42   33.42</time>
   <time name="total">  169.69  169.76</time>
   <energy>
    <i name="e_fr_energy">  -1087.08581539 </i>
    <i name="e_wo_entrp">  -1087.08581539 </i>
    <i name="e_0_energy">  -1087.08581539 </i>
   </energy>
  </scstep>
  <scstep>
   <time name="diag">   64.91   64.92</time>
   <time name="diis">   62.81   62.82</time>
   <time name="orth">   33.52   33.52</time>
   <time name="total">  168.37  168.67</time>
   <energy>
    <i name="e_fr_energy">  -1087.08581626 </i>
    <i name="e_wo_entrp">  -1087.08581626 </i>
    <i name="e_0_energy">  -1087.08581626 </i>
   </energy>
  </scstep>
  <scstep>
   <time name="diag">   64.76   64.76</time>
   <time name="diis">   59.15   59.15</time>
   <time name="orth">   33.57   33.57</time>
   <time name="total">  164.63  164.72</time>
   <energy>
    <i name="e_fr_energy">  -1087.08581627 </i>
    <i name="e_wo_entrp">  -1087.08581627 </i>
    <i name="e_0_energy">  -1087.08581627 </i>
   </energy>
  </scstep>
  <scstep>
   <time name="diag">   64.62   64.62</time>
   <time name="diis">   56.83   56.84</time>
   <time name="orth">   33.54   33.54</time>
   <time name="total">  156.04  156.12</time>
   <energy>
    <i name="alphaZ">   5622.72803924 </i>
    <i name="ewald"> -61726.77554735 </i>
    <i name="hartreedc"> -16842.55933770 </i>
    <i name="XCdc">   3073.92588434 </i>
    <i name="pawpsdc"> 112929.93399939 </i>
    <i name="pawaedc">-111981.58707196 </i>
    <i name="eentropy">     -0.00000000 </i>
    <i name="bandstr">  -7079.56374356 </i>
    <i name="atom">  74916.81196153 </i>
    <i name="e_fr_energy">  -1087.08581606 </i>
    <i name="e_wo_entrp">  -1087.08581606 </i>
    <i name="e_0_energy">  -1087.08581606 </i>
   </energy>
  </scstep>
  <structure>
   <crystal>
    <varray name="basis" >
     <v>      11.21987146       0.04872163      -0.00948852 </v>
     <v>       0.04872460      11.22067838       0.01045833 </v>
     <v>      -0.01352431       0.01504305      15.92697189 </v>
    </varray>
    <i name="volume">   2005.07823481 </i>
    <varray name="rec_basis" >
     <v>       0.08912933      -0.00038711       0.00007605 </v>
     <v>      -0.00038708       0.08912293      -0.00008451 </v>
     <v>       0.00005335      -0.00005875       0.06278667 </v>
    </varray>
   </crystal>
   <varray name="positions" >
    <v>       0.00329851       0.24995547       0.12869691 </v>
    <v>       0.00585066       0.24661757       0.63170535 </v>
    <v>       0.00134948       0.75240629       0.13298653 </v>
    <v>       0.01191870       0.75753035       0.62596446 </v>
    <v>       0.49645808       0.25344584       0.12866558 </v>
    <v>       0.49222342       0.24782595       0.62794981 </v>
    <v>       0.49936092       0.74303794       0.12998091 </v>
    <v>       0.49190416       0.74790978       0.62188183 </v>
    <v>       0.00388184       0.25705929       0.36739931 </v>
    <v>       0.00530764       0.24861944       0.87616600 </v>
    <v>       0.00553677       0.75042331       0.37405823 </v>
    <v>       0.00516449       0.75010541       0.87037979 </v>
    <v>       0.49561278       0.26097728       0.36923900 </v>
    <v>       0.49319224       0.24362190       0.87018002 </v>
    <v>       0.49880979       0.73793637       0.37484226 </v>
    <v>       0.48654877       0.74984269       0.86680079 </v>
    <v>       0.24290216       0.00016184       0.12670152 </v>
    <v>       0.25570680       0.99239736       0.63025559 </v>
    <v>       0.24052393       0.49695278       0.13106468 </v>
    <v>       0.25071308       0.51076148       0.62611274 </v>
    <v>       0.76060887       0.00137534       0.12968921 </v>
    <v>       0.74883795       0.99627675       0.62400391 </v>
    <v>       0.75443853       0.50384617       0.13357162 </v>
    <v>       0.74602557       0.50405715       0.62389002 </v>
    <v>       0.24592512       0.99685093       0.37238533 </v>
    <v>       0.24868000       0.99948952       0.86952500 </v>
    <v>       0.25838483       0.50310341       0.37115518 </v>
    <v>       0.23608762       0.49906244       0.86815816 </v>
    <v>       0.75996556       0.99901696       0.37543886 </v>
    <v>       0.75440116       0.00386402       0.87058215 </v>
    <v>       0.74406712       0.50716271       0.37022063 </v>
    <v>       0.75685357       0.49085110       0.86870145 </v>
    <v>       0.99960332       0.00022279       0.99686168 </v>
    <v>       0.99550432       0.49616753       0.99801269 </v>
    <v>       0.50257532       0.99578882       0.99330293 </v>
    <v>       0.48469038       0.48890550       0.99924111 </v>
    <v>       0.24781624       0.24366273       0.00234175 </v>
    <v>       0.26295856       0.25962425       0.49979911 </v>
    <v>       0.24868583       0.75077657       0.99990602 </v>
    <v>       0.25192363       0.75098096       0.49676385 </v>
    <v>       0.74765304       0.24713776       0.00449142 </v>
    <v>       0.74989013       0.25292967       0.49132539 </v>
    <v>       0.24739620       0.24839031       0.74945173 </v>
    <v>       0.25253951       0.74787389       0.24994662 </v>
    <v>       0.24773559       0.75165595       0.75041201 </v>
    <v>       0.74795331       0.25148873       0.24849075 </v>
    <v>       0.75112795       0.24875778       0.75758349 </v>
    <v>       0.74975527       0.75148154       0.73733599 </v>
    <v>       0.00174409       0.00297384       0.25304465 </v>
    <v>       0.99753941       0.50297173       0.25261787 </v>
    <v>       0.50427874       0.99705258       0.24091239 </v>
    <v>       0.50007391       0.50128401       0.74849656 </v>
    <v>       0.98966118       0.98911464       0.50383577 </v>
    <v>       0.00788237       0.48635036       0.50267849 </v>
    <v>       0.49962803       0.99984834       0.50982959 </v>
    <v>       0.50721392       0.50312286       0.50162136 </v>
    <v>       0.75632191       0.76607169       0.01369040 </v>
    <v>       0.73442184       0.76163501       0.49284896 </v>
    <v>       0.25130018       0.25009350       0.25092180 </v>
    <v>       0.75011621       0.75034998       0.25793093 </v>
    <v>       0.00106890       0.00265325       0.74673372 </v>
    <v>       0.99598415       0.50367518       0.74420889 </v>
    <v>       0.50181992       0.99744075       0.74986697 </v>
    <v>       0.50266113       0.50093332       0.25089823 </v>
    <v>       0.11979659       0.13067005       0.24781239 </v>
    <v>       0.11798410       0.13720664       0.75842646 </v>
    <v>       0.11753031       0.63270270       0.25038779 </v>
    <v>       0.11749900       0.63403191       0.75228197 </v>
    <v>       0.61813229       0.12836781       0.26353401 </v>
    <v>       0.62315922       0.13588614       0.73706402 </v>
    <v>       0.61846801       0.63309107       0.25701519 </v>
    <v>       0.62047197       0.63463189       0.75822234 </v>
    <v>       0.38248170       0.36766438       0.24375377 </v>
    <v>       0.38368288       0.36861104       0.74903156 </v>
    <v>       0.38522810       0.86875174       0.25460967 </v>
    <v>       0.38109408       0.86559727       0.75029941 </v>
    <v>       0.87992350       0.36779105       0.24376571 </v>
    <v>       0.87358694       0.36771507       0.73541358 </v>
    <v>       0.88328783       0.87518603       0.25517824 </v>
    <v>       0.87969816       0.86819531       0.74866296 </v>
    <v>       0.37715247       0.11155781       0.26334947 </v>
    <v>       0.36909844       0.11952969       0.75025689 </v>
    <v>       0.36683402       0.61687533       0.24399904 </v>
    <v>       0.36545707       0.61573957       0.75534645 </v>
    <v>       0.86877066       0.12197895       0.24925405 </v>
    <v>       0.86373713       0.12282185       0.73255007 </v>
    <v>       0.87061096       0.61930521       0.24353379 </v>
    <v>       0.86212953       0.62607669       0.76687517 </v>
    <v>       0.12821176       0.38424432       0.24982708 </v>
    <v>       0.13312899       0.38440604       0.73757011 </v>
    <v>       0.13201456       0.88187809       0.25391611 </v>
    <v>       0.13264119       0.88222173       0.75216640 </v>
    <v>       0.63286231       0.37893551       0.24791030 </v>
    <v>       0.63294119       0.37860293       0.74138904 </v>
    <v>       0.62719833       0.88622271       0.27523995 </v>
    <v>       0.63828661       0.87708452       0.76713502 </v>
    <v>       0.35341361       0.39173749       0.00552450 </v>
    <v>       0.36785580       0.38271581       0.50681907 </v>
    <v>       0.36108069       0.89114112       0.00099279 </v>
    <v>       0.37507895       0.87798535       0.48979638 </v>
    <v>       0.85515469       0.38511958       0.00536313 </v>
    <v>       0.85948170       0.38710551       0.50992602 </v>
    <v>       0.86050022       0.89150358       0.99318283 </v>
    <v>       0.87597173       0.86598611       0.50868319 </v>
    <v>       0.14203906       0.10842971       0.99619707 </v>
    <v>       0.12843025       0.61496040       0.99576103 </v>
    <v>       0.12331918       0.62384814       0.49643672 </v>
    <v>       0.64574540       0.10032561       0.99753750 </v>
    <v>       0.63071045       0.12247651       0.50185447 </v>
    <v>       0.64226524       0.61533045       0.49752608 </v>
    <v>       0.10730139       0.35847785       0.00391355 </v>
    <v>       0.11069652       0.34924310       0.50628494 </v>
    <v>       0.10999771       0.86192579       0.99867518 </v>
    <v>       0.13039492       0.88126218       0.49426508 </v>
    <v>       0.60666699       0.35473017       0.99623711 </v>
    <v>       0.62132335       0.36141504       0.52258249 </v>
    <v>       0.60852102       0.83883610       0.98307730 </v>
    <v>       0.61708365       0.88033580       0.47360851 </v>
    <v>       0.39484958       0.14013242       0.00174468 </v>
    <v>       0.37443988       0.12253399       0.48963826 </v>
    <v>       0.39128626       0.63985216       0.99981272 </v>
    <v>       0.37982315       0.63032159       0.50047118 </v>
    <v>       0.89103244       0.14183203       0.00424098 </v>
    <v>       0.87626259       0.13656086       0.51650081 </v>
    <v>       0.84816872       0.63063835       0.98254280 </v>
    <v>       0.00051277       0.99727045       0.12461861 </v>
    <v>       0.02709362       0.01093086       0.62139258 </v>
    <v>       0.99676874       0.50871011       0.12123549 </v>
    <v>       0.98039581       0.53208164       0.61963457 </v>
    <v>       0.51588479       0.99198792       0.12434517 </v>
    <v>       0.50774773       0.98301489       0.62660412 </v>
    <v>       0.52686779       0.51502262       0.11416786 </v>
    <v>       0.49826199       0.51402093       0.62924280 </v>
    <v>       0.00383457       0.02146974       0.38158252 </v>
    <v>       0.99200754       0.00686919       0.87453834 </v>
    <v>       0.98595296       0.50146766       0.37785125 </v>
    <v>       0.99757668       0.48434060       0.87483349 </v>
    <v>       0.49882451       0.00819498       0.87479684 </v>
    <v>       0.49896908       0.48846119       0.37784429 </v>
    <v>       0.51570249       0.50591112       0.87948687 </v>
    <v>       0.23890024       0.24922102       0.37933508 </v>
    <v>       0.25245767       0.25865882       0.87609636 </v>
    <v>       0.25282085       0.74267683       0.37213301 </v>
    <v>       0.24980367       0.75201859       0.87668192 </v>
    <v>       0.75442356       0.25821798       0.37506237 </v>
    <v>       0.75625186       0.24614171       0.87446283 </v>
    <v>       0.78184887       0.73104140       0.38061397 </v>
    <v>       0.25151271       0.24064695       0.12393585 </v>
    <v>       0.24677104       0.22672382       0.62057037 </v>
    <v>       0.24653117       0.75340549       0.12458830 </v>
    <v>       0.25083554       0.75053535       0.62421136 </v>
    <v>       0.73740129       0.23948540       0.12601606 </v>
    <v>       0.73810854       0.75952884       0.12936056 </v>
    <v>       0.74087225       0.74863939       0.62102678 </v>
   </varray>
  </structure>
  <varray name="forces" >
   <v>       0.00732039       0.00296647       0.00841760 </v>
   <v>      -0.00394257       0.00434050      -0.00879865 </v>
   <v>      -0.00315825      -0.00576325      -0.00376007 </v>
   <v>      -0.00369277       0.00615791       0.00673416 </v>
   <v>      -0.00354211      -0.00493498      -0.00741618 </v>
   <v>      -0.00088273       0.00401303      -0.00005362 </v>
   <v>       0.00354445      -0.00229433       0.00574259 </v>
   <v>      -0.00129280       0.00037771      -0.00074988 </v>
   <v>      -0.00037020      -0.00528195      -0.00176295 </v>
   <v>      -0.00076338       0.00197524       0.00489683 </v>
   <v>      -0.00121054       0.00572904       0.00616934 </v>
   <v>      -0.00076666      -0.00117769      -0.00265415 </v>
   <v>       0.00201161      -0.00197699       0.01113153 </v>
   <v>       0.00244076       0.00230150      -0.00531496 </v>
   <v>      -0.00416345       0.00065652       0.00213447 </v>
   <v>      -0.00113261      -0.01042451       0.00162884 </v>
   <v>       0.00083489       0.00259884      -0.00227494 </v>
   <v>       0.00001544       0.00199827      -0.00107018 </v>
   <v>      -0.00745690       0.00106086       0.00473737 </v>
   <v>       0.00598754       0.00119046       0.00115524 </v>
   <v>       0.00205490       0.00141876      -0.00431234 </v>
   <v>       0.00051443       0.00235724      -0.00303593 </v>
   <v>       0.00082992       0.00469357      -0.00579486 </v>
   <v>       0.00601332       0.00103001       0.00477492 </v>
   <v>      -0.00114028       0.00331491      -0.00384511 </v>
   <v>      -0.00069650      -0.00156295      -0.00371354 </v>
   <v>      -0.00584881       0.00232721       0.00578722 </v>
   <v>      -0.00526680       0.00261045      -0.00943031 </v>
   <v>      -0.00496758      -0.00008823      -0.00829518 </v>
   <v>      -0.00045047       0.00151911       0.00363119 </v>
   <v>       0.00093048       0.00158950       0.00296867 </v>
   <v>       0.00040371      -0.00339739      -0.00198315 </v>
   <v>      -0.00931476       0.00903101      -0.00873319 </v>
   <v>      -0.00500249      -0.00435446      -0.00863226 </v>
   <v>       0.01497009       0.00092135       0.00736722 </v>
   <v>       0.01510974      -0.00104938      -0.01006058 </v>
   <v>       0.00345885      -0.00533766       0.00179249 </v>
   <v>      -0.00918315      -0.00165938      -0.00470625 </v>
   <v>       0.00536046      -0.00190475      -0.01786630 </v>
   <v>      -0.00761650       0.00612235      -0.00760950 </v>
   <v>      -0.00411597       0.00542686      -0.00878839 </v>
   <v>       0.00886244      -0.00065318       0.00882606 </v>
   <v>      -0.00783612       0.00794867      -0.00262135 </v>
   <v>       0.00765927       0.00164737       0.04078179 </v>
   <v>       0.00236677      -0.00829125       0.00917196 </v>
   <v>       0.00747288      -0.00001895      -0.00705918 </v>
   <v>       0.02306805       0.01404405       0.00517037 </v>
   <v>       0.02291584      -0.02588298       0.01746651 </v>
   <v>      -0.00455730       0.01049811       0.00384265 </v>
   <v>       0.00502907      -0.01025829       0.01146774 </v>
   <v>      -0.00142569       0.00225686      -0.00466831 </v>
   <v>       0.00753475       0.00271050       0.00206198 </v>
   <v>       0.00030380      -0.00139089      -0.00814607 </v>
   <v>       0.00469501      -0.00379052       0.00321943 </v>
   <v>      -0.00048442       0.00479986      -0.00996112 </v>
   <v>       0.00465738      -0.00405897       0.00271262 </v>
   <v>      -0.00575908      -0.00480359      -0.00740028 </v>
   <v>      -0.00248268       0.00733628       0.00735813 </v>
   <v>       0.00185646      -0.00395647       0.00795607 </v>
   <v>       0.00009875      -0.00230485      -0.00409947 </v>
   <v>      -0.00276181       0.00174179      -0.00179135 </v>
   <v>      -0.01180372      -0.00205424      -0.00339855 </v>
   <v>      -0.00104742      -0.00025059       0.00539585 </v>
   <v>      -0.00196413      -0.00585365       0.00501708 </v>
   <v>       0.00064265      -0.01226423       0.00685814 </v>
   <v>       0.00313959      -0.00717642       0.00152499 </v>
   <v>       0.00511616       0.00320681       0.00000627 </v>
   <v>       0.00883206       0.00059981      -0.00232974 </v>
   <v>       0.00319150      -0.00231027       0.01483199 </v>
   <v>      -0.01259790      -0.01234439       0.01339445 </v>
   <v>       0.00892912      -0.00309001       0.00677117 </v>
   <v>      -0.00118410      -0.00260317       0.00837130 </v>
   <v>      -0.00418125       0.00423825       0.00423561 </v>
   <v>      -0.00008900      -0.00192966      -0.00731482 </v>
   <v>      -0.01347509       0.00919740      -0.00410275 </v>
   <v>       0.00339481       0.00508387      -0.00553339 </v>
   <v>      -0.00543916       0.00502160      -0.00508949 </v>
   <v>      -0.00227107      -0.00432726      -0.00339586 </v>
[...]
       <r>   -16.5681     0.0000    32.0000 </r>
       <r>   -16.4154     0.0000    32.0000 </r>
       <r>   -16.2627     0.0000    32.0000 </r>
       <r>   -16.1100     0.0000    32.0000 </r>
       <r>   -15.9572     0.0000    32.0000 </r>
       <r>   -15.8045     0.0000    32.0000 </r>
       <r>   -15.6518     0.0000    32.0000 </r>
       <r>   -15.4991     0.0000    32.0000 </r>
       <r>   -15.3464     0.0001    32.0000 </r>
       <r>   -15.1936     3.8938    32.5947 </r>
       <r>   -15.0409    19.1545    35.5199 </r>
       <r>   -14.8882    38.2317    41.3586 </r>
       <r>   -14.7355    41.5385    47.7024 </r>
       <r>   -14.5828    41.4639    54.0347 </r>
       <r>   -14.4301    35.2171    59.4130 </r>
       <r>   -14.2773    41.7291    65.7858 </r>
       <r>   -14.1246    71.3458    76.6817 </r>
       <r>   -13.9719    93.7632    91.0011 </r>
       <r>   -13.8192    86.2846   104.1785 </r>
       <r>   -13.6665    66.5708   114.3451 </r>
       <r>   -13.5137    31.3336   119.1303 </r>
       <r>   -13.3610    18.1650   121.9045 </r>
       <r>   -13.2083     0.6256   122.0000 </r>
       <r>   -13.0556     0.0000   122.0000 </r>
       <r>   -12.9029     0.0000   122.0000 </r>
       <r>   -12.7501     3.3075   122.5051 </r>
       <r>   -12.5974    69.2317   133.0781 </r>
       <r>   -12.4447   143.7941   155.0382 </r>
       <r>   -12.2920   130.2015   174.9225 </r>
       <r>   -12.1393   112.3009   192.0730 </r>
       <r>   -11.9865    92.1104   206.1400 </r>
       <r>   -11.8338    52.5633   214.1674 </r>
       <r>   -11.6811    24.7713   217.9505 </r>
       <r>   -11.5284     0.3244   218.0000 </r>
       <r>   -11.3757     0.0000   218.0000 </r>
       <r>   -11.2229     0.0000   218.0000 </r>
       <r>   -11.0702     0.0000   218.0000 </r>
       <r>   -10.9175     0.0000   218.0000 </r>
       <r>   -10.7648     0.0000   218.0000 </r>
       <r>   -10.6121     0.0000   218.0000 </r>
       <r>   -10.4594     0.0000   218.0000 </r>
       <r>   -10.3066     0.0000   218.0000 </r>
       <r>   -10.1539     0.0000   218.0000 </r>
       <r>   -10.0012     0.0000   218.0000 </r>
       <r>    -9.8485     0.0000   218.0000 </r>
       <r>    -9.6958     0.0000   218.0000 </r>
       <r>    -9.5430     0.0000   218.0000 </r>
       <r>    -9.3903     0.0000   218.0000 </r>
       <r>    -9.2376     0.0000   218.0000 </r>
       <r>    -9.0849     0.0000   218.0000 </r>
       <r>    -8.9322     0.0000   218.0000 </r>
       <r>    -8.7794     0.0000   218.0000 </r>
       <r>    -8.6267     0.0000   218.0000 </r>
       <r>    -8.4740     0.0000   218.0000 </r>
       <r>    -8.3213     0.0000   218.0000 </r>
       <r>    -8.1686     0.0000   218.0000 </r>
       <r>    -8.0158     0.0000   218.0000 </r>
       <r>    -7.8631     0.0000   218.0000 </r>
       <r>    -7.7104     0.0000   218.0000 </r>
       <r>    -7.5577     0.0000   218.0000 </r>
       <r>    -7.4050     0.0000   218.0000 </r>
       <r>    -7.2523     0.0000   218.0000 </r>
       <r>    -7.0995     0.0000   218.0000 </r>
       <r>    -6.9468     0.0000   218.0000 </r>
       <r>    -6.7941     0.0000   218.0000 </r>
       <r>    -6.6414     0.0000   218.0000 </r>
       <r>    -6.4887     0.0000   218.0000 </r>
       <r>    -6.3359     0.0000   218.0000 </r>
       <r>    -6.1832     0.0000   218.0000 </r>
       <r>    -6.0305     0.0000   218.0000 </r>
       <r>    -5.8778     0.0000   218.0000 </r>
       <r>    -5.7251     0.0000   218.0000 </r>
       <r>    -5.5723     0.0000   218.0000 </r>
       <r>    -5.4196     0.0000   218.0000 </r>
       <r>    -5.2669     0.0000   218.0000 </r>
       <r>    -5.1142     0.0000   218.0000 </r>
       <r>    -4.9615     0.0000   218.0000 </r>
       <r>    -4.8087     0.0000   218.0000 </r>
       <r>    -4.6560     0.0000   218.0000 </r>
       <r>    -4.5033     0.0000   218.0000 </r>
       <r>    -4.3506     0.0000   218.0000 </r>
       <r>    -4.1979     0.0000   218.0000 </r>
       <r>    -4.0452     0.0000   218.0000 </r>
       <r>    -3.8924     0.0000   218.0000 </r>
       <r>    -3.7397     0.0000   218.0000 </r>
       <r>    -3.5870     0.0000   218.0000 </r>
       <r>    -3.4343     0.0000   218.0000 </r>
       <r>    -3.2816     0.0000   218.0000 </r>
       <r>    -3.1288     0.0000   218.0000 </r>
       <r>    -2.9761     0.0000   218.0000 </r>
       <r>    -2.8234     0.0000   218.0000 </r>
       <r>    -2.6707     0.0000   218.0000 </r>
       <r>    -2.5180     0.0002   218.0000 </r>
       <r>    -2.3652     4.4309   218.6767 </r>
       <r>    -2.2125    15.2073   220.9991 </r>
       <r>    -2.0598    24.9748   224.8133 </r>
       <r>    -1.9071    30.5062   229.4722 </r>
       <r>    -1.7544    33.4798   234.5851 </r>
       <r>    -1.6016    48.2609   241.9555 </r>
       <r>    -1.4489    42.7570   248.4853 </r>
       <r>    -1.2962    53.2417   256.6163 </r>
       <r>    -1.1435    68.8995   267.1386 </r>
       <r>    -0.9908    79.1414   279.2250 </r>
       <r>    -0.8381    80.2466   291.4802 </r>
       <r>    -0.6853    83.3257   304.2056 </r>
       <r>    -0.5326    93.4185   318.4724 </r>
       <r>    -0.3799    98.7296   333.5503 </r>
       <r>    -0.2272    76.2473   345.1947 </r>
       <r>    -0.0745    54.4539   353.5109 </r>
       <r>     0.0783    47.9988   360.8412 </r>
       <r>     0.2310    51.3777   368.6876 </r>
       <r>     0.3837    52.9574   376.7752 </r>
       <r>     0.5364    52.3678   384.7727 </r>
       <r>     0.6891    55.7388   393.2851 </r>
       <r>     0.8419    52.0799   401.2387 </r>
       <r>     0.9946    53.3269   409.3828 </r>
       <r>     1.1473    62.1223   418.8700 </r>
       <r>     1.3000    72.0113   429.8675 </r>
       <r>     1.4527    78.7232   441.8901 </r>
       <r>     1.6055    81.4398   454.3275 </r>
       <r>     1.7582    68.3003   464.7582 </r>
       <r>     1.9109    61.3390   474.1259 </r>
       <r>     2.0636    42.8870   480.6755 </r>
       <r>     2.2163    22.2562   484.0745 </r>
       <r>     2.3690    25.5548   487.9772 </r>
       <r>     2.5218     0.1494   488.0000 </r>
       <r>     2.6745     0.0000   488.0000 </r>
       <r>     2.8272     0.0000   488.0000 </r>
       <r>     2.9799     0.0000   488.0000 </r>
       <r>     3.1326     0.0000   488.0000 </r>
       <r>     3.2854     0.0000   488.0000 </r>
       <r>     3.4381     0.0000   488.0000 </r>
       <r>     3.5908     0.0000   488.0000 </r>
       <r>     3.7435     0.0000   488.0000 </r>
       <r>     3.8962     0.0000   488.0000 </r>
       <r>     4.0490     0.0000   488.0000 </r>
       <r>     4.2017     0.0000   488.0000 </r>
       <r>     4.3544     0.0000   488.0000 </r>
       <r>     4.5071     3.6418   488.5562 </r>
       <r>     4.6598    39.2810   494.5551 </r>
       <r>     4.8126    54.2308   502.8372 </r>
       <r>     4.9653    44.0014   509.5571 </r>
       <r>     5.1180    54.0324   517.8088 </r>
       <r>     5.2707    63.3110   527.4776 </r>
       <r>     5.4234    64.9666   537.3993 </r>
       <r>     5.5761    66.0618   547.4882 </r>
       <r>     5.7289    77.5694   559.3345 </r>
       <r>     5.8816    68.5585   569.8047 </r>
       <r>     6.0343    76.0264   581.4154 </r>
       <r>     6.1870    81.3702   593.8421 </r>
       <r>     6.3397    66.9795   604.0712 </r>
       <r>     6.4925    45.8319   611.0706 </r>
       <r>     6.6452    24.4402   614.8031 </r>
       <r>     6.7979    13.7923   616.9094 </r>
       <r>     6.9506    17.6144   619.5995 </r>
       <r>     7.1033    15.9795   622.0398 </r>
       <r>     7.2561    11.5313   623.8009 </r>
       <r>     7.4088    14.2339   625.9747 </r>
       <r>     7.5615    15.3395   628.3173 </r>
       <r>     7.7142    13.3141   630.3506 </r>
       <r>     7.8669    14.9167   632.6287 </r>
       <r>     8.0197    21.6111   635.9291 </r>
       <r>     8.1724    27.7087   640.1608 </r>
       <r>     8.3251    26.8039   644.2542 </r>
       <r>     8.4778    22.3574   647.6686 </r>
       <r>     8.6305    26.0745   651.6507 </r>
       <r>     8.7832    31.3540   656.4390 </r>
       <r>     8.9360    34.3084   661.6786 </r>
       <r>     9.0887    36.3306   667.2270 </r>
       <r>     9.2414    37.1340   672.8980 </r>
       <r>     9.3941    39.7322   678.9659 </r>
       <r>     9.5468    46.1305   686.0109 </r>
       <r>     9.6996    49.8381   693.6221 </r>
       <r>     9.8523    58.5080   702.5574 </r>
       <r>    10.0050    62.1112   712.0430 </r>
       <r>    10.1577    61.2426   721.3959 </r>
       <r>    10.3104    57.8626   730.2326 </r>
       <r>    10.4632    55.0481   738.6395 </r>
       <r>    10.6159    56.6781   747.2954 </r>
       <r>    10.7686    58.6810   756.2571 </r>
       <r>    10.9213    55.8814   764.7912 </r>
       <r>    11.0740    20.9976   767.9980 </r>
       <r>    11.2268     0.0134   768.0000 </r>
       <r>    11.3795     0.0000   768.0000 </r>
       <r>    11.5322     0.0000   768.0000 </r>
       <r>    11.6849     0.0000   768.0000 </r>
       <r>    11.8376     0.0000   768.0000 </r>
       <r>    11.9903     0.0000   768.0000 </r>
       <r>    12.1431     0.0000   768.0000 </r>
       <r>    12.2958     0.0000   768.0000 </r>
       <r>    12.4485     0.0000   768.0000 </r>
       <r>    12.6012     0.0000   768.0000 </r>
       <r>    12.7539     0.0000   768.0000 </r>
       <r>    12.9067     0.0000   768.0000 </r>
       <r>    13.0594     0.0000   768.0000 </r>
      </set>
     </set>
    </array>
   </total>
  </dos>
 </calculation>
 <structure name="finalpos" >
  <crystal>
   <varray name="basis" >
    <v>      11.22018714       0.04863129      -0.00953671 </v>
    <v>       0.04863423      11.22098411       0.01043427 </v>
    <v>      -0.01359307       0.01500970      15.92698154 </v>
   </varray>
   <i name="volume">   2005.19063455 </i>
   <varray name="rec_basis" >
    <v>       0.08912681      -0.00038637       0.00007643 </v>
    <v>      -0.00038634       0.08912050      -0.00008432 </v>
    <v>       0.00005362      -0.00005862       0.06278664 </v>
   </varray>
  </crystal>
  <varray name="positions" >
   <v>       0.00334738       0.24997335       0.12873245 </v>
   <v>       0.00584746       0.24663548       0.63167535 </v>
   <v>       0.00133967       0.75238054       0.13297603 </v>
   <v>       0.01189920       0.75758581       0.62599878 </v>
   <v>       0.49642591       0.25340461       0.12864371 </v>
   <v>       0.49220354       0.24784307       0.62795843 </v>
   <v>       0.49937590       0.74302678       0.13001529 </v>
   <v>       0.49189602       0.74791495       0.62187796 </v>
   <v>       0.00387841       0.25703442       0.36738153 </v>
   <v>       0.00532502       0.24863715       0.87619120 </v>
   <v>       0.00550648       0.75045926       0.37407095 </v>
   <v>       0.00517230       0.75011513       0.87037654 </v>
   <v>       0.49563092       0.26097089       0.36927994 </v>
   <v>       0.49319363       0.24362633       0.87014087 </v>
   <v>       0.49879849       0.73792436       0.37485305 </v>
   <v>       0.48653882       0.74978187       0.86680316 </v>
   <v>       0.24290017       0.00016095       0.12669094 </v>
   <v>       0.25571541       0.99241024       0.63026969 </v>
   <v>       0.24046629       0.49696741       0.13108566 </v>
   <v>       0.25075893       0.51077089       0.62612105 </v>
   <v>       0.76062421       0.00136618       0.12968312 </v>
   <v>       0.74882814       0.99626744       0.62399627 </v>
   <v>       0.75444742       0.50388555       0.13355605 </v>
   <v>       0.74604584       0.50409156       0.62390791 </v>
   <v>       0.24591801       0.99686742       0.37236020 </v>
   <v>       0.24867417       0.99948603       0.86950075 </v>
   <v>       0.25835491       0.50312249       0.37117457 </v>
   <v>       0.23605294       0.49907323       0.86811818 </v>
   <v>       0.75992956       0.99900155       0.37539822 </v>
   <v>       0.75439763       0.00386543       0.87059404 </v>
   <v>       0.74406131       0.50719640       0.37023250 </v>
   <v>       0.75685140       0.49082626       0.86869526 </v>
   <v>       0.99956820       0.00021500       0.99686190 </v>
   <v>       0.99550575       0.49614415       0.99799877 </v>
   <v>       0.50261189       0.99579033       0.99331019 </v>
   <v>       0.48471181       0.48892937       0.99923741 </v>
   <v>       0.24784581       0.24364778       0.00234453 </v>
   <v>       0.26294866       0.25961351       0.49981090 </v>
   <v>       0.24869847       0.75077135       0.99987871 </v>
   <v>       0.25193647       0.75099946       0.49675149 </v>
   <v>       0.74766302       0.24717863       0.00447861 </v>
   <v>       0.74991794       0.25292477       0.49133087 </v>
   <v>       0.24736083       0.24840361       0.74944850 </v>
   <v>       0.25253714       0.74789293       0.25001392 </v>
   <v>       0.24772200       0.75164149       0.75040590 </v>
   <v>       0.74797162       0.25148831       0.24845622 </v>
   <v>       0.75117990       0.24877928       0.75760707 </v>
   <v>       0.74979785       0.75142391       0.73734098 </v>
   <v>       0.00174614       0.00297104       0.25304319 </v>
   <v>       0.99757512       0.50296568       0.25265067 </v>
   <v>       0.50430177       0.99706948       0.24087903 </v>
   <v>       0.50009727       0.50130600       0.74849394 </v>
   <v>       0.98962617       0.98905706       0.50381975 </v>
   <v>       0.00792913       0.48634362       0.50267573 </v>
   <v>       0.49964160       0.99983630       0.50982050 </v>
   <v>       0.50723754       0.50314163       0.50162658 </v>
   <v>       0.75632854       0.76608572       0.01369711 </v>
   <v>       0.73442862       0.76164871       0.49283978 </v>
   <v>       0.25131775       0.25006732       0.25093576 </v>
   <v>       0.75011468       0.75033254       0.25791526 </v>
   <v>       0.00109091       0.00265295       0.74672977 </v>
   <v>       0.99594963       0.50366328       0.74419782 </v>
   <v>       0.50180012       0.99745254       0.74986169 </v>
   <v>       0.50266183       0.50091874       0.25093299 </v>
   <v>       0.11980257       0.13059680       0.24785184 </v>
   <v>       0.11801558       0.13718229       0.75842977 </v>
   <v>       0.11755113       0.63270385       0.25039199 </v>
   <v>       0.11754574       0.63401308       0.75227812 </v>
   <v>       0.61816257       0.12836689       0.26360774 </v>
   <v>       0.62313190       0.13585722       0.73712134 </v>
   <v>       0.61851639       0.63307483       0.25704171 </v>
   <v>       0.62048322       0.63463443       0.75826675 </v>
   <v>       0.38245229       0.36768628       0.24377604 </v>
   <v>       0.38367361       0.36858900       0.74900366 </v>
   <v>       0.38514254       0.86880881       0.25460151 </v>
   <v>       0.38110749       0.86562277       0.75028328 </v>
   <v>       0.87990163       0.36782596       0.24374440 </v>
   <v>       0.87357235       0.36769900       0.73539616 </v>
   <v>       0.88323944       0.87518928       0.25517009 </v>
   <v>       0.87969563       0.86815919       0.74865170 </v>
   <v>       0.37717514       0.11153993       0.26335050 </v>
   <v>       0.36907564       0.11949637       0.75024731 </v>
   <v>       0.36685640       0.61693073       0.24399553 </v>
   <v>       0.36552073       0.61576903       0.75533053 </v>
   <v>       0.86879070       0.12195414       0.24925604 </v>
   <v>       0.86375174       0.12280291       0.73254257 </v>
   <v>       0.87064089       0.61935555       0.24355315 </v>
   <v>       0.86211167       0.62607262       0.76686899 </v>
   <v>       0.12815837       0.38421576       0.24981534 </v>
   <v>       0.13314935       0.38442429       0.73758322 </v>
   <v>       0.13201821       0.88184452       0.25393465 </v>
   <v>       0.13266419       0.88220712       0.75220040 </v>
   <v>       0.63284064       0.37889195       0.24787561 </v>
   <v>       0.63296000       0.37857946       0.74136273 </v>
   <v>       0.62716484       0.88617309       0.27521899 </v>
   <v>       0.63828060       0.87709205       0.76715017 </v>
   <v>       0.35339117       0.39171837       0.00554921 </v>
   <v>       0.36793540       0.38268484       0.50688811 </v>
   <v>       0.36108047       0.89113427       0.00103322 </v>
   <v>       0.37505685       0.87800778       0.48982345 </v>
   <v>       0.85516516       0.38515298       0.00536435 </v>
   <v>       0.85950240       0.38705650       0.50994095 </v>
   <v>       0.86049042       0.89155202       0.99322090 </v>
   <v>       0.87592259       0.86594978       0.50867598 </v>
   <v>       0.14201791       0.10843497       0.99617159 </v>
   <v>       0.12843436       0.61499574       0.99576482 </v>
   <v>       0.12333611       0.62386101       0.49640274 </v>
   <v>       0.64575056       0.10034524       0.99751791 </v>
   <v>       0.63067346       0.12247848       0.50180073 </v>
   <v>       0.64227460       0.61535165       0.49751288 </v>
   <v>       0.10729280       0.35847434       0.00390659 </v>
   <v>       0.11070015       0.34923559       0.50624811 </v>
   <v>       0.11003902       0.86192582       0.99867242 </v>
   <v>       0.13040082       0.88125927       0.49426546 </v>
   <v>       0.60668903       0.35477214       0.99626888 </v>
   <v>       0.62135625       0.36140915       0.52260794 </v>
   <v>       0.60857379       0.83885966       0.98306645 </v>
   <v>       0.61705469       0.88031489       0.47361985 </v>
   <v>       0.39485113       0.14013152       0.00172487 </v>
   <v>       0.37441342       0.12252924       0.48961816 </v>
   <v>       0.39128542       0.63986123       0.99980871 </v>
   <v>       0.37978082       0.63029020       0.50047865 </v>
   <v>       0.89106362       0.14182322       0.00426353 </v>
   <v>       0.87622409       0.13655817       0.51650265 </v>
   <v>       0.84814273       0.63067872       0.98251131 </v>
   <v>       0.00055297       0.99726740       0.12460270 </v>
   <v>       0.02709085       0.01094630       0.62136548 </v>
   <v>       0.99678058       0.50873127       0.12122412 </v>
   <v>       0.98041880       0.53206633       0.61961744 </v>
   <v>       0.51592515       0.99193702       0.12434011 </v>
   <v>       0.50779074       0.98311592       0.62661222 </v>
   <v>       0.52687519       0.51504523       0.11416553 </v>
   <v>       0.49831087       0.51405363       0.62920306 </v>
   <v>       0.00381425       0.02146211       0.38156942 </v>
   <v>       0.99199180       0.00685743       0.87452456 </v>
   <v>       0.98596654       0.50147462       0.37784218 </v>
   <v>       0.99753570       0.48440218       0.87485828 </v>
   <v>       0.49881639       0.00815786       0.87481084 </v>
   <v>       0.49893501       0.48841325       0.37784686 </v>
   <v>       0.51564758       0.50587577       0.87947641 </v>
   <v>       0.23888329       0.24922142       0.37935095 </v>
   <v>       0.25244930       0.25869227       0.87610841 </v>
   <v>       0.25285909       0.74273335       0.37214023 </v>
   <v>       0.24982789       0.75203200       0.87666662 </v>
   <v>       0.75447279       0.25822200       0.37502481 </v>
   <v>       0.75627759       0.24615681       0.87447209 </v>
   <v>       0.78181202       0.73108823       0.38063147 </v>
   <v>       0.25145551       0.24062329       0.12394323 </v>
   <v>       0.24673440       0.22666762       0.62057242 </v>
   <v>       0.24644457       0.75338839       0.12457844 </v>
   <v>       0.25081144       0.75052277       0.62420081 </v>
   <v>       0.73733039       0.23947130       0.12600045 </v>
   <v>       0.73806890       0.75949479       0.12938555 </v>
   <v>       0.74083830       0.74864394       0.62097786 </v>
  </varray>
 </structure>
</modeling>
