<?xml version="1.0" encoding="ISO-8859-1"?>
<modeling>
 <generator>
  <i name="program" type="string">vasp </i>
  <i name="version" type="string">5.4.1  </i>
  <i name="subversion" type="string">05Feb16 (build Jan 25 2017 20:16:33) complex                          parallel </i>
  <i name="platform" type="string">BWXE6 </i>
  <i name="date" type="string">2019 07 09 </i>
  <i name="time" type="string">00:50:43 </i>
 </generator>
 <incar>
  <i type="string" name="SYSTEM"> STF</i>
  <i type="string" name="PREC">normal</i>
  <i type="string" name="ALGO"> Fast</i>
  <i type="int" name="ISPIN">     2</i>
  <i type="int" name="NELM">    40</i>
  <i type="int" name="NELMIN">     8</i>
  <i type="int" name="IBRION">     2</i>
  <i name="EDIFF">      0.00010000</i>
  <i name="EDIFFG">     -0.03000000</i>
  <i type="int" name="NSW">    30</i>
  <i type="int" name="ISIF">     3</i>
  <i name="ENCUT">    520.00000000</i>
  <i type="int" name="NBANDS">   768</i>
  <v name="MAGMOM">      0.60000000      0.60000000      0.60000000      0.60000000      0.60000000      0.60000000      0.60000000      0.60000000      0.60000000      0.60000000      0.60000000      0.60000000      0.60000000      0.60000000      0.60000000      0.60000000      0.60000000      0.60000000      0.60000000      0.60000000
      0.60000000      0.60000000      0.60000000      0.60000000      0.60000000      0.60000000      0.60000000      0.60000000      0.60000000      0.60000000      0.60000000      0.60000000      0.60000000      0.60000000      0.60000000      0.60000000      0.60000000      0.60000000      0.60000000      0.60000000
      0.60000000      0.60000000      0.60000000      0.60000000      0.60000000      0.60000000      0.60000000      0.60000000      0.60000000      0.60000000      0.60000000      0.60000000      0.60000000      0.60000000      0.60000000      0.60000000      0.60000000      0.60000000      0.60000000      0.60000000
      5.00000000      5.00000000      5.00000000      5.00000000      0.60000000      0.60000000      0.60000000      0.60000000      0.60000000      0.60000000      0.60000000      0.60000000      0.60000000      0.60000000      0.60000000      0.60000000      0.60000000      0.60000000      0.60000000      0.60000000
      0.60000000      0.60000000      0.60000000      0.60000000      0.60000000      0.60000000      0.60000000      0.60000000      0.60000000      0.60000000      0.60000000      0.60000000      0.60000000      0.60000000      0.60000000      0.60000000      0.60000000      0.60000000      0.60000000      0.60000000
      0.60000000      0.60000000      0.60000000      0.60000000      0.60000000      0.60000000      0.60000000      0.60000000      0.60000000      0.60000000      0.60000000      0.60000000      0.60000000      0.60000000      0.60000000      0.60000000      0.60000000      0.60000000      0.60000000      0.60000000
      0.60000000      0.60000000      0.60000000      0.60000000      0.60000000      0.60000000      0.60000000      0.60000000      0.60000000      0.60000000      0.60000000      0.60000000      0.60000000      0.60000000      0.60000000      0.60000000      0.60000000      0.60000000      0.60000000      0.60000000
      0.60000000      0.60000000      0.60000000      0.60000000      0.60000000      0.60000000      0.60000000      0.60000000      0.60000000      0.60000000      0.60000000      0.60000000      0.60000000      0.60000000      0.60000000      0.60000000      0.60000000      0.60000000</v>
  <i type="string" name="LREAL"> Auto</i>
  <i type="int" name="ISMEAR">     0</i>
  <i name="SIGMA">      0.05000000</i>
  <i type="int" name="LMAXMIX">     4</i>
  <v type="int" name="KPOINT_BSE">    -1     0     0     0</v>
  <i type="int" name="NELM">    40</i>
  <i type="logical" name="LDAU"> T  </i>
  <v type="int" name="LDAUTYPE">     2</v>
  <v type="int" name="LDAUL">     0     2     2     0</v>
  <v name="LDAUU">      0.00000000      3.00000000      5.00000000      0.00000000</v>
  <v name="LDAUJ">      0.00000000      0.00000000      0.00000000      0.00000000</v>
  <i type="int" name="LDAUPRINT">     1</i>
 </incar>
 <kpoints>
  <generation param="Monkhorst-Pack">
   <v type="int" name="divisions">       2        2        2 </v>
   <v name="usershift">      0.00000000       0.00000000       0.00000000 </v>
   <v name="genvec1">      0.50000000       0.00000000      -0.00000000 </v>
   <v name="genvec2">      0.00000000       0.50000000       0.00000000 </v>
   <v name="genvec3">      0.00000000       0.00000000       0.50000000 </v>
   <v name="shift">      0.50000000       0.50000000       0.50000000 </v>
  </generation>
  <varray name="kpointlist" >
   <v>       0.25000000       0.25000000       0.25000000 </v>
   <v>      -0.25000000       0.25000000       0.25000000 </v>
   <v>       0.25000000      -0.25000000       0.25000000 </v>
   <v>      -0.25000000      -0.25000000       0.25000000 </v>
  </varray>
  <varray name="weights" >
   <v>       0.25000000 </v>
   <v>       0.25000000 </v>
   <v>       0.25000000 </v>
   <v>       0.25000000 </v>
  </varray>
 </kpoints>
 <parameters>
  <separator name="general" >
   <i type="string" name="SYSTEM">STF</i>
   <i type="logical" name="LCOMPAT"> F  </i>
  </separator>
  <separator name="electronic" >
   <i type="string" name="PREC">normal</i>
   <i name="ENMAX">    520.00000000</i>
   <i name="ENAUG">    605.39200000</i>
   <i name="EDIFF">      0.00010000</i>
   <i type="int" name="IALGO">    68</i>
   <i type="int" name="IWAVPR">    11</i>
   <i type="int" name="NBANDS">   768</i>
   <i name="NELECT">   1028.00000000</i>
   <i type="int" name="TURBO">     0</i>
   <i type="int" name="IRESTART">     0</i>
   <i type="int" name="NREBOOT">     0</i>
   <i type="int" name="NMIN">     0</i>
   <i name="EREF">      0.00000000</i>
   <separator name="electronic smearing" >
    <i type="int" name="ISMEAR">     0</i>
    <i name="SIGMA">      0.05000000</i>
    <i name="KSPACING">      0.50000000</i>
    <i type="logical" name="KGAMMA"> T  </i>
   </separator>
   <separator name="electronic projectors" >
    <i type="logical" name="LREAL"> T  </i>
    <v name="ROPT">     -0.00050000     -0.00050000     -0.00050000     -0.00050000</v>
    <i type="int" name="LMAXPAW">  -100</i>
    <i type="int" name="LMAXMIX">     4</i>
    <i type="logical" name="NLSPLINE"> F  </i>
   </separator>
   <separator name="electronic startup" >
    <i type="int" name="ISTART">     1</i>
    <i type="int" name="ICHARG">     0</i>
    <i type="int" name="INIWAV">     1</i>
   </separator>
   <separator name="electronic spin" >
    <i type="int" name="ISPIN">     2</i>
    <i type="logical" name="LNONCOLLINEAR"> F  </i>
    <v name="MAGMOM">      0.60000000      0.60000000      0.60000000      0.60000000      0.60000000      0.60000000      0.60000000      0.60000000      0.60000000      0.60000000      0.60000000      0.60000000      0.60000000      0.60000000      0.60000000      0.60000000      0.60000000      0.60000000      0.60000000      0.60000000
      0.60000000      0.60000000      0.60000000      0.60000000      0.60000000      0.60000000      0.60000000      0.60000000      0.60000000      0.60000000      0.60000000      0.60000000      0.60000000      0.60000000      0.60000000      0.60000000      0.60000000      0.60000000      0.60000000      0.60000000
      0.60000000      0.60000000      0.60000000      0.60000000      0.60000000      0.60000000      0.60000000      0.60000000      0.60000000      0.60000000      0.60000000      0.60000000      0.60000000      0.60000000      0.60000000      0.60000000      0.60000000      0.60000000      0.60000000      0.60000000
      5.00000000      5.00000000      5.00000000      5.00000000      0.60000000      0.60000000      0.60000000      0.60000000      0.60000000      0.60000000      0.60000000      0.60000000      0.60000000      0.60000000      0.60000000      0.60000000      0.60000000      0.60000000      0.60000000      0.60000000
      0.60000000      0.60000000      0.60000000      0.60000000      0.60000000      0.60000000      0.60000000      0.60000000      0.60000000      0.60000000      0.60000000      0.60000000      0.60000000      0.60000000      0.60000000      0.60000000      0.60000000      0.60000000      0.60000000      0.60000000
      0.60000000      0.60000000      0.60000000      0.60000000      0.60000000      0.60000000      0.60000000      0.60000000      0.60000000      0.60000000      0.60000000      0.60000000      0.60000000      0.60000000      0.60000000      0.60000000      0.60000000      0.60000000      0.60000000      0.60000000
      0.60000000      0.60000000      0.60000000      0.60000000      0.60000000      0.60000000      0.60000000      0.60000000      0.60000000      0.60000000      0.60000000      0.60000000      0.60000000      0.60000000      0.60000000      0.60000000      0.60000000      0.60000000      0.60000000      0.60000000
      0.60000000      0.60000000      0.60000000      0.60000000      0.60000000      0.60000000      0.60000000      0.60000000      0.60000000      0.60000000      0.60000000      0.60000000      0.60000000      0.60000000      0.60000000      0.60000000      0.60000000      0.60000000</v>
    <i name="NUPDOWN">     -1.00000000</i>
    <i type="logical" name="LSORBIT"> F  </i>
    <v name="SAXIS">      0.00000000      0.00000000      1.00000000</v>
    <i type="logical" name="LSPIRAL"> F  </i>
    <v name="QSPIRAL">      0.00000000      0.00000000      0.00000000</v>
    <i type="logical" name="LZEROZ"> F  </i>
   </separator>
   <separator name="electronic exchange-correlation" >
    <i type="logical" name="LASPH"> F  </i>
    <i type="logical" name="LMETAGGA"> F  </i>
   </separator>
   <separator name="electronic convergence" >
    <i type="int" name="NELM">    40</i>
    <i type="int" name="NELMDL">     0</i>
    <i type="int" name="NELMIN">     8</i>
    <i name="ENINI">    520.00000000</i>
    <separator name="electronic convergence detail" >
     <i type="logical" name="LDIAG"> T  </i>
     <i type="logical" name="LSUBROT"> F  </i>
     <i name="WEIMIN">      0.00100000</i>
     <i name="EBREAK">      0.00000003</i>
     <i name="DEPER">      0.30000000</i>
     <i type="int" name="NRMM">     4</i>
     <i name="TIME">      0.40000000</i>
    </separator>
   </separator>
   <separator name="electronic mixer" >
    <i name="AMIX">      0.40000000</i>
    <i name="BMIX">      1.00000000</i>
    <i name="AMIN">      0.10000000</i>
    <i name="AMIX_MAG">      1.60000000</i>
    <i name="BMIX_MAG">      1.00000000</i>
    <separator name="electronic mixer details" >
     <i type="int" name="IMIX">     4</i>
     <i type="logical" name="MIXFIRST"> F  </i>
     <i type="int" name="MAXMIX">   -45</i>
     <i name="WC">    100.00000000</i>
     <i type="int" name="INIMIX">     1</i>
     <i type="int" name="MIXPRE">     1</i>
     <i type="int" name="MREMOVE">     5</i>
    </separator>
   </separator>
   <separator name="electronic dipolcorrection" >
    <i type="logical" name="LDIPOL"> F  </i>
    <i type="logical" name="LMONO"> F  </i>
    <i type="int" name="IDIPOL">     0</i>
    <i name="EPSILON">      1.00000000</i>
    <v name="DIPOL">   -100.00000000   -100.00000000   -100.00000000</v>
    <i name="EFIELD">      0.00000000</i>
   </separator>
  </separator>
  <separator name="grids" >
   <i type="int" name="NGX">    64</i>
   <i type="int" name="NGY">    64</i>
   <i type="int" name="NGZ">    90</i>
   <i type="int" name="NGXF">   128</i>
   <i type="int" name="NGYF">   128</i>
   <i type="int" name="NGZF">   180</i>
   <i type="logical" name="ADDGRID"> F  </i>
  </separator>
  <separator name="ionic" >
   <i type="int" name="NSW">    30</i>
   <i type="int" name="IBRION">     2</i>
   <i type="int" name="ISIF">     3</i>
   <i name="PSTRESS">      0.00000000</i>
   <i name="EDIFFG">     -0.03000000</i>
   <i type="int" name="NFREE">     1</i>
   <i name="POTIM">      0.50000000</i>
   <i name="SMASS">     -3.00000000</i>
   <i name="SCALEE">      1.00000000</i>
  </separator>
  <separator name="ionic md" >
   <i name="TEBEG">      0.00010000</i>
   <i name="TEEND">      0.00010000</i>
   <i type="int" name="NBLOCK">     1</i>
   <i type="int" name="KBLOCK">    30</i>
   <i type="int" name="NPACO">   256</i>
   <i name="APACO">     16.00000000</i>
  </separator>
  <separator name="symmetry" >
   <i type="int" name="ISYM">     2</i>
   <i name="SYMPREC">      0.00001000</i>
  </separator>
  <separator name="dos" >
   <i type="logical" name="LORBIT"> F  </i>
   <v name="RWIGS">     -1.00000000     -1.00000000     -1.00000000     -1.00000000</v>
   <i type="int" name="NEDOS">   301</i>
   <i name="EMIN">     10.00000000</i>
   <i name="EMAX">    -10.00000000</i>
   <i name="EFERMI">      0.00000000</i>
  </separator>
  <separator name="writing" >
   <i type="int" name="NWRITE">     2</i>
   <i type="logical" name="LWAVE"> T  </i>
   <i type="logical" name="LCHARG"> T  </i>
   <i type="logical" name="LPARD"> F  </i>
   <i type="logical" name="LVTOT"> F  </i>
   <i type="logical" name="LVHAR"> F  </i>
   <i type="logical" name="LELF"> F  </i>
   <i type="logical" name="LOPTICS"> F  </i>
   <v name="STM">      0.00000000      0.00000000      0.00000000      0.00000000      0.00000000      0.00000000      0.00000000</v>
  </separator>
  <separator name="performance" >
   <i type="int" name="NPAR">     2</i>
   <i type="int" name="NSIM">     4</i>
   <i type="int" name="NBLK">    -1</i>
   <i type="logical" name="LPLANE"> T  </i>
   <i type="logical" name="LSCALAPACK"> T  </i>
   <i type="logical" name="LSCAAWARE"> F  </i>
   <i type="logical" name="LSCALU"> F  </i>
   <i type="logical" name="LASYNC"> F  </i>
   <i type="logical" name="LORBITALREAL"> F  </i>
  </separator>
  <separator name="miscellaneous" >
   <i type="int" name="IDIOT">     3</i>
   <i type="logical" name="LMUSIC"> F  </i>
   <v name="POMASS">     87.62000000     47.88000000     55.84700000     16.00000000</v>
   <v name="DARWINR">      0.00000000      0.00000000      0.00000000      0.00000000</v>
   <v name="DARWINV">      1.00000000      1.00000000      1.00000000      1.00000000</v>
   <i type="logical" name="LCORR"> T  </i>
  </separator>
  <i type="logical" name="GGA_COMPAT"> T  </i>
  <i type="logical" name="LBERRY"> F  </i>
  <i type="int" name="ICORELEVEL">     0</i>
  <i type="logical" name="LDAU"> T  </i>
  <v type="int" name="LDAUTYPE">     2</v>
  <v type="int" name="LDAUL">     0</v>
  <v name="LDAUU">      0.00000000</v>
  <v name="LDAUJ">      0.00000000</v>
  <i type="int" name="LDAUPRINT">     1</i>
  <i type="int" name="I_CONSTRAINED_M">     0</i>
  <separator name="electronic exchange-correlation" >
   <i type="string" name="GGA">--</i>
   <i type="int" name="VOSKOWN">     0</i>
   <i type="logical" name="LHFCALC"> F  </i>
   <i type="string" name="PRECFOCK"></i>
   <i type="logical" name="LSYMGRAD"> F  </i>
   <i type="logical" name="LHFONE"> F  </i>
   <i type="logical" name="LRHFCALC"> F  </i>
   <i type="logical" name="LTHOMAS"> F  </i>
   <i type="logical" name="LMODELHF"> F  </i>
   <i name="ENCUT4O">     -1.00000000</i>
   <i type="int" name="EXXOEP">     0</i>
   <i type="int" name="FOURORBIT">     0</i>
   <i name="AEXX">      0.00000000</i>
   <i name="HFALPHA">      0.00000000</i>
   <i name="MCALPHA">      0.00000000</i>
   <i name="ALDAX">      1.00000000</i>
   <i name="AGGAX">      1.00000000</i>
   <i name="ALDAC">      1.00000000</i>
   <i name="AGGAC">      1.00000000</i>
   <i type="int" name="NKREDX">     1</i>
   <i type="int" name="NKREDY">     1</i>
   <i type="int" name="NKREDZ">     1</i>
   <i type="logical" name="SHIFTRED"> F  </i>
   <i type="logical" name="ODDONLY"> F  </i>
   <i type="logical" name="EVENONLY"> F  </i>
   <i type="int" name="LMAXFOCK">     0</i>
   <i type="int" name="NMAXFOCKAE">     0</i>
   <i type="logical" name="LFOCKAEDFT"> F  </i>
   <i name="HFSCREEN">      0.00000000</i>
   <i name="HFSCREENC">      0.00000000</i>
   <i type="int" name="NBANDSGWLOW">     0</i>
  </separator>
  <separator name="vdW DFT" >
   <i type="logical" name="LUSE_VDW"> F  </i>
   <i name="Zab_VDW">     -0.84910000</i>
   <i name="PARAM1">      0.12340000</i>
   <i name="PARAM2">      1.00000000</i>
   <i name="PARAM3">      0.00000000</i>
  </separator>
  <separator name="model GW" >
   <i type="int" name="MODEL_GW">     0</i>
   <i name="MODEL_EPS0">      7.60872022</i>
   <i name="MODEL_ALPHA">      1.00000000</i>
  </separator>
  <separator name="linear response parameters" >
   <i type="logical" name="LEPSILON"> F  </i>
   <i type="logical" name="LRPA"> F  </i>
   <i type="logical" name="LNABLA"> F  </i>
   <i type="logical" name="LVEL"> F  </i>
   <i type="int" name="KINTER">     0</i>
   <i name="CSHIFT">      0.10000000</i>
   <i name="OMEGAMAX">     -1.00000000</i>
   <i name="DEG_THRESHOLD">      0.00200000</i>
  </separator>
  <separator name="orbital magnetization" >
   <i type="logical" name="NUCIND"> F  </i>
   <v name="MAGPOS">      0.00000000      0.00000000      0.00000000</v>
   <i type="logical" name="LNICSALL"> T  </i>
   <i type="logical" name="ORBITALMAG"> F  </i>
   <i type="logical" name="LMAGBLOCH"> F  </i>
   <i type="logical" name="LCHIMAG"> F  </i>
   <i type="logical" name="LGAUGE"> T  </i>
   <i type="int" name="MAGATOM">     0</i>
   <v name="MAGDIPOL">      0.00000000      0.00000000      0.00000000</v>
   <v name="AVECCONST">      0.00000000      0.00000000      0.00000000</v>
  </separator>
  <separator name="response functions" >
   <i type="logical" name="LADDER"> F  </i>
   <i type="logical" name="LFXC"> F  </i>
   <i type="logical" name="LHARTREE"> T  </i>
   <i type="int" name="IBSE">     0</i>
   <v type="int" name="KPOINT">    -1     0     0     0</v>
   <i type="logical" name="LTCTE"> F  </i>
   <i type="logical" name="LTETE"> F  </i>
   <i type="logical" name="LTRIPLET"> F  </i>
   <i type="logical" name="LFXCEPS"> F  </i>
   <i type="logical" name="LFXHEG"> F  </i>
   <i type="int" name="NATURALO">     0</i>
   <i type="logical" name="L2ORDER"> F  </i>
   <i type="logical" name="LUSEW"> F  </i>
   <i name="ENCUTGW">     -2.00000000</i>
   <i name="ENCUTGWSOFT">     -2.00000000</i>
   <i name="ENCUTLF">     -1.00000000</i>
   <i type="int" name="LMAXMP2">    -1</i>
   <i name="SCISSOR">      0.00000000</i>
   <i type="int" name="NOMEGA">     0</i>
   <i type="int" name="NOMEGAR">     0</i>
   <i type="int" name="NBANDSGW">    -1</i>
   <i type="int" name="NBANDSO">    -1</i>
   <i type="int" name="NBANDSV">    -1</i>
   <i type="int" name="NELM">    40</i>
   <i type="int" name="NELMHF">     1</i>
   <i type="int" name="DIM">     3</i>
   <i type="int" name="ANTIRES">     0</i>
   <i name="OMEGAMAX">    -30.00000000</i>
   <i name="OMEGAMIN">    -30.00000000</i>
   <i name="OMEGATL">   -200.00000000</i>
   <i type="int" name="OMEGAGRID">     0</i>
   <i name="CSHIFT">     -0.10000000</i>
   <i type="logical" name="SELFENERGY"> F  </i>
   <i type="logical" name="LSPECTRAL"> F  </i>
   <i type="logical" name="LSPECTRALGW"> F  </i>
   <i type="logical" name="LSINGLES"> F  </i>
   <i type="logical" name="LFERMIGW"> F  </i>
   <i type="logical" name="ODDONLYGW"> F  </i>
   <i type="logical" name="EVENONLYGW"> F  </i>
   <i type="int" name="NKREDLFX">     1</i>
   <i type="int" name="NKREDLFY">     1</i>
   <i type="int" name="NKREDLFZ">     1</i>
   <i type="int" name="MAXMEM">  1800</i>
   <i type="int" name="TELESCOPE">     0</i>
   <i type="int" name="TAUPAR">     1</i>
   <i type="int" name="OMEGAPAR">    -1</i>
   <i name="LAMBDA">      1.00000000</i>
  </separator>
  <separator name="External order field" >
   <i name="OFIELD_KAPPA">      0.00000000</i>
   <v name="OFIELD_K">      0.00000000      0.00000000      0.00000000</v>
   <i name="OFIELD_Q6_NEAR">      0.00000000</i>
   <i name="OFIELD_Q6_FAR">      0.00000000</i>
   <i name="OFIELD_A">      0.00000000</i>
  </separator>
 </parameters>
 <atominfo>
  <atoms>     158 </atoms>
  <types>       4 </types>
  <array name="atoms" >
   <dimension dim="1">ion</dimension>
   <field type="string">element</field>
   <field type="int">atomtype</field>
   <set>
    <rc><c>Sr</c><c>   1</c></rc>
    <rc><c>Sr</c><c>   1</c></rc>
    <rc><c>Sr</c><c>   1</c></rc>
    <rc><c>Sr</c><c>   1</c></rc>
    <rc><c>Sr</c><c>   1</c></rc>
    <rc><c>Sr</c><c>   1</c></rc>
    <rc><c>Sr</c><c>   1</c></rc>
    <rc><c>Sr</c><c>   1</c></rc>
    <rc><c>Sr</c><c>   1</c></rc>
    <rc><c>Sr</c><c>   1</c></rc>
    <rc><c>Sr</c><c>   1</c></rc>
    <rc><c>Sr</c><c>   1</c></rc>
    <rc><c>Sr</c><c>   1</c></rc>
    <rc><c>Sr</c><c>   1</c></rc>
    <rc><c>Sr</c><c>   1</c></rc>
    <rc><c>Sr</c><c>   1</c></rc>
    <rc><c>Sr</c><c>   1</c></rc>
    <rc><c>Sr</c><c>   1</c></rc>
    <rc><c>Sr</c><c>   1</c></rc>
    <rc><c>Sr</c><c>   1</c></rc>
    <rc><c>Sr</c><c>   1</c></rc>
    <rc><c>Sr</c><c>   1</c></rc>
    <rc><c>Sr</c><c>   1</c></rc>
    <rc><c>Sr</c><c>   1</c></rc>
    <rc><c>Sr</c><c>   1</c></rc>
    <rc><c>Sr</c><c>   1</c></rc>
    <rc><c>Sr</c><c>   1</c></rc>
    <rc><c>Sr</c><c>   1</c></rc>
    <rc><c>Sr</c><c>   1</c></rc>
    <rc><c>Sr</c><c>   1</c></rc>
    <rc><c>Sr</c><c>   1</c></rc>
    <rc><c>Sr</c><c>   1</c></rc>
    <rc><c>Ti</c><c>   2</c></rc>
    <rc><c>Ti</c><c>   2</c></rc>
    <rc><c>Ti</c><c>   2</c></rc>
    <rc><c>Ti</c><c>   2</c></rc>
    <rc><c>Ti</c><c>   2</c></rc>
    <rc><c>Ti</c><c>   2</c></rc>
    <rc><c>Ti</c><c>   2</c></rc>
    <rc><c>Ti</c><c>   2</c></rc>
    <rc><c>Ti</c><c>   2</c></rc>
    <rc><c>Ti</c><c>   2</c></rc>
    <rc><c>Ti</c><c>   2</c></rc>
    <rc><c>Ti</c><c>   2</c></rc>
    <rc><c>Ti</c><c>   2</c></rc>
    <rc><c>Ti</c><c>   2</c></rc>
    <rc><c>Ti</c><c>   2</c></rc>
    <rc><c>Ti</c><c>   2</c></rc>
    <rc><c>Ti</c><c>   2</c></rc>
    <rc><c>Ti</c><c>   2</c></rc>
    <rc><c>Ti</c><c>   2</c></rc>
    <rc><c>Ti</c><c>   2</c></rc>
    <rc><c>Ti</c><c>   2</c></rc>
    <rc><c>Ti</c><c>   2</c></rc>
    <rc><c>Ti</c><c>   2</c></rc>
    <rc><c>Ti</c><c>   2</c></rc>
    <rc><c>Ti</c><c>   2</c></rc>
    <rc><c>Ti</c><c>   2</c></rc>
    <rc><c>Ti</c><c>   2</c></rc>
    <rc><c>Ti</c><c>   2</c></rc>
    <rc><c>Fe</c><c>   3</c></rc>
    <rc><c>Fe</c><c>   3</c></rc>
    <rc><c>Fe</c><c>   3</c></rc>
    <rc><c>Fe</c><c>   3</c></rc>
    <rc><c>O </c><c>   4</c></rc>
    <rc><c>O </c><c>   4</c></rc>
    <rc><c>O </c><c>   4</c></rc>
    <rc><c>O </c><c>   4</c></rc>
    <rc><c>O </c><c>   4</c></rc>
    <rc><c>O </c><c>   4</c></rc>
    <rc><c>O </c><c>   4</c></rc>
    <rc><c>O </c><c>   4</c></rc>
    <rc><c>O </c><c>   4</c></rc>
    <rc><c>O </c><c>   4</c></rc>
    <rc><c>O </c><c>   4</c></rc>
    <rc><c>O </c><c>   4</c></rc>
    <rc><c>O </c><c>   4</c></rc>
    <rc><c>O </c><c>   4</c></rc>
    <rc><c>O </c><c>   4</c></rc>
    <rc><c>O </c><c>   4</c></rc>
    <rc><c>O </c><c>   4</c></rc>
    <rc><c>O </c><c>   4</c></rc>
    <rc><c>O </c><c>   4</c></rc>
    <rc><c>O </c><c>   4</c></rc>
    <rc><c>O </c><c>   4</c></rc>
    <rc><c>O </c><c>   4</c></rc>
    <rc><c>O </c><c>   4</c></rc>
    <rc><c>O </c><c>   4</c></rc>
    <rc><c>O </c><c>   4</c></rc>
    <rc><c>O </c><c>   4</c></rc>
    <rc><c>O </c><c>   4</c></rc>
    <rc><c>O </c><c>   4</c></rc>
    <rc><c>O </c><c>   4</c></rc>
    <rc><c>O </c><c>   4</c></rc>
    <rc><c>O </c><c>   4</c></rc>
    <rc><c>O </c><c>   4</c></rc>
    <rc><c>O </c><c>   4</c></rc>
    <rc><c>O </c><c>   4</c></rc>
    <rc><c>O </c><c>   4</c></rc>
    <rc><c>O </c><c>   4</c></rc>
    <rc><c>O </c><c>   4</c></rc>
    <rc><c>O </c><c>   4</c></rc>
    <rc><c>O </c><c>   4</c></rc>
    <rc><c>O </c><c>   4</c></rc>
    <rc><c>O </c><c>   4</c></rc>
    <rc><c>O </c><c>   4</c></rc>
    <rc><c>O </c><c>   4</c></rc>
    <rc><c>O </c><c>   4</c></rc>
    <rc><c>O </c><c>   4</c></rc>
    <rc><c>O </c><c>   4</c></rc>
    <rc><c>O </c><c>   4</c></rc>
    <rc><c>O </c><c>   4</c></rc>
    <rc><c>O </c><c>   4</c></rc>
    <rc><c>O </c><c>   4</c></rc>
    <rc><c>O </c><c>   4</c></rc>
    <rc><c>O </c><c>   4</c></rc>
    <rc><c>O </c><c>   4</c></rc>
    <rc><c>O </c><c>   4</c></rc>
    <rc><c>O </c><c>   4</c></rc>
    <rc><c>O </c><c>   4</c></rc>
    <rc><c>O </c><c>   4</c></rc>
    <rc><c>O </c><c>   4</c></rc>
    <rc><c>O </c><c>   4</c></rc>
    <rc><c>O </c><c>   4</c></rc>
    <rc><c>O </c><c>   4</c></rc>
    <rc><c>O </c><c>   4</c></rc>
    <rc><c>O </c><c>   4</c></rc>
    <rc><c>O </c><c>   4</c></rc>
    <rc><c>O </c><c>   4</c></rc>
    <rc><c>O </c><c>   4</c></rc>
    <rc><c>O </c><c>   4</c></rc>
    <rc><c>O </c><c>   4</c></rc>
    <rc><c>O </c><c>   4</c></rc>
    <rc><c>O </c><c>   4</c></rc>
    <rc><c>O </c><c>   4</c></rc>
    <rc><c>O </c><c>   4</c></rc>
    <rc><c>O </c><c>   4</c></rc>
    <rc><c>O </c><c>   4</c></rc>
    <rc><c>O </c><c>   4</c></rc>
    <rc><c>O </c><c>   4</c></rc>
    <rc><c>O </c><c>   4</c></rc>
    <rc><c>O </c><c>   4</c></rc>
    <rc><c>O </c><c>   4</c></rc>
    <rc><c>O </c><c>   4</c></rc>
    <rc><c>O </c><c>   4</c></rc>
    <rc><c>O </c><c>   4</c></rc>
    <rc><c>O </c><c>   4</c></rc>
    <rc><c>O </c><c>   4</c></rc>
    <rc><c>O </c><c>   4</c></rc>
    <rc><c>O </c><c>   4</c></rc>
    <rc><c>O </c><c>   4</c></rc>
    <rc><c>O </c><c>   4</c></rc>
    <rc><c>O </c><c>   4</c></rc>
    <rc><c>O </c><c>   4</c></rc>
    <rc><c>O </c><c>   4</c></rc>
    <rc><c>O </c><c>   4</c></rc>
    <rc><c>O </c><c>   4</c></rc>
    <rc><c>O </c><c>   4</c></rc>
   </set>
  </array>
  <array name="atomtypes" >
   <dimension dim="1">type</dimension>
   <field type="int">atomspertype</field>
   <field type="string">element</field>
   <field>mass</field>
   <field>valence</field>
   <field type="string">pseudopotential</field>
   <set>
    <rc><c>  32</c><c>Sr</c><c>     87.62000000</c><c>     10.00000000</c><c>  PAW_PBE Sr_sv 07Sep2000               </c></rc>
    <rc><c>  28</c><c>Ti</c><c>     47.88000000</c><c>      4.00000000</c><c>  PAW_PBE Ti 08Apr2002                  </c></rc>
    <rc><c>   4</c><c>Fe</c><c>     55.84700000</c><c>      8.00000000</c><c>  PAW_PBE Fe 06Sep2000                  </c></rc>
    <rc><c>  94</c><c>O </c><c>     16.00000000</c><c>      6.00000000</c><c>  PAW_PBE O 08Apr2002                   </c></rc>
   </set>
  </array>
 </atominfo>
 <structure name="initialpos" >
  <crystal>
   <varray name="basis" >
    <v>      11.21845585      -0.00225694       0.00014821 </v>
    <v>      -0.00226459      11.21603425       0.00024604 </v>
    <v>       0.00020954       0.00035119      15.92373932 </v>
   </varray>
   <i name="volume">   2003.62965707 </i>
   <varray name="rec_basis" >
    <v>       0.08913883       0.00001800      -0.00000117 </v>
    <v>       0.00001794       0.08915808      -0.00000197 </v>
    <v>      -0.00000083      -0.00000138       0.06279932 </v>
   </varray>
  </crystal>
  <varray name="positions" >
   <v>       0.99861280       0.24744352       0.12267861 </v>
   <v>       0.99999591       0.25121141       0.62573122 </v>
   <v>       0.99887472       0.75208049       0.12411906 </v>
   <v>       0.00179502       0.75170036       0.62333671 </v>
   <v>       0.50126733       0.24997865       0.12506146 </v>
   <v>       0.49968788       0.24598593       0.62232784 </v>
   <v>       0.50067072       0.74873160       0.12395303 </v>
   <v>       0.49939906       0.75644205       0.62290660 </v>
   <v>       0.99840514       0.24907531       0.37537902 </v>
   <v>       0.00052212       0.24919780       0.87591094 </v>
   <v>       0.99918037       0.75043925       0.37430313 </v>
   <v>       0.00159946       0.75368633       0.87823501 </v>
   <v>       0.50120421       0.24976121       0.37407856 </v>
   <v>       0.49962985       0.24663342       0.87808823 </v>
   <v>       0.50058272       0.74894014       0.37512532 </v>
   <v>       0.49915956       0.75635663       0.87787369 </v>
   <v>       0.24787079       0.99971740       0.12373359 </v>
   <v>       0.24978831       0.00078933       0.62447797 </v>
   <v>       0.25134493       0.49922651       0.12381674 </v>
   <v>       0.23983015       0.50193793       0.62431264 </v>
   <v>       0.75210049       0.99975450       0.12305418 </v>
   <v>       0.74832243       0.99751081       0.62503567 </v>
   <v>       0.75023784       0.49951962       0.12578795 </v>
   <v>       0.75899671       0.50203686       0.61820856 </v>
   <v>       0.24960814       0.99992289       0.37466166 </v>
   <v>       0.24811115       0.00057669       0.87732622 </v>
   <v>       0.25125498       0.49906128       0.37533956 </v>
   <v>       0.24009465       0.50190285       0.87647747 </v>
   <v>       0.75059251       0.99940516       0.37507648 </v>
   <v>       0.75034992       0.99820240       0.87662635 </v>
   <v>       0.75038183       0.49950147       0.37338591 </v>
   <v>       0.75862348       0.50219904       0.88246539 </v>
   <v>       0.99938053       0.00015555       0.24850807 </v>
   <v>       0.00035240       0.50010881       0.49876846 </v>
   <v>       0.74925303       0.25017356       0.50197285 </v>
   <v>       0.74937367       0.74976876       0.50114615 </v>
   <v>       0.00034011       0.50009906       0.00120000 </v>
   <v>       0.49994984       0.00011417       0.49940087 </v>
   <v>       0.50230655       0.50042758       0.99831756 </v>
   <v>       0.75013086       0.24920904       0.24972539 </v>
   <v>       0.24912462       0.24894014       0.99948274 </v>
   <v>       0.25019497       0.25022384       0.50059434 </v>
   <v>       0.24852579       0.75131162       0.99989824 </v>
   <v>       0.25003350       0.75005728       0.49997975 </v>
   <v>       0.75038854       0.24929514       0.99768525 </v>
   <v>       0.75040454       0.75109606       0.99852232 </v>
   <v>       0.25039072       0.25071964       0.24974192 </v>
   <v>       0.50064272       0.00048063       0.75031602 </v>
   <v>       0.25073634       0.74954281       0.24978368 </v>
   <v>       0.24785544       0.24763471       0.75009315 </v>
   <v>       0.49994291       0.00021518       0.00054786 </v>
   <v>       0.50239015       0.50026730       0.50142313 </v>
   <v>       0.75054508       0.75052445       0.24973953 </v>
   <v>       0.24717198       0.75289554       0.75006178 </v>
   <v>       0.49982139       0.99966102       0.24973193 </v>
   <v>       0.00318443       0.99971583       0.75164415 </v>
   <v>       0.00073369       0.50007718       0.24968956 </v>
   <v>       0.99390503       0.50051160       0.75031179 </v>
   <v>       0.00009173       0.00024794       0.50053645 </v>
   <v>       0.49896808       0.49979134       0.24978213 </v>
   <v>       0.76362448       0.75846208       0.75012140 </v>
   <v>       0.99994282       0.00049738       0.99952180 </v>
   <v>       0.75928935       0.23550467       0.75003666 </v>
   <v>       0.47427126       0.49581184       0.74986427 </v>
   <v>       0.11059365       0.14165733       0.25064741 </v>
   <v>       0.10639459       0.14304441       0.74932407 </v>
   <v>       0.10962681       0.64154475       0.25000564 </v>
   <v>       0.39501395       0.34971940       0.74960958 </v>
   <v>       0.60888037       0.14051405       0.25027399 </v>
   <v>       0.60613435       0.14292909       0.74969483 </v>
   <v>       0.60941468       0.63935555       0.25033824 </v>
   <v>       0.35541822       0.61111730       0.74944639 </v>
   <v>       0.39180489       0.35930520       0.25053908 </v>
   <v>       0.39010779       0.85727606       0.74964328 </v>
   <v>       0.39125124       0.85896835       0.25030585 </v>
   <v>       0.00052651       0.50021092       0.87543712 </v>
   <v>       0.89046067       0.35984947       0.24996569 </v>
   <v>       0.88432633       0.36141190       0.74988487 </v>
   <v>       0.89099990       0.85940393       0.25081120 </v>
   <v>       0.89860681       0.85687086       0.74922707 </v>
   <v>       0.35864262       0.10955904       0.25002702 </v>
   <v>       0.35580799       0.10565032       0.75018898 </v>
   <v>       0.35937032       0.60820140       0.25055889 </v>
   <v>       0.10409899       0.64268740       0.75004199 </v>
   <v>       0.85892874       0.10978365       0.25081052 </v>
   <v>       0.85870574       0.10116960       0.74914479 </v>
   <v>       0.85986393       0.60969057       0.25027930 </v>
   <v>       0.84717210       0.60277118       0.74982193 </v>
   <v>       0.53356858       0.50518884       0.63855490 </v>
   <v>       0.13919512       0.39075675       0.74966799 </v>
   <v>       0.14127090       0.89002288       0.25071549 </v>
   <v>       0.14439263       0.89385810       0.74942965 </v>
   <v>       0.63939277       0.39066307       0.25033430 </v>
   <v>       0.53326115       0.50538493       0.86102653 </v>
   <v>       0.64047943       0.89069572       0.24997527 </v>
   <v>       0.63500078       0.88205766       0.74980310 </v>
   <v>       0.36397051       0.39127666       0.98981013 </v>
   <v>       0.85910417       0.88640167       0.99634913 </v>
   <v>       0.36170866       0.88864280       0.99935129 </v>
   <v>       0.36066850       0.88908484       0.50080337 </v>
   <v>       0.86182251       0.38910905       0.00167205 </v>
   <v>       0.86144124       0.38921580       0.49858737 </v>
   <v>       0.11186387       0.36248019       0.99986084 </v>
   <v>       0.85962337       0.88880613       0.50345712 </v>
   <v>       0.14054055       0.11387257       0.00232100 </v>
   <v>       0.14014769       0.11115787       0.49791780 </v>
   <v>       0.13980049       0.61031929       0.00087137 </v>
   <v>       0.14032443       0.60994286       0.49916231 </v>
   <v>       0.63874169       0.11039567       0.99895661 </v>
   <v>       0.64004341       0.10972382       0.50106286 </v>
   <v>       0.63969966       0.60993076       0.00446899 </v>
   <v>       0.64046700       0.60939923       0.49573683 </v>
   <v>       0.11130458       0.36116886       0.50027595 </v>
   <v>       0.11319234       0.85959737       0.00261054 </v>
   <v>       0.11064282       0.85987235       0.49753385 </v>
   <v>       0.60978066       0.36135719       0.00144069 </v>
   <v>       0.60927992       0.36045893       0.49869020 </v>
   <v>       0.60961346       0.86053236       0.00078941 </v>
   <v>       0.60947699       0.86005923       0.49939946 </v>
   <v>       0.38973532       0.13982523       0.00032135 </v>
   <v>       0.38994792       0.14013987       0.49958643 </v>
   <v>       0.39144211       0.63769768       0.99260744 </v>
   <v>       0.39187217       0.63832234       0.50754951 </v>
   <v>       0.88579573       0.14082015       0.99559749 </v>
   <v>       0.88850905       0.14032399       0.50402393 </v>
   <v>       0.88903667       0.63830550       0.99865966 </v>
   <v>       0.88960880       0.63940918       0.50131865 </v>
   <v>       0.99726704       0.00124759       0.12638055 </v>
   <v>       0.00441556       0.99924886       0.62425923 </v>
   <v>       0.00011705       0.50099885       0.12529249 </v>
   <v>       0.00053195       0.50045477       0.62447739 </v>
   <v>       0.49926402       0.00059486       0.12504998 </v>
   <v>       0.49951986       0.99971845       0.62448178 </v>
   <v>       0.49481915       0.49978215       0.12356392 </v>
   <v>       0.14128268       0.39170476       0.25033360 </v>
   <v>       0.99704551       0.00122867       0.37582501 </v>
   <v>       0.00420190       0.99943526       0.87368662 </v>
   <v>       0.00002581       0.50092442       0.37488590 </v>
   <v>       0.49939149       0.00043402       0.37508148 </v>
   <v>       0.49954408       0.99949022       0.87537842 </v>
   <v>       0.49495030       0.49985619       0.37725234 </v>
   <v>       0.36328468       0.39155354       0.51026903 </v>
   <v>       0.25386041       0.25548351       0.37600692 </v>
   <v>       0.24683881       0.24778176       0.87427839 </v>
   <v>       0.25485920       0.74715824       0.37573007 </v>
   <v>       0.24602356       0.75088813       0.87468253 </v>
   <v>       0.75002461       0.24942432       0.37570548 </v>
   <v>       0.74005351       0.26060935       0.87220609 </v>
   <v>       0.75133213       0.75143427       0.37526596 </v>
   <v>       0.73898511       0.74247117       0.87311316 </v>
   <v>       0.25420280       0.25617721       0.12465934 </v>
   <v>       0.24701320       0.24711609       0.62516537 </v>
   <v>       0.25547866       0.74693733       0.12494974 </v>
   <v>       0.24525449       0.75101058       0.62475458 </v>
   <v>       0.74957664       0.24913846       0.12492652 </v>
   <v>       0.74074428       0.26034313       0.62719813 </v>
   <v>       0.75157714       0.75111917       0.12534480 </v>
   <v>       0.73923384       0.74279497       0.62642250 </v>
  </varray>
 </structure>
 <calculation>
  <scstep>
   <time name="dav">  288.92  288.91</time>
   <time name="total">  292.66  292.73</time>
   <energy>
    <i name="alphaZ">   5637.90700088 </i>
    <i name="ewald"> -61211.41742392 </i>
    <i name="hartreedc"> -15294.04831595 </i>
    <i name="XCdc">   2852.79332647 </i>
    <i name="pawpsdc"> 112108.72292189 </i>
    <i name="pawaedc">-110857.24216451 </i>
    <i name="eentropy">     -0.00000000 </i>
    <i name="bandstr">  -7040.23870815 </i>
    <i name="atom">  72650.08363186 </i>
    <i name="e_fr_energy">  -1153.43973144 </i>
    <i name="e_wo_entrp">  -1153.43973144 </i>
    <i name="e_0_energy">  -1153.43973144 </i>
   </energy>
  </scstep>
  <scstep>
   <time name="diag">   33.27   33.31</time>
   <time name="diis">   29.66   29.68</time>
   <time name="orth">   18.89   18.91</time>
   <time name="total">   85.52   85.61</time>
   <energy>
    <i name="e_fr_energy">  -1153.43973183 </i>
    <i name="e_wo_entrp">  -1153.43973183 </i>
    <i name="e_0_energy">  -1153.43973183 </i>
   </energy>
  </scstep>
  <scstep>
   <time name="diag">   33.31   33.31</time>
   <time name="diis">   27.31   27.33</time>
   <time name="orth">   18.84   18.84</time>
   <time name="total">   83.18   83.30</time>
   <energy>
    <i name="e_fr_energy">  -1153.43973202 </i>
    <i name="e_wo_entrp">  -1153.43973202 </i>
    <i name="e_0_energy">  -1153.43973202 </i>
   </energy>
  </scstep>
  <scstep>
   <time name="diag">   33.31   33.32</time>
   <time name="diis">   23.65   23.67</time>
   <time name="orth">   18.85   18.85</time>
   <time name="total">   79.54   79.64</time>
   <energy>
    <i name="e_fr_energy">  -1153.43973216 </i>
    <i name="e_wo_entrp">  -1153.43973216 </i>
    <i name="e_0_energy">  -1153.43973216 </i>
   </energy>
  </scstep>
  <scstep>
   <time name="diag">   33.34   33.34</time>
   <time name="diis">   22.82   22.82</time>
   <time name="orth">   18.89   18.89</time>
   <time name="total">   78.77   78.84</time>
   <energy>
    <i name="e_fr_energy">  -1153.43973221 </i>
    <i name="e_wo_entrp">  -1153.43973221 </i>
    <i name="e_0_energy">  -1153.43973221 </i>
   </energy>
  </scstep>
  <scstep>
   <time name="diag">   33.35   33.36</time>
   <time name="diis">   21.52   21.54</time>
   <time name="orth">   18.89   18.91</time>
   <time name="total">   77.47   77.57</time>
   <energy>
    <i name="e_fr_energy">  -1153.43973220 </i>
    <i name="e_wo_entrp">  -1153.43973220 </i>
    <i name="e_0_energy">  -1153.43973220 </i>
   </energy>
  </scstep>
  <scstep>
   <time name="diag">   33.29   33.30</time>
   <time name="diis">   21.50   21.52</time>
   <time name="orth">   18.83   18.84</time>
   <time name="total">   77.30   77.41</time>
   <energy>
    <i name="e_fr_energy">  -1153.43973221 </i>
    <i name="e_wo_entrp">  -1153.43973221 </i>
    <i name="e_0_energy">  -1153.43973221 </i>
   </energy>
  </scstep>
  <scstep>
   <time name="diag">   33.25   33.28</time>
   <time name="diis">   21.25   21.27</time>
   <time name="orth">   18.83   18.84</time>
   <time name="total">   73.92   74.04</time>
   <energy>
    <i name="alphaZ">   5637.90700088 </i>
    <i name="ewald"> -61211.41742392 </i>
    <i name="hartreedc"> -15294.04215287 </i>
    <i name="XCdc">   2852.79268207 </i>
    <i name="pawpsdc"> 112107.52352442 </i>
    <i name="pawaedc">-110856.04011880 </i>
    <i name="eentropy">     -0.00000000 </i>
    <i name="bandstr">  -7040.24687584 </i>
    <i name="atom">  72650.08363186 </i>
    <i name="e_fr_energy">  -1153.43973221 </i>
    <i name="e_wo_entrp">  -1153.43973221 </i>
    <i name="e_0_energy">  -1153.43973221 </i>
   </energy>
  </scstep>
  <structure>
   <crystal>
    <varray name="basis" >
     <v>      11.21845585      -0.00225694       0.00014821 </v>
     <v>      -0.00226459      11.21603425       0.00024604 </v>
     <v>       0.00020954       0.00035119      15.92373932 </v>
    </varray>
    <i name="volume">   2003.62965707 </i>
    <varray name="rec_basis" >
     <v>       0.08913883       0.00001800      -0.00000117 </v>
     <v>       0.00001794       0.08915808      -0.00000197 </v>
     <v>      -0.00000083      -0.00000138       0.06279932 </v>
    </varray>
   </crystal>
   <varray name="positions" >
    <v>       0.99861280       0.24744352       0.12267861 </v>
    <v>       0.99999591       0.25121141       0.62573122 </v>
    <v>       0.99887472       0.75208049       0.12411906 </v>
    <v>       0.00179502       0.75170036       0.62333671 </v>
    <v>       0.50126733       0.24997865       0.12506146 </v>
    <v>       0.49968788       0.24598593       0.62232784 </v>
    <v>       0.50067072       0.74873160       0.12395303 </v>
    <v>       0.49939906       0.75644205       0.62290660 </v>
    <v>       0.99840514       0.24907531       0.37537902 </v>
    <v>       0.00052212       0.24919780       0.87591094 </v>
    <v>       0.99918037       0.75043925       0.37430313 </v>
    <v>       0.00159946       0.75368633       0.87823501 </v>
    <v>       0.50120421       0.24976121       0.37407856 </v>
    <v>       0.49962985       0.24663342       0.87808823 </v>
    <v>       0.50058272       0.74894014       0.37512532 </v>
    <v>       0.49915956       0.75635663       0.87787369 </v>
    <v>       0.24787079       0.99971740       0.12373359 </v>
    <v>       0.24978831       0.00078933       0.62447797 </v>
    <v>       0.25134493       0.49922651       0.12381674 </v>
    <v>       0.23983015       0.50193793       0.62431264 </v>
    <v>       0.75210049       0.99975450       0.12305418 </v>
    <v>       0.74832243       0.99751081       0.62503567 </v>
    <v>       0.75023784       0.49951962       0.12578795 </v>
    <v>       0.75899671       0.50203686       0.61820856 </v>
    <v>       0.24960814       0.99992289       0.37466166 </v>
    <v>       0.24811115       0.00057669       0.87732622 </v>
    <v>       0.25125498       0.49906128       0.37533956 </v>
    <v>       0.24009465       0.50190285       0.87647747 </v>
    <v>       0.75059251       0.99940516       0.37507648 </v>
    <v>       0.75034992       0.99820240       0.87662635 </v>
    <v>       0.75038183       0.49950147       0.37338591 </v>
    <v>       0.75862348       0.50219904       0.88246539 </v>
    <v>       0.99938053       0.00015555       0.24850807 </v>
    <v>       0.00035240       0.50010881       0.49876846 </v>
    <v>       0.74925303       0.25017356       0.50197285 </v>
    <v>       0.74937367       0.74976876       0.50114615 </v>
    <v>       0.00034011       0.50009906       0.00120000 </v>
    <v>       0.49994984       0.00011417       0.49940087 </v>
    <v>       0.50230655       0.50042758       0.99831756 </v>
    <v>       0.75013086       0.24920904       0.24972539 </v>
    <v>       0.24912462       0.24894014       0.99948274 </v>
    <v>       0.25019497       0.25022384       0.50059434 </v>
    <v>       0.24852579       0.75131162       0.99989824 </v>
    <v>       0.25003350       0.75005728       0.49997975 </v>
    <v>       0.75038854       0.24929514       0.99768525 </v>
    <v>       0.75040454       0.75109606       0.99852232 </v>
    <v>       0.25039072       0.25071964       0.24974192 </v>
    <v>       0.50064272       0.00048063       0.75031602 </v>
    <v>       0.25073634       0.74954281       0.24978368 </v>
    <v>       0.24785544       0.24763471       0.75009315 </v>
    <v>       0.49994291       0.00021518       0.00054786 </v>
    <v>       0.50239015       0.50026730       0.50142313 </v>
    <v>       0.75054508       0.75052445       0.24973953 </v>
    <v>       0.24717198       0.75289554       0.75006178 </v>
    <v>       0.49982139       0.99966102       0.24973193 </v>
    <v>       0.00318443       0.99971583       0.75164415 </v>
    <v>       0.00073369       0.50007718       0.24968956 </v>
    <v>       0.99390503       0.50051160       0.75031179 </v>
    <v>       0.00009173       0.00024794       0.50053645 </v>
    <v>       0.49896808       0.49979134       0.24978213 </v>
    <v>       0.76362448       0.75846208       0.75012140 </v>
    <v>       0.99994282       0.00049738       0.99952180 </v>
    <v>       0.75928935       0.23550467       0.75003666 </v>
    <v>       0.47427126       0.49581184       0.74986427 </v>
    <v>       0.11059365       0.14165733       0.25064741 </v>
    <v>       0.10639459       0.14304441       0.74932407 </v>
    <v>       0.10962681       0.64154475       0.25000564 </v>
    <v>       0.39501395       0.34971940       0.74960958 </v>
    <v>       0.60888037       0.14051405       0.25027399 </v>
    <v>       0.60613435       0.14292909       0.74969483 </v>
    <v>       0.60941468       0.63935555       0.25033824 </v>
    <v>       0.35541822       0.61111730       0.74944639 </v>
    <v>       0.39180489       0.35930520       0.25053908 </v>
    <v>       0.39010779       0.85727606       0.74964328 </v>
    <v>       0.39125124       0.85896835       0.25030585 </v>
    <v>       0.00052651       0.50021092       0.87543712 </v>
    <v>       0.89046067       0.35984947       0.24996569 </v>
    <v>       0.88432633       0.36141190       0.74988487 </v>
    <v>       0.89099990       0.85940393       0.25081120 </v>
    <v>       0.89860681       0.85687086       0.74922707 </v>
    <v>       0.35864262       0.10955904       0.25002702 </v>
    <v>       0.35580799       0.10565032       0.75018898 </v>
    <v>       0.35937032       0.60820140       0.25055889 </v>
    <v>       0.10409899       0.64268740       0.75004199 </v>
    <v>       0.85892874       0.10978365       0.25081052 </v>
    <v>       0.85870574       0.10116960       0.74914479 </v>
    <v>       0.85986393       0.60969057       0.25027930 </v>
    <v>       0.84717210       0.60277118       0.74982193 </v>
    <v>       0.53356858       0.50518884       0.63855490 </v>
    <v>       0.13919512       0.39075675       0.74966799 </v>
    <v>       0.14127090       0.89002288       0.25071549 </v>
    <v>       0.14439263       0.89385810       0.74942965 </v>
    <v>       0.63939277       0.39066307       0.25033430 </v>
    <v>       0.53326115       0.50538493       0.86102653 </v>
    <v>       0.64047943       0.89069572       0.24997527 </v>
    <v>       0.63500078       0.88205766       0.74980310 </v>
    <v>       0.36397051       0.39127666       0.98981013 </v>
    <v>       0.85910417       0.88640167       0.99634913 </v>
    <v>       0.36170866       0.88864280       0.99935129 </v>
    <v>       0.36066850       0.88908484       0.50080337 </v>
    <v>       0.86182251       0.38910905       0.00167205 </v>
    <v>       0.86144124       0.38921580       0.49858737 </v>
    <v>       0.11186387       0.36248019       0.99986084 </v>
    <v>       0.85962337       0.88880613       0.50345712 </v>
    <v>       0.14054055       0.11387257       0.00232100 </v>
    <v>       0.14014769       0.11115787       0.49791780 </v>
    <v>       0.13980049       0.61031929       0.00087137 </v>
    <v>       0.14032443       0.60994286       0.49916231 </v>
    <v>       0.63874169       0.11039567       0.99895661 </v>
    <v>       0.64004341       0.10972382       0.50106286 </v>
    <v>       0.63969966       0.60993076       0.00446899 </v>
    <v>       0.64046700       0.60939923       0.49573683 </v>
    <v>       0.11130458       0.36116886       0.50027595 </v>
    <v>       0.11319234       0.85959737       0.00261054 </v>
    <v>       0.11064282       0.85987235       0.49753385 </v>
    <v>       0.60978066       0.36135719       0.00144069 </v>
    <v>       0.60927992       0.36045893       0.49869020 </v>
    <v>       0.60961346       0.86053236       0.00078941 </v>
    <v>       0.60947699       0.86005923       0.49939946 </v>
    <v>       0.38973532       0.13982523       0.00032135 </v>
    <v>       0.38994792       0.14013987       0.49958643 </v>
    <v>       0.39144211       0.63769768       0.99260744 </v>
    <v>       0.39187217       0.63832234       0.50754951 </v>
    <v>       0.88579573       0.14082015       0.99559749 </v>
    <v>       0.88850905       0.14032399       0.50402393 </v>
    <v>       0.88903667       0.63830550       0.99865966 </v>
    <v>       0.88960880       0.63940918       0.50131865 </v>
    <v>       0.99726704       0.00124759       0.12638055 </v>
    <v>       0.00441556       0.99924886       0.62425923 </v>
    <v>       0.00011705       0.50099885       0.12529249 </v>
    <v>       0.00053195       0.50045477       0.62447739 </v>
    <v>       0.49926402       0.00059486       0.12504998 </v>
    <v>       0.49951986       0.99971845       0.62448178 </v>
    <v>       0.49481915       0.49978215       0.12356392 </v>
    <v>       0.14128268       0.39170476       0.25033360 </v>
    <v>       0.99704551       0.00122867       0.37582501 </v>
    <v>       0.00420190       0.99943526       0.87368662 </v>
    <v>       0.00002581       0.50092442       0.37488590 </v>
    <v>       0.49939149       0.00043402       0.37508148 </v>
    <v>       0.49954408       0.99949022       0.87537842 </v>
    <v>       0.49495030       0.49985619       0.37725234 </v>
    <v>       0.36328468       0.39155354       0.51026903 </v>
    <v>       0.25386041       0.25548351       0.37600692 </v>
    <v>       0.24683881       0.24778176       0.87427839 </v>
    <v>       0.25485920       0.74715824       0.37573007 </v>
    <v>       0.24602356       0.75088813       0.87468253 </v>
    <v>       0.75002461       0.24942432       0.37570548 </v>
    <v>       0.74005351       0.26060935       0.87220609 </v>
    <v>       0.75133213       0.75143427       0.37526596 </v>
    <v>       0.73898511       0.74247117       0.87311316 </v>
    <v>       0.25420280       0.25617721       0.12465934 </v>
    <v>       0.24701320       0.24711609       0.62516537 </v>
    <v>       0.25547866       0.74693733       0.12494974 </v>
    <v>       0.24525449       0.75101058       0.62475458 </v>
    <v>       0.74957664       0.24913846       0.12492652 </v>
    <v>       0.74074428       0.26034313       0.62719813 </v>
    <v>       0.75157714       0.75111917       0.12534480 </v>
    <v>       0.73923384       0.74279497       0.62642250 </v>
   </varray>
  </structure>
  <varray name="forces" >
   <v>      -0.00185708      -0.00037841       0.00466691 </v>
   <v>      -0.00019420      -0.00089718      -0.00129148 </v>
   <v>      -0.00107268       0.00095078       0.00431335 </v>
   <v>       0.00386809      -0.00176780       0.00195182 </v>
   <v>       0.00007161      -0.00072682       0.00006862 </v>
   <v>      -0.00420550      -0.00735473       0.00421837 </v>
   <v>       0.00598030      -0.00032833       0.00129049 </v>
   <v>      -0.00765092       0.00631979       0.00633929 </v>
   <v>       0.00029144      -0.00156263       0.00215625 </v>
   <v>       0.00067833       0.00635844      -0.00439512 </v>
   <v>      -0.00483787      -0.00371986      -0.00384390 </v>
   <v>      -0.00065478       0.00285423      -0.00437553 </v>
   <v>      -0.00201838      -0.00216462       0.00201057 </v>
   <v>      -0.00206753      -0.00333954      -0.00168959 </v>
   <v>       0.00915419      -0.00357729      -0.00150190 </v>
   <v>      -0.00396314       0.00295560      -0.00458201 </v>
   <v>       0.00346984       0.00278392      -0.00084766 </v>
   <v>       0.00096800      -0.00007981       0.00138712 </v>
   <v>       0.00461205       0.00139600       0.00372180 </v>
   <v>      -0.00567885       0.00378469      -0.00441816 </v>
   <v>      -0.00341414       0.00333701       0.00288431 </v>
   <v>      -0.00274968       0.00186858       0.00796415 </v>
   <v>      -0.00516222      -0.00381288      -0.00022809 </v>
   <v>      -0.00428383      -0.00042677       0.00359570 </v>
   <v>      -0.00107864       0.00870893      -0.00026618 </v>
   <v>       0.00444762       0.00127512      -0.00575971 </v>
   <v>      -0.00217963      -0.00406424      -0.00196874 </v>
   <v>      -0.00348426       0.00371724      -0.00014146 </v>
   <v>      -0.00027774       0.00544339       0.00142328 </v>
   <v>      -0.00056443       0.00038951      -0.01066901 </v>
   <v>       0.00026628      -0.00559963      -0.00236371 </v>
   <v>      -0.00898663       0.00309522      -0.00279654 </v>
   <v>       0.00896603       0.01156604       0.01252821 </v>
   <v>       0.00384590      -0.01885392      -0.00047189 </v>
   <v>       0.00757807      -0.01781795      -0.01113378 </v>
   <v>      -0.00593476       0.01077236      -0.00426775 </v>
   <v>      -0.00787352      -0.00082070       0.00202970 </v>
   <v>       0.01283209       0.01389419       0.01247455 </v>
   <v>       0.00032272       0.00454574      -0.00665319 </v>
   <v>       0.00025811      -0.01179603       0.00477538 </v>
   <v>       0.02965279      -0.00301798      -0.00904194 </v>
   <v>      -0.00024821      -0.00937352      -0.00908084 </v>
   <v>       0.00696879      -0.00049176       0.00727139 </v>
   <v>       0.00196890      -0.01844618       0.04710389 </v>
   <v>      -0.01311044       0.00118314       0.00448406 </v>
   <v>      -0.01861116      -0.01465814      -0.00537826 </v>
   <v>       0.00614325       0.00082833       0.02272419 </v>
   <v>       0.01583400       0.00476918      -0.01406159 </v>
   <v>       0.00139934       0.00080714      -0.01132628 </v>
   <v>       0.00665711       0.01857688      -0.00357236 </v>
   <v>      -0.00058209       0.00332814       0.01235442 </v>
   <v>      -0.00944947       0.00173217       0.01162489 </v>
   <v>      -0.01430715      -0.00617573       0.00165729 </v>
   <v>       0.00601248       0.00313042      -0.00285539 </v>
   <v>       0.01091814       0.00086523      -0.02637288 </v>
   <v>      -0.02005859      -0.00046294      -0.00263953 </v>
   <v>       0.00268635      -0.00100697       0.01363111 </v>
   <v>      -0.00377250      -0.00185712       0.00276183 </v>
   <v>      -0.00269916       0.01745241       0.00438177 </v>
   <v>       0.00659120      -0.00472283      -0.01193357 </v>
   <v>       0.01668173       0.01249358       0.00442187 </v>
   <v>       0.00436067      -0.00119977       0.00004913 </v>
   <v>      -0.00148028      -0.01677036      -0.00156858 </v>
   <v>       0.00248988      -0.00124666      -0.00338044 </v>
   <v>      -0.00183489      -0.00347704      -0.00540819 </v>
   <v>      -0.00601427       0.00568745      -0.00319370 </v>
   <v>       0.00444884       0.00274208       0.00028743 </v>
   <v>       0.00294159      -0.01592089       0.00061062 </v>
   <v>       0.00647717       0.00369329       0.00140252 </v>
   <v>      -0.00611356      -0.00131587       0.00244205 </v>
   <v>      -0.00803594      -0.00450380       0.00280172 </v>
   <v>      -0.00403371       0.00320682       0.00528255 </v>
   <v>       0.00606010       0.00856055       0.00161639 </v>
   <v>       0.00191411       0.00087837      -0.00241461 </v>
   <v>      -0.00284173      -0.00965172       0.00105014 </v>
   <v>       0.00251535      -0.00062490       0.00163739 </v>
   <v>      -0.00159178       0.00209595      -0.00119039 </v>
   <v>      -0.00298205       0.00193633      -0.00083054 </v>
   <v>       0.00045613       0.00129215       0.00052480 </v>
   <v>       0.00278174      -0.00278734      -0.00148886 </v>
   <v>      -0.00056224      -0.00318087      -0.00104170 </v>
   <v>       0.00360310      -0.00313348      -0.00163067 </v>
   <v>       0.00322856       0.00011490       0.00201691 </v>
   <v>      -0.00647497      -0.00500515       0.00305257 </v>
   <v>       0.00299151       0.00263567       0.00133435 </v>
   <v>      -0.00318639       0.00264187       0.00363363 </v>
   <v>       0.00249176       0.00484217       0.00004541 </v>
   <v>      -0.00238139      -0.01167740       0.00199870 </v>
   <v>      -0.00515461       0.00120738       0.00626318 </v>
   <v>       0.00036937       0.00626885      -0.00092387 </v>
   <v>      -0.00048123      -0.00467669      -0.00096227 </v>
   <v>      -0.00041084       0.01045165      -0.00062624 </v>
   <v>      -0.00060846       0.00951668       0.00289778 </v>
   <v>      -0.00410957       0.00160410      -0.00023282 </v>
   <v>       0.00545927      -0.00575451       0.00049656 </v>
   <v>      -0.00663443      -0.00302740      -0.00164847 </v>
   <v>      -0.00091670      -0.00473488       0.00619060 </v>
   <v>       0.01357881       0.00321285       0.00341911 </v>
   <v>      -0.00030937      -0.01036680      -0.00171183 </v>
   <v>      -0.00548880      -0.01333524      -0.01017630 </v>
   <v>       0.00408381       0.00327852      -0.00416672 </v>
   <v>       0.00807278       0.00971089       0.00416284 </v>
   <v>       0.00286657       0.00160757       0.00230782 </v>
   <v>      -0.00455137      -0.00928006      -0.00511734 </v>
   <v>      -0.01049177       0.00115459       0.01030648 </v>
   <v>      -0.00353587      -0.00303184      -0.00562483 </v>
   <v>      -0.00656624       0.00785457       0.00337449 </v>
   <v>      -0.00232654       0.00888116      -0.00858131 </v>
   <v>       0.00271833       0.00392297      -0.00018980 </v>
   <v>      -0.00296047      -0.00001022      -0.00160016 </v>
   <v>      -0.00542767       0.00574090      -0.00143358 </v>
   <v>      -0.00036050      -0.00003465       0.00273712 </v>
   <v>      -0.00708717       0.00991252      -0.00365131 </v>
   <v>       0.00014270       0.00392610       0.00312381 </v>
   <v>       0.00541152      -0.00692913      -0.01147497 </v>
   <v>       0.00359467       0.00193602       0.00257612 </v>
   <v>      -0.00140040       0.01088788       0.00414278 </v>
   <v>       0.00985935       0.00603741      -0.00046418 </v>
   <v>       0.00420120      -0.00389577      -0.00022487 </v>
   <v>      -0.00501126       0.00204884      -0.00375404 </v>
   <v>      -0.00259578      -0.00323853       0.00076317 </v>
   <v>      -0.00047075      -0.00575076       0.00467734 </v>
   <v>      -0.00226590      -0.00110264      -0.00882998 </v>
   <v>      -0.00345419      -0.00705709      -0.00221390 </v>
   <v>      -0.01065586      -0.00167768      -0.00144173 </v>
   <v>       0.00078055      -0.00260130       0.00731413 </v>
   <v>      -0.00443193      -0.00232657      -0.00653379 </v>
   <v>      -0.00895740       0.00019403      -0.01868175 </v>
   <v>       0.00907364      -0.00484688      -0.00016709 </v>
   <v>       0.00422294       0.00292874      -0.00512353 </v>
   <v>      -0.00096737       0.00337916      -0.00532844 </v>
   <v>       0.00424174      -0.00013819      -0.00063220 </v>
   <v>       0.00323835       0.00216390       0.00131522 </v>
   <v>       0.00214930      -0.00257161       0.00380790 </v>
   <v>       0.00050642      -0.00075982      -0.00540903 </v>
   <v>      -0.00112272      -0.00193385      -0.01182317 </v>
   <v>       0.00617623      -0.00076252       0.00852255 </v>
   <v>       0.00304506       0.00191575       0.00453979 </v>
   <v>      -0.00218400      -0.00381522       0.00588980 </v>
   <v>       0.00507899       0.00113887      -0.00098883 </v>
   <v>       0.00606755      -0.00235726       0.00667091 </v>
   <v>       0.00300523      -0.00081549      -0.00898018 </v>
   <v>       0.00400082       0.00181873       0.00256545 </v>
   <v>      -0.00291003      -0.00433556       0.01147386 </v>
   <v>      -0.00388734       0.00410800      -0.00663292 </v>
   <v>      -0.00517632       0.00550734       0.01005548 </v>
   <v>      -0.00383167       0.00450103      -0.00126277 </v>
   <v>       0.00289575       0.01023605       0.00445123 </v>
   <v>      -0.00015006      -0.00347348       0.00405271 </v>
   <v>       0.00022214       0.00020559       0.00779853 </v>
   <v>       0.00400208      -0.00442330      -0.00995027 </v>
   <v>      -0.00451994      -0.00540520      -0.00249448 </v>
   <v>      -0.00140113       0.00320170       0.00553028 </v>
   <v>      -0.00249156       0.00196726      -0.01546632 </v>
   <v>      -0.00103540      -0.00194257      -0.00257639 </v>
   <v>      -0.00122751       0.00542682       0.00160395 </v>
   <v>       0.00294813      -0.00107760      -0.00572652 </v>
   <v>       0.00023396      -0.00207755      -0.01012999 </v>
  </varray>
  <varray name="stress" >
   <v>       0.29865490       0.00778907      -0.01548698 </v>
   <v>       0.00778894       0.17296898      -0.00039972 </v>
   <v>      -0.01548688      -0.00039964       0.14420865 </v>
  </varray>
  <energy>
   <i name="e_fr_energy">  -1153.43973221 </i>
   <i name="e_wo_entrp">  -1153.43973221 </i>
   <i name="e_0_energy">     -0.00000000 </i>
  </energy>
  <time name="totalsc"> 1001.65 1004.36</time>
 </calculation>
 <calculation>
  <scstep>
   <time name="dav">  294.10  294.12</time>
   <time name="total">  297.80  297.89</time>
   <energy>
    <i name="alphaZ">   5636.58146486 </i>
    <i name="ewald"> -61206.53020880 </i>
    <i name="hartreedc"> -15292.94348423 </i>
    <i name="XCdc">   2852.48991116 </i>
    <i name="pawpsdc"> 112107.53574630 </i>
    <i name="pawaedc">-110856.05236028 </i>
    <i name="eentropy">     -0.00000000 </i>
    <i name="bandstr">  -7044.60485254 </i>
    <i name="atom">  72650.08363186 </i>
    <i name="e_fr_energy">  -1153.44015166 </i>
    <i name="e_wo_entrp">  -1153.44015166 </i>
    <i name="e_0_energy">  -1153.44015166 </i>
   </energy>
  </scstep>
  <scstep>
   <time name="diag">   33.32   33.33</time>
   <time name="diis">   51.87   51.89</time>
   <time name="orth">   18.82   18.82</time>
   <time name="total">  107.74  107.82</time>
   <energy>
    <i name="e_fr_energy">  -1153.44011095 </i>
    <i name="e_wo_entrp">  -1153.44011095 </i>
    <i name="e_0_energy">  -1153.44011095 </i>
   </energy>
  </scstep>
  <scstep>
   <time name="diag">   33.31   33.32</time>
   <time name="diis">   37.09   37.10</time>
   <time name="orth">   18.83   18.83</time>
   <time name="total">   92.97   93.22</time>
   <energy>
    <i name="e_fr_energy">  -1153.43999080 </i>
    <i name="e_wo_entrp">  -1153.43999080 </i>
    <i name="e_0_energy">  -1153.43999080 </i>
   </energy>
  </scstep>
  <scstep>
   <time name="diag">   33.27   33.29</time>
   <time name="diis">   33.24   33.24</time>
   <time name="orth">   18.82   18.82</time>
   <time name="total">   89.06   89.19</time>
   <energy>
    <i name="e_fr_energy">  -1153.43992883 </i>
    <i name="e_wo_entrp">  -1153.43992883 </i>
    <i name="e_0_energy">  -1153.43992883 </i>
   </energy>
  </scstep>
  <scstep>
   <time name="diag">   33.32   33.33</time>
   <time name="diis">   31.56   31.57</time>
   <time name="orth">   18.85   18.85</time>
   <time name="total">   87.44   87.54</time>
   <energy>
    <i name="e_fr_energy">  -1153.43991920 </i>
    <i name="e_wo_entrp">  -1153.43991920 </i>
    <i name="e_0_energy">  -1153.43991920 </i>
   </energy>
  </scstep>
  <scstep>
   <time name="diag">   33.31   33.31</time>
   <time name="diis">   31.39   31.41</time>
   <time name="orth">   18.86   18.86</time>
   <time name="total">   87.27   87.37</time>
   <energy>
    <i name="e_fr_energy">  -1153.43991444 </i>
    <i name="e_wo_entrp">  -1153.43991444 </i>
    <i name="e_0_energy">  -1153.43991444 </i>
   </energy>
  </scstep>
  <scstep>
   <time name="diag">   33.26   33.27</time>
   <time name="diis">   30.27   30.27</time>
   <time name="orth">   18.81   18.81</time>
   <time name="total">   86.05   86.35</time>
   <energy>
    <i name="e_fr_energy">  -1153.43991189 </i>
    <i name="e_wo_entrp">  -1153.43991189 </i>
    <i name="e_0_energy">  -1153.43991189 </i>
   </energy>
  </scstep>
  <scstep>
   <time name="diag">   33.30   33.31</time>
   <time name="diis">   29.22   29.23</time>
   <time name="orth">   18.77   18.77</time>
   <time name="total">   81.87   81.92</time>
   <energy>
    <i name="alphaZ">   5636.58146486 </i>
    <i name="ewald"> -61206.53020880 </i>
    <i name="hartreedc"> -15296.22326743 </i>
    <i name="XCdc">   2852.71186354 </i>
    <i name="pawpsdc"> 112057.40967208 </i>
    <i name="pawaedc">-110805.87909526 </i>
    <i name="eentropy">     -0.00000000 </i>
    <i name="bandstr">  -7041.59397102 </i>
    <i name="atom">  72650.08363186 </i>
    <i name="e_fr_energy">  -1153.43991015 </i>
    <i name="e_wo_entrp">  -1153.43991015 </i>
    <i name="e_0_energy">  -1153.43991015 </i>
   </energy>
  </scstep>
  <structure>
   <crystal>
    <varray name="basis" >
     <v>      11.21973517      -0.00222373       0.00008187 </v>
     <v>      -0.00223149      11.21677502       0.00024435 </v>
     <v>       0.00011540       0.00034879      15.92461616 </v>
    </varray>
    <i name="volume">   2004.10084396 </i>
    <varray name="rec_basis" >
     <v>       0.08912867       0.00001773      -0.00000065 </v>
     <v>       0.00001767       0.08915219      -0.00000195 </v>
     <v>      -0.00000046      -0.00000137       0.06279586 </v>
    </varray>
   </crystal>
   <varray name="positions" >
    <v>       0.99860481       0.24744189       0.12269275 </v>
    <v>       0.99999508       0.25120755       0.62572731 </v>
    <v>       0.99887011       0.75208458       0.12413212 </v>
    <v>       0.00181165       0.75169276       0.62334263 </v>
    <v>       0.50126764       0.24997552       0.12506167 </v>
    <v>       0.49966979       0.24595429       0.62234062 </v>
    <v>       0.50069644       0.74873019       0.12395694 </v>
    <v>       0.49936617       0.75646923       0.62292580 </v>
    <v>       0.99840639       0.24906859       0.37538555 </v>
    <v>       0.00052504       0.24922515       0.87589762 </v>
    <v>       0.99915956       0.75042325       0.37429149 </v>
    <v>       0.00159665       0.75369861       0.87822176 </v>
    <v>       0.50119552       0.24975190       0.37408465 </v>
    <v>       0.49962095       0.24661905       0.87808311 </v>
    <v>       0.50062209       0.74892477       0.37512077 </v>
    <v>       0.49914252       0.75636934       0.87785981 </v>
    <v>       0.24788571       0.99972937       0.12373103 </v>
    <v>       0.24979248       0.00078898       0.62448217 </v>
    <v>       0.25136477       0.49923252       0.12382801 </v>
    <v>       0.23980574       0.50195420       0.62429926 </v>
    <v>       0.75208582       0.99976885       0.12306292 </v>
    <v>       0.74831061       0.99751885       0.62505980 </v>
    <v>       0.75021564       0.49950322       0.12578726 </v>
    <v>       0.75897829       0.50203502       0.61821945 </v>
    <v>       0.24960351       0.99996035       0.37466085 </v>
    <v>       0.24813028       0.00058218       0.87730877 </v>
    <v>       0.25124560       0.49904380       0.37533359 </v>
    <v>       0.24007967       0.50191884       0.87647704 </v>
    <v>       0.75059132       0.99942857       0.37508079 </v>
    <v>       0.75034749       0.99820408       0.87659403 </v>
    <v>       0.75038297       0.49947738       0.37337875 </v>
    <v>       0.75858484       0.50221235       0.88245691 </v>
    <v>       0.99941910       0.00020530       0.24854603 </v>
    <v>       0.00036892       0.50002772       0.49876703 </v>
    <v>       0.74928561       0.25009693       0.50193912 </v>
    <v>       0.74934816       0.74981509       0.50113322 </v>
    <v>       0.00030625       0.50009552       0.00120615 </v>
    <v>       0.50000503       0.00017395       0.49943867 </v>
    <v>       0.50230794       0.50044713       0.99829740 </v>
    <v>       0.75013196       0.24915830       0.24973986 </v>
    <v>       0.24925213       0.24892718       0.99945535 </v>
    <v>       0.25019390       0.25018352       0.50056683 </v>
    <v>       0.24855576       0.75130951       0.99992027 </v>
    <v>       0.25004195       0.74997794       0.50012245 </v>
    <v>       0.75033216       0.24930022       0.99769883 </v>
    <v>       0.75032449       0.75103299       0.99850603 </v>
    <v>       0.25041714       0.25072321       0.24981077 </v>
    <v>       0.50071081       0.00050116       0.75027342 </v>
    <v>       0.25074236       0.74954629       0.24974937 </v>
    <v>       0.24788408       0.24771462       0.75008232 </v>
    <v>       0.49994041       0.00022949       0.00058529 </v>
    <v>       0.50234951       0.50027474       0.50145835 </v>
    <v>       0.75048355       0.75049787       0.24974456 </v>
    <v>       0.24719784       0.75290901       0.75005313 </v>
    <v>       0.49986835       0.99966475       0.24965203 </v>
    <v>       0.00309817       0.99971382       0.75163616 </v>
    <v>       0.00074524       0.50007285       0.24973085 </v>
    <v>       0.99388881       0.50050361       0.75032016 </v>
    <v>       0.00008014       0.00032300       0.50054973 </v>
    <v>       0.49899642       0.49977103       0.24974598 </v>
    <v>       0.76369623       0.75851583       0.75013480 </v>
    <v>       0.99996157       0.00049223       0.99952195 </v>
    <v>       0.75928297       0.23543254       0.75003191 </v>
    <v>       0.47428196       0.49580648       0.74985403 </v>
    <v>       0.11058576       0.14164238       0.25063102 </v>
    <v>       0.10636873       0.14306887       0.74931439 </v>
    <v>       0.10964594       0.64155655       0.25000651 </v>
    <v>       0.39502658       0.34965092       0.74961143 </v>
    <v>       0.60890822       0.14052994       0.25027824 </v>
    <v>       0.60610806       0.14292343       0.74970223 </v>
    <v>       0.60938012       0.63933617       0.25034673 </v>
    <v>       0.35540088       0.61113109       0.74946240 </v>
    <v>       0.39183096       0.35934203       0.25054398 </v>
    <v>       0.39011603       0.85727984       0.74963597 </v>
    <v>       0.39123901       0.85892684       0.25030903 </v>
    <v>       0.00053732       0.50020823       0.87544208 </v>
    <v>       0.89045382       0.35985849       0.24996208 </v>
    <v>       0.88431351       0.36142023       0.74988236 </v>
    <v>       0.89100186       0.85940949       0.25081279 </v>
    <v>       0.89861877       0.85685887       0.74922256 </v>
    <v>       0.35864020       0.10954535       0.25002387 </v>
    <v>       0.35582348       0.10563684       0.75018404 </v>
    <v>       0.35938420       0.60820190       0.25056500 </v>
    <v>       0.10407114       0.64266587       0.75005124 </v>
    <v>       0.85894161       0.10979499       0.25081456 </v>
    <v>       0.85869204       0.10118096       0.74915580 </v>
    <v>       0.85987465       0.60971140       0.25027944 </v>
    <v>       0.84716185       0.60272096       0.74982798 </v>
    <v>       0.53354642       0.50519403       0.63857388 </v>
    <v>       0.13919671       0.39078371       0.74966519 </v>
    <v>       0.14126882       0.89000276       0.25071257 </v>
    <v>       0.14439088       0.89390306       0.74942776 </v>
    <v>       0.63939016       0.39070400       0.25034308 </v>
    <v>       0.53324348       0.50539183       0.86102583 </v>
    <v>       0.64050290       0.89067098       0.24997678 </v>
    <v>       0.63497225       0.88204463       0.74979811 </v>
    <v>       0.36396656       0.39125629       0.98982888 </v>
    <v>       0.85916257       0.88641550       0.99635949 </v>
    <v>       0.36170732       0.88859821       0.99934610 </v>
    <v>       0.36064489       0.88902748       0.50077254 </v>
    <v>       0.86184008       0.38912315       0.00165943 </v>
    <v>       0.86147596       0.38925757       0.49859998 </v>
    <v>       0.11187620       0.36248710       0.99986783 </v>
    <v>       0.85960379       0.88876622       0.50344161 </v>
    <v>       0.14049544       0.11387753       0.00235223 </v>
    <v>       0.14013249       0.11114482       0.49790076 </v>
    <v>       0.13977226       0.61035307       0.00088159 </v>
    <v>       0.14031444       0.60998105       0.49913631 </v>
    <v>       0.63875338       0.11041255       0.99895603 </v>
    <v>       0.64003068       0.10972377       0.50105802 </v>
    <v>       0.63967632       0.60995545       0.00446465 </v>
    <v>       0.64046544       0.60939908       0.49574512 </v>
    <v>       0.11127411       0.36121149       0.50026489 </v>
    <v>       0.11319296       0.85961426       0.00262000 </v>
    <v>       0.11066608       0.85984255       0.49749909 </v>
    <v>       0.60979612       0.36136552       0.00144850 </v>
    <v>       0.60927391       0.36050576       0.49870275 </v>
    <v>       0.60965586       0.86055833       0.00078801 </v>
    <v>       0.60949506       0.86004248       0.49939878 </v>
    <v>       0.38971378       0.13983404       0.00030998 </v>
    <v>       0.38993676       0.14012594       0.49958874 </v>
    <v>       0.39144008       0.63767295       0.99262161 </v>
    <v>       0.39186243       0.63831760       0.50752275 </v>
    <v>       0.88578087       0.14078980       0.99559078 </v>
    <v>       0.88846322       0.14031676       0.50401956 </v>
    <v>       0.88904002       0.63829431       0.99868182 </v>
    <v>       0.88958974       0.63939917       0.50129885 </v>
    <v>       0.99722852       0.00124842       0.12632395 </v>
    <v>       0.00445458       0.99922802       0.62425872 </v>
    <v>       0.00013521       0.50101145       0.12527697 </v>
    <v>       0.00052779       0.50046930       0.62446124 </v>
    <v>       0.49928226       0.00059427       0.12504807 </v>
    <v>       0.49953378       0.99972776       0.62448576 </v>
    <v>       0.49482839       0.49977109       0.12357546 </v>
    <v>       0.14128485       0.39170149       0.25031721 </v>
    <v>       0.99704068       0.00122035       0.37578919 </v>
    <v>       0.00422845       0.99943199       0.87371244 </v>
    <v>       0.00003891       0.50093266       0.37489965 </v>
    <v>       0.49938209       0.00041760       0.37509933 </v>
    <v>       0.49956592       0.99949512       0.87537543 </v>
    <v>       0.49497638       0.49984606       0.37727255 </v>
    <v>       0.36329760       0.39155003       0.51024182 </v>
    <v>       0.25387761       0.25549133       0.37601470 </v>
    <v>       0.24682629       0.24776311       0.87431315 </v>
    <v>       0.25484249       0.74717591       0.37570998 </v>
    <v>       0.24600130       0.75091181       0.87471299 </v>
    <v>       0.75000814       0.24944368       0.37570166 </v>
    <v>       0.74006597       0.26065338       0.87221957 </v>
    <v>       0.75133148       0.75141933       0.37527824 </v>
    <v>       0.73898606       0.74247205       0.87313679 </v>
    <v>       0.25422001       0.25615819       0.12462919 </v>
    <v>       0.24699376       0.24709284       0.62515781 </v>
    <v>       0.25547263       0.74695110       0.12496649 </v>
    <v>       0.24524378       0.75101904       0.62470772 </v>
    <v>       0.74957218       0.24913011       0.12491872 </v>
    <v>       0.74073901       0.26036647       0.62720299 </v>
    <v>       0.75158981       0.75111454       0.12532746 </v>
    <v>       0.73923484       0.74278603       0.62639181 </v>
   </varray>
  </structure>
  <varray name="forces" >
   <v>       0.00335570      -0.00197470      -0.00457448 </v>
   <v>       0.00104069       0.00318864       0.00415022 </v>
   <v>      -0.00382295       0.00217999       0.00264510 </v>
   <v>      -0.00058333      -0.00555043      -0.00702543 </v>
   <v>      -0.00301099       0.00375907       0.00139145 </v>
   <v>      -0.00325667      -0.00333563       0.00204116 </v>
   <v>       0.00411291      -0.00364626       0.00435950 </v>
   <v>      -0.00139191       0.00222659      -0.00116440 </v>
   <v>       0.00002242       0.00217432      -0.00297368 </v>
   <v>       0.00250197       0.00510621       0.00486818 </v>
   <v>       0.00106278      -0.00405786      -0.00139492 </v>
   <v>       0.00392013       0.00222899       0.00630548 </v>
   <v>       0.00012998       0.00192746       0.00258246 </v>
   <v>      -0.00048007      -0.00585437      -0.00061956 </v>
   <v>      -0.00171330      -0.00270617      -0.00143560 </v>
   <v>      -0.00591419       0.00615693      -0.00253744 </v>
   <v>      -0.00666441       0.00233843      -0.00086555 </v>
   <v>      -0.00122361      -0.00067333       0.00216261 </v>
   <v>      -0.00164854      -0.00044679       0.00290642 </v>
   <v>      -0.00910444       0.00077573      -0.00557625 </v>
   <v>       0.01082097      -0.00150712      -0.00185719 </v>
   <v>       0.00083816      -0.00487909      -0.00048767 </v>
   <v>       0.00173334      -0.00325973       0.00097576 </v>
   <v>      -0.00171831       0.00111529      -0.00266694 </v>
   <v>       0.00346538      -0.01092752       0.00027807 </v>
   <v>      -0.00214395       0.00190195      -0.00185224 </v>
   <v>       0.00333413       0.00933437      -0.00301528 </v>
   <v>      -0.00949821       0.00439940       0.00656851 </v>
   <v>      -0.00088885      -0.00335367      -0.00334020 </v>
   <v>       0.00249867      -0.00143264       0.00465991 </v>
   <v>      -0.00152475      -0.00125781       0.00324610 </v>
   <v>      -0.00244606      -0.00192041      -0.00041205 </v>
   <v>       0.00478969      -0.01024159      -0.02023096 </v>
   <v>      -0.00220986       0.01472757       0.00217811 </v>
   <v>      -0.00391316       0.02227964       0.00412350 </v>
   <v>       0.00873913      -0.01704270      -0.00290575 </v>
   <v>       0.00649139      -0.01016275       0.00272106 </v>
   <v>      -0.01743544      -0.02130391      -0.02666681 </v>
   <v>      -0.00613060      -0.00269802       0.00303311 </v>
   <v>       0.00240926       0.00948312      -0.00854632 </v>
   <v>      -0.03134174       0.01032577       0.01189422 </v>
   <v>       0.00487253       0.00173863       0.00884603 </v>
   <v>      -0.02167491       0.00083001       0.00289641 </v>
   <v>      -0.02493724       0.04381531      -0.05737569 </v>
   <v>       0.02044057       0.00570775       0.00019300 </v>
   <v>       0.02127043       0.01310646       0.01143148 </v>
   <v>      -0.00623691      -0.00475272      -0.02782822 </v>
   <v>      -0.00860364      -0.00698393       0.01724937 </v>
   <v>       0.00117851      -0.00147722       0.02813881 </v>
   <v>      -0.00154366      -0.00564021       0.00449656 </v>
   <v>      -0.00052997      -0.01051684      -0.02369892 </v>
   <v>       0.00979937       0.00061604      -0.00749813 </v>
   <v>       0.01628743       0.00739533       0.00059999 </v>
   <v>      -0.00488073       0.01037708       0.01722927 </v>
   <v>      -0.00404560      -0.01541723       0.03279602 </v>
   <v>       0.01325710       0.00090843       0.02429502 </v>
   <v>       0.00254797       0.01061021      -0.02122326 </v>
   <v>      -0.00707052      -0.00213777       0.00595822 </v>
[...]
       <r>   -15.7653     0.0000    32.0000 </r>
       <r>   -15.6136     0.0000    32.0000 </r>
       <r>   -15.4618     0.0000    32.0000 </r>
       <r>   -15.3101     0.0000    32.0000 </r>
       <r>   -15.1584     0.3957    32.0600 </r>
       <r>   -15.0066    22.9055    35.5357 </r>
       <r>   -14.8549    55.9607    44.0272 </r>
       <r>   -14.7031    48.4480    51.3788 </r>
       <r>   -14.5514    29.1711    55.8052 </r>
       <r>   -14.3997    30.8984    60.4938 </r>
       <r>   -14.2479    35.5427    65.8870 </r>
       <r>   -14.0962   109.4595    82.4965 </r>
       <r>   -13.9444   149.0399   105.1119 </r>
       <r>   -13.7927   111.1100   121.9717 </r>
       <r>   -13.6410    23.1968   125.4916 </r>
       <r>   -13.4892     3.3503   126.0000 </r>
       <r>   -13.3375     0.0000   126.0000 </r>
       <r>   -13.1857     0.0000   126.0000 </r>
       <r>   -13.0340     0.0000   126.0000 </r>
       <r>   -12.8823     0.0000   126.0000 </r>
       <r>   -12.7305     0.0100   126.0015 </r>
       <r>   -12.5788    16.9797   128.5780 </r>
       <r>   -12.4270   108.9629   145.1121 </r>
       <r>   -12.2753   178.8639   172.2530 </r>
       <r>   -12.1236   143.7882   194.0715 </r>
       <r>   -11.9718   126.7096   213.2985 </r>
       <r>   -11.8201    52.1484   221.2115 </r>
       <r>   -11.6683     5.1960   222.0000 </r>
       <r>   -11.5166     0.0002   222.0000 </r>
       <r>   -11.3648     0.0000   222.0000 </r>
       <r>   -11.2131     0.0000   222.0000 </r>
       <r>   -11.0614     0.0000   222.0000 </r>
       <r>   -10.9096     0.0000   222.0000 </r>
       <r>   -10.7579     0.0000   222.0000 </r>
       <r>   -10.6061     0.0000   222.0000 </r>
       <r>   -10.4544     0.0000   222.0000 </r>
       <r>   -10.3027     0.0000   222.0000 </r>
       <r>   -10.1509     0.0000   222.0000 </r>
       <r>    -9.9992     0.0000   222.0000 </r>
       <r>    -9.8474     0.0000   222.0000 </r>
       <r>    -9.6957     0.0000   222.0000 </r>
       <r>    -9.5440     0.0000   222.0000 </r>
       <r>    -9.3922     0.0000   222.0000 </r>
       <r>    -9.2405     0.0000   222.0000 </r>
       <r>    -9.0887     0.0000   222.0000 </r>
       <r>    -8.9370     0.0000   222.0000 </r>
       <r>    -8.7853     0.0000   222.0000 </r>
       <r>    -8.6335     0.0000   222.0000 </r>
       <r>    -8.4818     0.0000   222.0000 </r>
       <r>    -8.3300     0.0000   222.0000 </r>
       <r>    -8.1783     0.0000   222.0000 </r>
       <r>    -8.0266     0.0000   222.0000 </r>
       <r>    -7.8748     0.0000   222.0000 </r>
       <r>    -7.7231     0.0000   222.0000 </r>
       <r>    -7.5713     0.0000   222.0000 </r>
       <r>    -7.4196     0.0000   222.0000 </r>
       <r>    -7.2679     0.0000   222.0000 </r>
       <r>    -7.1161     0.0000   222.0000 </r>
       <r>    -6.9644     0.0000   222.0000 </r>
       <r>    -6.8126     0.0000   222.0000 </r>
       <r>    -6.6609     0.0000   222.0000 </r>
       <r>    -6.5092     0.0000   222.0000 </r>
       <r>    -6.3574     0.0000   222.0000 </r>
       <r>    -6.2057     0.0000   222.0000 </r>
       <r>    -6.0539     0.0000   222.0000 </r>
       <r>    -5.9022     0.0000   222.0000 </r>
       <r>    -5.7504     0.0000   222.0000 </r>
       <r>    -5.5987     0.0000   222.0000 </r>
       <r>    -5.4470     0.0000   222.0000 </r>
       <r>    -5.2952     0.0000   222.0000 </r>
       <r>    -5.1435     0.0000   222.0000 </r>
       <r>    -4.9917     0.0000   222.0000 </r>
       <r>    -4.8400     0.0000   222.0000 </r>
       <r>    -4.6883     0.0000   222.0000 </r>
       <r>    -4.5365     0.0000   222.0000 </r>
       <r>    -4.3848     0.0000   222.0000 </r>
       <r>    -4.2330     0.0000   222.0000 </r>
       <r>    -4.0813     0.0000   222.0000 </r>
       <r>    -3.9296     0.0000   222.0000 </r>
       <r>    -3.7778     0.0000   222.0000 </r>
       <r>    -3.6261     0.0000   222.0000 </r>
       <r>    -3.4743     0.0000   222.0000 </r>
       <r>    -3.3226     0.0000   222.0000 </r>
       <r>    -3.1709     0.0000   222.0000 </r>
       <r>    -3.0191     0.0000   222.0000 </r>
       <r>    -2.8674     0.0000   222.0000 </r>
       <r>    -2.7156     0.0000   222.0000 </r>
       <r>    -2.5639     0.0000   222.0000 </r>
       <r>    -2.4122     0.0000   222.0000 </r>
       <r>    -2.2604     2.2744   222.3451 </r>
       <r>    -2.1087    15.9214   224.7610 </r>
       <r>    -1.9569    40.0375   230.8364 </r>
       <r>    -1.8052    43.6748   237.4636 </r>
       <r>    -1.6535    61.2958   246.7646 </r>
       <r>    -1.5017    55.8163   255.2342 </r>
       <r>    -1.3500    58.1548   264.0587 </r>
       <r>    -1.1982    70.3083   274.7273 </r>
       <r>    -1.0465    69.3806   285.2551 </r>
       <r>    -0.8948    78.2721   297.1322 </r>
       <r>    -0.7430    72.3880   308.1164 </r>
       <r>    -0.5913   111.3380   325.0109 </r>
       <r>    -0.4395   127.9107   344.4201 </r>
       <r>    -0.2878    72.9976   355.4968 </r>
       <r>    -0.1360    45.2990   362.3705 </r>
       <r>     0.0157    53.5559   370.4971 </r>
       <r>     0.1674    41.0377   376.7242 </r>
       <r>     0.3192    42.8719   383.2296 </r>
       <r>     0.4709    58.4287   392.0956 </r>
       <r>     0.6227    60.2730   401.2414 </r>
       <r>     0.7744    38.5111   407.0851 </r>
       <r>     0.9261    48.0803   414.3809 </r>
       <r>     1.0779    57.3905   423.0893 </r>
       <r>     1.2296    91.4325   436.9634 </r>
       <r>     1.3814    90.8420   450.7478 </r>
       <r>     1.5331   107.3812   467.0419 </r>
       <r>     1.6848    75.6042   478.5141 </r>
       <r>     1.8366    71.2804   489.3302 </r>
       <r>     1.9883    47.3881   496.5209 </r>
       <r>     2.1401    35.6709   501.9336 </r>
       <r>     2.2918    13.5392   503.9881 </r>
       <r>     2.4435     0.0787   504.0000 </r>
       <r>     2.5953     0.0000   504.0000 </r>
       <r>     2.7470     0.0000   504.0000 </r>
       <r>     2.8988     0.0000   504.0000 </r>
       <r>     3.0505     0.0000   504.0000 </r>
       <r>     3.2022     0.0000   504.0000 </r>
       <r>     3.3540     0.0000   504.0000 </r>
       <r>     3.5057     0.0000   504.0000 </r>
       <r>     3.6575     0.0000   504.0000 </r>
       <r>     3.8092     0.0000   504.0000 </r>
       <r>     3.9609     0.0000   504.0000 </r>
       <r>     4.1127     0.0000   504.0000 </r>
       <r>     4.2644     0.0000   504.0000 </r>
       <r>     4.4162     0.2743   504.0416 </r>
       <r>     4.5679    17.0868   506.6344 </r>
       <r>     4.7196    31.4538   511.4072 </r>
       <r>     4.8714    35.9704   516.8654 </r>
       <r>     5.0231    27.0567   520.9710 </r>
       <r>     5.1749    35.2874   526.3255 </r>
       <r>     5.3266    50.4963   533.9878 </r>
       <r>     5.4784    69.6608   544.5582 </r>
       <r>     5.6301    45.8613   551.5172 </r>
       <r>     5.7818    78.2541   563.3915 </r>
       <r>     5.9336   102.7835   578.9880 </r>
       <r>     6.0853    90.0013   592.6448 </r>
       <r>     6.2371    66.6423   602.7571 </r>
       <r>     6.3888    49.2315   610.2275 </r>
       <r>     6.5405    37.5501   615.9254 </r>
       <r>     6.6923    24.7704   619.6841 </r>
       <r>     6.8440    22.9745   623.1702 </r>
       <r>     6.9958    22.8405   626.6361 </r>
       <r>     7.1475    19.3557   629.5731 </r>
       <r>     7.2992    18.2576   632.3435 </r>
       <r>     7.4510    16.3041   634.8175 </r>
       <r>     7.6027    11.3990   636.5472 </r>
       <r>     7.7545    11.1316   638.2363 </r>
       <r>     7.9062    18.9334   641.1093 </r>
       <r>     8.0579    30.4364   645.7277 </r>
       <r>     8.2097    20.4485   648.8306 </r>
       <r>     8.3614    27.9883   653.0776 </r>
       <r>     8.5132    24.0390   656.7253 </r>
       <r>     8.6649    18.9980   659.6080 </r>
       <r>     8.8166    24.2898   663.2938 </r>
       <r>     8.9684    29.4343   667.7601 </r>
       <r>     9.1201    34.1926   672.9485 </r>
       <r>     9.2719    41.9530   679.3145 </r>
       <r>     9.4236    37.3176   684.9771 </r>
       <r>     9.5753    43.5852   691.5908 </r>
       <r>     9.7271    40.3634   697.7155 </r>
       <r>     9.8788    56.3497   706.2661 </r>
       <r>    10.0306    71.2836   717.0827 </r>
       <r>    10.1823    72.0746   728.0193 </r>
       <r>    10.3340    76.3017   739.5974 </r>
       <r>    10.4858    54.2212   747.8249 </r>
       <r>    10.6375    55.9034   756.3077 </r>
       <r>    10.7893    54.8063   764.6241 </r>
       <r>    10.9410    22.2260   767.9967 </r>
       <r>    11.0927     0.0220   768.0000 </r>
       <r>    11.2445     0.0000   768.0000 </r>
       <r>    11.3962     0.0000   768.0000 </r>
       <r>    11.5480     0.0000   768.0000 </r>
       <r>    11.6997     0.0000   768.0000 </r>
       <r>    11.8515     0.0000   768.0000 </r>
       <r>    12.0032     0.0000   768.0000 </r>
       <r>    12.1549     0.0000   768.0000 </r>
       <r>    12.3067     0.0000   768.0000 </r>
       <r>    12.4584     0.0000   768.0000 </r>
       <r>    12.6102     0.0000   768.0000 </r>
       <r>    12.7619     0.0000   768.0000 </r>
       <r>    12.9136     0.0000   768.0000 </r>
      </set>
     </set>
    </array>
   </total>
  </dos>
 </calculation>
 <structure name="finalpos" >
  <crystal>
   <varray name="basis" >
    <v>      11.22006413      -0.00193040       0.00006518 </v>
    <v>      -0.00193836      11.21646569       0.00028601 </v>
    <v>       0.00009174       0.00040795      15.92298150 </v>
   </varray>
   <i name="volume">   2003.89863087 </i>
   <varray name="rec_basis" >
    <v>       0.08912605       0.00001540      -0.00000051 </v>
    <v>       0.00001534       0.08915465      -0.00000228 </v>
    <v>      -0.00000037      -0.00000160       0.06280231 </v>
   </varray>
  </crystal>
  <varray name="positions" >
   <v>       0.99861582       0.24742676       0.12269025 </v>
   <v>       0.99999891       0.25121827       0.62573589 </v>
   <v>       0.99884265       0.75210329       0.12415636 </v>
   <v>       0.00181427       0.75164948       0.62331702 </v>
   <v>       0.50125411       0.24999565       0.12506685 </v>
   <v>       0.49963465       0.24589702       0.62235755 </v>
   <v>       0.50074927       0.74870832       0.12397309 </v>
   <v>       0.49932228       0.75649799       0.62293060 </v>
   <v>       0.99840432       0.24907176       0.37537970 </v>
   <v>       0.00054368       0.24928245       0.87590086 </v>
   <v>       0.99914383       0.75038221       0.37427442 </v>
   <v>       0.00162071       0.75371886       0.87823652 </v>
   <v>       0.50119255       0.24975727       0.37410441 </v>
   <v>       0.49961291       0.24656757       0.87807777 </v>
   <v>       0.50065104       0.74888799       0.37511809 </v>
   <v>       0.49909752       0.75641759       0.87784278 </v>
   <v>       0.24787410       0.99975462       0.12372658 </v>
   <v>       0.24979087       0.00080495       0.62449921 </v>
   <v>       0.25138441       0.49923657       0.12384902 </v>
   <v>       0.23972700       0.50197353       0.62425757 </v>
   <v>       0.75213410       0.99977844       0.12306532 </v>
   <v>       0.74830273       0.99750047       0.62507171 </v>
   <v>       0.75019886       0.49947049       0.12578877 </v>
   <v>       0.75894942       0.50202640       0.61821564 </v>
   <v>       0.24962361       0.99993592       0.37465725 </v>
   <v>       0.24813733       0.00060754       0.87728525 </v>
   <v>       0.25126449       0.49908181       0.37531860 </v>
   <v>       0.24000941       0.50196702       0.87650281 </v>
   <v>       0.75058482       0.99944111       0.37507374 </v>
   <v>       0.75035378       0.99820329       0.87658768 </v>
   <v>       0.75037379       0.49944304       0.37338342 </v>
   <v>       0.75851859       0.50221131       0.88245148 </v>
   <v>       0.99945833       0.00020811       0.24850400 </v>
   <v>       0.00037440       0.50002167       0.49877221 </v>
   <v>       0.74929529       0.25016634       0.50194349 </v>
   <v>       0.74939120       0.74973997       0.50111324 </v>
   <v>       0.00032446       0.50006428       0.00121415 </v>
   <v>       0.49995934       0.00010038       0.49940384 </v>
   <v>       0.50226936       0.50044701       0.99827522 </v>
   <v>       0.75011919       0.24919535       0.24972541 </v>
   <v>       0.24916398       0.24898911       0.99948164 </v>
   <v>       0.25022359       0.25016186       0.50057132 </v>
   <v>       0.24848956       0.75131550       0.99995052 </v>
   <v>       0.24998291       0.75007124       0.50007893 </v>
   <v>       0.75036191       0.24932036       0.99772103 </v>
   <v>       0.75034836       0.75106893       0.99853772 </v>
   <v>       0.25042995       0.25069796       0.24975441 </v>
   <v>       0.50069390       0.00043386       0.75031580 </v>
   <v>       0.25076736       0.74954421       0.24982081 </v>
   <v>       0.24790250       0.24772240       0.75008080 </v>
   <v>       0.49995828       0.00020461       0.00055532 </v>
   <v>       0.50236439       0.50027678       0.50145608 </v>
   <v>       0.75053866       0.75051272       0.24975281 </v>
   <v>       0.24718930       0.75297660       0.75010140 </v>
   <v>       0.49988718       0.99957749       0.24970091 </v>
   <v>       0.00313736       0.99975870       0.75169496 </v>
   <v>       0.00077756       0.50012895       0.24971322 </v>
   <v>       0.99382010       0.50048301       0.75032083 </v>
   <v>       0.00011096       0.00026315       0.50053144 </v>
   <v>       0.49900609       0.49982183       0.24973897 </v>
   <v>       0.76377472       0.75851669       0.75012309 </v>
   <v>       0.99997060       0.00047872       0.99955207 </v>
   <v>       0.75927814       0.23541175       0.75004326 </v>
   <v>       0.47424634       0.49579124       0.74986341 </v>
   <v>       0.11060955       0.14164275       0.25061288 </v>
   <v>       0.10631782       0.14313079       0.74929381 </v>
   <v>       0.10965611       0.64152173       0.24999997 </v>
   <v>       0.39510028       0.34957224       0.74961801 </v>
   <v>       0.60894610       0.14052767       0.25028418 </v>
   <v>       0.60608077       0.14290816       0.74971415 </v>
   <v>       0.60934766       0.63933519       0.25035394 </v>
   <v>       0.35537069       0.61113562       0.74948009 </v>
   <v>       0.39183967       0.35934360       0.25056142 </v>
   <v>       0.39009257       0.85727138       0.74960652 </v>
   <v>       0.39127871       0.85895965       0.25028343 </v>
   <v>       0.00055936       0.50020123       0.87542619 </v>
   <v>       0.89042941       0.35986798       0.24996648 </v>
   <v>       0.88428580       0.36140886       0.74987061 </v>
   <v>       0.89097299       0.85943597       0.25081976 </v>
   <v>       0.89866328       0.85685758       0.74921054 </v>
   <v>       0.35866153       0.10952366       0.25002073 </v>
   <v>       0.35585637       0.10562105       0.75016604 </v>
   <v>       0.35942527       0.60818483       0.25056058 </v>
   <v>       0.10406190       0.64269694       0.75005165 </v>
   <v>       0.85896434       0.10984363       0.25083466 </v>
   <v>       0.85866307       0.10113899       0.74916572 </v>
   <v>       0.85989733       0.60974656       0.25028399 </v>
   <v>       0.84712968       0.60267715       0.74984959 </v>
   <v>       0.53349515       0.50521733       0.63863461 </v>
   <v>       0.13924487       0.39082387       0.74966802 </v>
   <v>       0.14123958       0.89001765       0.25069207 </v>
   <v>       0.14440528       0.89394963       0.74941224 </v>
   <v>       0.63941914       0.39070734       0.25034645 </v>
   <v>       0.53318760       0.50540441       0.86102035 </v>
   <v>       0.64050835       0.89065889       0.24997084 </v>
   <v>       0.63494167       0.88200155       0.74978161 </v>
   <v>       0.36401099       0.39123394       0.98986050 </v>
   <v>       0.85919359       0.88634712       0.99636365 </v>
   <v>       0.36178499       0.88854454       0.99934161 </v>
   <v>       0.36068707       0.88900860       0.50076418 </v>
   <v>       0.86183691       0.38912519       0.00163665 </v>
   <v>       0.86149453       0.38923936       0.49861833 </v>
   <v>       0.11192916       0.36250943       0.99987017 </v>
   <v>       0.85961981       0.88877104       0.50341577 </v>
   <v>       0.14048890       0.11393552       0.00241530 </v>
   <v>       0.14008731       0.11114026       0.49785544 </v>
   <v>       0.13972692       0.61043753       0.00089714 </v>
   <v>       0.14026479       0.61001287       0.49911395 </v>
   <v>       0.63872149       0.11043355       0.99895963 </v>
   <v>       0.64002161       0.10974008       0.50105608 </v>
   <v>       0.63959919       0.60998877       0.00444828 </v>
   <v>       0.64044327       0.60940605       0.49578036 </v>
   <v>       0.11128203       0.36120585       0.50024067 </v>
   <v>       0.11325560       0.85962317       0.00264087 </v>
   <v>       0.11063853       0.85988842       0.49744566 </v>
   <v>       0.60980047       0.36141446       0.00145854 </v>
   <v>       0.60932264       0.36053390       0.49875105 </v>
   <v>       0.60970769       0.86063986       0.00078899 </v>
   <v>       0.60949255       0.86007168       0.49941361 </v>
   <v>       0.38973789       0.13979284       0.00028474 </v>
   <v>       0.38989011       0.14009920       0.49960227 </v>
   <v>       0.39144598       0.63760267       0.99264826 </v>
   <v>       0.39184065       0.63828963       0.50750617 </v>
   <v>       0.88567766       0.14077633       0.99556366 </v>
   <v>       0.88840423       0.14027918       0.50400563 </v>
   <v>       0.88900064       0.63826955       0.99871866 </v>
   <v>       0.88955299       0.63935724       0.50125632 </v>
   <v>       0.99714568       0.00124820       0.12632084 </v>
   <v>       0.00451610       0.99919521       0.62423845 </v>
   <v>       0.00017263       0.50102784       0.12528638 </v>
   <v>       0.00053837       0.50048089       0.62446567 </v>
   <v>       0.49931933       0.00059375       0.12504409 </v>
   <v>       0.49956711       0.99975258       0.62448110 </v>
   <v>       0.49486548       0.49974048       0.12356298 </v>
   <v>       0.14130781       0.39165441       0.25029604 </v>
   <v>       0.99702347       0.00124041       0.37577910 </v>
   <v>       0.00428002       0.99941603       0.87369106 </v>
   <v>       0.00007702       0.50092152       0.37489577 </v>
   <v>       0.49940016       0.00041159       0.37511053 </v>
   <v>       0.49962518       0.99950152       0.87537142 </v>
   <v>       0.49503931       0.49981645       0.37730840 </v>
   <v>       0.36326237       0.39148462       0.51019460 </v>
   <v>       0.25391062       0.25548885       0.37602891 </v>
   <v>       0.24681028       0.24773809       0.87429893 </v>
   <v>       0.25482397       0.74720249       0.37570269 </v>
   <v>       0.24596659       0.75096789       0.87469492 </v>
   <v>       0.74997588       0.24947238       0.37571885 </v>
   <v>       0.74005817       0.26070579       0.87220941 </v>
   <v>       0.75130409       0.75139015       0.37526755 </v>
   <v>       0.73898084       0.74247685       0.87313884 </v>
   <v>       0.25430494       0.25612116       0.12464465 </v>
   <v>       0.24695689       0.24705363       0.62513136 </v>
   <v>       0.25547851       0.74698056       0.12496078 </v>
   <v>       0.24521774       0.75103637       0.62472327 </v>
   <v>       0.74954825       0.24911031       0.12492411 </v>
   <v>       0.74073341       0.26036123       0.62720424 </v>
   <v>       0.75158862       0.75107835       0.12531806 </v>
   <v>       0.73924790       0.74278892       0.62639527 </v>
  </varray>
 </structure>
</modeling>
