       N       E                     dE             d eps       ncg     rms          rms(c)
DAV:   1    -0.111965368349E+04   -0.11197E+04   -0.14398E-02 13432   0.279E-01    0.304E-02
RMM:   2    -0.111965368213E+04    0.13648E-05   -0.22837E-05  6680   0.738E-03    0.518E-02
RMM:   3    -0.111965368241E+04   -0.27945E-06   -0.62964E-06  5838   0.464E-03    0.407E-03
RMM:   4    -0.111965368258E+04   -0.16890E-06   -0.20184E-06  3103   0.206E-03    0.262E-03
RMM:   5    -0.111965368272E+04   -0.14281E-06   -0.11783E-06  2880   0.231E-03    0.314E-03
RMM:   6    -0.111965368279E+04   -0.71203E-07   -0.63082E-07  2187   0.180E-03    0.103E-03
RMM:   7    -0.111965368285E+04   -0.57466E-07   -0.39693E-07  2001   0.187E-03    0.639E-04
RMM:   8    -0.111965368287E+04   -0.18801E-07   -0.13831E-07  1483   0.170E-03
   1 F= -.11196537E+04 E0= -.11196537E+04  d E =-.111965E+04  mag=    40.0000
       N       E                     dE             d eps       ncg     rms          rms(c)
DAV:   1    -0.111965361005E+04    0.72799E-04   -0.33138E-01 12416   0.675E-01    0.265E-01
RMM:   2    -0.111965458149E+04   -0.97144E-03   -0.10216E-02 12314   0.134E-01    0.201E-01
RMM:   3    -0.111965457789E+04    0.36003E-05   -0.53290E-04 10703   0.427E-02    0.119E-01
RMM:   4    -0.111965450770E+04    0.70195E-04   -0.22868E-04  8211   0.190E-02    0.656E-02
RMM:   5    -0.111965450085E+04    0.68529E-05   -0.64309E-05  7206   0.117E-02    0.463E-02
RMM:   6    -0.111965450230E+04   -0.14512E-05   -0.17598E-05  7053   0.690E-03    0.180E-02
RMM:   7    -0.111965450366E+04   -0.13579E-05   -0.82563E-06  6142   0.409E-03    0.115E-02
RMM:   8    -0.111965450482E+04   -0.11638E-05   -0.43691E-06  5669   0.352E-03
   2 F= -.11196545E+04 E0= -.11196545E+04  d E =-.821951E-03  mag=    40.0000
       N       E                     dE             d eps       ncg     rms          rms(c)
DAV:   1    -0.111965451642E+04   -0.12769E-04   -0.76386E-03 12944   0.103E-01    0.402E-02
RMM:   2    -0.111965453516E+04   -0.18736E-04   -0.20718E-04  7486   0.207E-02    0.339E-02
RMM:   3    -0.111965453732E+04   -0.21630E-05   -0.20956E-05  6410   0.892E-03    0.177E-02
RMM:   4    -0.111965453597E+04    0.13537E-05   -0.65996E-06  5768   0.391E-03    0.162E-02
RMM:   5    -0.111965453525E+04    0.71511E-06   -0.17654E-06  4266   0.274E-03    0.582E-03
RMM:   6    -0.111965453512E+04    0.13855E-06   -0.70795E-07  2330   0.196E-03    0.226E-03
RMM:   7    -0.111965453505E+04    0.66750E-07   -0.38731E-08  1163   0.168E-03    0.134E-03
RMM:   8    -0.111965453497E+04    0.77474E-07   -0.45978E-09  1011   0.167E-03
   3 F= -.11196545E+04 E0= -.11196545E+04  d E =-.852103E-03  mag=    40.0000
       N       E                     dE             d eps       ncg     rms          rms(c)
DAV:   1    -0.111965439701E+04    0.13804E-03   -0.38075E-01 12512   0.724E-01    0.186E-01
RMM:   2    -0.111965534049E+04   -0.94348E-03   -0.99494E-03 12363   0.130E-01    0.136E-01
RMM:   3    -0.111965534635E+04   -0.58572E-05   -0.48781E-04 10073   0.427E-02    0.833E-02
RMM:   4    -0.111965531003E+04    0.36311E-04   -0.12896E-04  7262   0.148E-02    0.472E-02
RMM:   5    -0.111965530502E+04    0.50160E-05   -0.51343E-05  7110   0.987E-03    0.317E-02
RMM:   6    -0.111965530625E+04   -0.12362E-05   -0.16003E-05  6889   0.673E-03    0.140E-02
RMM:   7    -0.111965530686E+04   -0.60291E-06   -0.77480E-06  5997   0.376E-03    0.814E-03
RMM:   8    -0.111965530708E+04   -0.22165E-06   -0.42776E-06  5420   0.362E-03
   4 F= -.11196553E+04 E0= -.11196553E+04  d E =-.772108E-03  mag=    40.0000
       N       E                     dE             d eps       ncg     rms          rms(c)
DAV:   1    -0.111965524100E+04    0.65862E-04   -0.52912E-02 12336   0.270E-01    0.697E-02
RMM:   2    -0.111965537413E+04   -0.13313E-03   -0.14075E-03 12085   0.484E-02    0.513E-02
RMM:   3    -0.111965537350E+04    0.63183E-06   -0.59372E-05  7026   0.161E-02    0.315E-02
RMM:   4    -0.111965536947E+04    0.40217E-05   -0.24257E-05  6881   0.643E-03    0.184E-02
RMM:   5    -0.111965536881E+04    0.66902E-06   -0.92942E-06  6124   0.478E-03    0.208E-02
RMM:   6    -0.111965536903E+04   -0.22109E-06   -0.40915E-06  5433   0.315E-03    0.502E-03
RMM:   7    -0.111965536911E+04   -0.87181E-07   -0.13383E-06  3885   0.250E-03    0.273E-03
RMM:   8    -0.111965536913E+04   -0.16167E-07   -0.63059E-07  2806   0.199E-03
   5 F= -.11196554E+04 E0= -.11196554E+04  d E =-.834159E-03  mag=    40.0000
       N       E                     dE             d eps       ncg     rms          rms(c)
DAV:   1    -0.111965549208E+04   -0.12297E-03   -0.21613E-01 12456   0.540E-01    0.118E-01
RMM:   2    -0.111965600297E+04   -0.51089E-03   -0.54407E-03 12439   0.941E-02    0.811E-02
RMM:   3    -0.111965600044E+04    0.25225E-05   -0.23928E-04  7867   0.310E-02    0.511E-02
RMM:   4    -0.111965598850E+04    0.11941E-04   -0.68467E-05  7024   0.113E-02    0.283E-02
RMM:   5    -0.111965598754E+04    0.96581E-06   -0.27688E-05  6847   0.790E-03    0.268E-02
RMM:   6    -0.111965598854E+04   -0.99764E-06   -0.11144E-05  6350   0.508E-03    0.882E-03
RMM:   7    -0.111965598902E+04   -0.47985E-06   -0.51804E-06  5317   0.359E-03    0.525E-03
RMM:   8    -0.111965598924E+04   -0.22478E-06   -0.32001E-06  4406   0.280E-03
   6 F= -.11196560E+04 E0= -.11196560E+04  d E =-.620110E-03  mag=    40.0000
       N       E                     dE             d eps       ncg     rms          rms(c)
DAV:   1    -0.111965504756E+04    0.94145E-03   -0.63196E-01 12480   0.923E-01    0.201E-01
RMM:   2    -0.111965653577E+04   -0.14882E-02   -0.15863E-02 12464   0.161E-01    0.139E-01
RMM:   3    -0.111965654102E+04   -0.52477E-05   -0.81236E-04 11140   0.530E-02    0.877E-02
RMM:   4    -0.111965650053E+04    0.40496E-04   -0.17005E-04  7464   0.166E-02    0.505E-02
RMM:   5    -0.111965649421E+04    0.63156E-05   -0.70589E-05  7135   0.115E-02    0.288E-02
RMM:   6    -0.111965649638E+04   -0.21646E-05   -0.22584E-05  6971   0.781E-03    0.168E-02
RMM:   7    -0.111965649747E+04   -0.10972E-05   -0.12659E-05  6561   0.471E-03    0.867E-03
RMM:   8    -0.111965649791E+04   -0.43618E-06   -0.70010E-06  5899   0.456E-03
   7 F= -.11196565E+04 E0= -.11196565E+04  d E =-.112878E-02  mag=    40.0000
       N       E                     dE             d eps       ncg     rms          rms(c)
DAV:   1    -0.111965642747E+04    0.70001E-04   -0.38798E-01 12384   0.712E-01    0.153E-01
RMM:   2    -0.111965734740E+04   -0.91993E-03   -0.98104E-03 12447   0.125E-01    0.118E-01
RMM:   3    -0.111965734164E+04    0.57579E-05   -0.46495E-04  9741   0.408E-02    0.750E-02
RMM:   4    -0.111965731684E+04    0.24798E-04   -0.11151E-04  7189   0.136E-02    0.474E-02
RMM:   5    -0.111965731247E+04    0.43778E-05   -0.44728E-05  6993   0.926E-03    0.337E-02
RMM:   6    -0.111965731409E+04   -0.16274E-05   -0.16469E-05  6637   0.637E-03    0.118E-02
RMM:   7    -0.111965731472E+04   -0.62183E-06   -0.86995E-06  5876   0.404E-03    0.854E-03
RMM:   8    -0.111965731493E+04   -0.21901E-06   -0.49972E-06  5290   0.365E-03
   8 F= -.11196573E+04 E0= -.11196573E+04  d E =-.817026E-03  mag=    40.0000
