<?xml version="1.0" encoding="ISO-8859-1"?>
<modeling>
 <generator>
  <i name="program" type="string">vasp </i>
  <i name="version" type="string">5.4.1  </i>
  <i name="subversion" type="string">05Feb16 (build Jan 25 2017 20:16:33) complex                          parallel </i>
  <i name="platform" type="string">BWXE6 </i>
  <i name="date" type="string">2019 06 25 </i>
  <i name="time" type="string">10:10:32 </i>
 </generator>
 <incar>
  <i type="string" name="SYSTEM"> STF</i>
  <i type="string" name="PREC">normal</i>
  <i type="string" name="ALGO"> Fast</i>
  <i type="int" name="ISPIN">     2</i>
  <i type="int" name="NELM">    40</i>
  <i type="int" name="NELMIN">     8</i>
  <i type="int" name="IBRION">     2</i>
  <i name="EDIFF">      0.00010000</i>
  <i name="EDIFFG">     -0.03000000</i>
  <i type="int" name="NSW">    30</i>
  <i type="int" name="ISIF">     3</i>
  <i name="ENCUT">    520.00000000</i>
  <i type="int" name="NBANDS">   768</i>
  <v name="MAGMOM">      0.60000000      0.60000000      0.60000000      0.60000000      0.60000000      0.60000000      0.60000000      0.60000000      0.60000000      0.60000000      0.60000000      0.60000000      0.60000000      0.60000000      0.60000000      0.60000000      0.60000000      0.60000000      0.60000000      0.60000000
      0.60000000      0.60000000      0.60000000      0.60000000      0.60000000      0.60000000      0.60000000      0.60000000      0.60000000      0.60000000      0.60000000      0.60000000      0.60000000      0.60000000      0.60000000      0.60000000      0.60000000      0.60000000      0.60000000      0.60000000
      0.60000000      0.60000000      0.60000000      0.60000000      0.60000000      0.60000000      0.60000000      0.60000000      0.60000000      0.60000000      0.60000000      0.60000000      0.60000000      0.60000000      0.60000000      0.60000000      5.00000000      5.00000000      5.00000000      5.00000000
      5.00000000      5.00000000      5.00000000      5.00000000      0.60000000      0.60000000      0.60000000      0.60000000      0.60000000      0.60000000      0.60000000      0.60000000      0.60000000      0.60000000      0.60000000      0.60000000      0.60000000      0.60000000      0.60000000      0.60000000
      0.60000000      0.60000000      0.60000000      0.60000000      0.60000000      0.60000000      0.60000000      0.60000000      0.60000000      0.60000000      0.60000000      0.60000000      0.60000000      0.60000000      0.60000000      0.60000000      0.60000000      0.60000000      0.60000000      0.60000000
      0.60000000      0.60000000      0.60000000      0.60000000      0.60000000      0.60000000      0.60000000      0.60000000      0.60000000      0.60000000      0.60000000      0.60000000      0.60000000      0.60000000      0.60000000      0.60000000      0.60000000      0.60000000      0.60000000      0.60000000
      0.60000000      0.60000000      0.60000000      0.60000000      0.60000000      0.60000000      0.60000000      0.60000000      0.60000000      0.60000000      0.60000000      0.60000000      0.60000000      0.60000000      0.60000000      0.60000000      0.60000000      0.60000000      0.60000000      0.60000000
      0.60000000      0.60000000      0.60000000      0.60000000      0.60000000      0.60000000      0.60000000      0.60000000      0.60000000      0.60000000      0.60000000      0.60000000      0.60000000      0.60000000      0.60000000      0.60000000</v>
  <i type="string" name="LREAL"> Auto</i>
  <i type="int" name="ISMEAR">     0</i>
  <i name="SIGMA">      0.05000000</i>
  <i type="int" name="LMAXMIX">     4</i>
  <v type="int" name="KPOINT_BSE">    -1     0     0     0</v>
  <i type="int" name="NELM">    40</i>
  <i type="logical" name="LDAU"> T  </i>
  <v type="int" name="LDAUTYPE">     2</v>
  <v type="int" name="LDAUL">     0     2     2     0</v>
  <v name="LDAUU">      0.00000000      3.00000000      5.00000000      0.00000000</v>
  <v name="LDAUJ">      0.00000000      0.00000000      0.00000000      0.00000000</v>
  <i type="int" name="LDAUPRINT">     1</i>
 </incar>
 <kpoints>
  <generation param="Monkhorst-Pack">
   <v type="int" name="divisions">       2        2        2 </v>
   <v name="usershift">      0.00000000       0.00000000       0.00000000 </v>
   <v name="genvec1">      0.50000000      -0.00000000      -0.00000000 </v>
   <v name="genvec2">     -0.00000000       0.50000000       0.00000000 </v>
   <v name="genvec3">      0.00000000      -0.00000000       0.50000000 </v>
   <v name="shift">      0.50000000       0.50000000       0.50000000 </v>
  </generation>
  <varray name="kpointlist" >
   <v>       0.25000000       0.25000000       0.25000000 </v>
   <v>      -0.25000000       0.25000000       0.25000000 </v>
   <v>       0.25000000      -0.25000000       0.25000000 </v>
   <v>      -0.25000000      -0.25000000       0.25000000 </v>
  </varray>
  <varray name="weights" >
   <v>       0.25000000 </v>
   <v>       0.25000000 </v>
   <v>       0.25000000 </v>
   <v>       0.25000000 </v>
  </varray>
 </kpoints>
 <parameters>
  <separator name="general" >
   <i type="string" name="SYSTEM">STF</i>
   <i type="logical" name="LCOMPAT"> F  </i>
  </separator>
  <separator name="electronic" >
   <i type="string" name="PREC">normal</i>
   <i name="ENMAX">    520.00000000</i>
   <i name="ENAUG">    605.39200000</i>
   <i name="EDIFF">      0.00010000</i>
   <i type="int" name="IALGO">    68</i>
   <i type="int" name="IWAVPR">    11</i>
   <i type="int" name="NBANDS">   768</i>
   <i name="NELECT">   1032.00000000</i>
   <i type="int" name="TURBO">     0</i>
   <i type="int" name="IRESTART">     0</i>
   <i type="int" name="NREBOOT">     0</i>
   <i type="int" name="NMIN">     0</i>
   <i name="EREF">      0.00000000</i>
   <separator name="electronic smearing" >
    <i type="int" name="ISMEAR">     0</i>
    <i name="SIGMA">      0.05000000</i>
    <i name="KSPACING">      0.50000000</i>
    <i type="logical" name="KGAMMA"> T  </i>
   </separator>
   <separator name="electronic projectors" >
    <i type="logical" name="LREAL"> T  </i>
    <v name="ROPT">     -0.00050000     -0.00050000     -0.00050000     -0.00050000</v>
    <i type="int" name="LMAXPAW">  -100</i>
    <i type="int" name="LMAXMIX">     4</i>
    <i type="logical" name="NLSPLINE"> F  </i>
   </separator>
   <separator name="electronic startup" >
    <i type="int" name="ISTART">     1</i>
    <i type="int" name="ICHARG">     0</i>
    <i type="int" name="INIWAV">     1</i>
   </separator>
   <separator name="electronic spin" >
    <i type="int" name="ISPIN">     2</i>
    <i type="logical" name="LNONCOLLINEAR"> F  </i>
    <v name="MAGMOM">      0.60000000      0.60000000      0.60000000      0.60000000      0.60000000      0.60000000      0.60000000      0.60000000      0.60000000      0.60000000      0.60000000      0.60000000      0.60000000      0.60000000      0.60000000      0.60000000      0.60000000      0.60000000      0.60000000      0.60000000
      0.60000000      0.60000000      0.60000000      0.60000000      0.60000000      0.60000000      0.60000000      0.60000000      0.60000000      0.60000000      0.60000000      0.60000000      0.60000000      0.60000000      0.60000000      0.60000000      0.60000000      0.60000000      0.60000000      0.60000000
      0.60000000      0.60000000      0.60000000      0.60000000      0.60000000      0.60000000      0.60000000      0.60000000      0.60000000      0.60000000      0.60000000      0.60000000      0.60000000      0.60000000      0.60000000      0.60000000      5.00000000      5.00000000      5.00000000      5.00000000
      5.00000000      5.00000000      5.00000000      5.00000000      0.60000000      0.60000000      0.60000000      0.60000000      0.60000000      0.60000000      0.60000000      0.60000000      0.60000000      0.60000000      0.60000000      0.60000000      0.60000000      0.60000000      0.60000000      0.60000000
      0.60000000      0.60000000      0.60000000      0.60000000      0.60000000      0.60000000      0.60000000      0.60000000      0.60000000      0.60000000      0.60000000      0.60000000      0.60000000      0.60000000      0.60000000      0.60000000      0.60000000      0.60000000      0.60000000      0.60000000
      0.60000000      0.60000000      0.60000000      0.60000000      0.60000000      0.60000000      0.60000000      0.60000000      0.60000000      0.60000000      0.60000000      0.60000000      0.60000000      0.60000000      0.60000000      0.60000000      0.60000000      0.60000000      0.60000000      0.60000000
      0.60000000      0.60000000      0.60000000      0.60000000      0.60000000      0.60000000      0.60000000      0.60000000      0.60000000      0.60000000      0.60000000      0.60000000      0.60000000      0.60000000      0.60000000      0.60000000      0.60000000      0.60000000      0.60000000      0.60000000
      0.60000000      0.60000000      0.60000000      0.60000000      0.60000000      0.60000000      0.60000000      0.60000000      0.60000000      0.60000000      0.60000000      0.60000000      0.60000000      0.60000000      0.60000000      0.60000000</v>
    <i name="NUPDOWN">     -1.00000000</i>
    <i type="logical" name="LSORBIT"> F  </i>
    <v name="SAXIS">      0.00000000      0.00000000      1.00000000</v>
    <i type="logical" name="LSPIRAL"> F  </i>
    <v name="QSPIRAL">      0.00000000      0.00000000      0.00000000</v>
    <i type="logical" name="LZEROZ"> F  </i>
   </separator>
   <separator name="electronic exchange-correlation" >
    <i type="logical" name="LASPH"> F  </i>
    <i type="logical" name="LMETAGGA"> F  </i>
   </separator>
   <separator name="electronic convergence" >
    <i type="int" name="NELM">    40</i>
    <i type="int" name="NELMDL">     0</i>
    <i type="int" name="NELMIN">     8</i>
    <i name="ENINI">    520.00000000</i>
    <separator name="electronic convergence detail" >
     <i type="logical" name="LDIAG"> T  </i>
     <i type="logical" name="LSUBROT"> F  </i>
     <i name="WEIMIN">      0.00100000</i>
     <i name="EBREAK">      0.00000003</i>
     <i name="DEPER">      0.30000000</i>
     <i type="int" name="NRMM">     4</i>
     <i name="TIME">      0.40000000</i>
    </separator>
   </separator>
   <separator name="electronic mixer" >
    <i name="AMIX">      0.40000000</i>
    <i name="BMIX">      1.00000000</i>
    <i name="AMIN">      0.10000000</i>
    <i name="AMIX_MAG">      1.60000000</i>
    <i name="BMIX_MAG">      1.00000000</i>
    <separator name="electronic mixer details" >
     <i type="int" name="IMIX">     4</i>
     <i type="logical" name="MIXFIRST"> F  </i>
     <i type="int" name="MAXMIX">   -45</i>
     <i name="WC">    100.00000000</i>
     <i type="int" name="INIMIX">     1</i>
     <i type="int" name="MIXPRE">     1</i>
     <i type="int" name="MREMOVE">     5</i>
    </separator>
   </separator>
   <separator name="electronic dipolcorrection" >
    <i type="logical" name="LDIPOL"> F  </i>
    <i type="logical" name="LMONO"> F  </i>
    <i type="int" name="IDIPOL">     0</i>
    <i name="EPSILON">      1.00000000</i>
    <v name="DIPOL">   -100.00000000   -100.00000000   -100.00000000</v>
    <i name="EFIELD">      0.00000000</i>
   </separator>
  </separator>
  <separator name="grids" >
   <i type="int" name="NGX">    64</i>
   <i type="int" name="NGY">    64</i>
   <i type="int" name="NGZ">    90</i>
   <i type="int" name="NGXF">   128</i>
   <i type="int" name="NGYF">   128</i>
   <i type="int" name="NGZF">   180</i>
   <i type="logical" name="ADDGRID"> F  </i>
  </separator>
  <separator name="ionic" >
   <i type="int" name="NSW">    30</i>
   <i type="int" name="IBRION">     2</i>
   <i type="int" name="ISIF">     3</i>
   <i name="PSTRESS">      0.00000000</i>
   <i name="EDIFFG">     -0.03000000</i>
   <i type="int" name="NFREE">     1</i>
   <i name="POTIM">      0.50000000</i>
   <i name="SMASS">     -3.00000000</i>
   <i name="SCALEE">      1.00000000</i>
  </separator>
  <separator name="ionic md" >
   <i name="TEBEG">      0.00010000</i>
   <i name="TEEND">      0.00010000</i>
   <i type="int" name="NBLOCK">     1</i>
   <i type="int" name="KBLOCK">    30</i>
   <i type="int" name="NPACO">   256</i>
   <i name="APACO">     16.00000000</i>
  </separator>
  <separator name="symmetry" >
   <i type="int" name="ISYM">     2</i>
   <i name="SYMPREC">      0.00001000</i>
  </separator>
  <separator name="dos" >
   <i type="logical" name="LORBIT"> F  </i>
   <v name="RWIGS">     -1.00000000     -1.00000000     -1.00000000     -1.00000000</v>
   <i type="int" name="NEDOS">   301</i>
   <i name="EMIN">     10.00000000</i>
   <i name="EMAX">    -10.00000000</i>
   <i name="EFERMI">      0.00000000</i>
  </separator>
  <separator name="writing" >
   <i type="int" name="NWRITE">     2</i>
   <i type="logical" name="LWAVE"> T  </i>
   <i type="logical" name="LCHARG"> T  </i>
   <i type="logical" name="LPARD"> F  </i>
   <i type="logical" name="LVTOT"> F  </i>
   <i type="logical" name="LVHAR"> F  </i>
   <i type="logical" name="LELF"> F  </i>
   <i type="logical" name="LOPTICS"> F  </i>
   <v name="STM">      0.00000000      0.00000000      0.00000000      0.00000000      0.00000000      0.00000000      0.00000000</v>
  </separator>
  <separator name="performance" >
   <i type="int" name="NPAR">     2</i>
   <i type="int" name="NSIM">     4</i>
   <i type="int" name="NBLK">    -1</i>
   <i type="logical" name="LPLANE"> T  </i>
   <i type="logical" name="LSCALAPACK"> T  </i>
   <i type="logical" name="LSCAAWARE"> F  </i>
   <i type="logical" name="LSCALU"> F  </i>
   <i type="logical" name="LASYNC"> F  </i>
   <i type="logical" name="LORBITALREAL"> F  </i>
  </separator>
  <separator name="miscellaneous" >
   <i type="int" name="IDIOT">     3</i>
   <i type="logical" name="LMUSIC"> F  </i>
   <v name="POMASS">     87.62000000     47.88000000     55.84700000     16.00000000</v>
   <v name="DARWINR">      0.00000000      0.00000000      0.00000000      0.00000000</v>
   <v name="DARWINV">      1.00000000      1.00000000      1.00000000      1.00000000</v>
   <i type="logical" name="LCORR"> T  </i>
  </separator>
  <i type="logical" name="GGA_COMPAT"> T  </i>
  <i type="logical" name="LBERRY"> F  </i>
  <i type="int" name="ICORELEVEL">     0</i>
  <i type="logical" name="LDAU"> T  </i>
  <v type="int" name="LDAUTYPE">     2</v>
  <v type="int" name="LDAUL">     0</v>
  <v name="LDAUU">      0.00000000</v>
  <v name="LDAUJ">      0.00000000</v>
  <i type="int" name="LDAUPRINT">     1</i>
  <i type="int" name="I_CONSTRAINED_M">     0</i>
  <separator name="electronic exchange-correlation" >
   <i type="string" name="GGA">--</i>
   <i type="int" name="VOSKOWN">     0</i>
   <i type="logical" name="LHFCALC"> F  </i>
   <i type="string" name="PRECFOCK"></i>
   <i type="logical" name="LSYMGRAD"> F  </i>
   <i type="logical" name="LHFONE"> F  </i>
   <i type="logical" name="LRHFCALC"> F  </i>
   <i type="logical" name="LTHOMAS"> F  </i>
   <i type="logical" name="LMODELHF"> F  </i>
   <i name="ENCUT4O">     -1.00000000</i>
   <i type="int" name="EXXOEP">     0</i>
   <i type="int" name="FOURORBIT">     0</i>
   <i name="AEXX">      0.00000000</i>
   <i name="HFALPHA">      0.00000000</i>
   <i name="MCALPHA">      0.00000000</i>
   <i name="ALDAX">      1.00000000</i>
   <i name="AGGAX">      1.00000000</i>
   <i name="ALDAC">      1.00000000</i>
   <i name="AGGAC">      1.00000000</i>
   <i type="int" name="NKREDX">     1</i>
   <i type="int" name="NKREDY">     1</i>
   <i type="int" name="NKREDZ">     1</i>
   <i type="logical" name="SHIFTRED"> F  </i>
   <i type="logical" name="ODDONLY"> F  </i>
   <i type="logical" name="EVENONLY"> F  </i>
   <i type="int" name="LMAXFOCK">     0</i>
   <i type="int" name="NMAXFOCKAE">     0</i>
   <i type="logical" name="LFOCKAEDFT"> F  </i>
   <i name="HFSCREEN">      0.00000000</i>
   <i name="HFSCREENC">      0.00000000</i>
   <i type="int" name="NBANDSGWLOW">     0</i>
  </separator>
  <separator name="vdW DFT" >
   <i type="logical" name="LUSE_VDW"> F  </i>
   <i name="Zab_VDW">     -0.84910000</i>
   <i name="PARAM1">      0.12340000</i>
   <i name="PARAM2">      1.00000000</i>
   <i name="PARAM3">      0.00000000</i>
  </separator>
  <separator name="model GW" >
   <i type="int" name="MODEL_GW">     0</i>
   <i name="MODEL_EPS0">      7.71511094</i>
   <i name="MODEL_ALPHA">      1.00000000</i>
  </separator>
  <separator name="linear response parameters" >
   <i type="logical" name="LEPSILON"> F  </i>
   <i type="logical" name="LRPA"> F  </i>
   <i type="logical" name="LNABLA"> F  </i>
   <i type="logical" name="LVEL"> F  </i>
   <i type="int" name="KINTER">     0</i>
   <i name="CSHIFT">      0.10000000</i>
   <i name="OMEGAMAX">     -1.00000000</i>
   <i name="DEG_THRESHOLD">      0.00200000</i>
  </separator>
  <separator name="orbital magnetization" >
   <i type="logical" name="NUCIND"> F  </i>
   <v name="MAGPOS">      0.00000000      0.00000000      0.00000000</v>
   <i type="logical" name="LNICSALL"> T  </i>
   <i type="logical" name="ORBITALMAG"> F  </i>
   <i type="logical" name="LMAGBLOCH"> F  </i>
   <i type="logical" name="LCHIMAG"> F  </i>
   <i type="logical" name="LGAUGE"> T  </i>
   <i type="int" name="MAGATOM">     0</i>
   <v name="MAGDIPOL">      0.00000000      0.00000000      0.00000000</v>
   <v name="AVECCONST">      0.00000000      0.00000000      0.00000000</v>
  </separator>
  <separator name="response functions" >
   <i type="logical" name="LADDER"> F  </i>
   <i type="logical" name="LFXC"> F  </i>
   <i type="logical" name="LHARTREE"> T  </i>
   <i type="int" name="IBSE">     0</i>
   <v type="int" name="KPOINT">    -1     0     0     0</v>
   <i type="logical" name="LTCTE"> F  </i>
   <i type="logical" name="LTETE"> F  </i>
   <i type="logical" name="LTRIPLET"> F  </i>
   <i type="logical" name="LFXCEPS"> F  </i>
   <i type="logical" name="LFXHEG"> F  </i>
   <i type="int" name="NATURALO">     0</i>
   <i type="logical" name="L2ORDER"> F  </i>
   <i type="logical" name="LUSEW"> F  </i>
   <i name="ENCUTGW">     -2.00000000</i>
   <i name="ENCUTGWSOFT">     -2.00000000</i>
   <i name="ENCUTLF">     -1.00000000</i>
   <i type="int" name="LMAXMP2">    -1</i>
   <i name="SCISSOR">      0.00000000</i>
   <i type="int" name="NOMEGA">     0</i>
   <i type="int" name="NOMEGAR">     0</i>
   <i type="int" name="NBANDSGW">    -1</i>
   <i type="int" name="NBANDSO">    -1</i>
   <i type="int" name="NBANDSV">    -1</i>
   <i type="int" name="NELM">    40</i>
   <i type="int" name="NELMHF">     1</i>
   <i type="int" name="DIM">     3</i>
   <i type="int" name="ANTIRES">     0</i>
   <i name="OMEGAMAX">    -30.00000000</i>
   <i name="OMEGAMIN">    -30.00000000</i>
   <i name="OMEGATL">   -200.00000000</i>
   <i type="int" name="OMEGAGRID">     0</i>
   <i name="CSHIFT">     -0.10000000</i>
   <i type="logical" name="SELFENERGY"> F  </i>
   <i type="logical" name="LSPECTRAL"> F  </i>
   <i type="logical" name="LSPECTRALGW"> F  </i>
   <i type="logical" name="LSINGLES"> F  </i>
   <i type="logical" name="LFERMIGW"> F  </i>
   <i type="logical" name="ODDONLYGW"> F  </i>
   <i type="logical" name="EVENONLYGW"> F  </i>
   <i type="int" name="NKREDLFX">     1</i>
   <i type="int" name="NKREDLFY">     1</i>
   <i type="int" name="NKREDLFZ">     1</i>
   <i type="int" name="MAXMEM">  1800</i>
   <i type="int" name="TELESCOPE">     0</i>
   <i type="int" name="TAUPAR">     1</i>
   <i type="int" name="OMEGAPAR">    -1</i>
   <i name="LAMBDA">      1.00000000</i>
  </separator>
  <separator name="External order field" >
   <i name="OFIELD_KAPPA">      0.00000000</i>
   <v name="OFIELD_K">      0.00000000      0.00000000      0.00000000</v>
   <i name="OFIELD_Q6_NEAR">      0.00000000</i>
   <i name="OFIELD_Q6_FAR">      0.00000000</i>
   <i name="OFIELD_A">      0.00000000</i>
  </separator>
 </parameters>
 <atominfo>
  <atoms>     156 </atoms>
  <types>       4 </types>
  <array name="atoms" >
   <dimension dim="1">ion</dimension>
   <field type="string">element</field>
   <field type="int">atomtype</field>
   <set>
    <rc><c>Sr</c><c>   1</c></rc>
    <rc><c>Sr</c><c>   1</c></rc>
    <rc><c>Sr</c><c>   1</c></rc>
    <rc><c>Sr</c><c>   1</c></rc>
    <rc><c>Sr</c><c>   1</c></rc>
    <rc><c>Sr</c><c>   1</c></rc>
    <rc><c>Sr</c><c>   1</c></rc>
    <rc><c>Sr</c><c>   1</c></rc>
    <rc><c>Sr</c><c>   1</c></rc>
    <rc><c>Sr</c><c>   1</c></rc>
    <rc><c>Sr</c><c>   1</c></rc>
    <rc><c>Sr</c><c>   1</c></rc>
    <rc><c>Sr</c><c>   1</c></rc>
    <rc><c>Sr</c><c>   1</c></rc>
    <rc><c>Sr</c><c>   1</c></rc>
    <rc><c>Sr</c><c>   1</c></rc>
    <rc><c>Sr</c><c>   1</c></rc>
    <rc><c>Sr</c><c>   1</c></rc>
    <rc><c>Sr</c><c>   1</c></rc>
    <rc><c>Sr</c><c>   1</c></rc>
    <rc><c>Sr</c><c>   1</c></rc>
    <rc><c>Sr</c><c>   1</c></rc>
    <rc><c>Sr</c><c>   1</c></rc>
    <rc><c>Sr</c><c>   1</c></rc>
    <rc><c>Sr</c><c>   1</c></rc>
    <rc><c>Sr</c><c>   1</c></rc>
    <rc><c>Sr</c><c>   1</c></rc>
    <rc><c>Sr</c><c>   1</c></rc>
    <rc><c>Sr</c><c>   1</c></rc>
    <rc><c>Sr</c><c>   1</c></rc>
    <rc><c>Sr</c><c>   1</c></rc>
    <rc><c>Sr</c><c>   1</c></rc>
    <rc><c>Ti</c><c>   2</c></rc>
    <rc><c>Ti</c><c>   2</c></rc>
    <rc><c>Ti</c><c>   2</c></rc>
    <rc><c>Ti</c><c>   2</c></rc>
    <rc><c>Ti</c><c>   2</c></rc>
    <rc><c>Ti</c><c>   2</c></rc>
    <rc><c>Ti</c><c>   2</c></rc>
    <rc><c>Ti</c><c>   2</c></rc>
    <rc><c>Ti</c><c>   2</c></rc>
    <rc><c>Ti</c><c>   2</c></rc>
    <rc><c>Ti</c><c>   2</c></rc>
    <rc><c>Ti</c><c>   2</c></rc>
    <rc><c>Ti</c><c>   2</c></rc>
    <rc><c>Ti</c><c>   2</c></rc>
    <rc><c>Ti</c><c>   2</c></rc>
    <rc><c>Ti</c><c>   2</c></rc>
    <rc><c>Ti</c><c>   2</c></rc>
    <rc><c>Ti</c><c>   2</c></rc>
    <rc><c>Ti</c><c>   2</c></rc>
    <rc><c>Ti</c><c>   2</c></rc>
    <rc><c>Ti</c><c>   2</c></rc>
    <rc><c>Ti</c><c>   2</c></rc>
    <rc><c>Ti</c><c>   2</c></rc>
    <rc><c>Ti</c><c>   2</c></rc>
    <rc><c>Fe</c><c>   3</c></rc>
    <rc><c>Fe</c><c>   3</c></rc>
    <rc><c>Fe</c><c>   3</c></rc>
    <rc><c>Fe</c><c>   3</c></rc>
    <rc><c>Fe</c><c>   3</c></rc>
    <rc><c>Fe</c><c>   3</c></rc>
    <rc><c>Fe</c><c>   3</c></rc>
    <rc><c>Fe</c><c>   3</c></rc>
    <rc><c>O </c><c>   4</c></rc>
    <rc><c>O </c><c>   4</c></rc>
    <rc><c>O </c><c>   4</c></rc>
    <rc><c>O </c><c>   4</c></rc>
    <rc><c>O </c><c>   4</c></rc>
    <rc><c>O </c><c>   4</c></rc>
    <rc><c>O </c><c>   4</c></rc>
    <rc><c>O </c><c>   4</c></rc>
    <rc><c>O </c><c>   4</c></rc>
    <rc><c>O </c><c>   4</c></rc>
    <rc><c>O </c><c>   4</c></rc>
    <rc><c>O </c><c>   4</c></rc>
    <rc><c>O </c><c>   4</c></rc>
    <rc><c>O </c><c>   4</c></rc>
    <rc><c>O </c><c>   4</c></rc>
    <rc><c>O </c><c>   4</c></rc>
    <rc><c>O </c><c>   4</c></rc>
    <rc><c>O </c><c>   4</c></rc>
    <rc><c>O </c><c>   4</c></rc>
    <rc><c>O </c><c>   4</c></rc>
    <rc><c>O </c><c>   4</c></rc>
    <rc><c>O </c><c>   4</c></rc>
    <rc><c>O </c><c>   4</c></rc>
    <rc><c>O </c><c>   4</c></rc>
    <rc><c>O </c><c>   4</c></rc>
    <rc><c>O </c><c>   4</c></rc>
    <rc><c>O </c><c>   4</c></rc>
    <rc><c>O </c><c>   4</c></rc>
    <rc><c>O </c><c>   4</c></rc>
    <rc><c>O </c><c>   4</c></rc>
    <rc><c>O </c><c>   4</c></rc>
    <rc><c>O </c><c>   4</c></rc>
    <rc><c>O </c><c>   4</c></rc>
    <rc><c>O </c><c>   4</c></rc>
    <rc><c>O </c><c>   4</c></rc>
    <rc><c>O </c><c>   4</c></rc>
    <rc><c>O </c><c>   4</c></rc>
    <rc><c>O </c><c>   4</c></rc>
    <rc><c>O </c><c>   4</c></rc>
    <rc><c>O </c><c>   4</c></rc>
    <rc><c>O </c><c>   4</c></rc>
    <rc><c>O </c><c>   4</c></rc>
    <rc><c>O </c><c>   4</c></rc>
    <rc><c>O </c><c>   4</c></rc>
    <rc><c>O </c><c>   4</c></rc>
    <rc><c>O </c><c>   4</c></rc>
    <rc><c>O </c><c>   4</c></rc>
    <rc><c>O </c><c>   4</c></rc>
    <rc><c>O </c><c>   4</c></rc>
    <rc><c>O </c><c>   4</c></rc>
    <rc><c>O </c><c>   4</c></rc>
    <rc><c>O </c><c>   4</c></rc>
    <rc><c>O </c><c>   4</c></rc>
    <rc><c>O </c><c>   4</c></rc>
    <rc><c>O </c><c>   4</c></rc>
    <rc><c>O </c><c>   4</c></rc>
    <rc><c>O </c><c>   4</c></rc>
    <rc><c>O </c><c>   4</c></rc>
    <rc><c>O </c><c>   4</c></rc>
    <rc><c>O </c><c>   4</c></rc>
    <rc><c>O </c><c>   4</c></rc>
    <rc><c>O </c><c>   4</c></rc>
    <rc><c>O </c><c>   4</c></rc>
    <rc><c>O </c><c>   4</c></rc>
    <rc><c>O </c><c>   4</c></rc>
    <rc><c>O </c><c>   4</c></rc>
    <rc><c>O </c><c>   4</c></rc>
    <rc><c>O </c><c>   4</c></rc>
    <rc><c>O </c><c>   4</c></rc>
    <rc><c>O </c><c>   4</c></rc>
    <rc><c>O </c><c>   4</c></rc>
    <rc><c>O </c><c>   4</c></rc>
    <rc><c>O </c><c>   4</c></rc>
    <rc><c>O </c><c>   4</c></rc>
    <rc><c>O </c><c>   4</c></rc>
    <rc><c>O </c><c>   4</c></rc>
    <rc><c>O </c><c>   4</c></rc>
    <rc><c>O </c><c>   4</c></rc>
    <rc><c>O </c><c>   4</c></rc>
    <rc><c>O </c><c>   4</c></rc>
    <rc><c>O </c><c>   4</c></rc>
    <rc><c>O </c><c>   4</c></rc>
    <rc><c>O </c><c>   4</c></rc>
    <rc><c>O </c><c>   4</c></rc>
    <rc><c>O </c><c>   4</c></rc>
    <rc><c>O </c><c>   4</c></rc>
    <rc><c>O </c><c>   4</c></rc>
    <rc><c>O </c><c>   4</c></rc>
    <rc><c>O </c><c>   4</c></rc>
    <rc><c>O </c><c>   4</c></rc>
    <rc><c>O </c><c>   4</c></rc>
    <rc><c>O </c><c>   4</c></rc>
   </set>
  </array>
  <array name="atomtypes" >
   <dimension dim="1">type</dimension>
   <field type="int">atomspertype</field>
   <field type="string">element</field>
   <field>mass</field>
   <field>valence</field>
   <field type="string">pseudopotential</field>
   <set>
    <rc><c>  32</c><c>Sr</c><c>     87.62000000</c><c>     10.00000000</c><c>  PAW_PBE Sr_sv 07Sep2000               </c></rc>
    <rc><c>  24</c><c>Ti</c><c>     47.88000000</c><c>      4.00000000</c><c>  PAW_PBE Ti 08Apr2002                  </c></rc>
    <rc><c>   8</c><c>Fe</c><c>     55.84700000</c><c>      8.00000000</c><c>  PAW_PBE Fe 06Sep2000                  </c></rc>
    <rc><c>  92</c><c>O </c><c>     16.00000000</c><c>      6.00000000</c><c>  PAW_PBE O 08Apr2002                   </c></rc>
   </set>
  </array>
 </atominfo>
 <structure name="initialpos" >
  <crystal>
   <varray name="basis" >
    <v>      11.21812779      -0.01993216       0.00251351 </v>
    <v>      -0.01992827      11.21606647       0.01138787 </v>
    <v>       0.00361063       0.01628307      15.94249944 </v>
   </varray>
   <i name="volume">   2005.92884567 </i>
   <varray name="rec_basis" >
    <v>       0.08914172       0.00015840      -0.00002035 </v>
    <v>       0.00015844       0.08915819      -0.00009110 </v>
    <v>      -0.00001417      -0.00006371       0.06272549 </v>
   </varray>
  </crystal>
  <varray name="positions" >
   <v>       0.99678188       0.25246311       0.13295115 </v>
   <v>       0.99904512       0.26025024       0.62779361 </v>
   <v>       0.00797545       0.74761970       0.12778281 </v>
   <v>       0.00803741       0.73562714       0.62707407 </v>
   <v>       0.50465215       0.24941252       0.12523531 </v>
   <v>       0.49578925       0.25182457       0.62704984 </v>
   <v>       0.49328869       0.74704299       0.13037730 </v>
   <v>       0.49450402       0.75108061       0.62879513 </v>
   <v>       0.99778318       0.25389187       0.37497460 </v>
   <v>       0.99426576       0.26098239       0.87242095 </v>
   <v>       0.00674036       0.74874719       0.36898762 </v>
   <v>       0.00938607       0.73694310       0.87307448 </v>
   <v>       0.49837700       0.25268117       0.37163080 </v>
   <v>       0.50600691       0.25031956       0.87391159 </v>
   <v>       0.49119245       0.74864030       0.37108207 </v>
   <v>       0.49568008       0.74922365       0.87462280 </v>
   <v>       0.25573387       0.98988089       0.13231371 </v>
   <v>       0.25979765       0.00029070       0.62622961 </v>
   <v>       0.25359465       0.50686172       0.12879528 </v>
   <v>       0.24692089       0.49672919       0.63069792 </v>
   <v>       0.74679623       0.00343749       0.12868598 </v>
   <v>       0.73665650       0.00961948       0.62855793 </v>
   <v>       0.74892954       0.49584149       0.12686930 </v>
   <v>       0.75338342       0.49398370       0.63135641 </v>
   <v>       0.25583894       0.99549459       0.36866476 </v>
   <v>       0.26092578       0.99146089       0.87459923 </v>
   <v>       0.25179585       0.50238809       0.37177894 </v>
   <v>       0.24971517       0.50539916       0.87311759 </v>
   <v>       0.74234771       0.00712667       0.36967466 </v>
   <v>       0.73914249       0.00693730       0.87676806 </v>
   <v>       0.74707070       0.49443461       0.37096135 </v>
   <v>       0.75343146       0.49523054       0.87171097 </v>
   <v>       0.00295328       0.00302893       0.00687661 </v>
   <v>       0.01241208       0.00725859       0.49676755 </v>
   <v>       0.00018490       0.49989346       0.99841635 </v>
   <v>       0.00230350       0.49807100       0.50044356 </v>
   <v>       0.49749882       0.00390554       0.49908286 </v>
   <v>       0.50117464       0.50086935       0.99924424 </v>
   <v>       0.49284435       0.49552159       0.50039454 </v>
   <v>       0.24661022       0.24556654       0.00928605 </v>
   <v>       0.25235944       0.75149621       0.00046522 </v>
   <v>       0.24996046       0.74895631       0.49959614 </v>
   <v>       0.74909921       0.24901761       0.99978080 </v>
   <v>       0.74788930       0.25085009       0.50045312 </v>
   <v>       0.74980078       0.75080351       0.01028808 </v>
   <v>       0.74388482       0.73866146       0.50033532 </v>
   <v>       0.24921931       0.24962540       0.25539364 </v>
   <v>       0.24929618       0.74821779       0.74973746 </v>
   <v>       0.75051337       0.24980649       0.25014099 </v>
   <v>       0.75045223       0.25108370       0.75020532 </v>
   <v>       0.75145264       0.75153177       0.25518270 </v>
   <v>       0.99640295       0.99591921       0.74179840 </v>
   <v>       0.00098957       0.50153213       0.24989484 </v>
   <v>       0.49941358       0.99899715       0.24769403 </v>
   <v>       0.49955778       0.00031180       0.75294673 </v>
   <v>       0.50069604       0.50048620       0.75030212 </v>
   <v>       0.50037319       0.99966796       0.99876094 </v>
   <v>       0.25100461       0.25358317       0.49885354 </v>
   <v>       0.24722955       0.24696433       0.74039609 </v>
   <v>       0.24886611       0.74965747       0.25053091 </v>
   <v>       0.75523968       0.75575573       0.73843776 </v>
   <v>       0.99931226       0.99807661       0.25484767 </v>
   <v>       0.00066335       0.49923976       0.75218628 </v>
   <v>       0.49942943       0.50088916       0.24928254 </v>
   <v>       0.11277944       0.13652291       0.26421413 </v>
   <v>       0.11093731       0.12099842       0.76811835 </v>
   <v>       0.11298943       0.63321656       0.24883330 </v>
   <v>       0.12369322       0.62775295       0.74914820 </v>
   <v>       0.61420945       0.13634939       0.25051184 </v>
   <v>       0.61660177       0.13379776       0.74762274 </v>
   <v>       0.61811754       0.63951374       0.25978408 </v>
   <v>       0.62226412       0.63711631       0.75123255 </v>
   <v>       0.38359406       0.36176248       0.23791131 </v>
   <v>       0.38056903       0.36536851       0.75510831 </v>
   <v>       0.38637190       0.86638321       0.24877310 </v>
   <v>       0.38128463       0.86856254       0.74944611 </v>
   <v>       0.88604961       0.36413463       0.25043286 </v>
   <v>       0.87872120       0.36890507       0.74913564 </v>
   <v>       0.88442104       0.86238477       0.23643823 </v>
   <v>       0.88314937       0.87737566       0.78604944 </v>
   <v>       0.36383802       0.11360375       0.24973321 </v>
   <v>       0.36362385       0.11831885       0.75743535 </v>
   <v>       0.36523771       0.61574127       0.24713781 </v>
   <v>       0.37008419       0.61925696       0.74644519 </v>
   <v>       0.86295987       0.11389837       0.24856926 </v>
   <v>       0.86788558       0.11610272       0.75446365 </v>
   <v>       0.86278779       0.61376218       0.25052337 </v>
   <v>       0.86793422       0.62844152       0.75666042 </v>
   <v>       0.13488655       0.38493108       0.24533532 </v>
   <v>       0.13359908       0.37224710       0.76286883 </v>
   <v>       0.13404608       0.88657320       0.25348420 </v>
   <v>       0.12633609       0.87909907       0.75680331 </v>
   <v>       0.63780888       0.38412054       0.24872739 </v>
   <v>       0.63277412       0.38288667       0.75030152 </v>
   <v>       0.63745898       0.88758619       0.25040577 </v>
   <v>       0.63630393       0.88255964       0.75403551 </v>
   <v>       0.36135699       0.38079286       0.99707135 </v>
   <v>       0.35653784       0.39414125       0.50785156 </v>
   <v>       0.36731854       0.88202710       0.00047380 </v>
   <v>       0.35976527       0.89070164       0.50072557 </v>
   <v>       0.86518486       0.38423983       0.99979303 </v>
   <v>       0.85823463       0.39005985       0.50022859 </v>
   <v>       0.86937573       0.88600293       0.99277729 </v>
   <v>       0.12980061       0.11972203       0.96873234 </v>
   <v>       0.14208755       0.10572267       0.48989057 </v>
   <v>       0.13374312       0.61675670       0.99938003 </v>
   <v>       0.14308927       0.60744489       0.50278404 </v>
   <v>       0.63430739       0.11854063       0.00136868 </v>
   <v>       0.63946645       0.11124213       0.50022174 </v>
   <v>       0.64010283       0.61979177       0.98268260 </v>
   <v>       0.64435737       0.60818260       0.50417331 </v>
   <v>       0.11802499       0.36322896       0.99239301 </v>
   <v>       0.10459909       0.35785582       0.49933022 </v>
   <v>       0.11491045       0.87279109       0.98609554 </v>
   <v>       0.10061274       0.85595950       0.50178830 </v>
   <v>       0.61576851       0.36597639       0.99974342 </v>
   <v>       0.60851197       0.35821268       0.50079754 </v>
   <v>       0.62522819       0.86286385       0.98560308 </v>
   <v>       0.62259277       0.86464921       0.50131511 </v>
   <v>       0.37594094       0.13795690       0.98711502 </v>
   <v>       0.39231898       0.14067750       0.50043902 </v>
   <v>       0.38474408       0.63407921       0.00174910 </v>
   <v>       0.39356188       0.64340153       0.50332343 </v>
   <v>       0.88644888       0.13053387       0.98809950 </v>
   <v>       0.88636872       0.12918792       0.50499836 </v>
   <v>       0.88249314       0.63961705       0.99261219 </v>
   <v>       0.89417863       0.64755969       0.49948318 </v>
   <v>       0.01519102       0.01313085       0.12114297 </v>
   <v>       0.98660363       0.98426896       0.62412686 </v>
   <v>       0.99708064       0.50108304       0.12315226 </v>
   <v>       0.99959191       0.49755154       0.62526440 </v>
   <v>       0.50220407       0.00070736       0.12395535 </v>
   <v>       0.49839964       0.99990059       0.62579021 </v>
   <v>       0.51179768       0.50858698       0.12027180 </v>
   <v>       0.50327069       0.49862380       0.62649561 </v>
   <v>       0.97271709       0.97970203       0.38252544 </v>
   <v>       0.00069957       0.49906854       0.37467501 </v>
   <v>       0.99782826       0.50088910       0.87657298 </v>
   <v>       0.49989978       0.99891473       0.37504616 </v>
   <v>       0.50174397       0.00071361       0.87379178 </v>
   <v>       0.49579286       0.49573599       0.37817535 </v>
   <v>       0.49689963       0.50043276       0.87429661 </v>
   <v>       0.26006908       0.26237513       0.37465183 </v>
   <v>       0.25083582       0.74906915       0.37809057 </v>
   <v>       0.25567273       0.74500938       0.87399904 </v>
   <v>       0.75240261       0.24923556       0.37614224 </v>
   <v>       0.74594409       0.25201833       0.87428900 </v>
   <v>       0.76645268       0.76695223       0.37937559 </v>
   <v>       0.23457343       0.22940474       0.12357676 </v>
   <v>       0.23658348       0.23775584       0.62326222 </v>
   <v>       0.24209064       0.75495897       0.12208823 </v>
   <v>       0.24812545       0.75596248       0.62568263 </v>
   <v>       0.75504724       0.24702015       0.12372668 </v>
   <v>       0.75105213       0.24993247       0.62535947 </v>
   <v>       0.73883669       0.74474848       0.12510290 </v>
   <v>       0.77856884       0.77894049       0.61907104 </v>
  </varray>
 </structure>
 <calculation>
  <scstep>
   <time name="dav">  605.91  605.96</time>
   <time name="total">  613.12  613.25</time>
   <energy>
    <i name="alphaZ">   5626.00032510 </i>
    <i name="ewald"> -61254.89488131 </i>
    <i name="hartreedc"> -16274.48651777 </i>
    <i name="XCdc">   2962.80864938 </i>
    <i name="pawpsdc"> 112350.34962991 </i>
    <i name="pawaedc">-111249.90281246 </i>
    <i name="eentropy">     -0.00000000 </i>
    <i name="bandstr">  -7062.97587303 </i>
    <i name="atom">  73783.44779670 </i>
    <i name="e_fr_energy">  -1119.65368349 </i>
    <i name="e_wo_entrp">  -1119.65368349 </i>
    <i name="e_0_energy">  -1119.65368349 </i>
   </energy>
  </scstep>
  <scstep>
   <time name="diag">   65.13   65.15</time>
   <time name="diis">   61.42   61.43</time>
   <time name="orth">   33.32   33.32</time>
   <time name="total">  167.17  167.23</time>
   <energy>
    <i name="e_fr_energy">  -1119.65368213 </i>
    <i name="e_wo_entrp">  -1119.65368213 </i>
    <i name="e_0_energy">  -1119.65368213 </i>
   </energy>
  </scstep>
  <scstep>
   <time name="diag">   65.06   65.07</time>
   <time name="diis">   57.22   57.22</time>
   <time name="orth">   33.42   33.42</time>
   <time name="total">  162.95  163.01</time>
   <energy>
    <i name="e_fr_energy">  -1119.65368241 </i>
    <i name="e_wo_entrp">  -1119.65368241 </i>
    <i name="e_0_energy">  -1119.65368241 </i>
   </energy>
  </scstep>
  <scstep>
   <time name="diag">   65.05   65.06</time>
   <time name="diis">   47.75   47.76</time>
   <time name="orth">   33.38   33.38</time>
   <time name="total">  153.47  153.53</time>
   <energy>
    <i name="e_fr_energy">  -1119.65368258 </i>
    <i name="e_wo_entrp">  -1119.65368258 </i>
    <i name="e_0_energy">  -1119.65368258 </i>
   </energy>
  </scstep>
  <scstep>
   <time name="diag">   65.02   65.04</time>
   <time name="diis">   46.97   46.97</time>
   <time name="orth">   33.34   33.34</time>
   <time name="total">  152.63  152.68</time>
   <energy>
    <i name="e_fr_energy">  -1119.65368272 </i>
    <i name="e_wo_entrp">  -1119.65368272 </i>
    <i name="e_0_energy">  -1119.65368272 </i>
   </energy>
  </scstep>
  <scstep>
   <time name="diag">   65.17   65.19</time>
   <time name="diis">   44.73   44.73</time>
   <time name="orth">   33.30   33.30</time>
   <time name="total">  150.49  150.59</time>
   <energy>
    <i name="e_fr_energy">  -1119.65368279 </i>
    <i name="e_wo_entrp">  -1119.65368279 </i>
    <i name="e_0_energy">  -1119.65368279 </i>
   </energy>
  </scstep>
  <scstep>
   <time name="diag">   65.03   65.03</time>
   <time name="diis">   44.05   44.05</time>
   <time name="orth">   33.47   33.47</time>
   <time name="total">  149.77  149.84</time>
   <energy>
    <i name="e_fr_energy">  -1119.65368285 </i>
    <i name="e_wo_entrp">  -1119.65368285 </i>
    <i name="e_0_energy">  -1119.65368285 </i>
   </energy>
  </scstep>
  <scstep>
   <time name="diag">   65.16   65.16</time>
   <time name="diis">   42.35   42.35</time>
   <time name="orth">   33.47   33.47</time>
   <time name="total">  142.02  142.10</time>
   <energy>
    <i name="alphaZ">   5626.00032510 </i>
    <i name="ewald"> -61254.89488131 </i>
    <i name="hartreedc"> -16274.46753222 </i>
    <i name="XCdc">   2962.80902623 </i>
    <i name="pawpsdc"> 112350.02861957 </i>
    <i name="pawaedc">-111249.56980548 </i>
    <i name="eentropy">     -0.00000000 </i>
    <i name="bandstr">  -7063.00723146 </i>
    <i name="atom">  73783.44779670 </i>
    <i name="e_fr_energy">  -1119.65368287 </i>
    <i name="e_wo_entrp">  -1119.65368287 </i>
    <i name="e_0_energy">  -1119.65368287 </i>
   </energy>
  </scstep>
  <structure>
   <crystal>
    <varray name="basis" >
     <v>      11.21812779      -0.01993216       0.00251351 </v>
     <v>      -0.01992827      11.21606647       0.01138787 </v>
     <v>       0.00361063       0.01628307      15.94249944 </v>
    </varray>
    <i name="volume">   2005.92884567 </i>
    <varray name="rec_basis" >
     <v>       0.08914172       0.00015840      -0.00002035 </v>
     <v>       0.00015844       0.08915819      -0.00009110 </v>
     <v>      -0.00001417      -0.00006371       0.06272549 </v>
    </varray>
   </crystal>
   <varray name="positions" >
    <v>       0.99678188       0.25246311       0.13295115 </v>
    <v>       0.99904512       0.26025024       0.62779361 </v>
    <v>       0.00797545       0.74761970       0.12778281 </v>
    <v>       0.00803741       0.73562714       0.62707407 </v>
    <v>       0.50465215       0.24941252       0.12523531 </v>
    <v>       0.49578925       0.25182457       0.62704984 </v>
    <v>       0.49328869       0.74704299       0.13037730 </v>
    <v>       0.49450402       0.75108061       0.62879513 </v>
    <v>       0.99778318       0.25389187       0.37497460 </v>
    <v>       0.99426576       0.26098239       0.87242095 </v>
    <v>       0.00674036       0.74874719       0.36898762 </v>
    <v>       0.00938607       0.73694310       0.87307448 </v>
    <v>       0.49837700       0.25268117       0.37163080 </v>
    <v>       0.50600691       0.25031956       0.87391159 </v>
    <v>       0.49119245       0.74864030       0.37108207 </v>
    <v>       0.49568008       0.74922365       0.87462280 </v>
    <v>       0.25573387       0.98988089       0.13231371 </v>
    <v>       0.25979765       0.00029070       0.62622961 </v>
    <v>       0.25359465       0.50686172       0.12879528 </v>
    <v>       0.24692089       0.49672919       0.63069792 </v>
    <v>       0.74679623       0.00343749       0.12868598 </v>
    <v>       0.73665650       0.00961948       0.62855793 </v>
    <v>       0.74892954       0.49584149       0.12686930 </v>
    <v>       0.75338342       0.49398370       0.63135641 </v>
    <v>       0.25583894       0.99549459       0.36866476 </v>
    <v>       0.26092578       0.99146089       0.87459923 </v>
    <v>       0.25179585       0.50238809       0.37177894 </v>
    <v>       0.24971517       0.50539916       0.87311759 </v>
    <v>       0.74234771       0.00712667       0.36967466 </v>
    <v>       0.73914249       0.00693730       0.87676806 </v>
    <v>       0.74707070       0.49443461       0.37096135 </v>
    <v>       0.75343146       0.49523054       0.87171097 </v>
    <v>       0.00295328       0.00302893       0.00687661 </v>
    <v>       0.01241208       0.00725859       0.49676755 </v>
    <v>       0.00018490       0.49989346       0.99841635 </v>
    <v>       0.00230350       0.49807100       0.50044356 </v>
    <v>       0.49749882       0.00390554       0.49908286 </v>
    <v>       0.50117464       0.50086935       0.99924424 </v>
    <v>       0.49284435       0.49552159       0.50039454 </v>
    <v>       0.24661022       0.24556654       0.00928605 </v>
    <v>       0.25235944       0.75149621       0.00046522 </v>
    <v>       0.24996046       0.74895631       0.49959614 </v>
    <v>       0.74909921       0.24901761       0.99978080 </v>
    <v>       0.74788930       0.25085009       0.50045312 </v>
    <v>       0.74980078       0.75080351       0.01028808 </v>
    <v>       0.74388482       0.73866146       0.50033532 </v>
    <v>       0.24921931       0.24962540       0.25539364 </v>
    <v>       0.24929618       0.74821779       0.74973746 </v>
    <v>       0.75051337       0.24980649       0.25014099 </v>
    <v>       0.75045223       0.25108370       0.75020532 </v>
    <v>       0.75145264       0.75153177       0.25518270 </v>
    <v>       0.99640295       0.99591921       0.74179840 </v>
    <v>       0.00098957       0.50153213       0.24989484 </v>
    <v>       0.49941358       0.99899715       0.24769403 </v>
    <v>       0.49955778       0.00031180       0.75294673 </v>
    <v>       0.50069604       0.50048620       0.75030212 </v>
    <v>       0.50037319       0.99966796       0.99876094 </v>
    <v>       0.25100461       0.25358317       0.49885354 </v>
    <v>       0.24722955       0.24696433       0.74039609 </v>
    <v>       0.24886611       0.74965747       0.25053091 </v>
    <v>       0.75523968       0.75575573       0.73843776 </v>
    <v>       0.99931226       0.99807661       0.25484767 </v>
    <v>       0.00066335       0.49923976       0.75218628 </v>
    <v>       0.49942943       0.50088916       0.24928254 </v>
    <v>       0.11277944       0.13652291       0.26421413 </v>
    <v>       0.11093731       0.12099842       0.76811835 </v>
    <v>       0.11298943       0.63321656       0.24883330 </v>
    <v>       0.12369322       0.62775295       0.74914820 </v>
    <v>       0.61420945       0.13634939       0.25051184 </v>
    <v>       0.61660177       0.13379776       0.74762274 </v>
    <v>       0.61811754       0.63951374       0.25978408 </v>
    <v>       0.62226412       0.63711631       0.75123255 </v>
    <v>       0.38359406       0.36176248       0.23791131 </v>
    <v>       0.38056903       0.36536851       0.75510831 </v>
    <v>       0.38637190       0.86638321       0.24877310 </v>
    <v>       0.38128463       0.86856254       0.74944611 </v>
    <v>       0.88604961       0.36413463       0.25043286 </v>
    <v>       0.87872120       0.36890507       0.74913564 </v>
    <v>       0.88442104       0.86238477       0.23643823 </v>
    <v>       0.88314937       0.87737566       0.78604944 </v>
    <v>       0.36383802       0.11360375       0.24973321 </v>
    <v>       0.36362385       0.11831885       0.75743535 </v>
    <v>       0.36523771       0.61574127       0.24713781 </v>
    <v>       0.37008419       0.61925696       0.74644519 </v>
    <v>       0.86295987       0.11389837       0.24856926 </v>
    <v>       0.86788558       0.11610272       0.75446365 </v>
    <v>       0.86278779       0.61376218       0.25052337 </v>
    <v>       0.86793422       0.62844152       0.75666042 </v>
    <v>       0.13488655       0.38493108       0.24533532 </v>
    <v>       0.13359908       0.37224710       0.76286883 </v>
    <v>       0.13404608       0.88657320       0.25348420 </v>
    <v>       0.12633609       0.87909907       0.75680331 </v>
    <v>       0.63780888       0.38412054       0.24872739 </v>
    <v>       0.63277412       0.38288667       0.75030152 </v>
    <v>       0.63745898       0.88758619       0.25040577 </v>
    <v>       0.63630393       0.88255964       0.75403551 </v>
    <v>       0.36135699       0.38079286       0.99707135 </v>
    <v>       0.35653784       0.39414125       0.50785156 </v>
    <v>       0.36731854       0.88202710       0.00047380 </v>
    <v>       0.35976527       0.89070164       0.50072557 </v>
    <v>       0.86518486       0.38423983       0.99979303 </v>
    <v>       0.85823463       0.39005985       0.50022859 </v>
    <v>       0.86937573       0.88600293       0.99277729 </v>
    <v>       0.12980061       0.11972203       0.96873234 </v>
    <v>       0.14208755       0.10572267       0.48989057 </v>
    <v>       0.13374312       0.61675670       0.99938003 </v>
    <v>       0.14308927       0.60744489       0.50278404 </v>
    <v>       0.63430739       0.11854063       0.00136868 </v>
    <v>       0.63946645       0.11124213       0.50022174 </v>
    <v>       0.64010283       0.61979177       0.98268260 </v>
    <v>       0.64435737       0.60818260       0.50417331 </v>
    <v>       0.11802499       0.36322896       0.99239301 </v>
    <v>       0.10459909       0.35785582       0.49933022 </v>
    <v>       0.11491045       0.87279109       0.98609554 </v>
    <v>       0.10061274       0.85595950       0.50178830 </v>
    <v>       0.61576851       0.36597639       0.99974342 </v>
    <v>       0.60851197       0.35821268       0.50079754 </v>
    <v>       0.62522819       0.86286385       0.98560308 </v>
    <v>       0.62259277       0.86464921       0.50131511 </v>
    <v>       0.37594094       0.13795690       0.98711502 </v>
    <v>       0.39231898       0.14067750       0.50043902 </v>
    <v>       0.38474408       0.63407921       0.00174910 </v>
    <v>       0.39356188       0.64340153       0.50332343 </v>
    <v>       0.88644888       0.13053387       0.98809950 </v>
    <v>       0.88636872       0.12918792       0.50499836 </v>
    <v>       0.88249314       0.63961705       0.99261219 </v>
    <v>       0.89417863       0.64755969       0.49948318 </v>
    <v>       0.01519102       0.01313085       0.12114297 </v>
    <v>       0.98660363       0.98426896       0.62412686 </v>
    <v>       0.99708064       0.50108304       0.12315226 </v>
    <v>       0.99959191       0.49755154       0.62526440 </v>
    <v>       0.50220407       0.00070736       0.12395535 </v>
    <v>       0.49839964       0.99990059       0.62579021 </v>
    <v>       0.51179768       0.50858698       0.12027180 </v>
    <v>       0.50327069       0.49862380       0.62649561 </v>
    <v>       0.97271709       0.97970203       0.38252544 </v>
    <v>       0.00069957       0.49906854       0.37467501 </v>
    <v>       0.99782826       0.50088910       0.87657298 </v>
    <v>       0.49989978       0.99891473       0.37504616 </v>
    <v>       0.50174397       0.00071361       0.87379178 </v>
    <v>       0.49579286       0.49573599       0.37817535 </v>
    <v>       0.49689963       0.50043276       0.87429661 </v>
    <v>       0.26006908       0.26237513       0.37465183 </v>
    <v>       0.25083582       0.74906915       0.37809057 </v>
    <v>       0.25567273       0.74500938       0.87399904 </v>
    <v>       0.75240261       0.24923556       0.37614224 </v>
    <v>       0.74594409       0.25201833       0.87428900 </v>
    <v>       0.76645268       0.76695223       0.37937559 </v>
    <v>       0.23457343       0.22940474       0.12357676 </v>
    <v>       0.23658348       0.23775584       0.62326222 </v>
    <v>       0.24209064       0.75495897       0.12208823 </v>
    <v>       0.24812545       0.75596248       0.62568263 </v>
    <v>       0.75504724       0.24702015       0.12372668 </v>
    <v>       0.75105213       0.24993247       0.62535947 </v>
    <v>       0.73883669       0.74474848       0.12510290 </v>
    <v>       0.77856884       0.77894049       0.61907104 </v>
   </varray>
  </structure>
  <varray name="forces" >
   <v>       0.00097308      -0.00935332      -0.01281696 </v>
   <v>      -0.00579715      -0.00546159      -0.00412903 </v>
   <v>      -0.01315362       0.00427177       0.00113775 </v>
   <v>      -0.00349474       0.00091921      -0.00585564 </v>
   <v>      -0.00840104       0.00737655       0.00072107 </v>
   <v>      -0.00247780       0.00175474      -0.01018927 </v>
   <v>       0.00085213      -0.00175728      -0.00145847 </v>
   <v>       0.00601589      -0.00050962       0.00453676 </v>
   <v>       0.00242312       0.00013893       0.00855326 </v>
   <v>       0.00896383      -0.02046993       0.00987827 </v>
   <v>      -0.00818978       0.00218878       0.00675992 </v>
   <v>      -0.00145859       0.00993007      -0.01027861 </v>
   <v>      -0.00135199      -0.00289838       0.00191713 </v>
   <v>      -0.00230467       0.00538339      -0.00118552 </v>
   <v>       0.00566965       0.00128258       0.00117533 </v>
   <v>       0.01550472      -0.00076764       0.00576782 </v>
   <v>      -0.01516438       0.00025173      -0.00330543 </v>
   <v>      -0.00048246       0.00444790      -0.00009811 </v>
   <v>       0.00648166       0.00353162      -0.00305697 </v>
   <v>       0.00193352      -0.00888065      -0.00478532 </v>
   <v>       0.00701533      -0.00395500      -0.00591075 </v>
   <v>       0.01129116      -0.00580610      -0.00755951 </v>
   <v>       0.00143215       0.00854098      -0.00226325 </v>
   <v>      -0.01035849       0.00582991      -0.00510261 </v>
   <v>      -0.00246128       0.00250493       0.01408365 </v>
   <v>      -0.00947535       0.01176331       0.00326019 </v>
   <v>       0.00008870       0.00006895       0.00135974 </v>
   <v>       0.00294387      -0.01051276       0.00634483 </v>
   <v>       0.00685285      -0.00158384       0.01551139 </v>
   <v>       0.01394921      -0.00928622       0.00236091 </v>
   <v>       0.00514895       0.00307176       0.00550641 </v>
   <v>      -0.00564218       0.01330378      -0.00521367 </v>
   <v>       0.00259981       0.01231483       0.06195222 </v>
   <v>       0.01715757      -0.01266807       0.01231247 </v>
   <v>       0.00440121       0.00508880       0.00446813 </v>
   <v>      -0.00063775      -0.01217607      -0.01622630 </v>
   <v>      -0.00651039       0.02055265      -0.00633021 </v>
   <v>       0.00319497       0.00562645       0.00005726 </v>
   <v>       0.00825760      -0.01409781       0.01441969 </v>
   <v>       0.00385172      -0.00324250      -0.02094047 </v>
   <v>      -0.00088144       0.00278392       0.00883078 </v>
   <v>      -0.01327001      -0.00309080      -0.01672963 </v>
   <v>       0.01660802      -0.00285446      -0.02000488 </v>
   <v>      -0.00698073      -0.00146121      -0.00406165 </v>
   <v>      -0.02404693       0.00670572      -0.00277097 </v>
   <v>      -0.00902811      -0.00710719      -0.01519052 </v>
   <v>       0.02721995       0.01452711      -0.00756921 </v>
   <v>       0.01498043       0.01280219       0.00748140 </v>
   <v>      -0.01266235       0.00181531       0.01935288 </v>
   <v>       0.00183679      -0.00847964      -0.00550928 </v>
   <v>       0.01587593       0.00298005       0.01191125 </v>
   <v>      -0.00044985       0.01600745      -0.00904161 </v>
   <v>      -0.00427050       0.01350198       0.01004732 </v>
   <v>      -0.00229534       0.00328119       0.01249149 </v>
   <v>      -0.01651427       0.01415197       0.00788754 </v>
   <v>       0.01716287       0.01682451      -0.00349885 </v>
   <v>      -0.00046358      -0.00122596      -0.00571765 </v>
   <v>       0.00269414      -0.00599423       0.01659185 </v>
   <v>       0.00827183      -0.02981656      -0.01794927 </v>
   <v>      -0.00392009      -0.00337965      -0.00125068 </v>
   <v>      -0.00501262      -0.01600337       0.02072410 </v>
   <v>      -0.00593491      -0.01098956      -0.01213776 </v>
   <v>      -0.00873308       0.00423983      -0.00306462 </v>
   <v>      -0.01089133      -0.00211109      -0.00202033 </v>
   <v>       0.01478604       0.00130756       0.00498703 </v>
   <v>      -0.00928999      -0.01444456       0.00606085 </v>
   <v>      -0.00064374      -0.00101419       0.00381451 </v>
   <v>      -0.00280051      -0.00850958       0.00752823 </v>
   <v>       0.00247272      -0.00033285      -0.00455084 </v>
   <v>      -0.00697135       0.01113642       0.00268665 </v>
   <v>      -0.00698305      -0.01498784       0.01146696 </v>
   <v>       0.00066864       0.00651489       0.01015684 </v>
   <v>      -0.00243388       0.00419817      -0.00390434 </v>
   <v>      -0.00602846      -0.00707051      -0.02778639 </v>
   <v>       0.00432038       0.00616273       0.00242971 </v>
   <v>       0.00029874      -0.01269198      -0.00372893 </v>
   <v>      -0.00429190       0.00434419      -0.00004207 </v>
   <v>       0.01360145       0.00110121      -0.00305529 </v>
   <v>      -0.00449627       0.01193336       0.00199031 </v>
   <v>       0.01187075       0.00377090      -0.02521135 </v>
   <v>      -0.00205562       0.00618062      -0.00190108 </v>
   <v>       0.00228350       0.00207280       0.00091014 </v>
   <v>       0.00973139      -0.00097294      -0.00191511 </v>
   <v>      -0.01318993       0.00351266      -0.00114750 </v>
   <v>       0.00510667       0.00716966       0.00103246 </v>
   <v>       0.00140970       0.00553929      -0.00296828 </v>
   <v>       0.01455084      -0.00466814      -0.00157934 </v>
   <v>       0.00202382      -0.01376179      -0.00395373 </v>
   <v>      -0.00381840      -0.01292638       0.00802982 </v>
   <v>      -0.00314107       0.01586101      -0.00169495 </v>
   <v>       0.00568470      -0.00478891       0.00231437 </v>
   <v>      -0.00001321      -0.00575006      -0.00420254 </v>
   <v>      -0.00591525       0.00110815       0.00238567 </v>
   <v>       0.00461243      -0.00634244       0.00792328 </v>
   <v>      -0.01066517      -0.00108839      -0.00577275 </v>
   <v>      -0.01301557       0.01243025      -0.00539021 </v>
   <v>      -0.01334601      -0.01160488       0.01771053 </v>
   <v>       0.00458613      -0.01899172       0.01370932 </v>
   <v>       0.00814871       0.01301076       0.00462090 </v>
   <v>       0.00903826      -0.00072844      -0.00124882 </v>
   <v>      -0.00311221       0.00805879       0.00621286 </v>
   <v>       0.00210946       0.00020690       0.01021213 </v>
   <v>       0.00335529      -0.01081419       0.01691787 </v>
   <v>       0.01088048       0.00937194       0.01015247 </v>
   <v>      -0.00316048      -0.00084974      -0.02102303 </v>
   <v>      -0.00616739      -0.00418057      -0.00635218 </v>
   <v>      -0.01057976       0.00273501      -0.00249801 </v>
   <v>      -0.01350962      -0.01090358       0.00298486 </v>
   <v>       0.00444752       0.00088154      -0.00230529 </v>
   <v>       0.00831840       0.01516552      -0.00490387 </v>
   <v>      -0.00847664       0.00269804      -0.02564113 </v>
   <v>      -0.00051172       0.00035438       0.00255786 </v>
   <v>       0.00286036       0.00297101      -0.01116696 </v>
   <v>       0.00813905      -0.00494209      -0.00797723 </v>
   <v>       0.00908755       0.00014568      -0.00555417 </v>
   <v>      -0.00129792      -0.00383726       0.00219792 </v>
   <v>       0.01062824       0.00171272      -0.01234942 </v>
   <v>      -0.00086101       0.00343036       0.00932871 </v>
   <v>       0.00060198      -0.00425349      -0.00403036 </v>
   <v>       0.00031376       0.01421005       0.00618532 </v>
   <v>       0.00072982      -0.00758985      -0.00732835 </v>
   <v>       0.01208576       0.00369806       0.00650728 </v>
   <v>       0.00224904      -0.00059860      -0.01452689 </v>
   <v>      -0.01181374       0.00067277       0.00149052 </v>
   <v>       0.00109107       0.01318185      -0.00306216 </v>
   <v>       0.00880823      -0.01861469      -0.00224092 </v>
   <v>       0.00121806      -0.00098091      -0.00355983 </v>
   <v>      -0.00634947      -0.00579839      -0.02740853 </v>
   <v>       0.00268254       0.00790322       0.02402844 </v>
   <v>       0.00280767       0.00423914      -0.00513353 </v>
   <v>       0.00693010       0.00319477      -0.00320911 </v>
   <v>       0.00108836       0.00332595      -0.00266959 </v>
   <v>       0.00609156       0.00289743      -0.00847191 </v>
   <v>      -0.00609181       0.00217801      -0.00254802 </v>
   <v>       0.02072931       0.01727115       0.01051462 </v>
   <v>      -0.00324965       0.00895230      -0.01594233 </v>
   <v>      -0.00496689       0.00160254       0.00131232 </v>
   <v>      -0.00128582      -0.00571223       0.00470684 </v>
   <v>       0.00145587      -0.00850326      -0.00254885 </v>
   <v>       0.00187663      -0.00559030      -0.00138517 </v>
   <v>      -0.01689222      -0.00455467       0.00517589 </v>
   <v>      -0.01865934       0.00084544      -0.00040688 </v>
   <v>       0.00259678       0.01100915       0.01458993 </v>
   <v>       0.00903350      -0.00406028       0.01016416 </v>
   <v>       0.00714732      -0.00925401      -0.00505100 </v>
   <v>       0.00341467       0.00835702      -0.01165964 </v>
   <v>       0.00072238       0.00442391       0.00690285 </v>
   <v>      -0.00432507       0.00572982       0.01252236 </v>
   <v>      -0.00081141      -0.00328952       0.01215650 </v>
   <v>      -0.00865102      -0.01332204       0.00670336 </v>
   <v>      -0.00027294       0.00521426      -0.01354324 </v>
   <v>       0.00103280      -0.00037784       0.00635150 </v>
   <v>      -0.00758078      -0.00216419       0.01168632 </v>
   <v>      -0.00820310       0.00026172       0.00074372 </v>
   <v>      -0.01428093      -0.01984187      -0.00598917 </v>
   <v>      -0.01845397      -0.01737026      -0.01570371 </v>
  </varray>
  <varray name="stress" >
   <v>       0.01359857       0.03077937      -0.02703595 </v>
   <v>       0.03077906       0.05405746       0.01987606 </v>
   <v>      -0.02703583       0.01987649      -0.34415793 </v>
  </varray>
  <energy>
   <i name="e_fr_energy">  -1119.65368287 </i>
   <i name="e_wo_entrp">  -1119.65368287 </i>
   <i name="e_0_energy">     -0.00000000 </i>
  </energy>
  <time name="totalsc"> 1959.43 1961.72</time>
 </calculation>
 <calculation>
  <scstep>
   <time name="dav">  567.70  567.81</time>
   <time name="total">  574.90  575.04</time>
   <energy>
    <i name="alphaZ">   5626.60270554 </i>
    <i name="ewald"> -61257.77255731 </i>
    <i name="hartreedc"> -16274.34555996 </i>
    <i name="XCdc">   2962.94620085 </i>
    <i name="pawpsdc"> 112350.02226850 </i>
    <i name="pawaedc">-111249.56337629 </i>
    <i name="eentropy">     -0.00000000 </i>
    <i name="bandstr">  -7060.99108808 </i>
    <i name="atom">  73783.44779670 </i>
    <i name="e_fr_energy">  -1119.65361005 </i>
    <i name="e_wo_entrp">  -1119.65361005 </i>
    <i name="e_0_energy">  -1119.65361005 </i>
   </energy>
  </scstep>
  <scstep>
   <time name="diag">   64.97   64.97</time>
   <time name="diis">  105.03  105.04</time>
   <time name="orth">   33.50   33.50</time>
   <time name="total">  210.77  210.79</time>
   <energy>
    <i name="e_fr_energy">  -1119.65458149 </i>
    <i name="e_wo_entrp">  -1119.65458149 </i>
    <i name="e_0_energy">  -1119.65458149 </i>
   </energy>
  </scstep>
  <scstep>
   <time name="diag">   64.71   64.72</time>
   <time name="diis">   92.68   92.69</time>
   <time name="orth">   33.50   33.50</time>
   <time name="total">  198.13  198.22</time>
   <energy>
    <i name="e_fr_energy">  -1119.65457789 </i>
    <i name="e_wo_entrp">  -1119.65457789 </i>
    <i name="e_0_energy">  -1119.65457789 </i>
   </energy>
  </scstep>
  <scstep>
   <time name="diag">   64.74   64.74</time>
   <time name="diis">   72.37   72.39</time>
   <time name="orth">   33.55   33.54</time>
   <time name="total">  177.91  177.98</time>
   <energy>
    <i name="e_fr_energy">  -1119.65450770 </i>
    <i name="e_wo_entrp">  -1119.65450770 </i>
    <i name="e_0_energy">  -1119.65450770 </i>
   </energy>
  </scstep>
  <scstep>
   <time name="diag">   64.75   64.76</time>
   <time name="diis">   64.41   64.41</time>
   <time name="orth">   33.48   33.50</time>
   <time name="total">  169.88  170.02</time>
   <energy>
    <i name="e_fr_energy">  -1119.65450085 </i>
    <i name="e_wo_entrp">  -1119.65450085 </i>
    <i name="e_0_energy">  -1119.65450085 </i>
   </energy>
  </scstep>
  <scstep>
   <time name="diag">   64.89   64.91</time>
   <time name="diis">   63.41   63.41</time>
   <time name="orth">   33.54   33.54</time>
   <time name="total">  169.11  169.22</time>
   <energy>
    <i name="e_fr_energy">  -1119.65450230 </i>
    <i name="e_wo_entrp">  -1119.65450230 </i>
    <i name="e_0_energy">  -1119.65450230 </i>
   </energy>
  </scstep>
  <scstep>
   <time name="diag">   65.20   65.21</time>
   <time name="diis">   59.87   59.88</time>
   <time name="orth">   33.55   33.55</time>
   <time name="total">  165.84  165.95</time>
   <energy>
    <i name="e_fr_energy">  -1119.65450366 </i>
    <i name="e_wo_entrp">  -1119.65450366 </i>
    <i name="e_0_energy">  -1119.65450366 </i>
   </energy>
  </scstep>
  <scstep>
   <time name="diag">   65.18   65.19</time>
   <time name="diis">   58.27   58.28</time>
   <time name="orth">   33.54   33.54</time>
   <time name="total">  158.05  158.13</time>
   <energy>
    <i name="alphaZ">   5626.60270554 </i>
    <i name="ewald"> -61257.77255731 </i>
    <i name="hartreedc"> -16272.87818143 </i>
    <i name="XCdc">   2962.84502225 </i>
    <i name="pawpsdc"> 112366.68470437 </i>
    <i name="pawaedc">-111266.23208337 </i>
    <i name="eentropy">     -0.00000000 </i>
    <i name="bandstr">  -7062.35191159 </i>
    <i name="atom">  73783.44779670 </i>
    <i name="e_fr_energy">  -1119.65450482 </i>
    <i name="e_wo_entrp">  -1119.65450482 </i>
    <i name="e_0_energy">  -1119.65450482 </i>
   </energy>
  </scstep>
  <structure>
   <crystal>
    <varray name="basis" >
     <v>      11.21818659      -0.01979887       0.00239559 </v>
     <v>      -0.01979484      11.21630107       0.01147287 </v>
     <v>       0.00344396       0.01640614      15.94037518 </v>
    </varray>
    <i name="volume">   2005.71409222 </i>
    <varray name="rec_basis" >
     <v>       0.08914125       0.00015734      -0.00001942 </v>
     <v>       0.00015737       0.08915632      -0.00009180 </v>
     <v>      -0.00001351      -0.00006419       0.06273385 </v>
    </varray>
   </crystal>
   <varray name="positions" >
    <v>       0.99678600       0.25242295       0.13291239 </v>
    <v>       0.99902015       0.26022672       0.62778113 </v>
    <v>       0.00791891       0.74763797       0.12778625 </v>
    <v>       0.00802240       0.73563110       0.62705635 </v>
    <v>       0.50461608       0.24944418       0.12523748 </v>
    <v>       0.49577862       0.25183214       0.62701900 </v>
    <v>       0.49329234       0.74703544       0.13037289 </v>
    <v>       0.49452988       0.75107845       0.62880885 </v>
    <v>       0.99779359       0.25389245       0.37500048 </v>
    <v>       0.99430414       0.26089437       0.87245090 </v>
    <v>       0.00670515       0.74875651       0.36900807 </v>
    <v>       0.00937988       0.73698584       0.87304335 </v>
    <v>       0.49837116       0.25266868       0.37163661 </v>
    <v>       0.50599704       0.25034271       0.87390799 </v>
    <v>       0.49121684       0.74864586       0.37108561 </v>
    <v>       0.49574675       0.74922044       0.87464024 </v>
    <v>       0.25566866       0.98988187       0.13230372 </v>
    <v>       0.25979561       0.00030983       0.62622930 </v>
    <v>       0.25362255       0.50687697       0.12878601 </v>
    <v>       0.24692914       0.49669103       0.63068347 </v>
    <v>       0.74682637       0.00342055       0.12866810 </v>
    <v>       0.73670502       0.00959463       0.62853507 </v>
    <v>       0.74893576       0.49587825       0.12686242 </v>
    <v>       0.75333893       0.49400872       0.63134096 </v>
    <v>       0.25582836       0.99550529       0.36870737 </v>
    <v>       0.26088511       0.99151140       0.87460907 </v>
    <v>       0.25179623       0.50238839       0.37178306 </v>
    <v>       0.24972774       0.50535394       0.87313682 </v>
    <v>       0.74237715       0.00711984       0.36972160 </v>
    <v>       0.73920240       0.00689745       0.87677523 </v>
    <v>       0.74709286       0.49444784       0.37097799 </v>
    <v>       0.75340730       0.49528774       0.87169516 </v>
    <v>       0.00296449       0.00308165       0.00706404 </v>
    <v>       0.01248575       0.00720418       0.49680483 </v>
    <v>       0.00020386       0.49991537       0.99842986 </v>
    <v>       0.00230068       0.49801869       0.50039449 </v>
    <v>       0.49747098       0.00399392       0.49906364 </v>
    <v>       0.50118843       0.50089358       0.99924439 </v>
    <v>       0.49287974       0.49546096       0.50043821 </v>
    <v>       0.24662678       0.24555272       0.00922269 </v>
    <v>       0.25235566       0.75150814       0.00049194 </v>
    <v>       0.24990339       0.74894299       0.49954553 </v>
    <v>       0.74917063       0.24900555       0.99972026 </v>
    <v>       0.74785927       0.25084377       0.50044084 </v>
    <v>       0.74969742       0.75083219       0.01027969 </v>
    <v>       0.74384596       0.73863089       0.50028938 </v>
    <v>       0.24933649       0.24968813       0.25537067 </v>
    <v>       0.24936070       0.74827294       0.74976005 </v>
    <v>       0.75045891       0.24981412       0.25019955 </v>
    <v>       0.75046007       0.25104727       0.75018867 </v>
    <v>       0.75152092       0.75154466       0.25521872 </v>
    <v>       0.99640115       0.99598810       0.74177099 </v>
    <v>       0.00097130       0.50159012       0.24992520 </v>
    <v>       0.49940372       0.99901119       0.24773182 </v>
    <v>       0.49948686       0.00037251       0.75297057 </v>
    <v>       0.50076998       0.50055871       0.75029147 </v>
    <v>       0.50037120       0.99966271       0.99874364 </v>
    <v>       0.25101614       0.25355734       0.49890376 </v>
    <v>       0.24726491       0.24683622       0.74034186 </v>
    <v>       0.24884922       0.74964291       0.25052713 </v>
    <v>       0.75521798       0.75568676       0.73850052 </v>
    <v>       0.99928666       0.99802935       0.25481098 </v>
    <v>       0.00062583       0.49925795       0.75217700 </v>
    <v>       0.49938257       0.50088001       0.24927644 </v>
    <v>       0.11284303       0.13652863       0.26422921 </v>
    <v>       0.11089724       0.12093619       0.76813674 </v>
    <v>       0.11298665       0.63321218       0.24884484 </v>
    <v>       0.12368110       0.62771629       0.74917100 </v>
    <v>       0.61422008       0.13634800       0.25049807 </v>
    <v>       0.61657187       0.13384560       0.74763084 </v>
    <v>       0.61808738       0.63944917       0.25981883 </v>
    <v>       0.62226703       0.63714429       0.75126327 </v>
    <v>       0.38358363       0.36178053       0.23789948 </v>
    <v>       0.38054308       0.36533818       0.75502426 </v>
    <v>       0.38639053       0.86640974       0.24878043 </v>
    <v>       0.38128582       0.86850796       0.74943486 </v>
    <v>       0.88603118       0.36415328       0.25043272 </v>
    <v>       0.87877970       0.36890993       0.74912638 </v>
    <v>       0.88440179       0.86243605       0.23644422 </v>
    <v>       0.88320047       0.87739208       0.78597313 </v>
    <v>       0.36382923       0.11363032       0.24972744 </v>
    <v>       0.36363368       0.11832778       0.75743809 </v>
    <v>       0.36527955       0.61573717       0.24713201 </v>
    <v>       0.37002750       0.61927198       0.74644171 </v>
    <v>       0.86298189       0.11392925       0.24857236 </v>
    <v>       0.86789168       0.11612657       0.75445465 </v>
    <v>       0.86285033       0.61374222       0.25051860 </v>
    <v>       0.86794282       0.62838236       0.75664849 </v>
    <v>       0.13487002       0.38487542       0.24535966 </v>
    <v>       0.13358569       0.37231530       0.76286366 </v>
    <v>       0.13407048       0.88655264       0.25349121 </v>
    <v>       0.12633600       0.87907436       0.75679061 </v>
    <v>       0.63778345       0.38412525       0.24873461 </v>
    <v>       0.63279390       0.38285939       0.75032552 </v>
    <v>       0.63741312       0.88758146       0.25038832 </v>
    <v>       0.63624805       0.88261303       0.75401917 </v>
    <v>       0.36129949       0.38074277       0.99712498 </v>
    <v>       0.35655740       0.39405953       0.50789310 </v>
    <v>       0.36735368       0.88208310       0.00048774 </v>
    <v>       0.35980413       0.89069858       0.50072179 </v>
    <v>       0.86517154       0.38427444       0.99981181 </v>
    <v>       0.85824370       0.39006071       0.50025949 </v>
    <v>       0.86939006       0.88595637       0.99282851 </v>
    <v>       0.12984746       0.11976238       0.96876302 </v>
    <v>       0.14207398       0.10571908       0.48982696 </v>
    <v>       0.13371657       0.61673870       0.99936082 </v>
    <v>       0.14304379       0.60745659       0.50277648 </v>
    <v>       0.63424921       0.11849361       0.00137776 </v>
    <v>       0.63948558       0.11124597       0.50021475 </v>
    <v>       0.64013873       0.61985709       0.98266771 </v>
    <v>       0.64432096       0.60819425       0.50409572 </v>
    <v>       0.11802279       0.36323047       0.99240075 </v>
    <v>       0.10461142       0.35786867       0.49929642 </v>
    <v>       0.11494542       0.87276993       0.98607141 </v>
    <v>       0.10065182       0.85596022       0.50177149 </v>
    <v>       0.61576290       0.36595986       0.99975008 </v>
    <v>       0.60855770       0.35822018       0.50076015 </v>
    <v>       0.62522450       0.86287856       0.98563130 </v>
    <v>       0.62259533       0.86463093       0.50130293 </v>
    <v>       0.37594239       0.13801799       0.98713370 </v>
    <v>       0.39232206       0.14064490       0.50041687 </v>
    <v>       0.38479607       0.63409518       0.00176877 </v>
    <v>       0.39357156       0.64339904       0.50327947 </v>
    <v>       0.88639808       0.13053667       0.98810401 </v>
    <v>       0.88637352       0.12924464       0.50498905 </v>
    <v>       0.88253088       0.63953706       0.99260546 </v>
    <v>       0.89418387       0.64755550       0.49947241 </v>
    <v>       0.01516370       0.01310598       0.12106006 </v>
    <v>       0.98661521       0.98430286       0.62419954 </v>
    <v>       0.99709275       0.50110132       0.12313671 </v>
    <v>       0.99962174       0.49756535       0.62525467 </v>
    <v>       0.50220878       0.00072169       0.12394726 </v>
    <v>       0.49842587       0.99991313       0.62576457 </v>
    <v>       0.51177151       0.50859631       0.12026408 </v>
    <v>       0.50335996       0.49869820       0.62652736 </v>
    <v>       0.97270320       0.97974058       0.38247717 </v>
    <v>       0.00067822       0.49907539       0.37467898 </v>
    <v>       0.99782269       0.50086450       0.87658724 </v>
    <v>       0.49990598       0.99887817       0.37503847 </v>
    <v>       0.50175200       0.00068958       0.87378761 </v>
    <v>       0.49572018       0.49571625       0.37819103 </v>
    <v>       0.49681939       0.50043626       0.87429539 </v>
    <v>       0.26008031       0.26242244       0.37469595 </v>
    <v>       0.25087462       0.74905171       0.37812133 </v>
    <v>       0.25570340       0.74496965       0.87398378 </v>
    <v>       0.75241737       0.24927158       0.37610693 </v>
    <v>       0.74594722       0.25203733       0.87430988 </v>
    <v>       0.76643411       0.76697679       0.37941347 </v>
    <v>       0.23456990       0.22939053       0.12361356 </v>
    <v>       0.23654616       0.23769844       0.62328256 </v>
    <v>       0.24208952       0.75498146       0.12204723 </v>
    <v>       0.24812988       0.75596083       0.62570185 </v>
    <v>       0.75501461       0.24701073       0.12376205 </v>
    <v>       0.75101685       0.24993353       0.62536173 </v>
    <v>       0.73877513       0.74466306       0.12508484 </v>
    <v>       0.77848936       0.77886570       0.61902359 </v>
   </varray>
  </structure>
  <varray name="forces" >
   <v>      -0.00166682       0.00514141      -0.00228383 </v>
   <v>      -0.00678356       0.00466647       0.00131271 </v>
   <v>      -0.00933218      -0.00563816      -0.00684804 </v>
   <v>      -0.00010569      -0.00551810       0.00189648 </v>
   <v>      -0.00282741       0.00359575      -0.00470977 </v>
   <v>       0.00060639       0.00170809      -0.00467180 </v>
   <v>       0.00206468       0.00269814       0.00173570 </v>
   <v>       0.00137748       0.00665755      -0.00247211 </v>
   <v>       0.00507167      -0.00304130      -0.00449681 </v>
   <v>       0.00869045      -0.00753589       0.00685628 </v>
   <v>      -0.00570505      -0.00046487       0.00487648 </v>
   <v>       0.00165767       0.00475513      -0.00530785 </v>
   <v>      -0.00247369       0.00156718      -0.00154304 </v>
   <v>       0.00138492       0.00676869       0.00007042 </v>
   <v>       0.00523887      -0.00053282       0.00545310 </v>
   <v>       0.00495579       0.00084602       0.00602157 </v>
   <v>      -0.00110452       0.00612213      -0.00129663 </v>
   <v>       0.00322219      -0.00678935       0.00186415 </v>
   <v>      -0.00051855      -0.00137278      -0.00440115 </v>
   <v>      -0.00563979      -0.00120277       0.00515930 </v>
   <v>      -0.00528229       0.00382064      -0.00474449 </v>
   <v>       0.00484867      -0.00995591      -0.00521600 </v>
   <v>       0.00253935      -0.00096475      -0.00280771 </v>
   <v>      -0.00081794       0.00393836      -0.00422603 </v>
   <v>      -0.00276048       0.00457155       0.00281426 </v>
   <v>      -0.01330066       0.00523348       0.00702288 </v>
   <v>       0.00252628      -0.00293460       0.00342203 </v>
   <v>      -0.00142098      -0.00617892      -0.00207415 </v>
   <v>       0.00655393      -0.00147855       0.00754413 </v>
   <v>       0.01157660      -0.00575575       0.00041841 </v>
   <v>       0.00076138       0.00029359       0.00171810 </v>
   <v>       0.00349406       0.00831979      -0.00092092 </v>
   <v>      -0.00328728      -0.02254991      -0.08864318 </v>
   <v>      -0.01625051      -0.00131125      -0.01252273 </v>
   <v>      -0.00080159       0.00676772      -0.00501414 </v>
   <v>       0.00181994       0.00707045       0.01638970 </v>
   <v>      -0.00181788      -0.00797121       0.00833781 </v>
   <v>      -0.00141299      -0.00726809      -0.00585386 </v>
   <v>      -0.01324632       0.01743688      -0.00511041 </v>
   <v>      -0.00069412       0.00828843       0.02038787 </v>
   <v>      -0.00247989       0.00401957      -0.01184369 </v>
   <v>       0.01467517      -0.00837128       0.02245142 </v>
   <v>      -0.01548536       0.00470272       0.01414172 </v>
   <v>       0.00600053      -0.00215629      -0.00270471 </v>
   <v>       0.02489531      -0.00485910      -0.00687795 </v>
   <v>      -0.00654632       0.00005715       0.02122845 </v>
   <v>      -0.01642681       0.00049108      -0.00130324 </v>
   <v>      -0.00768360      -0.00363734       0.00332061 </v>
   <v>       0.01290718      -0.00759708      -0.02369635 </v>
   <v>       0.00670425       0.00369375       0.00741602 </v>
   <v>      -0.02305232      -0.00877719       0.00178578 </v>
   <v>       0.00735448      -0.00966866       0.02950519 </v>
   <v>       0.00294914      -0.02926568      -0.01645506 </v>
   <v>      -0.00111040       0.00725985      -0.00615753 </v>
   <v>       0.00465054       0.00549678       0.00088765 </v>
   <v>      -0.01906534      -0.00833503       0.00261223 </v>
   <v>       0.00014422       0.00633455       0.00646924 </v>
   <v>       0.00043081      -0.00024435      -0.00195428 </v>
   <v>      -0.00986855       0.00632645       0.00665116 </v>
   <v>       0.00512790      -0.00172674      -0.00128214 </v>
   <v>       0.00563960       0.00147417       0.00012683 </v>
   <v>       0.00730916       0.01507189       0.01068643 </v>
   <v>       0.00732136       0.00069019       0.00131955 </v>
   <v>       0.00099464      -0.00068979       0.00252274 </v>
   <v>       0.00889993      -0.00914748       0.00132001 </v>
   <v>       0.00435385      -0.00072575       0.00730073 </v>
   <v>       0.00707713       0.00658626       0.00436545 </v>
   <v>       0.00233399       0.00247214       0.00627777 </v>
[...]
       <r>   -16.2947     0.0000    32.0000 </r>
       <r>   -16.1423     0.0000    32.0000 </r>
       <r>   -15.9898     0.0000    32.0000 </r>
       <r>   -15.8374     0.0000    32.0000 </r>
       <r>   -15.6850     0.0000    32.0000 </r>
       <r>   -15.5325     0.0000    32.0000 </r>
       <r>   -15.3801     0.0000    32.0000 </r>
       <r>   -15.2276     0.0037    32.0006 </r>
       <r>   -15.0752     9.0794    33.3846 </r>
       <r>   -14.9227    48.3975    40.7624 </r>
       <r>   -14.7703    47.5681    48.0138 </r>
       <r>   -14.6179    38.5264    53.8868 </r>
       <r>   -14.4654    32.5323    58.8461 </r>
       <r>   -14.3130    39.7455    64.9050 </r>
       <r>   -14.1605    58.9362    73.8893 </r>
       <r>   -14.0081   107.1396    90.2219 </r>
       <r>   -13.8557   106.4321   106.4466 </r>
       <r>   -13.7032    74.7562   117.8426 </r>
       <r>   -13.5508    24.7125   121.6098 </r>
       <r>   -13.3983    15.1425   123.9181 </r>
       <r>   -13.2459     0.5369   124.0000 </r>
       <r>   -13.0934     0.0000   124.0000 </r>
       <r>   -12.9410     0.0000   124.0000 </r>
       <r>   -12.7886     0.0466   124.0071 </r>
       <r>   -12.6361    28.8630   128.4070 </r>
       <r>   -12.4837   120.4046   146.7617 </r>
       <r>   -12.3312   143.0349   168.5662 </r>
       <r>   -12.1788   122.6660   187.2657 </r>
       <r>   -12.0264   112.7517   204.4538 </r>
       <r>   -11.8739    73.0591   215.5910 </r>
       <r>   -11.7215    28.3509   219.9129 </r>
       <r>   -11.5690     0.5715   220.0000 </r>
       <r>   -11.4166     0.0000   220.0000 </r>
       <r>   -11.2641     0.0000   220.0000 </r>
       <r>   -11.1117     0.0000   220.0000 </r>
       <r>   -10.9593     0.0000   220.0000 </r>
       <r>   -10.8068     0.0000   220.0000 </r>
       <r>   -10.6544     0.0000   220.0000 </r>
       <r>   -10.5019     0.0000   220.0000 </r>
       <r>   -10.3495     0.0000   220.0000 </r>
       <r>   -10.1971     0.0000   220.0000 </r>
       <r>   -10.0446     0.0000   220.0000 </r>
       <r>    -9.8922     0.0000   220.0000 </r>
       <r>    -9.7397     0.0000   220.0000 </r>
       <r>    -9.5873     0.0000   220.0000 </r>
       <r>    -9.4348     0.0000   220.0000 </r>
       <r>    -9.2824     0.0000   220.0000 </r>
       <r>    -9.1300     0.0000   220.0000 </r>
       <r>    -8.9775     0.0000   220.0000 </r>
       <r>    -8.8251     0.0000   220.0000 </r>
       <r>    -8.6726     0.0000   220.0000 </r>
       <r>    -8.5202     0.0000   220.0000 </r>
       <r>    -8.3677     0.0000   220.0000 </r>
       <r>    -8.2153     0.0000   220.0000 </r>
       <r>    -8.0629     0.0000   220.0000 </r>
       <r>    -7.9104     0.0000   220.0000 </r>
       <r>    -7.7580     0.0000   220.0000 </r>
       <r>    -7.6055     0.0000   220.0000 </r>
       <r>    -7.4531     0.0000   220.0000 </r>
       <r>    -7.3007     0.0000   220.0000 </r>
       <r>    -7.1482     0.0000   220.0000 </r>
       <r>    -6.9958     0.0000   220.0000 </r>
       <r>    -6.8433     0.0000   220.0000 </r>
       <r>    -6.6909     0.0000   220.0000 </r>
       <r>    -6.5384     0.0000   220.0000 </r>
       <r>    -6.3860     0.0000   220.0000 </r>
       <r>    -6.2336     0.0000   220.0000 </r>
       <r>    -6.0811     0.0000   220.0000 </r>
       <r>    -5.9287     0.0000   220.0000 </r>
       <r>    -5.7762     0.0000   220.0000 </r>
       <r>    -5.6238     0.0000   220.0000 </r>
       <r>    -5.4714     0.0000   220.0000 </r>
       <r>    -5.3189     0.0000   220.0000 </r>
       <r>    -5.1665     0.0000   220.0000 </r>
       <r>    -5.0140     0.0000   220.0000 </r>
       <r>    -4.8616     0.0000   220.0000 </r>
       <r>    -4.7091     0.0000   220.0000 </r>
       <r>    -4.5567     0.0000   220.0000 </r>
       <r>    -4.4043     0.0000   220.0000 </r>
       <r>    -4.2518     0.0000   220.0000 </r>
       <r>    -4.0994     0.0000   220.0000 </r>
       <r>    -3.9469     0.0000   220.0000 </r>
       <r>    -3.7945     0.0000   220.0000 </r>
       <r>    -3.6421     0.0000   220.0000 </r>
       <r>    -3.4896     0.0000   220.0000 </r>
       <r>    -3.3372     0.0000   220.0000 </r>
       <r>    -3.1847     0.0000   220.0000 </r>
       <r>    -3.0323     0.0000   220.0000 </r>
       <r>    -2.8798     0.0000   220.0000 </r>
       <r>    -2.7274     0.0000   220.0000 </r>
       <r>    -2.5750     0.0000   220.0000 </r>
       <r>    -2.4225     0.4146   220.0632 </r>
       <r>    -2.2701    14.6230   222.2924 </r>
       <r>    -2.1176    13.2653   224.3146 </r>
       <r>    -1.9652    23.0376   227.8264 </r>
       <r>    -1.8128    36.3578   233.3689 </r>
       <r>    -1.6603    51.3613   241.1985 </r>
       <r>    -1.5079    56.7227   249.8454 </r>
       <r>    -1.3554    54.6771   258.1805 </r>
       <r>    -1.2030    66.4996   268.3178 </r>
       <r>    -1.0505    74.6615   279.6994 </r>
       <r>    -0.8981    82.4013   292.2608 </r>
       <r>    -0.7457    81.2038   304.6396 </r>
       <r>    -0.5932    93.0181   318.8195 </r>
       <r>    -0.4408   110.4035   335.6496 </r>
       <r>    -0.2883    83.8047   348.4249 </r>
       <r>    -0.1359    58.2705   357.3078 </r>
       <r>     0.0166    47.8084   364.5958 </r>
       <r>     0.1690    47.1035   371.7763 </r>
       <r>     0.3214    49.6699   379.3481 </r>
       <r>     0.4739    49.8525   386.9477 </r>
       <r>     0.6263    57.2492   395.6749 </r>
       <r>     0.7788    51.6425   403.5474 </r>
       <r>     0.9312    47.0574   410.7209 </r>
       <r>     1.0836    59.6058   419.8073 </r>
       <r>     1.2361    71.0715   430.6416 </r>
       <r>     1.3885    82.8989   443.2789 </r>
       <r>     1.5410    88.8156   456.8181 </r>
       <r>     1.6934    78.6921   468.8140 </r>
       <r>     1.8459    67.1190   479.0458 </r>
       <r>     1.9983    52.1055   486.9888 </r>
       <r>     2.1507    29.3229   491.4589 </r>
       <r>     2.3032    23.0979   494.9800 </r>
       <r>     2.4556     6.6910   496.0000 </r>
       <r>     2.6081     0.0002   496.0000 </r>
       <r>     2.7605     0.0000   496.0000 </r>
       <r>     2.9129     0.0000   496.0000 </r>
       <r>     3.0654     0.0000   496.0000 </r>
       <r>     3.2178     0.0000   496.0000 </r>
       <r>     3.3703     0.0000   496.0000 </r>
       <r>     3.5227     0.0000   496.0000 </r>
       <r>     3.6752     0.0000   496.0000 </r>
       <r>     3.8276     0.0000   496.0000 </r>
       <r>     3.9800     0.0000   496.0000 </r>
       <r>     4.1325     0.0000   496.0000 </r>
       <r>     4.2849     0.0000   496.0000 </r>
       <r>     4.4374     1.9795   496.3018 </r>
       <r>     4.5898    18.3322   499.0964 </r>
       <r>     4.7422    38.2462   504.9267 </r>
       <r>     4.8947    38.1024   510.7351 </r>
       <r>     5.0471    34.9999   516.0705 </r>
       <r>     5.1996    47.9992   523.3876 </r>
       <r>     5.3520    55.9641   531.9189 </r>
       <r>     5.5045    66.6208   542.0747 </r>
       <r>     5.6569    74.9783   553.5045 </r>
       <r>     5.8093    71.6877   564.4327 </r>
       <r>     5.9618    75.4808   575.9392 </r>
       <r>     6.1142    93.4850   590.1902 </r>
       <r>     6.2667    75.7307   601.7347 </r>
       <r>     6.4191    59.4070   610.7908 </r>
       <r>     6.5716    26.9845   614.9044 </r>
       <r>     6.7240    16.0958   617.3581 </r>
       <r>     6.8764    19.2822   620.2975 </r>
       <r>     7.0289    19.8597   623.3249 </r>
       <r>     7.1813    20.1520   626.3969 </r>
       <r>     7.3338    14.3320   628.5817 </r>
       <r>     7.4862    15.7207   630.9782 </r>
       <r>     7.6386    13.4632   633.0306 </r>
       <r>     7.7911    14.8966   635.3014 </r>
       <r>     7.9435    19.9377   638.3408 </r>
       <r>     8.0960    25.2959   642.1969 </r>
       <r>     8.2484    22.7861   645.6705 </r>
       <r>     8.4009    29.0551   650.0997 </r>
       <r>     8.5533    24.9705   653.9062 </r>
       <r>     8.7057    21.3980   657.1682 </r>
       <r>     8.8582    28.2116   661.4688 </r>
       <r>     9.0106    33.7827   666.6187 </r>
       <r>     9.1631    40.1992   672.7468 </r>
       <r>     9.3155    38.7590   678.6553 </r>
       <r>     9.4679    45.3723   685.5719 </r>
       <r>     9.6204    46.9151   692.7237 </r>
       <r>     9.7728    47.9643   700.0355 </r>
       <r>     9.9253    64.7183   709.9013 </r>
       <r>    10.0777    67.1300   720.1347 </r>
       <r>    10.2302    64.6815   729.9948 </r>
       <r>    10.3826    57.1680   738.7096 </r>
       <r>    10.5350    57.6674   747.5006 </r>
       <r>    10.6875    59.1006   756.5100 </r>
       <r>    10.8399    53.0628   764.5990 </r>
       <r>    10.9924    22.2898   767.9969 </r>
       <r>    11.1448     0.0207   768.0000 </r>
       <r>    11.2972     0.0000   768.0000 </r>
       <r>    11.4497     0.0000   768.0000 </r>
       <r>    11.6021     0.0000   768.0000 </r>
       <r>    11.7546     0.0000   768.0000 </r>
       <r>    11.9070     0.0000   768.0000 </r>
       <r>    12.0595     0.0000   768.0000 </r>
       <r>    12.2119     0.0000   768.0000 </r>
       <r>    12.3643     0.0000   768.0000 </r>
       <r>    12.5168     0.0000   768.0000 </r>
       <r>    12.6692     0.0000   768.0000 </r>
       <r>    12.8217     0.0000   768.0000 </r>
       <r>    12.9741     0.0000   768.0000 </r>
      </set>
     </set>
    </array>
   </total>
  </dos>
 </calculation>
 <structure name="finalpos" >
  <crystal>
   <varray name="basis" >
    <v>      11.21924727      -0.01959215       0.00196326 </v>
    <v>      -0.01958862      11.21739106       0.01184184 </v>
    <v>       0.00283158       0.01693254      15.93893562 </v>
   </varray>
   <i name="volume">   2005.91751850 </i>
   <varray name="rec_basis" >
    <v>       0.08913281       0.00015567      -0.00001600 </v>
    <v>       0.00015569       0.08914766      -0.00009473 </v>
    <v>      -0.00001109      -0.00006625       0.06273952 </v>
   </varray>
  </crystal>
  <varray name="positions" >
   <v>       0.99674016       0.25237814       0.13281479 </v>
   <v>       0.99880106       0.26025326       0.62773355 </v>
   <v>       0.00765562       0.74760796       0.12780331 </v>
   <v>       0.00798871       0.73556212       0.62701801 </v>
   <v>       0.50449032       0.24957349       0.12520029 </v>
   <v>       0.49582041       0.25189101       0.62688234 </v>
   <v>       0.49330945       0.74710284       0.13042168 </v>
   <v>       0.49461069       0.75120081       0.62881813 </v>
   <v>       0.99791289       0.25383305       0.37499021 </v>
   <v>       0.99448115       0.26065003       0.87257532 </v>
   <v>       0.00659378       0.74872268       0.36905490 </v>
   <v>       0.00943301       0.73707153       0.87292833 </v>
   <v>       0.49835066       0.25268086       0.37163756 </v>
   <v>       0.50603335       0.25046988       0.87388054 </v>
   <v>       0.49132416       0.74866900       0.37114344 </v>
   <v>       0.49595485       0.74926597       0.87475934 </v>
   <v>       0.25550088       0.98997966       0.13231467 </v>
   <v>       0.25983134       0.00019968       0.62621053 </v>
   <v>       0.25367272       0.50692594       0.12875039 </v>
   <v>       0.24682022       0.49656386       0.63072733 </v>
   <v>       0.74679824       0.00344551       0.12862716 </v>
   <v>       0.73686694       0.00939987       0.62845647 </v>
   <v>       0.74897131       0.49593790       0.12685271 </v>
   <v>       0.75321012       0.49406329       0.63123133 </v>
   <v>       0.25576798       0.99557401       0.36879416 </v>
   <v>       0.26065989       0.99170377       0.87471813 </v>
   <v>       0.25181564       0.50236488       0.37183641 </v>
   <v>       0.24972623       0.50519993       0.87313483 </v>
   <v>       0.74253965       0.00705407       0.36984643 </v>
   <v>       0.73942105       0.00675587       0.87679073 </v>
   <v>       0.74717257       0.49444883       0.37102076 </v>
   <v>       0.75343466       0.49551254       0.87163069 </v>
   <v>       0.00298512       0.00297166       0.00699124 </v>
   <v>       0.01246421       0.00719324       0.49672852 </v>
   <v>       0.00018656       0.49998960       0.99841761 </v>
   <v>       0.00229185       0.49800645       0.50037618 </v>
   <v>       0.49742586       0.00400398       0.49906597 </v>
   <v>       0.50115201       0.50091077       0.99924513 </v>
   <v>       0.49284815       0.49544033       0.50040108 </v>
   <v>       0.24669080       0.24564026       0.00931698 </v>
   <v>       0.25249751       0.75156812       0.00048167 </v>
   <v>       0.25003554       0.74885269       0.49953339 </v>
   <v>       0.74903180       0.24905817       0.99974340 </v>
   <v>       0.74790387       0.25085213       0.50037843 </v>
   <v>       0.74969626       0.75078655       0.01031567 </v>
   <v>       0.74368629       0.73857770       0.50026153 </v>
   <v>       0.24934924       0.24972433       0.25545641 </v>
   <v>       0.24945732       0.74827624       0.74977688 </v>
   <v>       0.75043872       0.24979523       0.25017258 </v>
   <v>       0.75049785       0.25108733       0.75020398 </v>
   <v>       0.75143471       0.75154377       0.25527413 </v>
   <v>       0.99650277       0.99601025       0.74179411 </v>
   <v>       0.00102902       0.50153180       0.24990883 </v>
   <v>       0.49934996       0.99905813       0.24773894 </v>
   <v>       0.49956779       0.00050298       0.75300059 </v>
   <v>       0.50065646       0.50050885       0.75024990 </v>
   <v>       0.50034911       0.99978722       0.99880607 </v>
   <v>       0.25099246       0.25347192       0.49892705 </v>
   <v>       0.24717481       0.24672453       0.74027722 </v>
   <v>       0.24887452       0.74964482       0.25053778 </v>
   <v>       0.75509980       0.75559181       0.73858355 </v>
   <v>       0.99937811       0.99809081       0.25481471 </v>
   <v>       0.00067391       0.49921868       0.75217398 </v>
   <v>       0.49936927       0.50086960       0.24932437 </v>
   <v>       0.11318578       0.13639187       0.26429837 </v>
   <v>       0.11095348       0.12084827       0.76835500 </v>
   <v>       0.11307887       0.63319971       0.24891779 </v>
   <v>       0.12368092       0.62773536       0.74931033 </v>
   <v>       0.61425791       0.13631649       0.25053846 </v>
   <v>       0.61643404       0.13401428       0.74772478 </v>
   <v>       0.61824791       0.63926677       0.26010180 </v>
   <v>       0.62225919       0.63727280       0.75155277 </v>
   <v>       0.38354956       0.36194980       0.23783699 </v>
   <v>       0.38057265       0.36521003       0.75444653 </v>
   <v>       0.38634362       0.86648639       0.24880718 </v>
   <v>       0.38141308       0.86845246       0.74938992 </v>
   <v>       0.88591589       0.36431064       0.25041587 </v>
   <v>       0.87892200       0.36875974       0.74903958 </v>
   <v>       0.88422993       0.86255835       0.23643065 </v>
   <v>       0.88322718       0.87731846       0.78562390 </v>
   <v>       0.36392212       0.11377810       0.24975630 </v>
   <v>       0.36357030       0.11829102       0.75746982 </v>
   <v>       0.36539704       0.61581782       0.24707115 </v>
   <v>       0.37000911       0.61916784       0.74638307 </v>
   <v>       0.86314162       0.11407875       0.24856421 </v>
   <v>       0.86793172       0.11617337       0.75444221 </v>
   <v>       0.86305109       0.61396023       0.25052252 </v>
   <v>       0.86783283       0.62825055       0.75660303 </v>
   <v>       0.13475460       0.38470584       0.24550242 </v>
   <v>       0.13376443       0.37225511       0.76278958 </v>
   <v>       0.13407509       0.88646384       0.25350360 </v>
   <v>       0.12634446       0.87905432       0.75675602 </v>
   <v>       0.63759761       0.38410252       0.24879575 </v>
   <v>       0.63278610       0.38294399       0.75046309 </v>
   <v>       0.63733363       0.88740037       0.25030969 </v>
   <v>       0.63626179       0.88267722       0.75398661 </v>
   <v>       0.36123970       0.38084268       0.99738904 </v>
   <v>       0.35688212       0.39367097       0.50835012 </v>
   <v>       0.36732442       0.88223090       0.00051709 </v>
   <v>       0.35992637       0.89064282       0.50072104 </v>
   <v>       0.86503763       0.38428520       0.99992823 </v>
   <v>       0.85823733       0.39004333       0.50040469 </v>
   <v>       0.86949986       0.88581071       0.99316436 </v>
   <v>       0.12981765       0.11974038       0.96896594 </v>
   <v>       0.14196593       0.10564232       0.48953885 </v>
   <v>       0.13378946       0.61678709       0.99927191 </v>
   <v>       0.14292300       0.60760008       0.50269621 </v>
   <v>       0.63424277       0.11850774       0.00132191 </v>
   <v>       0.63956560       0.11126941       0.50012450 </v>
   <v>       0.64011632       0.62000916       0.98245745 </v>
   <v>       0.64411821       0.60816920       0.50356254 </v>
   <v>       0.11798891       0.36319930       0.99242004 </v>
   <v>       0.10474513       0.35788245       0.49917085 </v>
   <v>       0.11499105       0.87286878       0.98594825 </v>
   <v>       0.10077902       0.85607638       0.50168209 </v>
   <v>       0.61563896       0.36599526       0.99972554 </v>
   <v>       0.60872722       0.35834162       0.50059250 </v>
   <v>       0.62525713       0.86300299       0.98574844 </v>
   <v>       0.62259719       0.86461296       0.50122315 </v>
   <v>       0.37605533       0.13824199       0.98711736 </v>
   <v>       0.39221655       0.14059216       0.50032467 </v>
   <v>       0.38497042       0.63422436       0.00189407 </v>
   <v>       0.39353746       0.64325508       0.50316523 </v>
   <v>       0.88636190       0.13034511       0.98813938 </v>
   <v>       0.88653073       0.12937614       0.50496362 </v>
   <v>       0.88246123       0.63946272       0.99258696 </v>
   <v>       0.89408676       0.64756420       0.49937664 </v>
   <v>       0.01508717       0.01299226       0.12115430 </v>
   <v>       0.98672518       0.98452066       0.62419422 </v>
   <v>       0.99720281       0.50122075       0.12316309 </v>
   <v>       0.99975875       0.49763380       0.62519046 </v>
   <v>       0.50219591       0.00081106       0.12397061 </v>
   <v>       0.49852490       0.00010072       0.62571649 </v>
   <v>       0.51175759       0.50864416       0.12023287 </v>
   <v>       0.50398658       0.49915342       0.62655679 </v>
   <v>       0.97265204       0.97989290       0.38245224 </v>
   <v>       0.00051172       0.49913039       0.37470250 </v>
   <v>       0.99774568       0.50069725       0.87658872 </v>
   <v>       0.49997262       0.99877172       0.37504377 </v>
   <v>       0.50172378       0.00060124       0.87378720 </v>
   <v>       0.49518627       0.49542358       0.37827705 </v>
   <v>       0.49630894       0.50040054       0.87431065 </v>
   <v>       0.26025201       0.26272766       0.37477231 </v>
   <v>       0.25102758       0.74897389       0.37812033 </v>
   <v>       0.25593027       0.74482632       0.87402348 </v>
   <v>       0.75248407       0.24941604       0.37608808 </v>
   <v>       0.74602499       0.25208544       0.87434998 </v>
   <v>       0.76647244       0.76717545       0.37939898 </v>
   <v>       0.23456459       0.22932246       0.12363253 </v>
   <v>       0.23623069       0.23721569       0.62321277 </v>
   <v>       0.24202633       0.75507053       0.12201693 </v>
   <v>       0.24811237       0.75595830       0.62567879 </v>
   <v>       0.75487093       0.24695554       0.12374459 </v>
   <v>       0.75075341       0.24990837       0.62537277 </v>
   <v>       0.73844904       0.74410627       0.12510001 </v>
   <v>       0.77798309       0.77840560       0.61906352 </v>
  </varray>
 </structure>
</modeling>
