       N       E                     dE             d eps       ncg     rms          rms(c)
DAV:   1    -0.993856730681E+03   -0.99386E+03   -0.30467E-01  6656   0.130E+00    0.590E-02
RMM:   2    -0.993856736471E+03   -0.57899E-05   -0.10838E-04  3718   0.203E-02    0.751E-02
RMM:   3    -0.993856738448E+03   -0.19770E-05   -0.31981E-05  3626   0.119E-02    0.268E-02
RMM:   4    -0.993856749410E+03   -0.10962E-04   -0.19785E-05  3553   0.635E-03    0.184E-02
RMM:   5    -0.993856753393E+03   -0.39830E-05   -0.83624E-06  3465   0.485E-03    0.161E-02
RMM:   6    -0.993856753988E+03   -0.59533E-06   -0.56258E-06  3010   0.350E-03    0.563E-03
RMM:   7    -0.993856754221E+03   -0.23324E-06   -0.30599E-06  2537   0.287E-03    0.546E-03
RMM:   8    -0.993856754329E+03   -0.10754E-06   -0.17375E-06  2056   0.244E-03
   1 F= -.99385675E+03 E0= -.99385675E+03  d E =-.993857E+03  mag=   120.0000
       N       E                     dE             d eps       ncg     rms          rms(c)
DAV:   1    -0.993854453718E+03    0.23005E-02   -0.56825E+00  6416   0.290E+00    0.163E+00
RMM:   2    -0.993873873221E+03   -0.19420E-01   -0.19051E-01  6254   0.617E-01    0.107E+00
RMM:   3    -0.993875546004E+03   -0.16728E-02   -0.12403E-02  6488   0.194E-01    0.593E-01
RMM:   4    -0.993874598653E+03    0.94735E-03   -0.41882E-03  7122   0.742E-02    0.362E-01
RMM:   5    -0.993874375154E+03    0.22350E-03   -0.13897E-03  6289   0.422E-02    0.179E-01
RMM:   6    -0.993874389411E+03   -0.14257E-04   -0.24090E-04  4308   0.212E-02    0.151E-01
RMM:   7    -0.993874412556E+03   -0.23145E-04   -0.91497E-05  3736   0.131E-02    0.530E-02
RMM:   8    -0.993874433325E+03   -0.20769E-04   -0.59350E-05  3724   0.122E-02
   2 F= -.99387443E+03 E0= -.99387443E+03  d E =-.176790E-01  mag=   120.0000
       N       E                     dE             d eps       ncg     rms          rms(c)
DAV:   1    -0.993874106770E+03    0.30579E-03   -0.20311E-01  6544   0.552E-01    0.305E-01
RMM:   2    -0.993874853663E+03   -0.74689E-03   -0.68788E-03  6238   0.116E-01    0.201E-01
RMM:   3    -0.993874919934E+03   -0.66271E-04   -0.39148E-04  4919   0.376E-02    0.118E-01
RMM:   4    -0.993874893609E+03    0.26325E-04   -0.11698E-04  3714   0.148E-02    0.729E-02
RMM:   5    -0.993874891120E+03    0.24883E-05   -0.44720E-05  3653   0.984E-03    0.392E-02
RMM:   6    -0.993874895694E+03   -0.45740E-05   -0.20349E-05  3597   0.678E-03    0.268E-02
RMM:   7    -0.993874898582E+03   -0.28882E-05   -0.10707E-05  3523   0.500E-03    0.137E-02
RMM:   8    -0.993874901650E+03   -0.30677E-05   -0.70217E-06  3335   0.411E-03
   3 F= -.99387490E+03 E0= -.99387490E+03  d E =-.181473E-01  mag=   120.0000
       N       E                     dE             d eps       ncg     rms          rms(c)
DAV:   1    -0.993873216988E+03    0.16816E-02   -0.39644E+00  6304   0.241E+00    0.969E-01
RMM:   2    -0.993887658588E+03   -0.14442E-01   -0.11210E-01  6281   0.480E-01    0.621E-01
RMM:   3    -0.993888959472E+03   -0.13009E-02   -0.67544E-03  6624   0.137E-01    0.338E-01
RMM:   4    -0.993888570208E+03    0.38926E-03   -0.11307E-03  6684   0.417E-02    0.199E-01
RMM:   5    -0.993888415192E+03    0.15502E-03   -0.76175E-04  5775   0.295E-02    0.601E-02
RMM:   6    -0.993888412467E+03    0.27245E-05   -0.68437E-05  3716   0.142E-02    0.534E-02
RMM:   7    -0.993888414949E+03   -0.24818E-05   -0.32679E-05  3691   0.824E-03    0.276E-02
RMM:   8    -0.993888413864E+03    0.10852E-05   -0.18597E-05  3620   0.692E-03
   4 F= -.99388841E+03 E0= -.99388841E+03  d E =-.135122E-01  mag=   120.0000
       N       E                     dE             d eps       ncg     rms          rms(c)
DAV:   1    -0.993868290093E+03    0.20125E-01   -0.68993E+00  6264   0.318E+00    0.128E+00
RMM:   2    -0.993893490873E+03   -0.25201E-01   -0.19524E-01  6278   0.634E-01    0.817E-01
RMM:   3    -0.993895777627E+03   -0.22868E-02   -0.11867E-02  6716   0.182E-01    0.445E-01
RMM:   4    -0.993895105255E+03    0.67237E-03   -0.19845E-03  7278   0.545E-02    0.263E-01
RMM:   5    -0.993894843226E+03    0.26203E-03   -0.13353E-03  6204   0.370E-02    0.785E-02
RMM:   6    -0.993894836453E+03    0.67726E-05   -0.10895E-04  3861   0.180E-02    0.654E-02
RMM:   7    -0.993894840560E+03   -0.41064E-05   -0.52933E-05  3712   0.983E-03    0.357E-02
RMM:   8    -0.993894839437E+03    0.11227E-05   -0.29359E-05  3689   0.842E-03
   5 F= -.99389484E+03 E0= -.99389484E+03  d E =-.199378E-01  mag=   120.0000
       N       E                     dE             d eps       ncg     rms          rms(c)
DAV:   1    -0.993885195038E+03    0.96455E-02   -0.63591E+00  6400   0.301E+00    0.102E+00
RMM:   2    -0.993905261233E+03   -0.20066E-01   -0.17747E-01  6271   0.594E-01    0.684E-01
RMM:   3    -0.993906567377E+03   -0.13061E-02   -0.10960E-02  6691   0.169E-01    0.404E-01
RMM:   4    -0.993906066487E+03    0.50089E-03   -0.15034E-03  7123   0.475E-02    0.256E-01
RMM:   5    -0.993905824718E+03    0.24177E-03   -0.11979E-03  5996   0.343E-02    0.743E-02
RMM:   6    -0.993905824413E+03    0.30526E-06   -0.10195E-04  3740   0.180E-02    0.575E-02
RMM:   7    -0.993905828019E+03   -0.36060E-05   -0.49581E-05  3701   0.923E-03    0.324E-02
RMM:   8    -0.993905825241E+03    0.27775E-05   -0.27695E-05  3648   0.839E-03
   6 F= -.99390583E+03 E0= -.99390583E+03  d E =-.109858E-01  mag=   120.0000
       N       E                     dE             d eps       ncg     rms          rms(c)
DAV:   1    -0.993898639928E+03    0.71881E-02   -0.28596E+00  6416   0.202E+00    0.684E-01
RMM:   2    -0.993907696781E+03   -0.90569E-02   -0.80103E-02  6271   0.399E-01    0.455E-01
RMM:   3    -0.993908284389E+03   -0.58761E-03   -0.49683E-03  6558   0.113E-01    0.270E-01
RMM:   4    -0.993908057119E+03    0.22727E-03   -0.64707E-04  5880   0.324E-02    0.171E-01
RMM:   5    -0.993907947003E+03    0.11012E-03   -0.54014E-04  5189   0.246E-02    0.513E-02
RMM:   6    -0.993907948092E+03   -0.10892E-05   -0.59017E-05  3712   0.137E-02    0.408E-02
RMM:   7    -0.993907950155E+03   -0.20626E-05   -0.29980E-05  3655   0.724E-03    0.223E-02
RMM:   8    -0.993907948678E+03    0.14763E-05   -0.16622E-05  3604   0.711E-03
   7 F= -.99390795E+03 E0= -.99390795E+03  d E =-.131092E-01  mag=   120.0000
       N       E                     dE             d eps       ncg     rms          rms(c)
DAV:   1    -0.993894435016E+03    0.13515E-01   -0.83551E+00  6400   0.343E+00    0.121E+00
RMM:   2    -0.993918004556E+03   -0.23570E-01   -0.23057E-01  6291   0.662E-01    0.741E-01
RMM:   3    -0.993919109233E+03   -0.11047E-02   -0.13888E-02  6757   0.192E-01    0.418E-01
RMM:   4    -0.993918407663E+03    0.70157E-03   -0.25523E-03  7408   0.580E-02    0.246E-01
RMM:   5    -0.993918205576E+03    0.20209E-03   -0.10877E-03  6286   0.337E-02    0.100E-01
RMM:   6    -0.993918225406E+03   -0.19830E-04   -0.14794E-04  3899   0.181E-02    0.752E-02
RMM:   7    -0.993918243174E+03   -0.17767E-04   -0.79032E-05  3745   0.116E-02    0.431E-02
RMM:   8    -0.993918254755E+03   -0.11581E-04   -0.40140E-05  3650   0.103E-02
   8 F= -.99391825E+03 E0= -.99391825E+03  d E =-.103061E-01  mag=   120.0000
       N       E                     dE             d eps       ncg     rms          rms(c)
DAV:   1    -0.993909242163E+03    0.90010E-02   -0.37965E+00  6256   0.231E+00    0.815E-01
RMM:   2    -0.993920112662E+03   -0.10870E-01   -0.10505E-01  6288   0.447E-01    0.500E-01
RMM:   3    -0.993920652999E+03   -0.54034E-03   -0.63746E-03  6670   0.131E-01    0.282E-01
RMM:   4    -0.993920335271E+03    0.31773E-03   -0.10923E-03  6597   0.397E-02    0.167E-01
RMM:   5    -0.993920237187E+03    0.98083E-04   -0.50967E-04  5292   0.256E-02    0.693E-02
RMM:   6    -0.993920248934E+03   -0.11746E-04   -0.87903E-05  3740   0.141E-02    0.622E-02
RMM:   7    -0.993920257765E+03   -0.88314E-05   -0.40517E-05  3656   0.965E-03    0.318E-02
RMM:   8    -0.993920265467E+03   -0.77016E-05   -0.25032E-05  3613   0.792E-03
   9 F= -.99392027E+03 E0= -.99392027E+03  d E =-.123168E-01  mag=   120.0000
       N       E                     dE             d eps       ncg     rms          rms(c)
DAV:   1    -0.993900059480E+03    0.20198E-01   -0.82234E+00  6280   0.337E+00    0.120E+00
RMM:   2    -0.993927385507E+03   -0.27326E-01   -0.21515E-01  6330   0.643E-01    0.723E-01
RMM:   3    -0.993929431236E+03   -0.20457E-02   -0.12512E-02  6723   0.176E-01    0.395E-01
RMM:   4    -0.993928793956E+03    0.63728E-03   -0.18504E-03  7097   0.508E-02    0.240E-01
RMM:   5    -0.993928530507E+03    0.26345E-03   -0.11852E-03  6014   0.339E-02    0.783E-02
RMM:   6    -0.993928528466E+03    0.20408E-05   -0.11079E-04  3747   0.173E-02    0.534E-02
RMM:   7    -0.993928532055E+03   -0.35888E-05   -0.51982E-05  3703   0.961E-03    0.338E-02
RMM:   8    -0.993928530155E+03    0.18998E-05   -0.29870E-05  3647   0.861E-03
  10 F= -.99392853E+03 E0= -.99392853E+03  d E =-.826469E-02  mag=   120.0000
       N       E                     dE             d eps       ncg     rms          rms(c)
DAV:   1    -0.993922990348E+03    0.55417E-02   -0.18951E+00  6264   0.162E+00    0.572E-01
RMM:   2    -0.993929316888E+03   -0.63265E-02   -0.49899E-02  6325   0.309E-01    0.345E-01
RMM:   3    -0.993929789619E+03   -0.47273E-03   -0.29396E-03  6474   0.856E-02    0.189E-01
RMM:   4    -0.993929640045E+03    0.14957E-03   -0.40014E-04  5003   0.252E-02    0.116E-01
RMM:   5    -0.993929577075E+03    0.62970E-04   -0.26326E-04  4094   0.191E-02    0.409E-02
RMM:   6    -0.993929578879E+03   -0.18041E-05   -0.50100E-05  3669   0.127E-02    0.458E-02
RMM:   7    -0.993929580620E+03   -0.17412E-05   -0.22877E-05  3618   0.711E-03    0.174E-02
RMM:   8    -0.993929579867E+03    0.75369E-06   -0.12439E-05  3571   0.633E-03
  11 F= -.99392958E+03 E0= -.99392958E+03  d E =-.931440E-02  mag=   120.0000
       N       E                     dE             d eps       ncg     rms          rms(c)
DAV:   1    -0.993920812615E+03    0.87680E-02   -0.30581E+00  6224   0.205E+00    0.784E-01
RMM:   2    -0.993931732840E+03   -0.10920E-01   -0.81697E-02  6336   0.400E-01    0.512E-01
RMM:   3    -0.993932661666E+03   -0.92883E-03   -0.47811E-03  6564   0.105E-01    0.271E-01
RMM:   4    -0.993932378547E+03    0.28312E-03   -0.61648E-04  5750   0.312E-02    0.168E-01
RMM:   5    -0.993932257953E+03    0.12059E-03   -0.62746E-04  5383   0.262E-02    0.433E-02
RMM:   6    -0.993932260978E+03   -0.30248E-05   -0.49689E-05  3701   0.134E-02    0.344E-02
RMM:   7    -0.993932262606E+03   -0.16286E-05   -0.24152E-05  3629   0.593E-03    0.201E-02
RMM:   8    -0.993932263360E+03   -0.75414E-06   -0.13158E-05  3540   0.614E-03
  12 F= -.99393226E+03 E0= -.99393226E+03  d E =-.268349E-02  mag=   120.0000
       N       E                     dE             d eps       ncg     rms          rms(c)
DAV:   1    -0.993932250215E+03    0.12391E-04   -0.51409E-03  6808   0.843E-02    0.348E-02
RMM:   2    -0.993932265761E+03   -0.15546E-04   -0.11309E-04  3507   0.165E-02    0.269E-02
RMM:   3    -0.993932268881E+03   -0.31204E-05   -0.14178E-05  3276   0.748E-03    0.123E-02
RMM:   4    -0.993932268797E+03    0.84896E-07   -0.30148E-06  2270   0.318E-03    0.768E-03
RMM:   5    -0.993932268573E+03    0.22371E-06   -0.11485E-06  1971   0.248E-03    0.337E-03
RMM:   6    -0.993932268555E+03    0.18175E-07   -0.43962E-07  1043   0.193E-03    0.131E-03
RMM:   7    -0.993932268559E+03   -0.43947E-08   -0.29168E-08   751   0.179E-03    0.658E-04
RMM:   8    -0.993932268558E+03    0.71304E-09   -0.10156E-08   685   0.178E-03
  13 F= -.99393227E+03 E0= -.99393227E+03  d E =-.268869E-02  mag=   120.0000
       N       E                     dE             d eps       ncg     rms          rms(c)
DAV:   1    -0.993929698706E+03    0.25699E-02   -0.12915E+00  6224   0.134E+00    0.459E-01
RMM:   2    -0.993933796709E+03   -0.40980E-02   -0.34669E-02  6346   0.260E-01    0.293E-01
RMM:   3    -0.993934063064E+03   -0.26636E-03   -0.20005E-03  6377   0.695E-02    0.169E-01
RMM:   4    -0.993933951633E+03    0.11143E-03   -0.23428E-04  4291   0.203E-02    0.103E-01
RMM:   5    -0.993933905524E+03    0.46109E-04   -0.19350E-04  3807   0.166E-02    0.375E-02
RMM:   6    -0.993933908978E+03   -0.34542E-05   -0.35406E-05  3619   0.108E-02    0.357E-02
RMM:   7    -0.993933910090E+03   -0.11122E-05   -0.15653E-05  3550   0.554E-03    0.147E-02
RMM:   8    -0.993933909967E+03    0.12307E-06   -0.86579E-06  3439   0.531E-03
  14 F= -.99393391E+03 E0= -.99393391E+03  d E =-.164141E-02  mag=   120.0000
