<?xml version="1.0" encoding="ISO-8859-1"?>
<modeling>
 <generator>
  <i name="program" type="string">vasp </i>
  <i name="version" type="string">5.4.1  </i>
  <i name="subversion" type="string">05Feb16 (build Jan 25 2017 20:16:33) complex                          parallel </i>
  <i name="platform" type="string">BWXE6 </i>
  <i name="date" type="string">2019 08 06 </i>
  <i name="time" type="string">15:41:00 </i>
 </generator>
 <incar>
  <i type="string" name="SYSTEM"> STF</i>
  <i type="string" name="PREC">normal</i>
  <i type="string" name="ALGO"> Fast</i>
  <i type="int" name="ISPIN">     2</i>
  <i type="int" name="NELM">    40</i>
  <i type="int" name="NELMIN">     8</i>
  <i type="int" name="IBRION">     2</i>
  <i name="EDIFF">      0.00010000</i>
  <i name="EDIFFG">     -0.03000000</i>
  <i type="int" name="NSW">    30</i>
  <i type="int" name="ISIF">     3</i>
  <i name="ENCUT">    520.00000000</i>
  <i type="int" name="NBANDS">   768</i>
  <v name="MAGMOM">      0.60000000      0.60000000      0.60000000      0.60000000      0.60000000      0.60000000      0.60000000      0.60000000      0.60000000      0.60000000      0.60000000      0.60000000      0.60000000      0.60000000      0.60000000      0.60000000      0.60000000      0.60000000      0.60000000      0.60000000
      0.60000000      0.60000000      0.60000000      0.60000000      0.60000000      0.60000000      0.60000000      0.60000000      0.60000000      0.60000000      0.60000000      0.60000000      0.60000000      0.60000000      0.60000000      0.60000000      0.60000000      0.60000000      0.60000000      0.60000000
      5.00000000      5.00000000      5.00000000      5.00000000      5.00000000      5.00000000      5.00000000      5.00000000      5.00000000      5.00000000      5.00000000      5.00000000      5.00000000      5.00000000      5.00000000      5.00000000      5.00000000      5.00000000      5.00000000      5.00000000
      5.00000000      5.00000000      5.00000000      5.00000000      0.60000000      0.60000000      0.60000000      0.60000000      0.60000000      0.60000000      0.60000000      0.60000000      0.60000000      0.60000000      0.60000000      0.60000000      0.60000000      0.60000000      0.60000000      0.60000000
      0.60000000      0.60000000      0.60000000      0.60000000      0.60000000      0.60000000      0.60000000      0.60000000      0.60000000      0.60000000      0.60000000      0.60000000      0.60000000      0.60000000      0.60000000      0.60000000      0.60000000      0.60000000      0.60000000      0.60000000
      0.60000000      0.60000000      0.60000000      0.60000000      0.60000000      0.60000000      0.60000000      0.60000000      0.60000000      0.60000000      0.60000000      0.60000000      0.60000000      0.60000000      0.60000000      0.60000000      0.60000000      0.60000000      0.60000000      0.60000000
      0.60000000      0.60000000      0.60000000      0.60000000      0.60000000      0.60000000      0.60000000      0.60000000      0.60000000      0.60000000      0.60000000      0.60000000      0.60000000      0.60000000      0.60000000      0.60000000      0.60000000      0.60000000      0.60000000      0.60000000
      0.60000000      0.60000000      0.60000000      0.60000000      0.60000000      0.60000000      0.60000000      0.60000000</v>
  <i type="string" name="LREAL"> Auto</i>
  <i type="int" name="ISMEAR">     0</i>
  <i name="SIGMA">      0.05000000</i>
  <i type="int" name="LMAXMIX">     4</i>
  <v type="int" name="KPOINT_BSE">    -1     0     0     0</v>
  <i type="int" name="NELM">    40</i>
  <i type="logical" name="LDAU"> T  </i>
  <v type="int" name="LDAUTYPE">     2</v>
  <v type="int" name="LDAUL">     0     2     2     0</v>
  <v name="LDAUU">      0.00000000      3.00000000      5.00000000      0.00000000</v>
  <v name="LDAUJ">      0.00000000      0.00000000      0.00000000      0.00000000</v>
  <i type="int" name="LDAUPRINT">     1</i>
 </incar>
 <kpoints>
  <generation param="Monkhorst-Pack">
   <v type="int" name="divisions">       2        2        2 </v>
   <v name="usershift">      0.00000000       0.00000000       0.00000000 </v>
   <v name="genvec1">      0.50000000      -0.00000000       0.00000000 </v>
   <v name="genvec2">      0.00000000       0.50000000       0.00000000 </v>
   <v name="genvec3">      0.00000000       0.00000000       0.50000000 </v>
   <v name="shift">      0.50000000       0.50000000       0.50000000 </v>
  </generation>
  <varray name="kpointlist" >
   <v>       0.25000000       0.25000000       0.25000000 </v>
   <v>      -0.25000000       0.25000000       0.25000000 </v>
  </varray>
  <varray name="weights" >
   <v>       0.50000000 </v>
   <v>       0.50000000 </v>
  </varray>
 </kpoints>
 <parameters>
  <separator name="general" >
   <i type="string" name="SYSTEM">STF</i>
   <i type="logical" name="LCOMPAT"> F  </i>
  </separator>
  <separator name="electronic" >
   <i type="string" name="PREC">normal</i>
   <i name="ENMAX">    520.00000000</i>
   <i name="ENAUG">    605.39200000</i>
   <i name="EDIFF">      0.00010000</i>
   <i type="int" name="IALGO">    68</i>
   <i type="int" name="IWAVPR">    11</i>
   <i type="int" name="NBANDS">   768</i>
   <i name="NELECT">   1048.00000000</i>
   <i type="int" name="TURBO">     0</i>
   <i type="int" name="IRESTART">     0</i>
   <i type="int" name="NREBOOT">     0</i>
   <i type="int" name="NMIN">     0</i>
   <i name="EREF">      0.00000000</i>
   <separator name="electronic smearing" >
    <i type="int" name="ISMEAR">     0</i>
    <i name="SIGMA">      0.05000000</i>
    <i name="KSPACING">      0.50000000</i>
    <i type="logical" name="KGAMMA"> T  </i>
   </separator>
   <separator name="electronic projectors" >
    <i type="logical" name="LREAL"> T  </i>
    <v name="ROPT">     -0.00050000     -0.00050000     -0.00050000     -0.00050000</v>
    <i type="int" name="LMAXPAW">  -100</i>
    <i type="int" name="LMAXMIX">     4</i>
    <i type="logical" name="NLSPLINE"> F  </i>
   </separator>
   <separator name="electronic startup" >
    <i type="int" name="ISTART">     1</i>
    <i type="int" name="ICHARG">     0</i>
    <i type="int" name="INIWAV">     1</i>
   </separator>
   <separator name="electronic spin" >
    <i type="int" name="ISPIN">     2</i>
    <i type="logical" name="LNONCOLLINEAR"> F  </i>
    <v name="MAGMOM">      0.60000000      0.60000000      0.60000000      0.60000000      0.60000000      0.60000000      0.60000000      0.60000000      0.60000000      0.60000000      0.60000000      0.60000000      0.60000000      0.60000000      0.60000000      0.60000000      0.60000000      0.60000000      0.60000000      0.60000000
      0.60000000      0.60000000      0.60000000      0.60000000      0.60000000      0.60000000      0.60000000      0.60000000      0.60000000      0.60000000      0.60000000      0.60000000      0.60000000      0.60000000      0.60000000      0.60000000      0.60000000      0.60000000      0.60000000      0.60000000
      5.00000000      5.00000000      5.00000000      5.00000000      5.00000000      5.00000000      5.00000000      5.00000000      5.00000000      5.00000000      5.00000000      5.00000000      5.00000000      5.00000000      5.00000000      5.00000000      5.00000000      5.00000000      5.00000000      5.00000000
      5.00000000      5.00000000      5.00000000      5.00000000      0.60000000      0.60000000      0.60000000      0.60000000      0.60000000      0.60000000      0.60000000      0.60000000      0.60000000      0.60000000      0.60000000      0.60000000      0.60000000      0.60000000      0.60000000      0.60000000
      0.60000000      0.60000000      0.60000000      0.60000000      0.60000000      0.60000000      0.60000000      0.60000000      0.60000000      0.60000000      0.60000000      0.60000000      0.60000000      0.60000000      0.60000000      0.60000000      0.60000000      0.60000000      0.60000000      0.60000000
      0.60000000      0.60000000      0.60000000      0.60000000      0.60000000      0.60000000      0.60000000      0.60000000      0.60000000      0.60000000      0.60000000      0.60000000      0.60000000      0.60000000      0.60000000      0.60000000      0.60000000      0.60000000      0.60000000      0.60000000
      0.60000000      0.60000000      0.60000000      0.60000000      0.60000000      0.60000000      0.60000000      0.60000000      0.60000000      0.60000000      0.60000000      0.60000000      0.60000000      0.60000000      0.60000000      0.60000000      0.60000000      0.60000000      0.60000000      0.60000000
      0.60000000      0.60000000      0.60000000      0.60000000      0.60000000      0.60000000      0.60000000      0.60000000</v>
    <i name="NUPDOWN">     -1.00000000</i>
    <i type="logical" name="LSORBIT"> F  </i>
    <v name="SAXIS">      0.00000000      0.00000000      1.00000000</v>
    <i type="logical" name="LSPIRAL"> F  </i>
    <v name="QSPIRAL">      0.00000000      0.00000000      0.00000000</v>
    <i type="logical" name="LZEROZ"> F  </i>
   </separator>
   <separator name="electronic exchange-correlation" >
    <i type="logical" name="LASPH"> F  </i>
    <i type="logical" name="LMETAGGA"> F  </i>
   </separator>
   <separator name="electronic convergence" >
    <i type="int" name="NELM">    40</i>
    <i type="int" name="NELMDL">     0</i>
    <i type="int" name="NELMIN">     8</i>
    <i name="ENINI">    520.00000000</i>
    <separator name="electronic convergence detail" >
     <i type="logical" name="LDIAG"> T  </i>
     <i type="logical" name="LSUBROT"> F  </i>
     <i name="WEIMIN">      0.00100000</i>
     <i name="EBREAK">      0.00000003</i>
     <i name="DEPER">      0.30000000</i>
     <i type="int" name="NRMM">     4</i>
     <i name="TIME">      0.40000000</i>
    </separator>
   </separator>
   <separator name="electronic mixer" >
    <i name="AMIX">      0.40000000</i>
    <i name="BMIX">      1.00000000</i>
    <i name="AMIN">      0.10000000</i>
    <i name="AMIX_MAG">      1.60000000</i>
    <i name="BMIX_MAG">      1.00000000</i>
    <separator name="electronic mixer details" >
     <i type="int" name="IMIX">     4</i>
     <i type="logical" name="MIXFIRST"> F  </i>
     <i type="int" name="MAXMIX">   -45</i>
     <i name="WC">    100.00000000</i>
     <i type="int" name="INIMIX">     1</i>
     <i type="int" name="MIXPRE">     1</i>
     <i type="int" name="MREMOVE">     5</i>
    </separator>
   </separator>
   <separator name="electronic dipolcorrection" >
    <i type="logical" name="LDIPOL"> F  </i>
    <i type="logical" name="LMONO"> F  </i>
    <i type="int" name="IDIPOL">     0</i>
    <i name="EPSILON">      1.00000000</i>
    <v name="DIPOL">   -100.00000000   -100.00000000   -100.00000000</v>
    <i name="EFIELD">      0.00000000</i>
   </separator>
  </separator>
  <separator name="grids" >
   <i type="int" name="NGX">    64</i>
   <i type="int" name="NGY">    64</i>
   <i type="int" name="NGZ">    90</i>
   <i type="int" name="NGXF">   128</i>
   <i type="int" name="NGYF">   128</i>
   <i type="int" name="NGZF">   180</i>
   <i type="logical" name="ADDGRID"> F  </i>
  </separator>
  <separator name="ionic" >
   <i type="int" name="NSW">    30</i>
   <i type="int" name="IBRION">     2</i>
   <i type="int" name="ISIF">     3</i>
   <i name="PSTRESS">      0.00000000</i>
   <i name="EDIFFG">     -0.03000000</i>
   <i type="int" name="NFREE">     1</i>
   <i name="POTIM">      0.50000000</i>
   <i name="SMASS">     -3.00000000</i>
   <i name="SCALEE">      1.00000000</i>
  </separator>
  <separator name="ionic md" >
   <i name="TEBEG">      0.00010000</i>
   <i name="TEEND">      0.00010000</i>
   <i type="int" name="NBLOCK">     1</i>
   <i type="int" name="KBLOCK">    30</i>
   <i type="int" name="NPACO">   256</i>
   <i name="APACO">     16.00000000</i>
  </separator>
  <separator name="symmetry" >
   <i type="int" name="ISYM">     2</i>
   <i name="SYMPREC">      0.00001000</i>
  </separator>
  <separator name="dos" >
   <i type="logical" name="LORBIT"> F  </i>
   <v name="RWIGS">     -1.00000000     -1.00000000     -1.00000000     -1.00000000</v>
   <i type="int" name="NEDOS">   301</i>
   <i name="EMIN">     10.00000000</i>
   <i name="EMAX">    -10.00000000</i>
   <i name="EFERMI">      0.00000000</i>
  </separator>
  <separator name="writing" >
   <i type="int" name="NWRITE">     2</i>
   <i type="logical" name="LWAVE"> T  </i>
   <i type="logical" name="LCHARG"> T  </i>
   <i type="logical" name="LPARD"> F  </i>
   <i type="logical" name="LVTOT"> F  </i>
   <i type="logical" name="LVHAR"> F  </i>
   <i type="logical" name="LELF"> F  </i>
   <i type="logical" name="LOPTICS"> F  </i>
   <v name="STM">      0.00000000      0.00000000      0.00000000      0.00000000      0.00000000      0.00000000      0.00000000</v>
  </separator>
  <separator name="performance" >
   <i type="int" name="NPAR">     2</i>
   <i type="int" name="NSIM">     4</i>
   <i type="int" name="NBLK">    -1</i>
   <i type="logical" name="LPLANE"> T  </i>
   <i type="logical" name="LSCALAPACK"> T  </i>
   <i type="logical" name="LSCAAWARE"> F  </i>
   <i type="logical" name="LSCALU"> F  </i>
   <i type="logical" name="LASYNC"> F  </i>
   <i type="logical" name="LORBITALREAL"> F  </i>
  </separator>
  <separator name="miscellaneous" >
   <i type="int" name="IDIOT">     3</i>
   <i type="logical" name="LMUSIC"> F  </i>
   <v name="POMASS">     87.62000000     47.88000000     55.84700000     16.00000000</v>
   <v name="DARWINR">      0.00000000      0.00000000      0.00000000      0.00000000</v>
   <v name="DARWINV">      1.00000000      1.00000000      1.00000000      1.00000000</v>
   <i type="logical" name="LCORR"> T  </i>
  </separator>
  <i type="logical" name="GGA_COMPAT"> T  </i>
  <i type="logical" name="LBERRY"> F  </i>
  <i type="int" name="ICORELEVEL">     0</i>
  <i type="logical" name="LDAU"> T  </i>
  <v type="int" name="LDAUTYPE">     2</v>
  <v type="int" name="LDAUL">     0</v>
  <v name="LDAUU">      0.00000000</v>
  <v name="LDAUJ">      0.00000000</v>
  <i type="int" name="LDAUPRINT">     1</i>
  <i type="int" name="I_CONSTRAINED_M">     0</i>
  <separator name="electronic exchange-correlation" >
   <i type="string" name="GGA">--</i>
   <i type="int" name="VOSKOWN">     0</i>
   <i type="logical" name="LHFCALC"> F  </i>
   <i type="string" name="PRECFOCK"></i>
   <i type="logical" name="LSYMGRAD"> F  </i>
   <i type="logical" name="LHFONE"> F  </i>
   <i type="logical" name="LRHFCALC"> F  </i>
   <i type="logical" name="LTHOMAS"> F  </i>
   <i type="logical" name="LMODELHF"> F  </i>
   <i name="ENCUT4O">     -1.00000000</i>
   <i type="int" name="EXXOEP">     0</i>
   <i type="int" name="FOURORBIT">     0</i>
   <i name="AEXX">      0.00000000</i>
   <i name="HFALPHA">      0.00000000</i>
   <i name="MCALPHA">      0.00000000</i>
   <i name="ALDAX">      1.00000000</i>
   <i name="AGGAX">      1.00000000</i>
   <i name="ALDAC">      1.00000000</i>
   <i name="AGGAC">      1.00000000</i>
   <i type="int" name="NKREDX">     1</i>
   <i type="int" name="NKREDY">     1</i>
   <i type="int" name="NKREDZ">     1</i>
   <i type="logical" name="SHIFTRED"> F  </i>
   <i type="logical" name="ODDONLY"> F  </i>
   <i type="logical" name="EVENONLY"> F  </i>
   <i type="int" name="LMAXFOCK">     0</i>
   <i type="int" name="NMAXFOCKAE">     0</i>
   <i type="logical" name="LFOCKAEDFT"> F  </i>
   <i name="HFSCREEN">      0.00000000</i>
   <i name="HFSCREENC">      0.00000000</i>
   <i type="int" name="NBANDSGWLOW">     0</i>
  </separator>
  <separator name="vdW DFT" >
   <i type="logical" name="LUSE_VDW"> F  </i>
   <i name="Zab_VDW">     -0.84910000</i>
   <i name="PARAM1">      0.12340000</i>
   <i name="PARAM2">      1.00000000</i>
   <i name="PARAM3">      0.00000000</i>
  </separator>
  <separator name="model GW" >
   <i type="int" name="MODEL_GW">     0</i>
   <i name="MODEL_EPS0">      8.17782149</i>
   <i name="MODEL_ALPHA">      1.00000000</i>
  </separator>
  <separator name="linear response parameters" >
   <i type="logical" name="LEPSILON"> F  </i>
   <i type="logical" name="LRPA"> F  </i>
   <i type="logical" name="LNABLA"> F  </i>
   <i type="logical" name="LVEL"> F  </i>
   <i type="int" name="KINTER">     0</i>
   <i name="CSHIFT">      0.10000000</i>
   <i name="OMEGAMAX">     -1.00000000</i>
   <i name="DEG_THRESHOLD">      0.00200000</i>
  </separator>
  <separator name="orbital magnetization" >
   <i type="logical" name="NUCIND"> F  </i>
   <v name="MAGPOS">      0.00000000      0.00000000      0.00000000</v>
   <i type="logical" name="LNICSALL"> T  </i>
   <i type="logical" name="ORBITALMAG"> F  </i>
   <i type="logical" name="LMAGBLOCH"> F  </i>
   <i type="logical" name="LCHIMAG"> F  </i>
   <i type="logical" name="LGAUGE"> T  </i>
   <i type="int" name="MAGATOM">     0</i>
   <v name="MAGDIPOL">      0.00000000      0.00000000      0.00000000</v>
   <v name="AVECCONST">      0.00000000      0.00000000      0.00000000</v>
  </separator>
  <separator name="response functions" >
   <i type="logical" name="LADDER"> F  </i>
   <i type="logical" name="LFXC"> F  </i>
   <i type="logical" name="LHARTREE"> T  </i>
   <i type="int" name="IBSE">     0</i>
   <v type="int" name="KPOINT">    -1     0     0     0</v>
   <i type="logical" name="LTCTE"> F  </i>
   <i type="logical" name="LTETE"> F  </i>
   <i type="logical" name="LTRIPLET"> F  </i>
   <i type="logical" name="LFXCEPS"> F  </i>
   <i type="logical" name="LFXHEG"> F  </i>
   <i type="int" name="NATURALO">     0</i>
   <i type="logical" name="L2ORDER"> F  </i>
   <i type="logical" name="LUSEW"> F  </i>
   <i name="ENCUTGW">     -2.00000000</i>
   <i name="ENCUTGWSOFT">     -2.00000000</i>
   <i name="ENCUTLF">     -1.00000000</i>
   <i type="int" name="LMAXMP2">    -1</i>
   <i name="SCISSOR">      0.00000000</i>
   <i type="int" name="NOMEGA">     0</i>
   <i type="int" name="NOMEGAR">     0</i>
   <i type="int" name="NBANDSGW">    -1</i>
   <i type="int" name="NBANDSO">    -1</i>
   <i type="int" name="NBANDSV">    -1</i>
   <i type="int" name="NELM">    40</i>
   <i type="int" name="NELMHF">     1</i>
   <i type="int" name="DIM">     3</i>
   <i type="int" name="ANTIRES">     0</i>
   <i name="OMEGAMAX">    -30.00000000</i>
   <i name="OMEGAMIN">    -30.00000000</i>
   <i name="OMEGATL">   -200.00000000</i>
   <i type="int" name="OMEGAGRID">     0</i>
   <i name="CSHIFT">     -0.10000000</i>
   <i type="logical" name="SELFENERGY"> F  </i>
   <i type="logical" name="LSPECTRAL"> F  </i>
   <i type="logical" name="LSPECTRALGW"> F  </i>
   <i type="logical" name="LSINGLES"> F  </i>
   <i type="logical" name="LFERMIGW"> F  </i>
   <i type="logical" name="ODDONLYGW"> F  </i>
   <i type="logical" name="EVENONLYGW"> F  </i>
   <i type="int" name="NKREDLFX">     1</i>
   <i type="int" name="NKREDLFY">     1</i>
   <i type="int" name="NKREDLFZ">     1</i>
   <i type="int" name="MAXMEM">  1800</i>
   <i type="int" name="TELESCOPE">     0</i>
   <i type="int" name="TAUPAR">     1</i>
   <i type="int" name="OMEGAPAR">    -1</i>
   <i name="LAMBDA">      1.00000000</i>
  </separator>
  <separator name="External order field" >
   <i name="OFIELD_KAPPA">      0.00000000</i>
   <v name="OFIELD_K">      0.00000000      0.00000000      0.00000000</v>
   <i name="OFIELD_Q6_NEAR">      0.00000000</i>
   <i name="OFIELD_Q6_FAR">      0.00000000</i>
   <i name="OFIELD_A">      0.00000000</i>
  </separator>
 </parameters>
 <atominfo>
  <atoms>     148 </atoms>
  <types>       4 </types>
  <array name="atoms" >
   <dimension dim="1">ion</dimension>
   <field type="string">element</field>
   <field type="int">atomtype</field>
   <set>
    <rc><c>Sr</c><c>   1</c></rc>
    <rc><c>Sr</c><c>   1</c></rc>
    <rc><c>Sr</c><c>   1</c></rc>
    <rc><c>Sr</c><c>   1</c></rc>
    <rc><c>Sr</c><c>   1</c></rc>
    <rc><c>Sr</c><c>   1</c></rc>
    <rc><c>Sr</c><c>   1</c></rc>
    <rc><c>Sr</c><c>   1</c></rc>
    <rc><c>Sr</c><c>   1</c></rc>
    <rc><c>Sr</c><c>   1</c></rc>
    <rc><c>Sr</c><c>   1</c></rc>
    <rc><c>Sr</c><c>   1</c></rc>
    <rc><c>Sr</c><c>   1</c></rc>
    <rc><c>Sr</c><c>   1</c></rc>
    <rc><c>Sr</c><c>   1</c></rc>
    <rc><c>Sr</c><c>   1</c></rc>
    <rc><c>Sr</c><c>   1</c></rc>
    <rc><c>Sr</c><c>   1</c></rc>
    <rc><c>Sr</c><c>   1</c></rc>
    <rc><c>Sr</c><c>   1</c></rc>
    <rc><c>Sr</c><c>   1</c></rc>
    <rc><c>Sr</c><c>   1</c></rc>
    <rc><c>Sr</c><c>   1</c></rc>
    <rc><c>Sr</c><c>   1</c></rc>
    <rc><c>Sr</c><c>   1</c></rc>
    <rc><c>Sr</c><c>   1</c></rc>
    <rc><c>Sr</c><c>   1</c></rc>
    <rc><c>Sr</c><c>   1</c></rc>
    <rc><c>Sr</c><c>   1</c></rc>
    <rc><c>Sr</c><c>   1</c></rc>
    <rc><c>Sr</c><c>   1</c></rc>
    <rc><c>Sr</c><c>   1</c></rc>
    <rc><c>Ti</c><c>   2</c></rc>
    <rc><c>Ti</c><c>   2</c></rc>
    <rc><c>Ti</c><c>   2</c></rc>
    <rc><c>Ti</c><c>   2</c></rc>
    <rc><c>Ti</c><c>   2</c></rc>
    <rc><c>Ti</c><c>   2</c></rc>
    <rc><c>Ti</c><c>   2</c></rc>
    <rc><c>Ti</c><c>   2</c></rc>
    <rc><c>Fe</c><c>   3</c></rc>
    <rc><c>Fe</c><c>   3</c></rc>
    <rc><c>Fe</c><c>   3</c></rc>
    <rc><c>Fe</c><c>   3</c></rc>
    <rc><c>Fe</c><c>   3</c></rc>
    <rc><c>Fe</c><c>   3</c></rc>
    <rc><c>Fe</c><c>   3</c></rc>
    <rc><c>Fe</c><c>   3</c></rc>
    <rc><c>Fe</c><c>   3</c></rc>
    <rc><c>Fe</c><c>   3</c></rc>
    <rc><c>Fe</c><c>   3</c></rc>
    <rc><c>Fe</c><c>   3</c></rc>
    <rc><c>Fe</c><c>   3</c></rc>
    <rc><c>Fe</c><c>   3</c></rc>
    <rc><c>Fe</c><c>   3</c></rc>
    <rc><c>Fe</c><c>   3</c></rc>
    <rc><c>Fe</c><c>   3</c></rc>
    <rc><c>Fe</c><c>   3</c></rc>
    <rc><c>Fe</c><c>   3</c></rc>
    <rc><c>Fe</c><c>   3</c></rc>
    <rc><c>Fe</c><c>   3</c></rc>
    <rc><c>Fe</c><c>   3</c></rc>
    <rc><c>Fe</c><c>   3</c></rc>
    <rc><c>Fe</c><c>   3</c></rc>
    <rc><c>O </c><c>   4</c></rc>
    <rc><c>O </c><c>   4</c></rc>
    <rc><c>O </c><c>   4</c></rc>
    <rc><c>O </c><c>   4</c></rc>
    <rc><c>O </c><c>   4</c></rc>
    <rc><c>O </c><c>   4</c></rc>
    <rc><c>O </c><c>   4</c></rc>
    <rc><c>O </c><c>   4</c></rc>
    <rc><c>O </c><c>   4</c></rc>
    <rc><c>O </c><c>   4</c></rc>
    <rc><c>O </c><c>   4</c></rc>
    <rc><c>O </c><c>   4</c></rc>
    <rc><c>O </c><c>   4</c></rc>
    <rc><c>O </c><c>   4</c></rc>
    <rc><c>O </c><c>   4</c></rc>
    <rc><c>O </c><c>   4</c></rc>
    <rc><c>O </c><c>   4</c></rc>
    <rc><c>O </c><c>   4</c></rc>
    <rc><c>O </c><c>   4</c></rc>
    <rc><c>O </c><c>   4</c></rc>
    <rc><c>O </c><c>   4</c></rc>
    <rc><c>O </c><c>   4</c></rc>
    <rc><c>O </c><c>   4</c></rc>
    <rc><c>O </c><c>   4</c></rc>
    <rc><c>O </c><c>   4</c></rc>
    <rc><c>O </c><c>   4</c></rc>
    <rc><c>O </c><c>   4</c></rc>
    <rc><c>O </c><c>   4</c></rc>
    <rc><c>O </c><c>   4</c></rc>
    <rc><c>O </c><c>   4</c></rc>
    <rc><c>O </c><c>   4</c></rc>
    <rc><c>O </c><c>   4</c></rc>
    <rc><c>O </c><c>   4</c></rc>
    <rc><c>O </c><c>   4</c></rc>
    <rc><c>O </c><c>   4</c></rc>
    <rc><c>O </c><c>   4</c></rc>
    <rc><c>O </c><c>   4</c></rc>
    <rc><c>O </c><c>   4</c></rc>
    <rc><c>O </c><c>   4</c></rc>
    <rc><c>O </c><c>   4</c></rc>
    <rc><c>O </c><c>   4</c></rc>
    <rc><c>O </c><c>   4</c></rc>
    <rc><c>O </c><c>   4</c></rc>
    <rc><c>O </c><c>   4</c></rc>
    <rc><c>O </c><c>   4</c></rc>
    <rc><c>O </c><c>   4</c></rc>
    <rc><c>O </c><c>   4</c></rc>
    <rc><c>O </c><c>   4</c></rc>
    <rc><c>O </c><c>   4</c></rc>
    <rc><c>O </c><c>   4</c></rc>
    <rc><c>O </c><c>   4</c></rc>
    <rc><c>O </c><c>   4</c></rc>
    <rc><c>O </c><c>   4</c></rc>
    <rc><c>O </c><c>   4</c></rc>
    <rc><c>O </c><c>   4</c></rc>
    <rc><c>O </c><c>   4</c></rc>
    <rc><c>O </c><c>   4</c></rc>
    <rc><c>O </c><c>   4</c></rc>
    <rc><c>O </c><c>   4</c></rc>
    <rc><c>O </c><c>   4</c></rc>
    <rc><c>O </c><c>   4</c></rc>
    <rc><c>O </c><c>   4</c></rc>
    <rc><c>O </c><c>   4</c></rc>
    <rc><c>O </c><c>   4</c></rc>
    <rc><c>O </c><c>   4</c></rc>
    <rc><c>O </c><c>   4</c></rc>
    <rc><c>O </c><c>   4</c></rc>
    <rc><c>O </c><c>   4</c></rc>
    <rc><c>O </c><c>   4</c></rc>
    <rc><c>O </c><c>   4</c></rc>
    <rc><c>O </c><c>   4</c></rc>
    <rc><c>O </c><c>   4</c></rc>
    <rc><c>O </c><c>   4</c></rc>
    <rc><c>O </c><c>   4</c></rc>
    <rc><c>O </c><c>   4</c></rc>
    <rc><c>O </c><c>   4</c></rc>
    <rc><c>O </c><c>   4</c></rc>
    <rc><c>O </c><c>   4</c></rc>
    <rc><c>O </c><c>   4</c></rc>
    <rc><c>O </c><c>   4</c></rc>
    <rc><c>O </c><c>   4</c></rc>
    <rc><c>O </c><c>   4</c></rc>
    <rc><c>O </c><c>   4</c></rc>
    <rc><c>O </c><c>   4</c></rc>
   </set>
  </array>
  <array name="atomtypes" >
   <dimension dim="1">type</dimension>
   <field type="int">atomspertype</field>
   <field type="string">element</field>
   <field>mass</field>
   <field>valence</field>
   <field type="string">pseudopotential</field>
   <set>
    <rc><c>  32</c><c>Sr</c><c>     87.62000000</c><c>     10.00000000</c><c>  PAW_PBE Sr_sv 07Sep2000               </c></rc>
    <rc><c>   8</c><c>Ti</c><c>     47.88000000</c><c>      4.00000000</c><c>  PAW_PBE Ti 08Apr2002                  </c></rc>
    <rc><c>  24</c><c>Fe</c><c>     55.84700000</c><c>      8.00000000</c><c>  PAW_PBE Fe 06Sep2000                  </c></rc>
    <rc><c>  84</c><c>O </c><c>     16.00000000</c><c>      6.00000000</c><c>  PAW_PBE O 08Apr2002                   </c></rc>
   </set>
  </array>
 </atominfo>
 <structure name="initialpos" >
  <crystal>
   <varray name="basis" >
    <v>      11.23326284       0.00919342       0.00000000 </v>
    <v>       0.00938241      11.39589084       0.00000000 </v>
    <v>       0.00000000       0.00000000      15.75774915 </v>
   </varray>
   <i name="volume">   2017.19596808 </i>
   <varray name="rec_basis" >
    <v>       0.08902139      -0.00007329       0.00000000 </v>
    <v>      -0.00007182       0.08775099       0.00000000 </v>
    <v>       0.00000000       0.00000000       0.06346084 </v>
   </varray>
  </crystal>
  <varray name="positions" >
   <v>       0.99150875       0.23680444       0.11454667 </v>
   <v>       0.99109874       0.23726311       0.61200630 </v>
   <v>       0.00056323       0.74728076       0.11319050 </v>
   <v>       0.99789129       0.74924483       0.61170783 </v>
   <v>       0.50328188       0.23867435       0.11640860 </v>
   <v>       0.50037953       0.23628296       0.61450646 </v>
   <v>       0.50180161       0.75017417       0.11523161 </v>
   <v>       0.49744321       0.75321867       0.61432277 </v>
   <v>       0.99109874       0.23726311       0.38799370 </v>
   <v>       0.99150875       0.23680444       0.88545333 </v>
   <v>       0.99789129       0.74924483       0.38829217 </v>
   <v>       0.00056323       0.74728076       0.88680950 </v>
   <v>       0.50037953       0.23628296       0.38549354 </v>
   <v>       0.50328188       0.23867435       0.88359140 </v>
   <v>       0.49744321       0.75321867       0.38567723 </v>
   <v>       0.50180161       0.75017417       0.88476839 </v>
   <v>       0.24377578       0.00448282       0.11144414 </v>
   <v>       0.24168407       0.00814250       0.60947514 </v>
   <v>       0.24823969       0.50959678       0.11211975 </v>
   <v>       0.24940504       0.50703600       0.61170241 </v>
   <v>       0.74959403       0.01472589       0.11828520 </v>
   <v>       0.74980401       0.01461568       0.61504146 </v>
   <v>       0.75047588       0.49520933       0.11427013 </v>
   <v>       0.75107084       0.49477860       0.61315422 </v>
   <v>       0.24168407       0.00814250       0.39052486 </v>
   <v>       0.24377578       0.00448282       0.88855586 </v>
   <v>       0.24940504       0.50703600       0.38829759 </v>
   <v>       0.24823969       0.50959678       0.88788025 </v>
   <v>       0.74980401       0.01461568       0.38495854 </v>
   <v>       0.74959403       0.01472589       0.88171480 </v>
   <v>       0.75107084       0.49477860       0.38684578 </v>
   <v>       0.75047588       0.49520933       0.88572987 </v>
   <v>       0.75386262       0.24410736       0.75002652 </v>
   <v>       0.99545425       0.99627337       0.00000000 </v>
   <v>       0.49619450       0.50218046       0.00000000 </v>
   <v>       0.24605342       0.75003714       0.50000000 </v>
   <v>       0.49585391       0.99919901       0.00000000 </v>
   <v>       0.75386262       0.24410736       0.24997348 </v>
   <v>       0.74443306       0.74579827       0.50000000 </v>
   <v>       0.99709428       0.50057048       0.00000000 </v>
   <v>       0.24433469       0.24826955       0.00000000 </v>
   <v>       0.74535761       0.25272772       0.50000000 </v>
   <v>       0.99626436       0.50111438       0.50000000 </v>
   <v>       0.99427454       0.99898032       0.50000000 </v>
   <v>       0.24302613       0.24986309       0.50000000 </v>
   <v>       0.25458328       0.28493447       0.24861117 </v>
   <v>       0.01081866       0.46786964       0.24806412 </v>
   <v>       0.24670552       0.74914122       0.00000000 </v>
   <v>       0.49466170       0.00157735       0.50000000 </v>
   <v>       0.49482534       0.50161650       0.50000000 </v>
   <v>       0.74714666       0.25181277       0.00000000 </v>
   <v>       0.74629137       0.74496100       0.00000000 </v>
   <v>       0.25458328       0.28493447       0.75138883 </v>
   <v>       0.25963091       0.79607419       0.25185321 </v>
   <v>       0.25963091       0.79607419       0.74814679 </v>
   <v>       0.52105944       0.98845903       0.25074889 </v>
   <v>       0.76293459       0.77543102       0.25223314 </v>
   <v>       0.76293459       0.77543102       0.74776686 </v>
   <v>       0.99282915       0.98086386       0.25139802 </v>
   <v>       0.99282915       0.98086386       0.74860198 </v>
   <v>       0.01081866       0.46786964       0.75193588 </v>
   <v>       0.52105944       0.98845903       0.74925111 </v>
   <v>       0.51197731       0.46554281       0.24741076 </v>
   <v>       0.51197731       0.46554281       0.75258924 </v>
   <v>       0.99948023       0.99898315       0.12619058 </v>
   <v>       0.99677957       0.00034108       0.62798147 </v>
   <v>       0.99210264       0.51850515       0.13211112 </v>
   <v>       0.98542133       0.53226899       0.64437011 </v>
   <v>       0.48612376       0.00720136       0.12817912 </v>
   <v>       0.48150217       0.00886536       0.63182409 </v>
   <v>       0.48825070       0.51962718       0.13267260 </v>
   <v>       0.48121775       0.53569340       0.64798367 </v>
   <v>       0.99677957       0.00034108       0.37201853 </v>
   <v>       0.99948023       0.99898315       0.87380942 </v>
   <v>       0.98542133       0.53226899       0.35562989 </v>
   <v>       0.99210264       0.51850515       0.86788888 </v>
   <v>       0.48150217       0.00886536       0.36817591 </v>
   <v>       0.48612376       0.00720136       0.87182088 </v>
   <v>       0.48121775       0.53569340       0.35201633 </v>
   <v>       0.48825070       0.51962718       0.86732740 </v>
   <v>       0.22802310       0.22624238       0.35716539 </v>
   <v>       0.22973385       0.22673055       0.86209124 </v>
   <v>       0.23827338       0.73778222       0.36537712 </v>
   <v>       0.23166584       0.72848565       0.85639628 </v>
   <v>       0.74843407       0.25214296       0.37322409 </v>
   <v>       0.74886701       0.25251362       0.87601635 </v>
   <v>       0.74045770       0.72676674       0.36632002 </v>
   <v>       0.73597167       0.71443930       0.85694082 </v>
   <v>       0.22973385       0.22673055       0.13790876 </v>
   <v>       0.22802310       0.22624238       0.64283461 </v>
   <v>       0.23166584       0.72848565       0.14360372 </v>
   <v>       0.23827338       0.73778222       0.63462288 </v>
   <v>       0.74886701       0.25251362       0.12398365 </v>
   <v>       0.74843407       0.25214296       0.62677591 </v>
   <v>       0.73597167       0.71443930       0.14305918 </v>
   <v>       0.74045770       0.72676674       0.63367998 </v>
   <v>       0.17836053       0.43604424       0.24903008 </v>
   <v>       0.41707866       0.32767302       0.24889326 </v>
   <v>       0.67125035       0.41134218       0.24924521 </v>
   <v>       0.91946580       0.33238965       0.24884118 </v>
   <v>       0.17044564       0.93884764       0.24998846 </v>
   <v>       0.42247945       0.83540425       0.24778863 </v>
   <v>       0.67059197       0.91139508       0.25009922 </v>
   <v>       0.92623950       0.82239598       0.24930496 </v>
   <v>       0.12059282       0.12485895       0.50000000 </v>
   <v>       0.36942477       0.13035414       0.50000000 </v>
   <v>       0.62216338       0.12234266       0.50000000 </v>
   <v>       0.87083624       0.12536290       0.50000000 </v>
   <v>       0.12053699       0.37787953       0.50000000 </v>
   <v>       0.36856516       0.37794793       0.50000000 </v>
   <v>       0.61640902       0.38001229       0.50000000 </v>
   <v>       0.87521191       0.37928573       0.50000000 </v>
   <v>       0.12300780       0.62338264       0.50000000 </v>
   <v>       0.37203028       0.62916050       0.50000000 </v>
   <v>       0.62060665       0.62249116       0.50000000 </v>
   <v>       0.87144702       0.62653850       0.50000000 </v>
   <v>       0.12274407       0.87077503       0.50000000 </v>
   <v>       0.36845706       0.87141698       0.50000000 </v>
   <v>       0.62098427       0.87140724       0.50000000 </v>
   <v>       0.86645834       0.86937239       0.50000000 </v>
   <v>       0.17836053       0.43604424       0.75096992 </v>
   <v>       0.41707866       0.32767302       0.75110674 </v>
   <v>       0.67125035       0.41134218       0.75075479 </v>
   <v>       0.91946580       0.33238965       0.75115882 </v>
   <v>       0.17044564       0.93884764       0.75001154 </v>
   <v>       0.42247945       0.83540425       0.75221137 </v>
   <v>       0.67059197       0.91139508       0.74990078 </v>
   <v>       0.92623950       0.82239598       0.75069504 </v>
   <v>       0.12064852       0.12094171       0.00000000 </v>
   <v>       0.37218177       0.12804516       0.00000000 </v>
   <v>       0.62204163       0.12068289       0.00000000 </v>
   <v>       0.87400346       0.12323231       0.00000000 </v>
   <v>       0.11989570       0.37557206       0.00000000 </v>
   <v>       0.36830129       0.37783537       0.00000000 </v>
   <v>       0.61601703       0.37891739       0.00000000 </v>
   <v>       0.87554339       0.37869210       0.00000000 </v>
   <v>       0.12497103       0.62173986       0.00000000 </v>
   <v>       0.37389251       0.63083102       0.00000000 </v>
   <v>       0.62245359       0.62100156       0.00000000 </v>
   <v>       0.87403240       0.62696932       0.00000000 </v>
   <v>       0.12299125       0.87096500       0.00000000 </v>
   <v>       0.36879890       0.87356944       0.00000000 </v>
   <v>       0.62053677       0.87211472       0.00000000 </v>
   <v>       0.86776170       0.87140942       0.00000000 </v>
   <v>       0.60916779       0.14784683       0.24797469 </v>
   <v>       0.86214299       0.10464353       0.24754900 </v>
   <v>       0.60916779       0.14784683       0.75202531 </v>
   <v>       0.86214299       0.10464353       0.75245100 </v>
  </varray>
 </structure>
 <calculation>
  <scstep>
   <time name="dav">  151.54  151.54</time>
   <time name="total">  153.91  154.01</time>
   <energy>
    <i name="alphaZ">   5570.81079487 </i>
    <i name="ewald"> -62593.97113908 </i>
    <i name="hartreedc"> -18980.15140604 </i>
    <i name="XCdc">   3409.08601273 </i>
    <i name="pawpsdc"> 119662.90166940 </i>
    <i name="pawaedc">-119169.12860918 </i>
    <i name="eentropy">     -0.00000000 </i>
    <i name="bandstr">  -7210.30850942 </i>
    <i name="atom">  78316.90445604 </i>
    <i name="e_fr_energy">   -993.85673068 </i>
    <i name="e_wo_entrp">   -993.85673068 </i>
    <i name="e_0_energy">   -993.85673068 </i>
   </energy>
  </scstep>
  <scstep>
   <time name="diag">   16.65   16.65</time>
   <time name="diis">   16.34   16.34</time>
   <time name="orth">    9.52    9.52</time>
   <time name="total">   44.86   44.87</time>
   <energy>
    <i name="e_fr_energy">   -993.85673647 </i>
    <i name="e_wo_entrp">   -993.85673647 </i>
    <i name="e_0_energy">   -993.85673647 </i>
   </energy>
  </scstep>
  <scstep>
   <time name="diag">   16.65   16.65</time>
   <time name="diis">   16.00   16.00</time>
   <time name="orth">    9.50    9.50</time>
   <time name="total">   44.49   44.58</time>
   <energy>
    <i name="e_fr_energy">   -993.85673845 </i>
    <i name="e_wo_entrp">   -993.85673845 </i>
    <i name="e_0_energy">   -993.85673845 </i>
   </energy>
  </scstep>
  <scstep>
   <time name="diag">   16.67   16.67</time>
   <time name="diis">   15.79   15.79</time>
   <time name="orth">    9.50    9.50</time>
   <time name="total">   44.32   44.36</time>
   <energy>
    <i name="e_fr_energy">   -993.85674941 </i>
    <i name="e_wo_entrp">   -993.85674941 </i>
    <i name="e_0_energy">   -993.85674941 </i>
   </energy>
  </scstep>
  <scstep>
   <time name="diag">   16.67   16.67</time>
   <time name="diis">   15.66   15.66</time>
   <time name="orth">    9.51    9.51</time>
   <time name="total">   44.18   44.27</time>
   <energy>
    <i name="e_fr_energy">   -993.85675339 </i>
    <i name="e_wo_entrp">   -993.85675339 </i>
    <i name="e_0_energy">   -993.85675339 </i>
   </energy>
  </scstep>
  <scstep>
   <time name="diag">   16.67   16.67</time>
   <time name="diis">   14.95   14.96</time>
   <time name="orth">    9.52    9.51</time>
   <time name="total">   43.49   43.52</time>
   <energy>
    <i name="e_fr_energy">   -993.85675399 </i>
    <i name="e_wo_entrp">   -993.85675399 </i>
    <i name="e_0_energy">   -993.85675399 </i>
   </energy>
  </scstep>
  <scstep>
   <time name="diag">   16.67   16.67</time>
   <time name="diis">   14.17   14.17</time>
   <time name="orth">    9.50    9.50</time>
   <time name="total">   42.71   42.77</time>
   <energy>
    <i name="e_fr_energy">   -993.85675422 </i>
    <i name="e_wo_entrp">   -993.85675422 </i>
    <i name="e_0_energy">   -993.85675422 </i>
   </energy>
  </scstep>
  <scstep>
   <time name="diag">   16.67   16.67</time>
   <time name="diis">   13.45   13.45</time>
   <time name="orth">    9.51    9.51</time>
   <time name="total">   40.20   40.29</time>
   <energy>
    <i name="alphaZ">   5570.81079487 </i>
    <i name="ewald"> -62593.97113908 </i>
    <i name="hartreedc"> -18980.14903881 </i>
    <i name="XCdc">   3409.08153333 </i>
    <i name="pawpsdc"> 119650.63912351 </i>
    <i name="pawaedc">-119156.85682267 </i>
    <i name="eentropy">     -0.00000000 </i>
    <i name="bandstr">  -7210.31566152 </i>
    <i name="atom">  78316.90445604 </i>
    <i name="e_fr_energy">   -993.85675433 </i>
    <i name="e_wo_entrp">   -993.85675433 </i>
    <i name="e_0_energy">   -993.85675433 </i>
   </energy>
  </scstep>
  <structure>
   <crystal>
    <varray name="basis" >
     <v>      11.23326284       0.00919342       0.00000000 </v>
     <v>       0.00938241      11.39589084       0.00000000 </v>
     <v>       0.00000000       0.00000000      15.75774915 </v>
    </varray>
    <i name="volume">   2017.19596808 </i>
    <varray name="rec_basis" >
     <v>       0.08902139      -0.00007329       0.00000000 </v>
     <v>      -0.00007182       0.08775099       0.00000000 </v>
     <v>       0.00000000       0.00000000       0.06346084 </v>
    </varray>
   </crystal>
   <varray name="positions" >
    <v>       0.99150875       0.23680444       0.11454667 </v>
    <v>       0.99109874       0.23726311       0.61200630 </v>
    <v>       0.00056323       0.74728076       0.11319050 </v>
    <v>       0.99789129       0.74924483       0.61170783 </v>
    <v>       0.50328188       0.23867435       0.11640860 </v>
    <v>       0.50037953       0.23628296       0.61450646 </v>
    <v>       0.50180161       0.75017417       0.11523161 </v>
    <v>       0.49744321       0.75321867       0.61432277 </v>
    <v>       0.99109874       0.23726311       0.38799370 </v>
    <v>       0.99150875       0.23680444       0.88545333 </v>
    <v>       0.99789129       0.74924483       0.38829217 </v>
    <v>       0.00056323       0.74728076       0.88680950 </v>
    <v>       0.50037953       0.23628296       0.38549354 </v>
    <v>       0.50328188       0.23867435       0.88359140 </v>
    <v>       0.49744321       0.75321867       0.38567723 </v>
    <v>       0.50180161       0.75017417       0.88476839 </v>
    <v>       0.24377578       0.00448282       0.11144414 </v>
    <v>       0.24168407       0.00814250       0.60947514 </v>
    <v>       0.24823969       0.50959678       0.11211975 </v>
    <v>       0.24940504       0.50703600       0.61170241 </v>
    <v>       0.74959403       0.01472589       0.11828520 </v>
    <v>       0.74980401       0.01461568       0.61504146 </v>
    <v>       0.75047588       0.49520933       0.11427013 </v>
    <v>       0.75107084       0.49477860       0.61315422 </v>
    <v>       0.24168407       0.00814250       0.39052486 </v>
    <v>       0.24377578       0.00448282       0.88855586 </v>
    <v>       0.24940504       0.50703600       0.38829759 </v>
    <v>       0.24823969       0.50959678       0.88788025 </v>
    <v>       0.74980401       0.01461568       0.38495854 </v>
    <v>       0.74959403       0.01472589       0.88171480 </v>
    <v>       0.75107084       0.49477860       0.38684578 </v>
    <v>       0.75047588       0.49520933       0.88572987 </v>
    <v>       0.75386262       0.24410736       0.75002652 </v>
    <v>       0.99545425       0.99627337       0.00000000 </v>
    <v>       0.49619450       0.50218046       0.00000000 </v>
    <v>       0.24605342       0.75003714       0.50000000 </v>
    <v>       0.49585391       0.99919901       0.00000000 </v>
    <v>       0.75386262       0.24410736       0.24997348 </v>
    <v>       0.74443306       0.74579827       0.50000000 </v>
    <v>       0.99709428       0.50057048       0.00000000 </v>
    <v>       0.24433469       0.24826955       0.00000000 </v>
    <v>       0.74535761       0.25272772       0.50000000 </v>
    <v>       0.99626436       0.50111438       0.50000000 </v>
    <v>       0.99427454       0.99898032       0.50000000 </v>
    <v>       0.24302613       0.24986309       0.50000000 </v>
    <v>       0.25458328       0.28493447       0.24861117 </v>
    <v>       0.01081866       0.46786964       0.24806412 </v>
    <v>       0.24670552       0.74914122       0.00000000 </v>
    <v>       0.49466170       0.00157735       0.50000000 </v>
    <v>       0.49482534       0.50161650       0.50000000 </v>
    <v>       0.74714666       0.25181277       0.00000000 </v>
    <v>       0.74629137       0.74496100       0.00000000 </v>
    <v>       0.25458328       0.28493447       0.75138883 </v>
    <v>       0.25963091       0.79607419       0.25185321 </v>
    <v>       0.25963091       0.79607419       0.74814679 </v>
    <v>       0.52105944       0.98845903       0.25074889 </v>
    <v>       0.76293459       0.77543102       0.25223314 </v>
    <v>       0.76293459       0.77543102       0.74776686 </v>
    <v>       0.99282915       0.98086386       0.25139802 </v>
    <v>       0.99282915       0.98086386       0.74860198 </v>
    <v>       0.01081866       0.46786964       0.75193588 </v>
    <v>       0.52105944       0.98845903       0.74925111 </v>
    <v>       0.51197731       0.46554281       0.24741076 </v>
    <v>       0.51197731       0.46554281       0.75258924 </v>
    <v>       0.99948023       0.99898315       0.12619058 </v>
    <v>       0.99677957       0.00034108       0.62798147 </v>
    <v>       0.99210264       0.51850515       0.13211112 </v>
    <v>       0.98542133       0.53226899       0.64437011 </v>
    <v>       0.48612376       0.00720136       0.12817912 </v>
    <v>       0.48150217       0.00886536       0.63182409 </v>
    <v>       0.48825070       0.51962718       0.13267260 </v>
    <v>       0.48121775       0.53569340       0.64798367 </v>
    <v>       0.99677957       0.00034108       0.37201853 </v>
    <v>       0.99948023       0.99898315       0.87380942 </v>
    <v>       0.98542133       0.53226899       0.35562989 </v>
    <v>       0.99210264       0.51850515       0.86788888 </v>
    <v>       0.48150217       0.00886536       0.36817591 </v>
    <v>       0.48612376       0.00720136       0.87182088 </v>
    <v>       0.48121775       0.53569340       0.35201633 </v>
    <v>       0.48825070       0.51962718       0.86732740 </v>
    <v>       0.22802310       0.22624238       0.35716539 </v>
    <v>       0.22973385       0.22673055       0.86209124 </v>
    <v>       0.23827338       0.73778222       0.36537712 </v>
    <v>       0.23166584       0.72848565       0.85639628 </v>
    <v>       0.74843407       0.25214296       0.37322409 </v>
    <v>       0.74886701       0.25251362       0.87601635 </v>
    <v>       0.74045770       0.72676674       0.36632002 </v>
    <v>       0.73597167       0.71443930       0.85694082 </v>
    <v>       0.22973385       0.22673055       0.13790876 </v>
    <v>       0.22802310       0.22624238       0.64283461 </v>
    <v>       0.23166584       0.72848565       0.14360372 </v>
    <v>       0.23827338       0.73778222       0.63462288 </v>
    <v>       0.74886701       0.25251362       0.12398365 </v>
    <v>       0.74843407       0.25214296       0.62677591 </v>
    <v>       0.73597167       0.71443930       0.14305918 </v>
    <v>       0.74045770       0.72676674       0.63367998 </v>
    <v>       0.17836053       0.43604424       0.24903008 </v>
    <v>       0.41707866       0.32767302       0.24889326 </v>
    <v>       0.67125035       0.41134218       0.24924521 </v>
    <v>       0.91946580       0.33238965       0.24884118 </v>
    <v>       0.17044564       0.93884764       0.24998846 </v>
    <v>       0.42247945       0.83540425       0.24778863 </v>
    <v>       0.67059197       0.91139508       0.25009922 </v>
    <v>       0.92623950       0.82239598       0.24930496 </v>
    <v>       0.12059282       0.12485895       0.50000000 </v>
    <v>       0.36942477       0.13035414       0.50000000 </v>
    <v>       0.62216338       0.12234266       0.50000000 </v>
    <v>       0.87083624       0.12536290       0.50000000 </v>
    <v>       0.12053699       0.37787953       0.50000000 </v>
    <v>       0.36856516       0.37794793       0.50000000 </v>
    <v>       0.61640902       0.38001229       0.50000000 </v>
    <v>       0.87521191       0.37928573       0.50000000 </v>
    <v>       0.12300780       0.62338264       0.50000000 </v>
    <v>       0.37203028       0.62916050       0.50000000 </v>
    <v>       0.62060665       0.62249116       0.50000000 </v>
    <v>       0.87144702       0.62653850       0.50000000 </v>
    <v>       0.12274407       0.87077503       0.50000000 </v>
    <v>       0.36845706       0.87141698       0.50000000 </v>
    <v>       0.62098427       0.87140724       0.50000000 </v>
    <v>       0.86645834       0.86937239       0.50000000 </v>
    <v>       0.17836053       0.43604424       0.75096992 </v>
    <v>       0.41707866       0.32767302       0.75110674 </v>
    <v>       0.67125035       0.41134218       0.75075479 </v>
    <v>       0.91946580       0.33238965       0.75115882 </v>
    <v>       0.17044564       0.93884764       0.75001154 </v>
    <v>       0.42247945       0.83540425       0.75221137 </v>
    <v>       0.67059197       0.91139508       0.74990078 </v>
    <v>       0.92623950       0.82239598       0.75069504 </v>
    <v>       0.12064852       0.12094171       0.00000000 </v>
    <v>       0.37218177       0.12804516       0.00000000 </v>
    <v>       0.62204163       0.12068289       0.00000000 </v>
    <v>       0.87400346       0.12323231       0.00000000 </v>
    <v>       0.11989570       0.37557206       0.00000000 </v>
    <v>       0.36830129       0.37783537       0.00000000 </v>
    <v>       0.61601703       0.37891739       0.00000000 </v>
    <v>       0.87554339       0.37869210       0.00000000 </v>
    <v>       0.12497103       0.62173986       0.00000000 </v>
    <v>       0.37389251       0.63083102       0.00000000 </v>
    <v>       0.62245359       0.62100156       0.00000000 </v>
    <v>       0.87403240       0.62696932       0.00000000 </v>
    <v>       0.12299125       0.87096500       0.00000000 </v>
    <v>       0.36879890       0.87356944       0.00000000 </v>
    <v>       0.62053677       0.87211472       0.00000000 </v>
    <v>       0.86776170       0.87140942       0.00000000 </v>
    <v>       0.60916779       0.14784683       0.24797469 </v>
    <v>       0.86214299       0.10464353       0.24754900 </v>
    <v>       0.60916779       0.14784683       0.75202531 </v>
    <v>       0.86214299       0.10464353       0.75245100 </v>
   </varray>
  </structure>
  <varray name="forces" >
   <v>       0.01758328       0.01538204       0.03052660 </v>
   <v>       0.02269927       0.01195659      -0.04377365 </v>
   <v>      -0.02279184       0.01381869      -0.09829507 </v>
   <v>      -0.04518878       0.04620112      -0.07115816 </v>
   <v>      -0.00627991       0.00470392       0.03906141 </v>
   <v>       0.01175705       0.02154136       0.00839996 </v>
   <v>      -0.04711132      -0.01003121      -0.04985055 </v>
   <v>      -0.02600677      -0.00515428      -0.00856693 </v>
   <v>       0.02269927       0.01195659       0.04377365 </v>
   <v>       0.01758328       0.01538204      -0.03052660 </v>
   <v>      -0.04518878       0.04620112       0.07115816 </v>
   <v>      -0.02279184       0.01381869       0.09829507 </v>
   <v>       0.01175705       0.02154136      -0.00839996 </v>
   <v>      -0.00627991       0.00470392      -0.03906141 </v>
   <v>      -0.02600677      -0.00515428       0.00856693 </v>
   <v>      -0.04711132      -0.01003121       0.04985055 </v>
   <v>       0.01228924       0.03069885      -0.01445651 </v>
   <v>       0.02759725       0.04534740       0.03124896 </v>
   <v>       0.03403727      -0.02394624      -0.07039780 </v>
   <v>      -0.01004588      -0.02979072      -0.09740704 </v>
   <v>      -0.01581553      -0.06444981       0.04746166 </v>
   <v>       0.01033770      -0.02052417       0.02301133 </v>
   <v>      -0.03406181      -0.00783900      -0.00653102 </v>
   <v>      -0.02657473      -0.01493761      -0.03150313 </v>
   <v>       0.02759725       0.04534740      -0.03124896 </v>
   <v>       0.01228924       0.03069885       0.01445651 </v>
   <v>      -0.01004588      -0.02979072       0.09740704 </v>
   <v>       0.03403727      -0.02394624       0.07039780 </v>
   <v>       0.01033770      -0.02052417      -0.02301133 </v>
   <v>      -0.01581553      -0.06444981      -0.04746166 </v>
   <v>      -0.02657473      -0.01493761       0.03150313 </v>
   <v>      -0.03406181      -0.00783900       0.00653102 </v>
   <v>       0.06741498      -0.01205181      -0.07481644 </v>
   <v>       0.02436214      -0.03645159      -0.00000000 </v>
   <v>      -0.09574226       0.05571397      -0.00000000 </v>
   <v>      -0.01725786       0.02151065      -0.00000000 </v>
   <v>      -0.01440769      -0.00474914      -0.00000000 </v>
   <v>       0.06741498      -0.01205181       0.07481644 </v>
   <v>       0.00542629      -0.04766856      -0.00000000 </v>
   <v>       0.05686138       0.09019795      -0.00000000 </v>
   <v>      -0.02935840       0.01714980      -0.00000000 </v>
   <v>       0.01710946      -0.05589141      -0.00000000 </v>
   <v>      -0.03157806      -0.06238728      -0.00000000 </v>
   <v>      -0.00908013       0.07643161      -0.00000000 </v>
   <v>      -0.03835170       0.01257095      -0.00000000 </v>
   <v>       0.00473135       0.09402086       0.00565882 </v>
   <v>      -0.10851046       0.01002511       0.06321445 </v>
   <v>       0.01282952       0.02820660      -0.00000000 </v>
   <v>      -0.01692907       0.09233411      -0.00000000 </v>
   <v>       0.02387923      -0.05149142      -0.00000000 </v>
   <v>      -0.04174541      -0.05818837      -0.00000000 </v>
   <v>      -0.01380643      -0.00863056      -0.00000000 </v>
   <v>       0.00473135       0.09402086      -0.00565882 </v>
   <v>      -0.02988822       0.03897667      -0.03808291 </v>
   <v>      -0.02988822       0.03897667       0.03808291 </v>
   <v>      -0.05983072       0.01076219       0.03922959 </v>
   <v>      -0.00955696       0.03094261      -0.04692840 </v>
   <v>      -0.00955696       0.03094261       0.04692840 </v>
   <v>      -0.04235638      -0.00872679       0.01717241 </v>
   <v>      -0.04235638      -0.00872679      -0.01717241 </v>
   <v>      -0.10851046       0.01002511      -0.06321445 </v>
   <v>      -0.05983072       0.01076219      -0.03922959 </v>
   <v>      -0.01650199      -0.03931134       0.06169740 </v>
   <v>      -0.01650199      -0.03931134      -0.06169740 </v>
   <v>       0.01758093      -0.01505940      -0.03437303 </v>
   <v>       0.03666155      -0.01433072       0.02224093 </v>
   <v>       0.01856103       0.04365572       0.01768446 </v>
   <v>       0.03149501      -0.03124550      -0.00566955 </v>
   <v>      -0.00540420       0.02097977      -0.01743145 </v>
   <v>       0.00343107       0.02476703       0.06198283 </v>
   <v>       0.03426284      -0.02816367       0.08937266 </v>
   <v>       0.07506476      -0.08460483      -0.01046335 </v>
   <v>       0.03666155      -0.01433072      -0.02224093 </v>
   <v>       0.01758093      -0.01505940       0.03437303 </v>
   <v>       0.03149501      -0.03124550       0.00566955 </v>
   <v>       0.01856103       0.04365572      -0.01768446 </v>
   <v>       0.00343107       0.02476703      -0.06198283 </v>
   <v>      -0.00540420       0.02097977       0.01743145 </v>
   <v>       0.07506476      -0.08460483       0.01046335 </v>
   <v>       0.03426284      -0.02816367      -0.08937266 </v>
   <v>      -0.00600475       0.07404485      -0.03006182 </v>
   <v>      -0.00975155       0.02087748      -0.03389167 </v>
   <v>       0.01529420      -0.03223350       0.01068106 </v>
   <v>       0.04237542       0.01450631       0.03211157 </v>
   <v>       0.01643482       0.01617022      -0.04017565 </v>
   <v>       0.01205635      -0.00570129      -0.01772855 </v>
   <v>       0.00940174      -0.05711838      -0.02632285 </v>
   <v>       0.04466185       0.00726987      -0.00210442 </v>
   <v>      -0.00975155       0.02087748       0.03389167 </v>
   <v>      -0.00600475       0.07404485       0.03006182 </v>
   <v>       0.04237542       0.01450631      -0.03211157 </v>
   <v>       0.01529420      -0.03223350      -0.01068106 </v>
   <v>       0.01205635      -0.00570129       0.01772855 </v>
   <v>       0.01643482       0.01617022       0.04017565 </v>
   <v>       0.04466185       0.00726987       0.00210442 </v>
   <v>       0.00940174      -0.05711838       0.02632285 </v>
   <v>       0.02393354      -0.00485151       0.01556552 </v>
   <v>       0.06152630      -0.04165068       0.01665648 </v>
   <v>      -0.03154190      -0.00451690      -0.00332417 </v>
   <v>      -0.00672952       0.01619341       0.01337151 </v>
   <v>      -0.03018017       0.06284927       0.00970026 </v>
   <v>       0.04681129      -0.02996461       0.03158680 </v>
   <v>       0.02181403      -0.04745730      -0.00872453 </v>
   <v>      -0.01215583      -0.01322220      -0.02135604 </v>
   <v>       0.00468772      -0.02021634      -0.00000000 </v>
   <v>       0.01341944       0.01846001      -0.00000000 </v>
   <v>      -0.01664189      -0.02056804      -0.00000000 </v>
   <v>       0.00584886      -0.01329218      -0.00000000 </v>
   <v>      -0.00574439       0.04689647      -0.00000000 </v>
   <v>       0.01416530       0.16867817      -0.00000000 </v>
   <v>      -0.02553427       0.00583483      -0.00000000 </v>
   <v>      -0.02749974       0.04852201      -0.00000000 </v>
   <v>       0.08160544       0.05929781      -0.00000000 </v>
   <v>      -0.05494024       0.04649266      -0.00000000 </v>
   <v>      -0.00748653      -0.03121284      -0.00000000 </v>
   <v>       0.03606870       0.05541156      -0.00000000 </v>
   <v>       0.04085372      -0.08197519      -0.00000000 </v>
   <v>      -0.08504538       0.00957672      -0.00000000 </v>
   <v>      -0.01184131      -0.06003511      -0.00000000 </v>
   <v>      -0.02320266      -0.00371319      -0.00000000 </v>
   <v>       0.02393354      -0.00485151      -0.01556552 </v>
   <v>       0.06152630      -0.04165068      -0.01665648 </v>
   <v>      -0.03154190      -0.00451690       0.00332417 </v>
   <v>      -0.00672952       0.01619341      -0.01337151 </v>
   <v>      -0.03018017       0.06284927      -0.00970026 </v>
   <v>       0.04681129      -0.02996461      -0.03158680 </v>
   <v>       0.02181403      -0.04745730       0.00872453 </v>
   <v>      -0.01215583      -0.01322220       0.02135604 </v>
   <v>      -0.00732158      -0.03959889      -0.00000000 </v>
   <v>       0.03032653       0.03585904      -0.00000000 </v>
   <v>       0.01748191      -0.01295266      -0.00000000 </v>
   <v>      -0.01532123       0.01786262      -0.00000000 </v>
   <v>      -0.03209511       0.03488669      -0.00000000 </v>
   <v>       0.01451265       0.08803663      -0.00000000 </v>
   <v>       0.05009061      -0.10405434      -0.00000000 </v>
   <v>      -0.00078186       0.01198663      -0.00000000 </v>
   <v>      -0.05815933      -0.02816780      -0.00000000 </v>
   <v>      -0.02423264      -0.02820900      -0.00000000 </v>
   <v>       0.03107147      -0.03453074      -0.00000000 </v>
   <v>       0.03698202      -0.03891349      -0.00000000 </v>
   <v>      -0.04431238      -0.05162100      -0.00000000 </v>
   <v>       0.00909599       0.03748964      -0.00000000 </v>
   <v>      -0.04066279      -0.05779550      -0.00000000 </v>
   <v>       0.01807202      -0.02490547      -0.00000000 </v>
   <v>       0.00690593      -0.03245330      -0.02600378 </v>
   <v>      -0.00226585      -0.04744806      -0.01774450 </v>
   <v>       0.00690593      -0.03245330       0.02600378 </v>
   <v>      -0.00226585      -0.04744806       0.01774450 </v>
  </varray>
  <varray name="stress" >
   <v>      -1.51117080       0.07297031       0.00000000 </v>
   <v>       0.07297042      -1.06058928       0.00000000 </v>
   <v>       0.00000000       0.00000000      -0.43859614 </v>
  </varray>
  <energy>
   <i name="e_fr_energy">   -993.85675433 </i>
   <i name="e_wo_entrp">   -993.85675433 </i>
   <i name="e_0_energy">     -0.00000000 </i>
  </energy>
  <time name="totalsc">  549.49  551.63</time>
 </calculation>
 <calculation>
  <scstep>
   <time name="dav">  147.38  147.38</time>
   <time name="total">  149.71  149.77</time>
   <energy>
    <i name="alphaZ">   5577.69919854 </i>
    <i name="ewald"> -62614.63929031 </i>
    <i name="hartreedc"> -18992.50978241 </i>
    <i name="XCdc">   3410.82976178 </i>
    <i name="pawpsdc"> 119650.63485765 </i>
    <i name="pawaedc">-119156.85285768 </i>
    <i name="eentropy">     -0.00000000 </i>
    <i name="bandstr">  -7185.92079734 </i>
    <i name="atom">  78316.90445604 </i>
    <i name="e_fr_energy">   -993.85445372 </i>
    <i name="e_wo_entrp">   -993.85445372 </i>
    <i name="e_0_energy">   -993.85445372 </i>
   </energy>
  </scstep>
  <scstep>
   <time name="diag">   16.68   16.68</time>
   <time name="diis">   26.11   26.11</time>
   <time name="orth">    9.51    9.51</time>
   <time name="total">   54.66   54.69</time>
   <energy>
    <i name="e_fr_energy">   -993.87387322 </i>
    <i name="e_wo_entrp">   -993.87387322 </i>
    <i name="e_0_energy">   -993.87387322 </i>
   </energy>
  </scstep>
  <scstep>
   <time name="diag">   16.69   16.69</time>
   <time name="diis">   27.09   27.08</time>
   <time name="orth">    9.52    9.53</time>
   <time name="total">   55.66   55.77</time>
   <energy>
    <i name="e_fr_energy">   -993.87554600 </i>
    <i name="e_wo_entrp">   -993.87554600 </i>
    <i name="e_0_energy">   -993.87554600 </i>
   </energy>
  </scstep>
  <scstep>
   <time name="diag">   16.69   16.69</time>
   <time name="diis">   29.65   29.66</time>
   <time name="orth">    9.50    9.50</time>
   <time name="total">   58.20   58.23</time>
   <energy>
    <i name="e_fr_energy">   -993.87459865 </i>
    <i name="e_wo_entrp">   -993.87459865 </i>
    <i name="e_0_energy">   -993.87459865 </i>
   </energy>
  </scstep>
  <scstep>
   <time name="diag">   16.69   16.69</time>
   <time name="diis">   26.31   26.32</time>
   <time name="orth">    9.51    9.51</time>
   <time name="total">   54.88   54.94</time>
   <energy>
    <i name="e_fr_energy">   -993.87437515 </i>
    <i name="e_wo_entrp">   -993.87437515 </i>
    <i name="e_0_energy">   -993.87437515 </i>
   </energy>
  </scstep>
  <scstep>
   <time name="diag">   16.70   16.69</time>
   <time name="diis">   18.77   18.77</time>
   <time name="orth">    9.49    9.49</time>
   <time name="total">   47.31   47.37</time>
   <energy>
    <i name="e_fr_energy">   -993.87438941 </i>
    <i name="e_wo_entrp">   -993.87438941 </i>
    <i name="e_0_energy">   -993.87438941 </i>
   </energy>
  </scstep>
  <scstep>
   <time name="diag">   16.69   16.69</time>
   <time name="diis">   16.46   16.46</time>
   <time name="orth">    9.48    9.48</time>
   <time name="total">   44.99   45.00</time>
   <energy>
    <i name="e_fr_energy">   -993.87441256 </i>
    <i name="e_wo_entrp">   -993.87441256 </i>
    <i name="e_0_energy">   -993.87441256 </i>
   </energy>
  </scstep>
  <scstep>
   <time name="diag">   16.69   16.69</time>
   <time name="diis">   16.40   16.40</time>
   <time name="orth">    9.49    9.49</time>
   <time name="total">   43.15   43.20</time>
   <energy>
    <i name="alphaZ">   5577.69919854 </i>
    <i name="ewald"> -62614.63929031 </i>
    <i name="hartreedc"> -18973.31024454 </i>
    <i name="XCdc">   3409.54756118 </i>
    <i name="pawpsdc"> 119916.91643950 </i>
    <i name="pawaedc">-119423.34723487 </i>
    <i name="eentropy">     -0.00000000 </i>
    <i name="bandstr">  -7203.64531888 </i>
    <i name="atom">  78316.90445604 </i>
    <i name="e_fr_energy">   -993.87443333 </i>
    <i name="e_wo_entrp">   -993.87443333 </i>
    <i name="e_0_energy">   -993.87443333 </i>
   </energy>
  </scstep>
  <structure>
   <crystal>
    <varray name="basis" >
     <v>      11.22629643       0.00952582       0.00000000 </v>
     <v>       0.00971787      11.39093089       0.00000000 </v>
     <v>       0.00000000       0.00000000      15.75491276 </v>
    </varray>
    <i name="volume">   2014.70475090 </i>
    <varray name="rec_basis" >
     <v>       0.08907664      -0.00007599       0.00000000 </v>
     <v>      -0.00007449       0.08778920       0.00000000 </v>
     <v>       0.00000000       0.00000000       0.06347227 </v>
    </varray>
   </crystal>
   <varray name="positions" >
    <v>       0.99158421       0.23686949       0.11464013 </v>
    <v>       0.99119619       0.23731365       0.61187229 </v>
    <v>       0.00046529       0.74733934       0.11288957 </v>
    <v>       0.99769705       0.74944057       0.61148998 </v>
    <v>       0.50325489       0.23869428       0.11652819 </v>
    <v>       0.50042994       0.23637411       0.61453217 </v>
    <v>       0.50159932       0.75013186       0.11507899 </v>
    <v>       0.49733154       0.75319694       0.61429654 </v>
    <v>       0.99119619       0.23731365       0.38812771 </v>
    <v>       0.99158421       0.23686949       0.88535987 </v>
    <v>       0.99769705       0.74944057       0.38851002 </v>
    <v>       0.00046529       0.74733934       0.88711043 </v>
    <v>       0.50042994       0.23637411       0.38546783 </v>
    <v>       0.50325489       0.23869428       0.88347181 </v>
    <v>       0.49733154       0.75319694       0.38570346 </v>
    <v>       0.50159932       0.75013186       0.88492101 </v>
    <v>       0.24382845       0.00461274       0.11139988 </v>
    <v>       0.24180243       0.00833438       0.60957081 </v>
    <v>       0.24838596       0.50949528       0.11190423 </v>
    <v>       0.24936200       0.50690992       0.61140420 </v>
    <v>       0.74952634       0.01445311       0.11843050 </v>
    <v>       0.74984848       0.01452876       0.61511191 </v>
    <v>       0.75032962       0.49517626       0.11425013 </v>
    <v>       0.75095676       0.49471546       0.61305777 </v>
    <v>       0.24180243       0.00833438       0.39042919 </v>
    <v>       0.24382845       0.00461274       0.88860012 </v>
    <v>       0.24936200       0.50690992       0.38859580 </v>
    <v>       0.24838596       0.50949528       0.88809577 </v>
    <v>       0.74984848       0.01452876       0.38488809 </v>
    <v>       0.74952634       0.01445311       0.88156950 </v>
    <v>       0.75095676       0.49471546       0.38694223 </v>
    <v>       0.75032962       0.49517626       0.88574987 </v>
    <v>       0.75415219       0.24405611       0.74979747 </v>
    <v>       0.99555900       0.99611898      -0.00000000 </v>
    <v>       0.49578313       0.50241665      -0.00000000 </v>
    <v>       0.24597922       0.75012826       0.50000000 </v>
    <v>       0.49579205       0.99917896      -0.00000000 </v>
    <v>       0.75415219       0.24405611       0.25020253 </v>
    <v>       0.74445653       0.74559645       0.50000000 </v>
    <v>       0.99733816       0.50095212      -0.00000000 </v>
    <v>       0.24420855       0.24834225      -0.00000000 </v>
    <v>       0.74543129       0.25249106       0.50000000 </v>
    <v>       0.99612896       0.50085039       0.50000000 </v>
    <v>       0.99423527       0.99930391       0.50000000 </v>
    <v>       0.24286138       0.24991644       0.50000000 </v>
    <v>       0.25460327       0.28533248       0.24862850 </v>
    <v>       0.01035262       0.46791246       0.24825765 </v>
    <v>       0.24676052       0.74926058      -0.00000000 </v>
    <v>       0.49458867       0.00196829       0.50000000 </v>
    <v>       0.49492808       0.50139844       0.50000000 </v>
    <v>       0.74696759       0.25156658      -0.00000000 </v>
    <v>       0.74623211       0.74492451      -0.00000000 </v>
    <v>       0.25460327       0.28533248       0.75137150 </v>
    <v>       0.25950241       0.79623929       0.25173661 </v>
    <v>       0.25950241       0.79623929       0.74826339 </v>
    <v>       0.52080246       0.98850479       0.25086899 </v>
    <v>       0.76289343       0.77556205       0.25208946 </v>
    <v>       0.76289343       0.77556205       0.74791054 </v>
    <v>       0.99264728       0.98082706       0.25145059 </v>
    <v>       0.99264728       0.98082706       0.74854941 </v>
    <v>       0.01035262       0.46791246       0.75174235 </v>
    <v>       0.52080246       0.98850479       0.74913101 </v>
    <v>       0.51190658       0.46537645       0.24759964 </v>
    <v>       0.51190658       0.46537645       0.75240036 </v>
    <v>       0.99955578       0.99891933       0.12608535 </v>
    <v>       0.99693707       0.00028028       0.62804956 </v>
    <v>       0.99218220       0.51868989       0.13216526 </v>
    <v>       0.98555670       0.53213660       0.64435275 </v>
    <v>       0.48610048       0.00729019       0.12812575 </v>
    <v>       0.48151682       0.00897020       0.63201385 </v>
    <v>       0.48839794       0.51950783       0.13294622 </v>
    <v>       0.48154042       0.53533498       0.64795163 </v>
    <v>       0.99693707       0.00028028       0.37195044 </v>
    <v>       0.99955578       0.99891933       0.87391465 </v>
    <v>       0.98555670       0.53213660       0.35564725 </v>
    <v>       0.99218220       0.51868989       0.86783474 </v>
    <v>       0.48151682       0.00897020       0.36798615 </v>
    <v>       0.48610048       0.00729019       0.87187425 </v>
    <v>       0.48154042       0.53533498       0.35204837 </v>
    <v>       0.48839794       0.51950783       0.86705378 </v>
    <v>       0.22799705       0.22655586       0.35707335 </v>
    <v>       0.22969189       0.22681897       0.86198748 </v>
    <v>       0.23833918       0.73764571       0.36540982 </v>
    <v>       0.23184777       0.72854691       0.85649459 </v>
    <v>       0.74850459       0.25221135       0.37310109 </v>
    <v>       0.74891881       0.25248944       0.87596208 </v>
    <v>       0.74049828       0.72652491       0.36623943 </v>
    <v>       0.73616345       0.71446992       0.85693437 </v>
    <v>       0.22969189       0.22681897       0.13801252 </v>
    <v>       0.22799705       0.22655586       0.64292665 </v>
    <v>       0.23184777       0.72854691       0.14350541 </v>
    <v>       0.23833918       0.73764571       0.63459018 </v>
    <v>       0.74891881       0.25248944       0.12403792 </v>
    <v>       0.74850459       0.25221135       0.62689891 </v>
    <v>       0.73616345       0.71446992       0.14306563 </v>
    <v>       0.74049828       0.72652491       0.63376057 </v>
    <v>       0.17846333       0.43602362       0.24907773 </v>
    <v>       0.41734304       0.32749648       0.24894426 </v>
    <v>       0.67111491       0.41132317       0.24923503 </v>
    <v>       0.91943684       0.33245822       0.24888211 </v>
    <v>       0.17031580       0.93911380       0.25001816 </v>
    <v>       0.42268059       0.83527723       0.24788533 </v>
    <v>       0.67068582       0.91119410       0.25007251 </v>
    <v>       0.92618734       0.82234005       0.24923958 </v>
    <v>       0.12061302       0.12477335       0.50000000 </v>
    <v>       0.36948234       0.13043224       0.50000000 </v>
    <v>       0.62209198       0.12225564       0.50000000 </v>
    <v>       0.87086140       0.12530661       0.50000000 </v>
    <v>       0.12051216       0.37807808       0.50000000 </v>
    <v>       0.36862539       0.37866196       0.50000000 </v>
    <v>       0.61629934       0.38003708       0.50000000 </v>
    <v>       0.87509364       0.37949123       0.50000000 </v>
    <v>       0.12335805       0.62363338       0.50000000 </v>
    <v>       0.37179417       0.62935751       0.50000000 </v>
    <v>       0.62057461       0.62235905       0.50000000 </v>
    <v>       0.87160173       0.62677295       0.50000000 </v>
    <v>       0.12291981       0.87042786       0.50000000 </v>
    <v>       0.36809178       0.87145782       0.50000000 </v>
    <v>       0.62093363       0.87115313       0.50000000 </v>
    <v>       0.86635871       0.86935675       0.50000000 </v>
    <v>       0.17846333       0.43602362       0.75092227 </v>
    <v>       0.41734304       0.32749648       0.75105574 </v>
    <v>       0.67111491       0.41132317       0.75076497 </v>
    <v>       0.91943684       0.33245822       0.75111789 </v>
    <v>       0.17031580       0.93911380       0.74998184 </v>
    <v>       0.42268059       0.83527723       0.75211467 </v>
    <v>       0.67068582       0.91119410       0.74992749 </v>
    <v>       0.92618734       0.82234005       0.75076042 </v>
    <v>       0.12061721       0.12077410      -0.00000000 </v>
    <v>       0.37231188       0.12819686      -0.00000000 </v>
    <v>       0.62211675       0.12062800      -0.00000000 </v>
    <v>       0.87393759       0.12330799      -0.00000000 </v>
    <v>       0.11975774       0.37571986      -0.00000000 </v>
    <v>       0.36836331       0.37820801      -0.00000000 </v>
    <v>       0.61623252       0.37847672      -0.00000000 </v>
    <v>       0.87553999       0.37874285      -0.00000000 </v>
    <v>       0.12472136       0.62162082      -0.00000000 </v>
    <v>       0.37378854       0.63071168      -0.00000000 </v>
    <v>       0.62258716       0.62085527      -0.00000000 </v>
    <v>       0.87419136       0.62680446      -0.00000000 </v>
    <v>       0.12280113       0.87074663      -0.00000000 </v>
    <v>       0.36883784       0.87372811      -0.00000000 </v>
    <v>       0.62036234       0.87187019      -0.00000000 </v>
    <v>       0.86783940       0.87130392      -0.00000000 </v>
    <v>       0.60919756       0.14770942       0.24789508 </v>
    <v>       0.86213343       0.10444267       0.24749467 </v>
    <v>       0.60919756       0.14770942       0.75210492 </v>
    <v>       0.86213343       0.10444267       0.75250533 </v>
   </varray>
  </structure>
  <varray name="forces" >
   <v>      -0.00462880       0.02055671      -0.00178571 </v>
   <v>       0.03413539       0.01907559      -0.00391153 </v>
   <v>      -0.03205096       0.01108383      -0.04499248 </v>
   <v>      -0.03007357       0.03298121      -0.03473269 </v>
   <v>       0.02218621       0.00820065       0.01972878 </v>
   <v>       0.00941780       0.03287266       0.03136329 </v>
   <v>      -0.03140474      -0.00445002      -0.00917668 </v>
   <v>      -0.02234716      -0.02054217      -0.01243283 </v>
   <v>       0.03413539       0.01907559       0.00391153 </v>
   <v>      -0.00462880       0.02055671       0.00178571 </v>
   <v>      -0.03007357       0.03298121       0.03473269 </v>
   <v>      -0.03205096       0.01108383       0.04499248 </v>
   <v>       0.00941780       0.03287266      -0.03136329 </v>
   <v>       0.02218621       0.00820065      -0.01972878 </v>
   <v>      -0.02234716      -0.02054217       0.01243283 </v>
   <v>      -0.03140474      -0.00445002       0.00917668 </v>
   <v>       0.00362311       0.03781582      -0.00048302 </v>
   <v>       0.01918976       0.02229213       0.02917771 </v>
   <v>       0.00807044      -0.03210376      -0.00563026 </v>
   <v>      -0.01063415      -0.00337478      -0.05489682 </v>
   <v>      -0.01300999      -0.03936340       0.02003706 </v>
   <v>       0.00081340      -0.04788351       0.03304616 </v>
   <v>      -0.03092771      -0.03211702      -0.01960615 </v>
   <v>      -0.04545194       0.00505009       0.00336923 </v>
   <v>       0.01918976       0.02229213      -0.02917771 </v>
   <v>       0.00362311       0.03781582       0.00048302 </v>
   <v>      -0.01063415      -0.00337478       0.05489682 </v>
   <v>       0.00807044      -0.03210376       0.00563026 </v>
   <v>       0.00081340      -0.04788351      -0.03304616 </v>
   <v>      -0.01300999      -0.03936340      -0.02003706 </v>
   <v>      -0.04545194       0.00505009      -0.00336923 </v>
   <v>      -0.03092771      -0.03211702       0.01960615 </v>
   <v>       0.00061513       0.00076625       0.10226104 </v>
   <v>      -0.05767500       0.03433134      -0.00000000 </v>
   <v>       0.07705238      -0.08357734      -0.00000000 </v>
   <v>       0.00263406      -0.02002257      -0.00000000 </v>
   <v>       0.03949567       0.05083780      -0.00000000 </v>
   <v>       0.00061513       0.00076625      -0.10226104 </v>
   <v>      -0.05025889      -0.01373053      -0.00000000 </v>
   <v>      -0.08634312      -0.04057825      -0.00000000 </v>
   <v>      -0.03323673       0.00724633      -0.00000000 </v>
   <v>      -0.01164659      -0.02148098      -0.00000000 </v>
   <v>       0.01342689       0.04971176      -0.00000000 </v>
   <v>       0.01545130      -0.02895772      -0.00000000 </v>
   <v>       0.00021951       0.03060102      -0.00000000 </v>
   <v>       0.02084689       0.06614003      -0.01981283 </v>
   <v>       0.00374901       0.04375363      -0.02557291 </v>
   <v>      -0.02060737       0.04075374      -0.00000000 </v>
   <v>      -0.02622681      -0.00230432      -0.00000000 </v>
   <v>      -0.01579006       0.03689547      -0.00000000 </v>
   <v>      -0.00725570      -0.01750179      -0.00000000 </v>
   <v>      -0.00136022      -0.01506980      -0.00000000 </v>
   <v>       0.02084689       0.06614003       0.01981283 </v>
   <v>      -0.01342058       0.01823415       0.01208798 </v>
   <v>      -0.01342058       0.01823415      -0.01208798 </v>
   <v>       0.00137983       0.00143842      -0.03505463 </v>
   <v>       0.00379843      -0.04135179      -0.00029102 </v>
   <v>       0.00379843      -0.04135179       0.00029102 </v>
   <v>      -0.01998293      -0.01854880      -0.03328748 </v>
   <v>      -0.01998293      -0.01854880       0.03328748 </v>
   <v>       0.00374901       0.04375363       0.02557291 </v>
   <v>       0.00137983       0.00143842       0.03505463 </v>
   <v>       0.00455750      -0.01977236       0.01770742 </v>
   <v>       0.00455750      -0.01977236      -0.01770742 </v>
   <v>       0.01434299      -0.01765351       0.00050432 </v>
   <v>       0.02660877       0.00022591      -0.03526381 </v>
   <v>       0.02138057       0.03698146       0.05033238 </v>
   <v>       0.01406602      -0.01345014      -0.07222076 </v>
   <v>      -0.01232034       0.00660237       0.00579724 </v>
   <v>      -0.01699806       0.03445003      -0.01416647 </v>
   <v>       0.01068349      -0.00844811       0.02022523 </v>
   <v>       0.05325387      -0.05356729      -0.08225923 </v>
   <v>       0.02660877       0.00022591       0.03526381 </v>
   <v>       0.01434299      -0.01765351      -0.00050432 </v>
   <v>       0.01406602      -0.01345014       0.07222076 </v>
   <v>       0.02138057       0.03698146      -0.05033238 </v>
   <v>      -0.01699806       0.03445003       0.01416647 </v>
   <v>      -0.01232034       0.00660237      -0.00579724 </v>
   <v>       0.05325387      -0.05356729       0.08225923 </v>
   <v>       0.01068349      -0.00844811      -0.02022523 </v>
   <v>      -0.01450719       0.05240984       0.04333444 </v>
   <v>       0.00051143       0.02028412      -0.00450355 </v>
   <v>       0.01811544      -0.00848208      -0.05194868 </v>
   <v>       0.04478472       0.01573335       0.05611019 </v>
   <v>       0.01903907       0.00687310       0.06802703 </v>
   <v>       0.01852672      -0.01370353      -0.06510760 </v>
   <v>       0.00602110      -0.04651265      -0.01716862 </v>
   <v>       0.02992092      -0.00138298       0.04325997 </v>
   <v>       0.00051143       0.02028412       0.00450355 </v>
   <v>      -0.01450719       0.05240984      -0.04333444 </v>
   <v>       0.04478472       0.01573335      -0.05611019 </v>
   <v>       0.01811544      -0.00848208       0.05194868 </v>
   <v>       0.01852672      -0.01370353       0.06510760 </v>
   <v>       0.01903907       0.00687310      -0.06802703 </v>
   <v>       0.02992092      -0.00138298      -0.04325997 </v>
   <v>       0.00602110      -0.04651265       0.01716862 </v>
   <v>      -0.02441376       0.04815370       0.01162508 </v>
   <v>       0.02156235      -0.06744992       0.02488829 </v>
   <v>       0.01531203      -0.02621000       0.01876807 </v>
   <v>      -0.02444260      -0.02923423       0.03314696 </v>
   <v>      -0.01094547       0.04954982       0.00115695 </v>
   <v>       0.01977060      -0.02618441       0.01508755 </v>
   <v>      -0.04228602       0.01914565       0.00242982 </v>
   <v>       0.02050178      -0.00509385      -0.01507695 </v>
   <v>       0.01867315       0.01277280      -0.00000000 </v>
   <v>       0.00045661       0.05085580      -0.00000000 </v>
   <v>       0.01299993       0.00124395      -0.00000000 </v>
   <v>      -0.00900383       0.01481402      -0.00000000 </v>
   <v>      -0.00256426      -0.00136089      -0.00000000 </v>
   <v>      -0.03429910       0.06226482      -0.00000000 </v>
   <v>       0.02911212      -0.06246982      -0.00000000 </v>
   <v>      -0.04378737      -0.00863855      -0.00000000 </v>
[...]
       <r>   -17.6494     0.0000    32.0000 </r>
       <r>   -17.4955     0.0000    32.0000 </r>
       <r>   -17.3415     0.0000    32.0000 </r>
       <r>   -17.1876     0.0000    32.0000 </r>
       <r>   -17.0337     0.0000    32.0000 </r>
       <r>   -16.8798     0.0000    32.0000 </r>
       <r>   -16.7259     0.0000    32.0000 </r>
       <r>   -16.5720     0.0000    32.0000 </r>
       <r>   -16.4181     0.0000    32.0000 </r>
       <r>   -16.2642     0.0000    32.0000 </r>
       <r>   -16.1103     0.0000    32.0000 </r>
       <r>   -15.9563     0.0000    32.0000 </r>
       <r>   -15.8024     0.0000    32.0000 </r>
       <r>   -15.6485     0.0000    32.0000 </r>
       <r>   -15.4946     0.0000    32.0000 </r>
       <r>   -15.3407     1.6888    32.2599 </r>
       <r>   -15.1868    10.5537    33.8843 </r>
       <r>   -15.0329    25.7493    37.8474 </r>
       <r>   -14.8790    37.8203    43.6683 </r>
       <r>   -14.7251    43.1579    50.3108 </r>
       <r>   -14.5711    43.0394    56.9351 </r>
       <r>   -14.4172    36.9784    62.6264 </r>
       <r>   -14.2633    51.8502    70.6068 </r>
       <r>   -14.1094    66.9808    80.9159 </r>
       <r>   -13.9555    80.6728    93.3323 </r>
       <r>   -13.8016    66.4790   103.5642 </r>
       <r>   -13.6477    44.4330   110.4029 </r>
       <r>   -13.4938    27.4133   114.6221 </r>
       <r>   -13.3399     8.9428   115.9985 </r>
       <r>   -13.1859     0.0095   116.0000 </r>
       <r>   -13.0320     0.0000   116.0000 </r>
       <r>   -12.8781     0.0002   116.0000 </r>
       <r>   -12.7242     9.6364   117.4832 </r>
       <r>   -12.5703    66.2364   127.6777 </r>
       <r>   -12.4164   120.8761   146.2819 </r>
       <r>   -12.2625   126.2400   165.7116 </r>
       <r>   -12.1086   105.5586   181.9583 </r>
       <r>   -11.9547    95.7896   196.7014 </r>
       <r>   -11.8007    61.2726   206.1319 </r>
       <r>   -11.6468    26.9967   210.2870 </r>
       <r>   -11.4929    10.8157   211.9517 </r>
       <r>   -11.3390     0.3139   212.0000 </r>
       <r>   -11.1851     0.0000   212.0000 </r>
       <r>   -11.0312     0.0000   212.0000 </r>
       <r>   -10.8773     0.0000   212.0000 </r>
       <r>   -10.7234     0.0000   212.0000 </r>
       <r>   -10.5695     0.0000   212.0000 </r>
       <r>   -10.4155     0.0000   212.0000 </r>
       <r>   -10.2616     0.0000   212.0000 </r>
       <r>   -10.1077     0.0000   212.0000 </r>
       <r>    -9.9538     0.0000   212.0000 </r>
       <r>    -9.7999     0.0000   212.0000 </r>
       <r>    -9.6460     0.0000   212.0000 </r>
       <r>    -9.4921     0.0000   212.0000 </r>
       <r>    -9.3382     0.0000   212.0000 </r>
       <r>    -9.1843     0.0000   212.0000 </r>
       <r>    -9.0303     0.0000   212.0000 </r>
       <r>    -8.8764     0.0000   212.0000 </r>
       <r>    -8.7225     0.0000   212.0000 </r>
       <r>    -8.5686     0.0000   212.0000 </r>
       <r>    -8.4147     0.0000   212.0000 </r>
       <r>    -8.2608     0.0000   212.0000 </r>
       <r>    -8.1069     0.0000   212.0000 </r>
       <r>    -7.9530     0.0000   212.0000 </r>
       <r>    -7.7991     0.0000   212.0000 </r>
       <r>    -7.6451     0.0000   212.0000 </r>
       <r>    -7.4912     0.0000   212.0000 </r>
       <r>    -7.3373     0.0000   212.0000 </r>
       <r>    -7.1834     0.0000   212.0000 </r>
       <r>    -7.0295     0.0000   212.0000 </r>
       <r>    -6.8756     0.0000   212.0000 </r>
       <r>    -6.7217     0.0000   212.0000 </r>
       <r>    -6.5678     0.0000   212.0000 </r>
       <r>    -6.4138     0.0000   212.0000 </r>
       <r>    -6.2599     0.0000   212.0000 </r>
       <r>    -6.1060     0.0000   212.0000 </r>
       <r>    -5.9521     0.0000   212.0000 </r>
       <r>    -5.7982     0.0000   212.0000 </r>
       <r>    -5.6443     0.0000   212.0000 </r>
       <r>    -5.4904     0.0000   212.0000 </r>
       <r>    -5.3365     0.0000   212.0000 </r>
       <r>    -5.1826     0.0000   212.0000 </r>
       <r>    -5.0286     0.0000   212.0000 </r>
       <r>    -4.8747     0.0000   212.0000 </r>
       <r>    -4.7208     0.0000   212.0000 </r>
       <r>    -4.5669     0.0000   212.0000 </r>
       <r>    -4.4130     0.0000   212.0000 </r>
       <r>    -4.2591     0.0000   212.0000 </r>
       <r>    -4.1052     0.0000   212.0000 </r>
       <r>    -3.9513     0.0000   212.0000 </r>
       <r>    -3.7974     0.0000   212.0000 </r>
       <r>    -3.6434     0.0000   212.0000 </r>
       <r>    -3.4895     0.0000   212.0000 </r>
       <r>    -3.3356     0.0000   212.0000 </r>
       <r>    -3.1817     0.0000   212.0000 </r>
       <r>    -3.0278     0.0000   212.0000 </r>
       <r>    -2.8739     0.0000   212.0000 </r>
       <r>    -2.7200     0.8852   212.1362 </r>
       <r>    -2.5661     6.8365   213.1885 </r>
       <r>    -2.4122    11.0923   214.8957 </r>
       <r>    -2.2582    14.9492   217.1965 </r>
       <r>    -2.1043    15.9969   219.6586 </r>
       <r>    -1.9504    20.3534   222.7913 </r>
       <r>    -1.7965    26.4112   226.8562 </r>
       <r>    -1.6426    34.8539   232.2207 </r>
       <r>    -1.4887    37.1556   237.9393 </r>
       <r>    -1.3348    41.5258   244.3306 </r>
       <r>    -1.1809    55.0500   252.8034 </r>
       <r>    -1.0270    77.9060   264.7940 </r>
       <r>    -0.8730    70.9670   275.7166 </r>
       <r>    -0.7191    78.6783   287.8261 </r>
       <r>    -0.5652    89.4400   301.5919 </r>
       <r>    -0.4113    91.7947   315.7202 </r>
       <r>    -0.2574    70.5805   326.5833 </r>
       <r>    -0.1035    58.6976   335.6175 </r>
       <r>     0.0504    60.4676   344.9242 </r>
       <r>     0.2043    62.1090   354.4834 </r>
       <r>     0.3582    58.3881   363.4700 </r>
       <r>     0.5122    61.2188   372.8923 </r>
       <r>     0.6661    59.6564   382.0741 </r>
       <r>     0.8200    55.1172   390.5572 </r>
       <r>     0.9739    58.0811   399.4966 </r>
       <r>     1.1278    64.6133   409.4413 </r>
       <r>     1.2817    65.5981   419.5376 </r>
       <r>     1.4356    75.8400   431.2102 </r>
       <r>     1.5895    80.7127   443.6328 </r>
       <r>     1.7434    59.6946   452.8205 </r>
       <r>     1.8974    37.2178   458.5487 </r>
       <r>     2.0513    15.9162   460.9984 </r>
       <r>     2.2052    11.1683   462.7173 </r>
       <r>     2.3591     8.3253   463.9987 </r>
       <r>     2.5130     0.0088   464.0000 </r>
       <r>     2.6669     0.0000   464.0000 </r>
       <r>     2.8208     0.0000   464.0000 </r>
       <r>     2.9747     0.0000   464.0000 </r>
       <r>     3.1286     0.0000   464.0000 </r>
       <r>     3.2826     0.0000   464.0000 </r>
       <r>     3.4365     0.0000   464.0000 </r>
       <r>     3.5904     0.0000   464.0000 </r>
       <r>     3.7443     0.0000   464.0000 </r>
       <r>     3.8982     0.0000   464.0000 </r>
       <r>     4.0521     0.0000   464.0000 </r>
       <r>     4.2060     3.9289   464.6047 </r>
       <r>     4.3599    50.7090   472.4094 </r>
       <r>     4.5138    80.9321   484.8658 </r>
       <r>     4.6678    63.6131   494.6565 </r>
       <r>     4.8217    77.1558   506.5317 </r>
       <r>     4.9756    69.5169   517.2311 </r>
       <r>     5.1295    72.9481   528.4586 </r>
       <r>     5.2834    76.7276   540.2679 </r>
       <r>     5.4373    90.7899   554.2415 </r>
       <r>     5.5912    90.8884   568.2302 </r>
       <r>     5.7451    79.6863   580.4948 </r>
       <r>     5.8991    75.7882   592.1595 </r>
       <r>     6.0530    47.1860   599.4220 </r>
       <r>     6.2069    34.1578   604.6792 </r>
       <r>     6.3608     8.4638   605.9819 </r>
       <r>     6.5147     2.7800   606.4098 </r>
       <r>     6.6686     7.1650   607.5126 </r>
       <r>     6.8225    11.1364   609.2266 </r>
       <r>     6.9764    15.8069   611.6594 </r>
       <r>     7.1303    11.2985   613.3984 </r>
       <r>     7.2843    16.3647   615.9171 </r>
       <r>     7.4382    13.6265   618.0144 </r>
       <r>     7.5921    16.0177   620.4797 </r>
       <r>     7.7460    19.9000   623.5425 </r>
       <r>     7.8999    20.8162   626.7464 </r>
       <r>     8.0538    19.8876   629.8073 </r>
       <r>     8.2077    21.3837   633.0985 </r>
       <r>     8.3616    24.8008   636.9156 </r>
       <r>     8.5155    20.3291   640.0445 </r>
       <r>     8.6695    17.1319   642.6813 </r>
       <r>     8.8234    27.5374   646.9196 </r>
       <r>     8.9773    30.3227   651.5866 </r>
       <r>     9.1312    42.7308   658.1633 </r>
       <r>     9.2851    41.7644   664.5913 </r>
       <r>     9.4390    46.1729   671.6979 </r>
       <r>     9.5929    50.0706   679.4043 </r>
       <r>     9.7468    38.9506   685.3992 </r>
       <r>     9.9007    44.9260   692.3139 </r>
       <r>    10.0547    49.7722   699.9744 </r>
       <r>    10.2086    55.8483   708.5700 </r>
       <r>    10.3625    48.9934   716.1107 </r>
       <r>    10.5164    52.0064   724.1150 </r>
       <r>    10.6703    51.7573   732.0811 </r>
       <r>    10.8242    42.1900   738.5746 </r>
       <r>    10.9781    55.7841   747.1604 </r>
       <r>    11.1320    57.1590   755.9578 </r>
       <r>    11.2859    58.8140   765.0099 </r>
       <r>    11.4399    19.4116   767.9976 </r>
       <r>    11.5938     0.0157   768.0000 </r>
       <r>    11.7477     0.0000   768.0000 </r>
       <r>    11.9016     0.0000   768.0000 </r>
       <r>    12.0555     0.0000   768.0000 </r>
       <r>    12.2094     0.0000   768.0000 </r>
       <r>    12.3633     0.0000   768.0000 </r>
       <r>    12.5172     0.0000   768.0000 </r>
       <r>    12.6711     0.0000   768.0000 </r>
       <r>    12.8251     0.0000   768.0000 </r>
       <r>    12.9790     0.0000   768.0000 </r>
       <r>    13.1329     0.0000   768.0000 </r>
       <r>    13.2868     0.0000   768.0000 </r>
       <r>    13.4407     0.0000   768.0000 </r>
      </set>
     </set>
    </array>
   </total>
  </dos>
 </calculation>
 <structure name="finalpos" >
  <crystal>
   <varray name="basis" >
    <v>      11.22664252       0.00772148       0.00000000 </v>
    <v>       0.00789265      11.38657514       0.00000000 </v>
    <v>       0.00000000       0.00000000      15.76501322 </v>
   </varray>
   <i name="volume">   2015.28811050 </i>
   <varray name="rec_basis" >
    <v>       0.08907387      -0.00006174       0.00000000 </v>
    <v>      -0.00006040       0.08782276       0.00000000 </v>
    <v>       0.00000000       0.00000000       0.06343160 </v>
   </varray>
  </crystal>
  <varray name="positions" >
   <v>       0.99162357       0.23746073       0.11473040 </v>
   <v>       0.99184697       0.23869428       0.61141555 </v>
   <v>      -0.00071437       0.74769609       0.11229132 </v>
   <v>       0.99668829       0.75012823       0.61113155 </v>
   <v>       0.50419711       0.23848862       0.11693546 </v>
   <v>       0.50188872       0.23739871       0.61446344 </v>
   <v>       0.49922527       0.74959722       0.11480716 </v>
   <v>       0.49594042       0.75203816       0.61407259 </v>
   <v>       0.99184697       0.23869428       0.38858445 </v>
   <v>       0.99162357       0.23746073       0.88526960 </v>
   <v>       0.99668829       0.75012823       0.38886845 </v>
   <v>      -0.00071437       0.74769609       0.88770868 </v>
   <v>       0.50188872       0.23739871       0.38553656 </v>
   <v>       0.50419711       0.23848862       0.88306454 </v>
   <v>       0.49594042       0.75203816       0.38592741 </v>
   <v>       0.49922527       0.74959722       0.88519284 </v>
   <v>       0.24356520       0.00599837       0.11116939 </v>
   <v>       0.24217260       0.01043397       0.60990560 </v>
   <v>       0.24773983       0.50968842       0.11163615 </v>
   <v>       0.24804338       0.50715746       0.61041057 </v>
   <v>       0.74924549       0.01245481       0.11896357 </v>
   <v>       0.75014743       0.01350984       0.61535119 </v>
   <v>       0.74902914       0.49420577       0.11409254 </v>
   <v>       0.74921164       0.49389072       0.61266074 </v>
   <v>       0.24217260       0.01043397       0.39009440 </v>
   <v>       0.24356520       0.00599837       0.88883061 </v>
   <v>       0.24804338       0.50715746       0.38958943 </v>
   <v>       0.24773983       0.50968842       0.88836385 </v>
   <v>       0.75014743       0.01350984       0.38464881 </v>
   <v>       0.74924549       0.01245481       0.88103643 </v>
   <v>       0.74921164       0.49389072       0.38733926 </v>
   <v>       0.74902914       0.49420577       0.88590746 </v>
   <v>       0.75508802       0.24306104       0.74986910 </v>
   <v>       0.99511394       0.99616463      -0.00000000 </v>
   <v>       0.49561689       0.50142083      -0.00000000 </v>
   <v>       0.24551494       0.75127376       0.50000000 </v>
   <v>       0.49550304       0.99937673      -0.00000000 </v>
   <v>       0.75508802       0.24306104       0.25013090 </v>
   <v>       0.74342711       0.74500177       0.50000000 </v>
   <v>       0.99640694       0.50131840      -0.00000000 </v>
   <v>       0.24399925       0.24928633      -0.00000000 </v>
   <v>       0.74595228       0.25143079       0.50000000 </v>
   <v>       0.99519776       0.50163645       0.50000000 </v>
   <v>       0.99462051       0.99966431       0.50000000 </v>
   <v>       0.24304090       0.25160368       0.50000000 </v>
   <v>       0.25462132       0.28778135       0.24900395 </v>
   <v>       0.00999420       0.46897222       0.24895733 </v>
   <v>       0.24638271       0.75002928      -0.00000000 </v>
   <v>       0.49393802       0.00260735       0.50000000 </v>
   <v>       0.49473377       0.50088650       0.50000000 </v>
   <v>       0.74717969       0.25008618      -0.00000000 </v>
   <v>       0.74516164       0.74421918      -0.00000000 </v>
   <v>       0.25462132       0.28778135       0.75099605 </v>
   <v>       0.25952216       0.79719485       0.25128535 </v>
   <v>       0.25952216       0.79719485       0.74871465 </v>
   <v>       0.52058512       0.98806685       0.25089451 </v>
   <v>       0.76282460       0.77427218       0.25163865 </v>
   <v>       0.76282460       0.77427218       0.74836135 </v>
   <v>       0.99287771       0.98050938       0.25134752 </v>
   <v>       0.99287771       0.98050938       0.74865248 </v>
   <v>       0.00999420       0.46897222       0.75104267 </v>
   <v>       0.52058512       0.98806685       0.74910549 </v>
   <v>       0.51243176       0.46408682       0.24863311 </v>
   <v>       0.51243176       0.46408682       0.75136689 </v>
   <v>       0.99980972       0.99824248       0.12592046 </v>
   <v>       0.99802979      -0.00036649       0.62801573 </v>
   <v>       0.99215777       0.51965391       0.13296944 </v>
   <v>       0.98629077       0.53108208       0.64271298 </v>
   <v>       0.48548463       0.00762930       0.12827362 </v>
   <v>       0.48043400       0.01051197       0.63234040 </v>
   <v>       0.48925319       0.51837910       0.13387811 </v>
   <v>       0.48493638       0.53092824       0.64501179 </v>
   <v>       0.99802979      -0.00036649       0.37198427 </v>
   <v>       0.99980972       0.99824248       0.87407954 </v>
   <v>       0.98629077       0.53108208       0.35728702 </v>
   <v>       0.99215777       0.51965391       0.86703056 </v>
   <v>       0.48043400       0.01051197       0.36765960 </v>
   <v>       0.48548463       0.00762930       0.87172638 </v>
   <v>       0.48493638       0.53092824       0.35498821 </v>
   <v>       0.48925319       0.51837910       0.86612189 </v>
   <v>       0.22719888       0.23037305       0.35785740 </v>
   <v>       0.22937373       0.22906279       0.86160121 </v>
   <v>       0.23915991       0.73778793       0.36476853 </v>
   <v>       0.23459871       0.73047544       0.85790766 </v>
   <v>       0.74926477       0.25116023       0.37321262 </v>
   <v>       0.74997261       0.25184838       0.87580706 </v>
   <v>       0.74050755       0.72462188       0.36559898 </v>
   <v>       0.73732783       0.71485932       0.85819266 </v>
   <v>       0.22937373       0.22906279       0.13839879 </v>
   <v>       0.22719888       0.23037305       0.64214260 </v>
   <v>       0.23459871       0.73047544       0.14209234 </v>
   <v>       0.23915991       0.73778793       0.63523147 </v>
   <v>       0.74997261       0.25184838       0.12419294 </v>
   <v>       0.74926477       0.25116023       0.62678738 </v>
   <v>       0.73732783       0.71485932       0.14180734 </v>
   <v>       0.74050755       0.72462188       0.63440102 </v>
   <v>       0.17873372       0.43884253       0.24937417 </v>
   <v>       0.41838728       0.32571363       0.24940701 </v>
   <v>       0.67150061       0.41001361       0.24944393 </v>
   <v>       0.92009117       0.33233860       0.24936263 </v>
   <v>       0.17129360       0.94073630       0.24979577 </v>
   <v>       0.42328132       0.83442848       0.24827410 </v>
   <v>       0.66989944       0.90973308       0.25036940 </v>
   <v>       0.92632316       0.82178961       0.24910523 </v>
   <v>       0.12152347       0.12502197       0.50000000 </v>
   <v>       0.37059840       0.13318368       0.50000000 </v>
   <v>       0.62303619       0.12068797       0.50000000 </v>
   <v>       0.87177955       0.12542805       0.50000000 </v>
   <v>       0.11916248       0.37856597       0.50000000 </v>
   <v>       0.36686782       0.38111531       0.50000000 </v>
   <v>       0.61570122       0.37787386       0.50000000 </v>
   <v>       0.87367602       0.38010464       0.50000000 </v>
   <v>       0.12366005       0.62426275       0.50000000 </v>
   <v>       0.37252708       0.63143214       0.50000000 </v>
   <v>       0.62146740       0.62107856       0.50000000 </v>
   <v>       0.87205664       0.62817515       0.50000000 </v>
   <v>       0.12160065       0.87042121       0.50000000 </v>
   <v>       0.36624945       0.87444875       0.50000000 </v>
   <v>       0.61861174       0.86938700       0.50000000 </v>
   <v>       0.86441963       0.87047781       0.50000000 </v>
   <v>       0.17873372       0.43884253       0.75062583 </v>
   <v>       0.41838728       0.32571363       0.75059299 </v>
   <v>       0.67150061       0.41001361       0.75055607 </v>
   <v>       0.92009117       0.33233860       0.75063737 </v>
   <v>       0.17129360       0.94073630       0.75020423 </v>
   <v>       0.42328132       0.83442848       0.75172590 </v>
   <v>       0.66989944       0.90973308       0.74963060 </v>
   <v>       0.92632316       0.82178961       0.75089477 </v>
   <v>       0.12114179       0.12094813      -0.00000000 </v>
   <v>       0.37328697       0.13028116      -0.00000000 </v>
   <v>       0.62326746       0.11881764      -0.00000000 </v>
   <v>       0.87432242       0.12296808      -0.00000000 </v>
   <v>       0.11928494       0.37601866      -0.00000000 </v>
   <v>       0.36729243       0.37964797      -0.00000000 </v>
   <v>       0.61493969       0.37633660      -0.00000000 </v>
   <v>       0.87533775       0.37880054      -0.00000000 </v>
   <v>       0.12451294       0.62179928      -0.00000000 </v>
   <v>       0.37422777       0.63059262      -0.00000000 </v>
   <v>       0.62269347       0.61880201      -0.00000000 </v>
   <v>       0.87391519       0.62637741      -0.00000000 </v>
   <v>       0.12168234       0.87024730      -0.00000000 </v>
   <v>       0.36762468       0.87516977      -0.00000000 </v>
   <v>       0.61814156       0.87009077      -0.00000000 </v>
   <v>       0.86694387       0.87107366      -0.00000000 </v>
   <v>       0.61067650       0.14651518       0.24763188 </v>
   <v>       0.86254619       0.10303203       0.24738894 </v>
   <v>       0.61067650       0.14651518       0.75236812 </v>
   <v>       0.86254619       0.10303203       0.75261106 </v>
  </varray>
 </structure>
</modeling>
