<?xml version="1.0" encoding="ISO-8859-1"?>
<modeling>
 <generator>
  <i name="program" type="string">vasp </i>
  <i name="version" type="string">5.4.1  </i>
  <i name="subversion" type="string">05Feb16 (build Jan 25 2017 20:16:33) complex                          parallel </i>
  <i name="platform" type="string">BWXE6 </i>
  <i name="date" type="string">2019 06 20 </i>
  <i name="time" type="string">11:18:17 </i>
 </generator>
 <incar>
  <i type="string" name="SYSTEM"> STF</i>
  <i type="string" name="PREC">normal</i>
  <i type="string" name="ALGO"> Fast</i>
  <i type="int" name="ISPIN">     2</i>
  <i type="int" name="NELM">    40</i>
  <i type="int" name="NELMIN">     8</i>
  <i type="int" name="IBRION">     2</i>
  <i name="EDIFF">      0.00010000</i>
  <i name="EDIFFG">     -0.03000000</i>
  <i type="int" name="NSW">    30</i>
  <i type="int" name="ISIF">     3</i>
  <i name="ENCUT">    520.00000000</i>
  <i type="int" name="NBANDS">   768</i>
  <v name="MAGMOM">      0.60000000      0.60000000      0.60000000      0.60000000      0.60000000      0.60000000      0.60000000      0.60000000      0.60000000      0.60000000      0.60000000      0.60000000      0.60000000      0.60000000      0.60000000      0.60000000      0.60000000      0.60000000      0.60000000      0.60000000
      0.60000000      0.60000000      0.60000000      0.60000000      0.60000000      0.60000000      0.60000000      0.60000000      0.60000000      0.60000000      0.60000000      0.60000000      0.60000000      0.60000000      0.60000000      0.60000000      0.60000000      0.60000000      0.60000000      0.60000000
      0.60000000      0.60000000      0.60000000      0.60000000      0.60000000      0.60000000      0.60000000      0.60000000      0.60000000      0.60000000      0.60000000      0.60000000      0.60000000      0.60000000      0.60000000      0.60000000      0.60000000      0.60000000      0.60000000      0.60000000
      5.00000000      5.00000000      5.00000000      5.00000000      0.60000000      0.60000000      0.60000000      0.60000000      0.60000000      0.60000000      0.60000000      0.60000000      0.60000000      0.60000000      0.60000000      0.60000000      0.60000000      0.60000000      0.60000000      0.60000000
      0.60000000      0.60000000      0.60000000      0.60000000      0.60000000      0.60000000      0.60000000      0.60000000      0.60000000      0.60000000      0.60000000      0.60000000      0.60000000      0.60000000      0.60000000      0.60000000      0.60000000      0.60000000      0.60000000      0.60000000
      0.60000000      0.60000000      0.60000000      0.60000000      0.60000000      0.60000000      0.60000000      0.60000000      0.60000000      0.60000000      0.60000000      0.60000000      0.60000000      0.60000000      0.60000000      0.60000000      0.60000000      0.60000000      0.60000000      0.60000000
      0.60000000      0.60000000      0.60000000      0.60000000      0.60000000      0.60000000      0.60000000      0.60000000      0.60000000      0.60000000      0.60000000      0.60000000      0.60000000      0.60000000      0.60000000      0.60000000      0.60000000      0.60000000      0.60000000      0.60000000
      0.60000000      0.60000000      0.60000000      0.60000000      0.60000000      0.60000000      0.60000000      0.60000000      0.60000000      0.60000000      0.60000000      0.60000000      0.60000000      0.60000000      0.60000000      0.60000000      0.60000000      0.60000000</v>
  <i type="string" name="LREAL"> Auto</i>
  <i type="int" name="ISMEAR">     0</i>
  <i name="SIGMA">      0.05000000</i>
  <i type="int" name="LMAXMIX">     4</i>
  <v type="int" name="KPOINT_BSE">    -1     0     0     0</v>
  <i type="int" name="NELM">    40</i>
  <i type="logical" name="LDAU"> T  </i>
  <v type="int" name="LDAUTYPE">     2</v>
  <v type="int" name="LDAUL">     0     2     2     0</v>
  <v name="LDAUU">      0.00000000      3.00000000      5.00000000      0.00000000</v>
  <v name="LDAUJ">      0.00000000      0.00000000      0.00000000      0.00000000</v>
  <i type="int" name="LDAUPRINT">     1</i>
 </incar>
 <kpoints>
  <generation param="Monkhorst-Pack">
   <v type="int" name="divisions">       2        2        2 </v>
   <v name="usershift">      0.00000000       0.00000000       0.00000000 </v>
   <v name="genvec1">      0.50000000      -0.00000000       0.00000000 </v>
   <v name="genvec2">      0.00000000       0.50000000       0.00000000 </v>
   <v name="genvec3">      0.00000000       0.00000000       0.50000000 </v>
   <v name="shift">      0.50000000       0.50000000       0.50000000 </v>
  </generation>
  <varray name="kpointlist" >
   <v>       0.25000000       0.25000000       0.25000000 </v>
   <v>      -0.25000000       0.25000000       0.25000000 </v>
   <v>       0.25000000      -0.25000000       0.25000000 </v>
   <v>      -0.25000000      -0.25000000       0.25000000 </v>
  </varray>
  <varray name="weights" >
   <v>       0.25000000 </v>
   <v>       0.25000000 </v>
   <v>       0.25000000 </v>
   <v>       0.25000000 </v>
  </varray>
 </kpoints>
 <parameters>
  <separator name="general" >
   <i type="string" name="SYSTEM">STF</i>
   <i type="logical" name="LCOMPAT"> F  </i>
  </separator>
  <separator name="electronic" >
   <i type="string" name="PREC">normal</i>
   <i name="ENMAX">    520.00000000</i>
   <i name="ENAUG">    605.39200000</i>
   <i name="EDIFF">      0.00010000</i>
   <i type="int" name="IALGO">    68</i>
   <i type="int" name="IWAVPR">    11</i>
   <i type="int" name="NBANDS">   768</i>
   <i name="NELECT">   1028.00000000</i>
   <i type="int" name="TURBO">     0</i>
   <i type="int" name="IRESTART">     0</i>
   <i type="int" name="NREBOOT">     0</i>
   <i type="int" name="NMIN">     0</i>
   <i name="EREF">      0.00000000</i>
   <separator name="electronic smearing" >
    <i type="int" name="ISMEAR">     0</i>
    <i name="SIGMA">      0.05000000</i>
    <i name="KSPACING">      0.50000000</i>
    <i type="logical" name="KGAMMA"> T  </i>
   </separator>
   <separator name="electronic projectors" >
    <i type="logical" name="LREAL"> T  </i>
    <v name="ROPT">     -0.00050000     -0.00050000     -0.00050000     -0.00050000</v>
    <i type="int" name="LMAXPAW">  -100</i>
    <i type="int" name="LMAXMIX">     4</i>
    <i type="logical" name="NLSPLINE"> F  </i>
   </separator>
   <separator name="electronic startup" >
    <i type="int" name="ISTART">     1</i>
    <i type="int" name="ICHARG">     0</i>
    <i type="int" name="INIWAV">     1</i>
   </separator>
   <separator name="electronic spin" >
    <i type="int" name="ISPIN">     2</i>
    <i type="logical" name="LNONCOLLINEAR"> F  </i>
    <v name="MAGMOM">      0.60000000      0.60000000      0.60000000      0.60000000      0.60000000      0.60000000      0.60000000      0.60000000      0.60000000      0.60000000      0.60000000      0.60000000      0.60000000      0.60000000      0.60000000      0.60000000      0.60000000      0.60000000      0.60000000      0.60000000
      0.60000000      0.60000000      0.60000000      0.60000000      0.60000000      0.60000000      0.60000000      0.60000000      0.60000000      0.60000000      0.60000000      0.60000000      0.60000000      0.60000000      0.60000000      0.60000000      0.60000000      0.60000000      0.60000000      0.60000000
      0.60000000      0.60000000      0.60000000      0.60000000      0.60000000      0.60000000      0.60000000      0.60000000      0.60000000      0.60000000      0.60000000      0.60000000      0.60000000      0.60000000      0.60000000      0.60000000      0.60000000      0.60000000      0.60000000      0.60000000
      5.00000000      5.00000000      5.00000000      5.00000000      0.60000000      0.60000000      0.60000000      0.60000000      0.60000000      0.60000000      0.60000000      0.60000000      0.60000000      0.60000000      0.60000000      0.60000000      0.60000000      0.60000000      0.60000000      0.60000000
      0.60000000      0.60000000      0.60000000      0.60000000      0.60000000      0.60000000      0.60000000      0.60000000      0.60000000      0.60000000      0.60000000      0.60000000      0.60000000      0.60000000      0.60000000      0.60000000      0.60000000      0.60000000      0.60000000      0.60000000
      0.60000000      0.60000000      0.60000000      0.60000000      0.60000000      0.60000000      0.60000000      0.60000000      0.60000000      0.60000000      0.60000000      0.60000000      0.60000000      0.60000000      0.60000000      0.60000000      0.60000000      0.60000000      0.60000000      0.60000000
      0.60000000      0.60000000      0.60000000      0.60000000      0.60000000      0.60000000      0.60000000      0.60000000      0.60000000      0.60000000      0.60000000      0.60000000      0.60000000      0.60000000      0.60000000      0.60000000      0.60000000      0.60000000      0.60000000      0.60000000
      0.60000000      0.60000000      0.60000000      0.60000000      0.60000000      0.60000000      0.60000000      0.60000000      0.60000000      0.60000000      0.60000000      0.60000000      0.60000000      0.60000000      0.60000000      0.60000000      0.60000000      0.60000000</v>
    <i name="NUPDOWN">     -1.00000000</i>
    <i type="logical" name="LSORBIT"> F  </i>
    <v name="SAXIS">      0.00000000      0.00000000      1.00000000</v>
    <i type="logical" name="LSPIRAL"> F  </i>
    <v name="QSPIRAL">      0.00000000      0.00000000      0.00000000</v>
    <i type="logical" name="LZEROZ"> F  </i>
   </separator>
   <separator name="electronic exchange-correlation" >
    <i type="logical" name="LASPH"> F  </i>
    <i type="logical" name="LMETAGGA"> F  </i>
   </separator>
   <separator name="electronic convergence" >
    <i type="int" name="NELM">    40</i>
    <i type="int" name="NELMDL">     0</i>
    <i type="int" name="NELMIN">     8</i>
    <i name="ENINI">    520.00000000</i>
    <separator name="electronic convergence detail" >
     <i type="logical" name="LDIAG"> T  </i>
     <i type="logical" name="LSUBROT"> F  </i>
     <i name="WEIMIN">      0.00100000</i>
     <i name="EBREAK">      0.00000003</i>
     <i name="DEPER">      0.30000000</i>
     <i type="int" name="NRMM">     4</i>
     <i name="TIME">      0.40000000</i>
    </separator>
   </separator>
   <separator name="electronic mixer" >
    <i name="AMIX">      0.40000000</i>
    <i name="BMIX">      1.00000000</i>
    <i name="AMIN">      0.10000000</i>
    <i name="AMIX_MAG">      1.60000000</i>
    <i name="BMIX_MAG">      1.00000000</i>
    <separator name="electronic mixer details" >
     <i type="int" name="IMIX">     4</i>
     <i type="logical" name="MIXFIRST"> F  </i>
     <i type="int" name="MAXMIX">   -45</i>
     <i name="WC">    100.00000000</i>
     <i type="int" name="INIMIX">     1</i>
     <i type="int" name="MIXPRE">     1</i>
     <i type="int" name="MREMOVE">     5</i>
    </separator>
   </separator>
   <separator name="electronic dipolcorrection" >
    <i type="logical" name="LDIPOL"> F  </i>
    <i type="logical" name="LMONO"> F  </i>
    <i type="int" name="IDIPOL">     0</i>
    <i name="EPSILON">      1.00000000</i>
    <v name="DIPOL">   -100.00000000   -100.00000000   -100.00000000</v>
    <i name="EFIELD">      0.00000000</i>
   </separator>
  </separator>
  <separator name="grids" >
   <i type="int" name="NGX">    64</i>
   <i type="int" name="NGY">    64</i>
   <i type="int" name="NGZ">    90</i>
   <i type="int" name="NGXF">   128</i>
   <i type="int" name="NGYF">   128</i>
   <i type="int" name="NGZF">   180</i>
   <i type="logical" name="ADDGRID"> F  </i>
  </separator>
  <separator name="ionic" >
   <i type="int" name="NSW">    30</i>
   <i type="int" name="IBRION">     2</i>
   <i type="int" name="ISIF">     3</i>
   <i name="PSTRESS">      0.00000000</i>
   <i name="EDIFFG">     -0.03000000</i>
   <i type="int" name="NFREE">     1</i>
   <i name="POTIM">      0.50000000</i>
   <i name="SMASS">     -3.00000000</i>
   <i name="SCALEE">      1.00000000</i>
  </separator>
  <separator name="ionic md" >
   <i name="TEBEG">      0.00010000</i>
   <i name="TEEND">      0.00010000</i>
   <i type="int" name="NBLOCK">     1</i>
   <i type="int" name="KBLOCK">    30</i>
   <i type="int" name="NPACO">   256</i>
   <i name="APACO">     16.00000000</i>
  </separator>
  <separator name="symmetry" >
   <i type="int" name="ISYM">     2</i>
   <i name="SYMPREC">      0.00001000</i>
  </separator>
  <separator name="dos" >
   <i type="logical" name="LORBIT"> F  </i>
   <v name="RWIGS">     -1.00000000     -1.00000000     -1.00000000     -1.00000000</v>
   <i type="int" name="NEDOS">   301</i>
   <i name="EMIN">     10.00000000</i>
   <i name="EMAX">    -10.00000000</i>
   <i name="EFERMI">      0.00000000</i>
  </separator>
  <separator name="writing" >
   <i type="int" name="NWRITE">     2</i>
   <i type="logical" name="LWAVE"> T  </i>
   <i type="logical" name="LCHARG"> T  </i>
   <i type="logical" name="LPARD"> F  </i>
   <i type="logical" name="LVTOT"> F  </i>
   <i type="logical" name="LVHAR"> F  </i>
   <i type="logical" name="LELF"> F  </i>
   <i type="logical" name="LOPTICS"> F  </i>
   <v name="STM">      0.00000000      0.00000000      0.00000000      0.00000000      0.00000000      0.00000000      0.00000000</v>
  </separator>
  <separator name="performance" >
   <i type="int" name="NPAR">     2</i>
   <i type="int" name="NSIM">     4</i>
   <i type="int" name="NBLK">    -1</i>
   <i type="logical" name="LPLANE"> T  </i>
   <i type="logical" name="LSCALAPACK"> T  </i>
   <i type="logical" name="LSCAAWARE"> F  </i>
   <i type="logical" name="LSCALU"> F  </i>
   <i type="logical" name="LASYNC"> F  </i>
   <i type="logical" name="LORBITALREAL"> F  </i>
  </separator>
  <separator name="miscellaneous" >
   <i type="int" name="IDIOT">     3</i>
   <i type="logical" name="LMUSIC"> F  </i>
   <v name="POMASS">     87.62000000     47.88000000     55.84700000     16.00000000</v>
   <v name="DARWINR">      0.00000000      0.00000000      0.00000000      0.00000000</v>
   <v name="DARWINV">      1.00000000      1.00000000      1.00000000      1.00000000</v>
   <i type="logical" name="LCORR"> T  </i>
  </separator>
  <i type="logical" name="GGA_COMPAT"> T  </i>
  <i type="logical" name="LBERRY"> F  </i>
  <i type="int" name="ICORELEVEL">     0</i>
  <i type="logical" name="LDAU"> T  </i>
  <v type="int" name="LDAUTYPE">     2</v>
  <v type="int" name="LDAUL">     0</v>
  <v name="LDAUU">      0.00000000</v>
  <v name="LDAUJ">      0.00000000</v>
  <i type="int" name="LDAUPRINT">     1</i>
  <i type="int" name="I_CONSTRAINED_M">     0</i>
  <separator name="electronic exchange-correlation" >
   <i type="string" name="GGA">--</i>
   <i type="int" name="VOSKOWN">     0</i>
   <i type="logical" name="LHFCALC"> F  </i>
   <i type="string" name="PRECFOCK"></i>
   <i type="logical" name="LSYMGRAD"> F  </i>
   <i type="logical" name="LHFONE"> F  </i>
   <i type="logical" name="LRHFCALC"> F  </i>
   <i type="logical" name="LTHOMAS"> F  </i>
   <i type="logical" name="LMODELHF"> F  </i>
   <i name="ENCUT4O">     -1.00000000</i>
   <i type="int" name="EXXOEP">     0</i>
   <i type="int" name="FOURORBIT">     0</i>
   <i name="AEXX">      0.00000000</i>
   <i name="HFALPHA">      0.00000000</i>
   <i name="MCALPHA">      0.00000000</i>
   <i name="ALDAX">      1.00000000</i>
   <i name="AGGAX">      1.00000000</i>
   <i name="ALDAC">      1.00000000</i>
   <i name="AGGAC">      1.00000000</i>
   <i type="int" name="NKREDX">     1</i>
   <i type="int" name="NKREDY">     1</i>
   <i type="int" name="NKREDZ">     1</i>
   <i type="logical" name="SHIFTRED"> F  </i>
   <i type="logical" name="ODDONLY"> F  </i>
   <i type="logical" name="EVENONLY"> F  </i>
   <i type="int" name="LMAXFOCK">     0</i>
   <i type="int" name="NMAXFOCKAE">     0</i>
   <i type="logical" name="LFOCKAEDFT"> F  </i>
   <i name="HFSCREEN">      0.00000000</i>
   <i name="HFSCREENC">      0.00000000</i>
   <i type="int" name="NBANDSGWLOW">     0</i>
  </separator>
  <separator name="vdW DFT" >
   <i type="logical" name="LUSE_VDW"> F  </i>
   <i name="Zab_VDW">     -0.84910000</i>
   <i name="PARAM1">      0.12340000</i>
   <i name="PARAM2">      1.00000000</i>
   <i name="PARAM3">      0.00000000</i>
  </separator>
  <separator name="model GW" >
   <i type="int" name="MODEL_GW">     0</i>
   <i name="MODEL_EPS0">      7.63988191</i>
   <i name="MODEL_ALPHA">      1.00000000</i>
  </separator>
  <separator name="linear response parameters" >
   <i type="logical" name="LEPSILON"> F  </i>
   <i type="logical" name="LRPA"> F  </i>
   <i type="logical" name="LNABLA"> F  </i>
   <i type="logical" name="LVEL"> F  </i>
   <i type="int" name="KINTER">     0</i>
   <i name="CSHIFT">      0.10000000</i>
   <i name="OMEGAMAX">     -1.00000000</i>
   <i name="DEG_THRESHOLD">      0.00200000</i>
  </separator>
  <separator name="orbital magnetization" >
   <i type="logical" name="NUCIND"> F  </i>
   <v name="MAGPOS">      0.00000000      0.00000000      0.00000000</v>
   <i type="logical" name="LNICSALL"> T  </i>
   <i type="logical" name="ORBITALMAG"> F  </i>
   <i type="logical" name="LMAGBLOCH"> F  </i>
   <i type="logical" name="LCHIMAG"> F  </i>
   <i type="logical" name="LGAUGE"> T  </i>
   <i type="int" name="MAGATOM">     0</i>
   <v name="MAGDIPOL">      0.00000000      0.00000000      0.00000000</v>
   <v name="AVECCONST">      0.00000000      0.00000000      0.00000000</v>
  </separator>
  <separator name="response functions" >
   <i type="logical" name="LADDER"> F  </i>
   <i type="logical" name="LFXC"> F  </i>
   <i type="logical" name="LHARTREE"> T  </i>
   <i type="int" name="IBSE">     0</i>
   <v type="int" name="KPOINT">    -1     0     0     0</v>
   <i type="logical" name="LTCTE"> F  </i>
   <i type="logical" name="LTETE"> F  </i>
   <i type="logical" name="LTRIPLET"> F  </i>
   <i type="logical" name="LFXCEPS"> F  </i>
   <i type="logical" name="LFXHEG"> F  </i>
   <i type="int" name="NATURALO">     0</i>
   <i type="logical" name="L2ORDER"> F  </i>
   <i type="logical" name="LUSEW"> F  </i>
   <i name="ENCUTGW">     -2.00000000</i>
   <i name="ENCUTGWSOFT">     -2.00000000</i>
   <i name="ENCUTLF">     -1.00000000</i>
   <i type="int" name="LMAXMP2">    -1</i>
   <i name="SCISSOR">      0.00000000</i>
   <i type="int" name="NOMEGA">     0</i>
   <i type="int" name="NOMEGAR">     0</i>
   <i type="int" name="NBANDSGW">    -1</i>
   <i type="int" name="NBANDSO">    -1</i>
   <i type="int" name="NBANDSV">    -1</i>
   <i type="int" name="NELM">    40</i>
   <i type="int" name="NELMHF">     1</i>
   <i type="int" name="DIM">     3</i>
   <i type="int" name="ANTIRES">     0</i>
   <i name="OMEGAMAX">    -30.00000000</i>
   <i name="OMEGAMIN">    -30.00000000</i>
   <i name="OMEGATL">   -200.00000000</i>
   <i type="int" name="OMEGAGRID">     0</i>
   <i name="CSHIFT">     -0.10000000</i>
   <i type="logical" name="SELFENERGY"> F  </i>
   <i type="logical" name="LSPECTRAL"> F  </i>
   <i type="logical" name="LSPECTRALGW"> F  </i>
   <i type="logical" name="LSINGLES"> F  </i>
   <i type="logical" name="LFERMIGW"> F  </i>
   <i type="logical" name="ODDONLYGW"> F  </i>
   <i type="logical" name="EVENONLYGW"> F  </i>
   <i type="int" name="NKREDLFX">     1</i>
   <i type="int" name="NKREDLFY">     1</i>
   <i type="int" name="NKREDLFZ">     1</i>
   <i type="int" name="MAXMEM">  1800</i>
   <i type="int" name="TELESCOPE">     0</i>
   <i type="int" name="TAUPAR">     1</i>
   <i type="int" name="OMEGAPAR">    -1</i>
   <i name="LAMBDA">      1.00000000</i>
  </separator>
  <separator name="External order field" >
   <i name="OFIELD_KAPPA">      0.00000000</i>
   <v name="OFIELD_K">      0.00000000      0.00000000      0.00000000</v>
   <i name="OFIELD_Q6_NEAR">      0.00000000</i>
   <i name="OFIELD_Q6_FAR">      0.00000000</i>
   <i name="OFIELD_A">      0.00000000</i>
  </separator>
 </parameters>
 <atominfo>
  <atoms>     158 </atoms>
  <types>       4 </types>
  <array name="atoms" >
   <dimension dim="1">ion</dimension>
   <field type="string">element</field>
   <field type="int">atomtype</field>
   <set>
    <rc><c>Sr</c><c>   1</c></rc>
    <rc><c>Sr</c><c>   1</c></rc>
    <rc><c>Sr</c><c>   1</c></rc>
    <rc><c>Sr</c><c>   1</c></rc>
    <rc><c>Sr</c><c>   1</c></rc>
    <rc><c>Sr</c><c>   1</c></rc>
    <rc><c>Sr</c><c>   1</c></rc>
    <rc><c>Sr</c><c>   1</c></rc>
    <rc><c>Sr</c><c>   1</c></rc>
    <rc><c>Sr</c><c>   1</c></rc>
    <rc><c>Sr</c><c>   1</c></rc>
    <rc><c>Sr</c><c>   1</c></rc>
    <rc><c>Sr</c><c>   1</c></rc>
    <rc><c>Sr</c><c>   1</c></rc>
    <rc><c>Sr</c><c>   1</c></rc>
    <rc><c>Sr</c><c>   1</c></rc>
    <rc><c>Sr</c><c>   1</c></rc>
    <rc><c>Sr</c><c>   1</c></rc>
    <rc><c>Sr</c><c>   1</c></rc>
    <rc><c>Sr</c><c>   1</c></rc>
    <rc><c>Sr</c><c>   1</c></rc>
    <rc><c>Sr</c><c>   1</c></rc>
    <rc><c>Sr</c><c>   1</c></rc>
    <rc><c>Sr</c><c>   1</c></rc>
    <rc><c>Sr</c><c>   1</c></rc>
    <rc><c>Sr</c><c>   1</c></rc>
    <rc><c>Sr</c><c>   1</c></rc>
    <rc><c>Sr</c><c>   1</c></rc>
    <rc><c>Sr</c><c>   1</c></rc>
    <rc><c>Sr</c><c>   1</c></rc>
    <rc><c>Sr</c><c>   1</c></rc>
    <rc><c>Sr</c><c>   1</c></rc>
    <rc><c>Ti</c><c>   2</c></rc>
    <rc><c>Ti</c><c>   2</c></rc>
    <rc><c>Ti</c><c>   2</c></rc>
    <rc><c>Ti</c><c>   2</c></rc>
    <rc><c>Ti</c><c>   2</c></rc>
    <rc><c>Ti</c><c>   2</c></rc>
    <rc><c>Ti</c><c>   2</c></rc>
    <rc><c>Ti</c><c>   2</c></rc>
    <rc><c>Ti</c><c>   2</c></rc>
    <rc><c>Ti</c><c>   2</c></rc>
    <rc><c>Ti</c><c>   2</c></rc>
    <rc><c>Ti</c><c>   2</c></rc>
    <rc><c>Ti</c><c>   2</c></rc>
    <rc><c>Ti</c><c>   2</c></rc>
    <rc><c>Ti</c><c>   2</c></rc>
    <rc><c>Ti</c><c>   2</c></rc>
    <rc><c>Ti</c><c>   2</c></rc>
    <rc><c>Ti</c><c>   2</c></rc>
    <rc><c>Ti</c><c>   2</c></rc>
    <rc><c>Ti</c><c>   2</c></rc>
    <rc><c>Ti</c><c>   2</c></rc>
    <rc><c>Ti</c><c>   2</c></rc>
    <rc><c>Ti</c><c>   2</c></rc>
    <rc><c>Ti</c><c>   2</c></rc>
    <rc><c>Ti</c><c>   2</c></rc>
    <rc><c>Ti</c><c>   2</c></rc>
    <rc><c>Ti</c><c>   2</c></rc>
    <rc><c>Ti</c><c>   2</c></rc>
    <rc><c>Fe</c><c>   3</c></rc>
    <rc><c>Fe</c><c>   3</c></rc>
    <rc><c>Fe</c><c>   3</c></rc>
    <rc><c>Fe</c><c>   3</c></rc>
    <rc><c>O </c><c>   4</c></rc>
    <rc><c>O </c><c>   4</c></rc>
    <rc><c>O </c><c>   4</c></rc>
    <rc><c>O </c><c>   4</c></rc>
    <rc><c>O </c><c>   4</c></rc>
    <rc><c>O </c><c>   4</c></rc>
    <rc><c>O </c><c>   4</c></rc>
    <rc><c>O </c><c>   4</c></rc>
    <rc><c>O </c><c>   4</c></rc>
    <rc><c>O </c><c>   4</c></rc>
    <rc><c>O </c><c>   4</c></rc>
    <rc><c>O </c><c>   4</c></rc>
    <rc><c>O </c><c>   4</c></rc>
    <rc><c>O </c><c>   4</c></rc>
    <rc><c>O </c><c>   4</c></rc>
    <rc><c>O </c><c>   4</c></rc>
    <rc><c>O </c><c>   4</c></rc>
    <rc><c>O </c><c>   4</c></rc>
    <rc><c>O </c><c>   4</c></rc>
    <rc><c>O </c><c>   4</c></rc>
    <rc><c>O </c><c>   4</c></rc>
    <rc><c>O </c><c>   4</c></rc>
    <rc><c>O </c><c>   4</c></rc>
    <rc><c>O </c><c>   4</c></rc>
    <rc><c>O </c><c>   4</c></rc>
    <rc><c>O </c><c>   4</c></rc>
    <rc><c>O </c><c>   4</c></rc>
    <rc><c>O </c><c>   4</c></rc>
    <rc><c>O </c><c>   4</c></rc>
    <rc><c>O </c><c>   4</c></rc>
    <rc><c>O </c><c>   4</c></rc>
    <rc><c>O </c><c>   4</c></rc>
    <rc><c>O </c><c>   4</c></rc>
    <rc><c>O </c><c>   4</c></rc>
    <rc><c>O </c><c>   4</c></rc>
    <rc><c>O </c><c>   4</c></rc>
    <rc><c>O </c><c>   4</c></rc>
    <rc><c>O </c><c>   4</c></rc>
    <rc><c>O </c><c>   4</c></rc>
    <rc><c>O </c><c>   4</c></rc>
    <rc><c>O </c><c>   4</c></rc>
    <rc><c>O </c><c>   4</c></rc>
    <rc><c>O </c><c>   4</c></rc>
    <rc><c>O </c><c>   4</c></rc>
    <rc><c>O </c><c>   4</c></rc>
    <rc><c>O </c><c>   4</c></rc>
    <rc><c>O </c><c>   4</c></rc>
    <rc><c>O </c><c>   4</c></rc>
    <rc><c>O </c><c>   4</c></rc>
    <rc><c>O </c><c>   4</c></rc>
    <rc><c>O </c><c>   4</c></rc>
    <rc><c>O </c><c>   4</c></rc>
    <rc><c>O </c><c>   4</c></rc>
    <rc><c>O </c><c>   4</c></rc>
    <rc><c>O </c><c>   4</c></rc>
    <rc><c>O </c><c>   4</c></rc>
    <rc><c>O </c><c>   4</c></rc>
    <rc><c>O </c><c>   4</c></rc>
    <rc><c>O </c><c>   4</c></rc>
    <rc><c>O </c><c>   4</c></rc>
    <rc><c>O </c><c>   4</c></rc>
    <rc><c>O </c><c>   4</c></rc>
    <rc><c>O </c><c>   4</c></rc>
    <rc><c>O </c><c>   4</c></rc>
    <rc><c>O </c><c>   4</c></rc>
    <rc><c>O </c><c>   4</c></rc>
    <rc><c>O </c><c>   4</c></rc>
    <rc><c>O </c><c>   4</c></rc>
    <rc><c>O </c><c>   4</c></rc>
    <rc><c>O </c><c>   4</c></rc>
    <rc><c>O </c><c>   4</c></rc>
    <rc><c>O </c><c>   4</c></rc>
    <rc><c>O </c><c>   4</c></rc>
    <rc><c>O </c><c>   4</c></rc>
    <rc><c>O </c><c>   4</c></rc>
    <rc><c>O </c><c>   4</c></rc>
    <rc><c>O </c><c>   4</c></rc>
    <rc><c>O </c><c>   4</c></rc>
    <rc><c>O </c><c>   4</c></rc>
    <rc><c>O </c><c>   4</c></rc>
    <rc><c>O </c><c>   4</c></rc>
    <rc><c>O </c><c>   4</c></rc>
    <rc><c>O </c><c>   4</c></rc>
    <rc><c>O </c><c>   4</c></rc>
    <rc><c>O </c><c>   4</c></rc>
    <rc><c>O </c><c>   4</c></rc>
    <rc><c>O </c><c>   4</c></rc>
    <rc><c>O </c><c>   4</c></rc>
    <rc><c>O </c><c>   4</c></rc>
    <rc><c>O </c><c>   4</c></rc>
    <rc><c>O </c><c>   4</c></rc>
    <rc><c>O </c><c>   4</c></rc>
    <rc><c>O </c><c>   4</c></rc>
    <rc><c>O </c><c>   4</c></rc>
   </set>
  </array>
  <array name="atomtypes" >
   <dimension dim="1">type</dimension>
   <field type="int">atomspertype</field>
   <field type="string">element</field>
   <field>mass</field>
   <field>valence</field>
   <field type="string">pseudopotential</field>
   <set>
    <rc><c>  32</c><c>Sr</c><c>     87.62000000</c><c>     10.00000000</c><c>  PAW_PBE Sr_sv 07Sep2000               </c></rc>
    <rc><c>  28</c><c>Ti</c><c>     47.88000000</c><c>      4.00000000</c><c>  PAW_PBE Ti 08Apr2002                  </c></rc>
    <rc><c>   4</c><c>Fe</c><c>     55.84700000</c><c>      8.00000000</c><c>  PAW_PBE Fe 06Sep2000                  </c></rc>
    <rc><c>  94</c><c>O </c><c>     16.00000000</c><c>      6.00000000</c><c>  PAW_PBE O 08Apr2002                   </c></rc>
   </set>
  </array>
 </atominfo>
 <structure name="initialpos" >
  <crystal>
   <varray name="basis" >
    <v>      11.21965913       0.00247239      -0.00032447 </v>
    <v>       0.00245860      11.23571740      -0.00078517 </v>
    <v>      -0.00046518      -0.00112765      15.95923375 </v>
   </varray>
   <i name="volume">   2011.83556914 </i>
   <varray name="rec_basis" >
    <v>       0.08912927      -0.00001950       0.00000260 </v>
    <v>      -0.00001961       0.08900189       0.00000629 </v>
    <v>       0.00000181       0.00000438       0.06265965 </v>
   </varray>
  </crystal>
  <varray name="positions" >
   <v>       0.00954286       0.25229320       0.13078729 </v>
   <v>       0.00086693       0.24992243       0.62311306 </v>
   <v>       0.00280294       0.74561967       0.13021494 </v>
   <v>       0.99910413       0.74994389       0.62264651 </v>
   <v>       0.49337352       0.24965234       0.13105284 </v>
   <v>       0.49863052       0.24962735       0.62229476 </v>
   <v>       0.49971010       0.74684021       0.12621687 </v>
   <v>       0.50106936       0.75036270       0.62363557 </v>
   <v>       0.00095497       0.24999081       0.37565409 </v>
   <v>       0.00948763       0.25179213       0.87012560 </v>
   <v>       0.99871451       0.74987612       0.37644615 </v>
   <v>       0.00289642       0.74572362       0.87080549 </v>
   <v>       0.49843077       0.24767627       0.37589005 </v>
   <v>       0.49304196       0.25255693       0.87019500 </v>
   <v>       0.50114435       0.75240348       0.37425368 </v>
   <v>       0.49959730       0.74463166       0.87525816 </v>
   <v>       0.24962532       0.00142219       0.13030200 </v>
   <v>       0.25000232       0.99959060       0.62329928 </v>
   <v>       0.25379700       0.50284010       0.12629133 </v>
   <v>       0.25100813       0.50070548       0.62434779 </v>
   <v>       0.75010120       0.98752984       0.13529136 </v>
   <v>       0.74877672       0.99558105       0.62090243 </v>
   <v>       0.74932041       0.51529375       0.12940279 </v>
   <v>       0.74917516       0.50279026       0.62280112 </v>
   <v>       0.25195528       0.99926619       0.37474338 </v>
   <v>       0.24720671       0.00190922       0.87164750 </v>
   <v>       0.25061427       0.50063758       0.37490858 </v>
   <v>       0.25383380       0.50276492       0.87456396 </v>
   <v>       0.74723648       0.99584010       0.37734677 </v>
   <v>       0.75220474       0.98671100       0.86607728 </v>
   <v>       0.74927579       0.50297573       0.37613084 </v>
   <v>       0.74928566       0.51537864       0.87139305 </v>
   <v>       0.00907613       0.98501823       0.00028957 </v>
   <v>       0.99908018       0.99844845       0.49947968 </v>
   <v>       0.00633037       0.50624392       0.00013949 </v>
   <v>       0.99888488       0.50008059       0.49994352 </v>
   <v>       0.48375654       0.99049556       0.00016546 </v>
   <v>       0.50031991       0.99825057       0.49819594 </v>
   <v>       0.50228401       0.50086964       0.49950312 </v>
   <v>       0.25090682       0.25403303       0.00007626 </v>
   <v>       0.24996356       0.25024538       0.49974815 </v>
   <v>       0.25037301       0.75046205       0.49982253 </v>
   <v>       0.74421302       0.27765644       0.00011518 </v>
   <v>       0.74970647       0.25096773       0.49970892 </v>
   <v>       0.74946541       0.75065265       0.00018218 </v>
   <v>       0.25157157       0.24897461       0.25119028 </v>
   <v>       0.25033078       0.25037097       0.74864364 </v>
   <v>       0.25249327       0.75140574       0.24865289 </v>
   <v>       0.25071684       0.75011175       0.75132880 </v>
   <v>       0.74934806       0.24679954       0.25278195 </v>
   <v>       0.75040392       0.24775661       0.74717765 </v>
   <v>       0.74901619       0.75114537       0.25382236 </v>
   <v>       0.75038799       0.74984051       0.74637665 </v>
   <v>       0.99974504       0.00043082       0.25107726 </v>
   <v>       0.99975938       0.00055467       0.74839984 </v>
   <v>       0.00055367       0.49968055       0.25014855 </v>
   <v>       0.00029948       0.49948377       0.74990128 </v>
   <v>       0.50011082       0.00059372       0.74939793 </v>
   <v>       0.50057505       0.49945652       0.24825400 </v>
   <v>       0.50061886       0.49960429       0.75136656 </v>
   <v>       0.49465756       0.50520005       0.00035712 </v>
   <v>       0.25185421       0.74277486       0.00039295 </v>
   <v>       0.75028932       0.74949445       0.49986089 </v>
   <v>       0.50065463       0.00083452       0.25011344 </v>
   <v>       0.11076832       0.13920774       0.25064520 </v>
   <v>       0.11010585       0.13989157       0.74937340 </v>
   <v>       0.11120843       0.63710802       0.25341312 </v>
   <v>       0.11067402       0.63814498       0.74692357 </v>
   <v>       0.61344190       0.14115694       0.25053347 </v>
   <v>       0.61092723       0.14087362       0.74931989 </v>
   <v>       0.61366229       0.63619510       0.24949584 </v>
   <v>       0.61318216       0.63735968       0.75049379 </v>
   <v>       0.38848690       0.36146505       0.25103495 </v>
   <v>       0.38912365       0.36023313       0.74873555 </v>
   <v>       0.38758811       0.86226474       0.24575405 </v>
   <v>       0.39022729       0.86266554       0.75478395 </v>
   <v>       0.88725463       0.35846525       0.24183562 </v>
   <v>       0.88769995       0.35751882       0.75840106 </v>
   <v>       0.88927773       0.86205486       0.24815981 </v>
   <v>       0.88963298       0.86156788       0.75181465 </v>
   <v>       0.36015302       0.11319291       0.24864432 </v>
   <v>       0.35993362       0.11076368       0.75182667 </v>
   <v>       0.36274045       0.61140466       0.25255835 </v>
   <v>       0.36227374       0.61120537       0.74768786 </v>
   <v>       0.86085986       0.11014529       0.25472394 </v>
   <v>       0.85940144       0.10943224       0.74542525 </v>
   <v>       0.86268034       0.61126064       0.25056749 </v>
   <v>       0.86172652       0.61051856       0.74906304 </v>
   <v>       0.13795960       0.38784456       0.24753698 </v>
   <v>       0.13859306       0.38856539       0.75227890 </v>
   <v>       0.13673438       0.88985780       0.24726778 </v>
   <v>       0.13791146       0.89073376       0.75278066 </v>
   <v>       0.64159795       0.38507599       0.23959739 </v>
   <v>       0.64190148       0.38495110       0.76080352 </v>
   <v>       0.63837820       0.88579242       0.25240956 </v>
   <v>       0.63827497       0.88835518       0.74795649 </v>
   <v>       0.35205457       0.39222082       0.99976603 </v>
   <v>       0.35999595       0.38985639       0.50030378 </v>
   <v>       0.35038348       0.89575885       0.00020036 </v>
   <v>       0.35970764       0.89019338       0.50072021 </v>
   <v>       0.85413476       0.39930609       0.99948065 </v>
   <v>       0.85902901       0.38899341       0.50044559 </v>
   <v>       0.85223099       0.90849201       0.00025219 </v>
   <v>       0.86258526       0.89115084       0.49986141 </v>
   <v>       0.13113048       0.11249951       0.99972749 </v>
   <v>       0.13967696       0.11031342       0.49995768 </v>
   <v>       0.14392830       0.60409479       0.99948970 </v>
   <v>       0.13989873       0.60928055       0.50055788 </v>
   <v>       0.64041427       0.11235073       0.50086246 </v>
   <v>       0.64446146       0.61288222       0.99970117 </v>
   <v>       0.63861090       0.60871222       0.50030605 </v>
   <v>       0.10253623       0.35695855       0.99969154 </v>
   <v>       0.10998972       0.35927235       0.50036518 </v>
   <v>       0.10397025       0.85267331       0.99985391 </v>
   <v>       0.11046528       0.85973124       0.50038464 </v>
   <v>       0.59826304       0.35153401       0.00031559 </v>
   <v>       0.61021845       0.35838296       0.50003706 </v>
   <v>       0.60988391       0.86721961       0.99851984 </v>
   <v>       0.60949016       0.86273263       0.50094961 </v>
   <v>       0.39493731       0.14428506       0.99880563 </v>
   <v>       0.38893002       0.14058575       0.50075653 </v>
   <v>       0.39439928       0.64662852       0.00026775 </v>
   <v>       0.38981895       0.63891585       0.50009234 </v>
   <v>       0.88899805       0.14064356       0.50023851 </v>
   <v>       0.89519218       0.64910396       0.99987851 </v>
   <v>       0.89206752       0.63669575       0.50039051 </v>
   <v>       0.99416712       0.01068384       0.12266052 </v>
   <v>       0.00175453       0.99884751       0.62521152 </v>
   <v>       0.99981302       0.50413273       0.12408642 </v>
   <v>       0.99763252       0.49287015       0.62629054 </v>
   <v>       0.51098313       0.01135366       0.11898288 </v>
   <v>       0.49785271       0.00149916       0.62649140 </v>
   <v>       0.49749419       0.50232895       0.12590587 </v>
   <v>       0.50513738       0.49562225       0.62612873 </v>
   <v>       0.00198398       0.99870084       0.37481681 </v>
   <v>       0.99366633       0.01053212       0.87737044 </v>
   <v>       0.99777900       0.49287327       0.37441145 </v>
   <v>       0.99949049       0.50426812       0.87529007 </v>
   <v>       0.49847890       0.00126563       0.37638953 </v>
   <v>       0.51022520       0.01086818       0.87821126 </v>
   <v>       0.50507819       0.49552038       0.37408978 </v>
   <v>       0.49738439       0.50206283       0.87401368 </v>
   <v>       0.24913121       0.25099301       0.37503989 </v>
   <v>       0.24876585       0.24899800       0.87475133 </v>
   <v>       0.25063905       0.75319785       0.37543632 </v>
   <v>       0.24742704       0.74787470       0.87343841 </v>
   <v>       0.75036880       0.25585907       0.37392837 </v>
   <v>       0.75808008       0.20835963       0.89353912 </v>
   <v>       0.75204794       0.74974243       0.37461192 </v>
   <v>       0.75188088       0.75079183       0.87463677 </v>
   <v>       0.24911774       0.24883028       0.12454438 </v>
   <v>       0.24900133       0.25034441       0.62546860 </v>
   <v>       0.24629183       0.74696891       0.12634358 </v>
   <v>       0.25143582       0.75354826       0.62543927 </v>
   <v>       0.75969667       0.20871060       0.10634875 </v>
   <v>       0.74991328       0.25611221       0.62684033 </v>
   <v>       0.75099310       0.75084404       0.12467566 </v>
   <v>       0.75196945       0.75056730       0.62592683 </v>
  </varray>
 </structure>
 <calculation>
  <scstep>
   <time name="dav">  601.93  601.98</time>
   <time name="total">  609.20  609.38</time>
   <energy>
    <i name="alphaZ">   5614.91100169 </i>
    <i name="ewald"> -60721.11077416 </i>
    <i name="hartreedc"> -15735.60614504 </i>
    <i name="XCdc">   2851.79468119 </i>
    <i name="pawpsdc"> 112295.12052313 </i>
    <i name="pawaedc">-111042.82513111 </i>
    <i name="eentropy">     -0.00000000 </i>
    <i name="bandstr">  -7064.59371117 </i>
    <i name="atom">  72650.08363186 </i>
    <i name="e_fr_energy">  -1152.22592361 </i>
    <i name="e_wo_entrp">  -1152.22592361 </i>
    <i name="e_0_energy">  -1152.22592361 </i>
   </energy>
  </scstep>
  <scstep>
   <time name="diag">   65.19   65.21</time>
   <time name="diis">   62.98   62.99</time>
   <time name="orth">   33.43   33.43</time>
   <time name="total">  168.85  168.93</time>
   <energy>
    <i name="e_fr_energy">  -1152.22592462 </i>
    <i name="e_wo_entrp">  -1152.22592462 </i>
    <i name="e_0_energy">  -1152.22592462 </i>
   </energy>
  </scstep>
  <scstep>
   <time name="diag">   65.07   65.08</time>
   <time name="diis">   60.34   60.34</time>
   <time name="orth">   33.45   33.46</time>
   <time name="total">  166.19  166.37</time>
   <energy>
    <i name="e_fr_energy">  -1152.22592541 </i>
    <i name="e_wo_entrp">  -1152.22592541 </i>
    <i name="e_0_energy">  -1152.22592541 </i>
   </energy>
  </scstep>
  <scstep>
   <time name="diag">   65.56   65.57</time>
   <time name="diis">   52.67   52.67</time>
   <time name="orth">   33.38   33.38</time>
   <time name="total">  158.86  158.89</time>
   <energy>
    <i name="e_fr_energy">  -1152.22592685 </i>
    <i name="e_wo_entrp">  -1152.22592685 </i>
    <i name="e_0_energy">  -1152.22592685 </i>
   </energy>
  </scstep>
  <scstep>
   <time name="diag">   65.18   65.18</time>
   <time name="diis">   51.47   51.48</time>
   <time name="orth">   33.43   33.43</time>
   <time name="total">  157.33  157.39</time>
   <energy>
    <i name="e_fr_energy">  -1152.22592781 </i>
    <i name="e_wo_entrp">  -1152.22592781 </i>
    <i name="e_0_energy">  -1152.22592781 </i>
   </energy>
  </scstep>
  <scstep>
   <time name="diag">   65.24   65.24</time>
   <time name="diis">   48.65   48.66</time>
   <time name="orth">   33.39   33.40</time>
   <time name="total">  154.54  154.62</time>
   <energy>
    <i name="e_fr_energy">  -1152.22592812 </i>
    <i name="e_wo_entrp">  -1152.22592812 </i>
    <i name="e_0_energy">  -1152.22592812 </i>
   </energy>
  </scstep>
  <scstep>
   <time name="diag">   65.29   65.29</time>
   <time name="diis">   46.70   46.73</time>
   <time name="orth">   33.58   33.60</time>
   <time name="total">  152.77  152.93</time>
   <energy>
    <i name="e_fr_energy">  -1152.22592826 </i>
    <i name="e_wo_entrp">  -1152.22592826 </i>
    <i name="e_0_energy">  -1152.22592826 </i>
   </energy>
  </scstep>
  <scstep>
   <time name="diag">   65.30   65.35</time>
   <time name="diis">   44.27   44.27</time>
   <time name="orth">   33.62   33.62</time>
   <time name="total">  144.25  144.35</time>
   <energy>
    <i name="alphaZ">   5614.91100169 </i>
    <i name="ewald"> -60721.11077416 </i>
    <i name="hartreedc"> -15735.65919415 </i>
    <i name="XCdc">   2851.79729423 </i>
    <i name="pawpsdc"> 112292.40915744 </i>
    <i name="pawaedc">-111040.08547939 </i>
    <i name="eentropy">     -0.00000000 </i>
    <i name="bandstr">  -7064.57156586 </i>
    <i name="atom">  72650.08363186 </i>
    <i name="e_fr_energy">  -1152.22592834 </i>
    <i name="e_wo_entrp">  -1152.22592834 </i>
    <i name="e_0_energy">  -1152.22592834 </i>
   </energy>
  </scstep>
  <structure>
   <crystal>
    <varray name="basis" >
     <v>      11.21965913       0.00247239      -0.00032447 </v>
     <v>       0.00245860      11.23571740      -0.00078517 </v>
     <v>      -0.00046518      -0.00112765      15.95923375 </v>
    </varray>
    <i name="volume">   2011.83556914 </i>
    <varray name="rec_basis" >
     <v>       0.08912927      -0.00001950       0.00000260 </v>
     <v>      -0.00001961       0.08900189       0.00000629 </v>
     <v>       0.00000181       0.00000438       0.06265965 </v>
    </varray>
   </crystal>
   <varray name="positions" >
    <v>       0.00954286       0.25229320       0.13078729 </v>
    <v>       0.00086693       0.24992243       0.62311306 </v>
    <v>       0.00280294       0.74561967       0.13021494 </v>
    <v>       0.99910413       0.74994389       0.62264651 </v>
    <v>       0.49337352       0.24965234       0.13105284 </v>
    <v>       0.49863052       0.24962735       0.62229476 </v>
    <v>       0.49971010       0.74684021       0.12621687 </v>
    <v>       0.50106936       0.75036270       0.62363557 </v>
    <v>       0.00095497       0.24999081       0.37565409 </v>
    <v>       0.00948763       0.25179213       0.87012560 </v>
    <v>       0.99871451       0.74987612       0.37644615 </v>
    <v>       0.00289642       0.74572362       0.87080549 </v>
    <v>       0.49843077       0.24767627       0.37589005 </v>
    <v>       0.49304196       0.25255693       0.87019500 </v>
    <v>       0.50114435       0.75240348       0.37425368 </v>
    <v>       0.49959730       0.74463166       0.87525816 </v>
    <v>       0.24962532       0.00142219       0.13030200 </v>
    <v>       0.25000232       0.99959060       0.62329928 </v>
    <v>       0.25379700       0.50284010       0.12629133 </v>
    <v>       0.25100813       0.50070548       0.62434779 </v>
    <v>       0.75010120       0.98752984       0.13529136 </v>
    <v>       0.74877672       0.99558105       0.62090243 </v>
    <v>       0.74932041       0.51529375       0.12940279 </v>
    <v>       0.74917516       0.50279026       0.62280112 </v>
    <v>       0.25195528       0.99926619       0.37474338 </v>
    <v>       0.24720671       0.00190922       0.87164750 </v>
    <v>       0.25061427       0.50063758       0.37490858 </v>
    <v>       0.25383380       0.50276492       0.87456396 </v>
    <v>       0.74723648       0.99584010       0.37734677 </v>
    <v>       0.75220474       0.98671100       0.86607728 </v>
    <v>       0.74927579       0.50297573       0.37613084 </v>
    <v>       0.74928566       0.51537864       0.87139305 </v>
    <v>       0.00907613       0.98501823       0.00028957 </v>
    <v>       0.99908018       0.99844845       0.49947968 </v>
    <v>       0.00633037       0.50624392       0.00013949 </v>
    <v>       0.99888488       0.50008059       0.49994352 </v>
    <v>       0.48375654       0.99049556       0.00016546 </v>
    <v>       0.50031991       0.99825057       0.49819594 </v>
    <v>       0.50228401       0.50086964       0.49950312 </v>
    <v>       0.25090682       0.25403303       0.00007626 </v>
    <v>       0.24996356       0.25024538       0.49974815 </v>
    <v>       0.25037301       0.75046205       0.49982253 </v>
    <v>       0.74421302       0.27765644       0.00011518 </v>
    <v>       0.74970647       0.25096773       0.49970892 </v>
    <v>       0.74946541       0.75065265       0.00018218 </v>
    <v>       0.25157157       0.24897461       0.25119028 </v>
    <v>       0.25033078       0.25037097       0.74864364 </v>
    <v>       0.25249327       0.75140574       0.24865289 </v>
    <v>       0.25071684       0.75011175       0.75132880 </v>
    <v>       0.74934806       0.24679954       0.25278195 </v>
    <v>       0.75040392       0.24775661       0.74717765 </v>
    <v>       0.74901619       0.75114537       0.25382236 </v>
    <v>       0.75038799       0.74984051       0.74637665 </v>
    <v>       0.99974504       0.00043082       0.25107726 </v>
    <v>       0.99975938       0.00055467       0.74839984 </v>
    <v>       0.00055367       0.49968055       0.25014855 </v>
    <v>       0.00029948       0.49948377       0.74990128 </v>
    <v>       0.50011082       0.00059372       0.74939793 </v>
    <v>       0.50057505       0.49945652       0.24825400 </v>
    <v>       0.50061886       0.49960429       0.75136656 </v>
    <v>       0.49465756       0.50520005       0.00035712 </v>
    <v>       0.25185421       0.74277486       0.00039295 </v>
    <v>       0.75028932       0.74949445       0.49986089 </v>
    <v>       0.50065463       0.00083452       0.25011344 </v>
    <v>       0.11076832       0.13920774       0.25064520 </v>
    <v>       0.11010585       0.13989157       0.74937340 </v>
    <v>       0.11120843       0.63710802       0.25341312 </v>
    <v>       0.11067402       0.63814498       0.74692357 </v>
    <v>       0.61344190       0.14115694       0.25053347 </v>
    <v>       0.61092723       0.14087362       0.74931989 </v>
    <v>       0.61366229       0.63619510       0.24949584 </v>
    <v>       0.61318216       0.63735968       0.75049379 </v>
    <v>       0.38848690       0.36146505       0.25103495 </v>
    <v>       0.38912365       0.36023313       0.74873555 </v>
    <v>       0.38758811       0.86226474       0.24575405 </v>
    <v>       0.39022729       0.86266554       0.75478395 </v>
    <v>       0.88725463       0.35846525       0.24183562 </v>
    <v>       0.88769995       0.35751882       0.75840106 </v>
    <v>       0.88927773       0.86205486       0.24815981 </v>
    <v>       0.88963298       0.86156788       0.75181465 </v>
    <v>       0.36015302       0.11319291       0.24864432 </v>
    <v>       0.35993362       0.11076368       0.75182667 </v>
    <v>       0.36274045       0.61140466       0.25255835 </v>
    <v>       0.36227374       0.61120537       0.74768786 </v>
    <v>       0.86085986       0.11014529       0.25472394 </v>
    <v>       0.85940144       0.10943224       0.74542525 </v>
    <v>       0.86268034       0.61126064       0.25056749 </v>
    <v>       0.86172652       0.61051856       0.74906304 </v>
    <v>       0.13795960       0.38784456       0.24753698 </v>
    <v>       0.13859306       0.38856539       0.75227890 </v>
    <v>       0.13673438       0.88985780       0.24726778 </v>
    <v>       0.13791146       0.89073376       0.75278066 </v>
    <v>       0.64159795       0.38507599       0.23959739 </v>
    <v>       0.64190148       0.38495110       0.76080352 </v>
    <v>       0.63837820       0.88579242       0.25240956 </v>
    <v>       0.63827497       0.88835518       0.74795649 </v>
    <v>       0.35205457       0.39222082       0.99976603 </v>
    <v>       0.35999595       0.38985639       0.50030378 </v>
    <v>       0.35038348       0.89575885       0.00020036 </v>
    <v>       0.35970764       0.89019338       0.50072021 </v>
    <v>       0.85413476       0.39930609       0.99948065 </v>
    <v>       0.85902901       0.38899341       0.50044559 </v>
    <v>       0.85223099       0.90849201       0.00025219 </v>
    <v>       0.86258526       0.89115084       0.49986141 </v>
    <v>       0.13113048       0.11249951       0.99972749 </v>
    <v>       0.13967696       0.11031342       0.49995768 </v>
    <v>       0.14392830       0.60409479       0.99948970 </v>
    <v>       0.13989873       0.60928055       0.50055788 </v>
    <v>       0.64041427       0.11235073       0.50086246 </v>
    <v>       0.64446146       0.61288222       0.99970117 </v>
    <v>       0.63861090       0.60871222       0.50030605 </v>
    <v>       0.10253623       0.35695855       0.99969154 </v>
    <v>       0.10998972       0.35927235       0.50036518 </v>
    <v>       0.10397025       0.85267331       0.99985391 </v>
    <v>       0.11046528       0.85973124       0.50038464 </v>
    <v>       0.59826304       0.35153401       0.00031559 </v>
    <v>       0.61021845       0.35838296       0.50003706 </v>
    <v>       0.60988391       0.86721961       0.99851984 </v>
    <v>       0.60949016       0.86273263       0.50094961 </v>
    <v>       0.39493731       0.14428506       0.99880563 </v>
    <v>       0.38893002       0.14058575       0.50075653 </v>
    <v>       0.39439928       0.64662852       0.00026775 </v>
    <v>       0.38981895       0.63891585       0.50009234 </v>
    <v>       0.88899805       0.14064356       0.50023851 </v>
    <v>       0.89519218       0.64910396       0.99987851 </v>
    <v>       0.89206752       0.63669575       0.50039051 </v>
    <v>       0.99416712       0.01068384       0.12266052 </v>
    <v>       0.00175453       0.99884751       0.62521152 </v>
    <v>       0.99981302       0.50413273       0.12408642 </v>
    <v>       0.99763252       0.49287015       0.62629054 </v>
    <v>       0.51098313       0.01135366       0.11898288 </v>
    <v>       0.49785271       0.00149916       0.62649140 </v>
    <v>       0.49749419       0.50232895       0.12590587 </v>
    <v>       0.50513738       0.49562225       0.62612873 </v>
    <v>       0.00198398       0.99870084       0.37481681 </v>
    <v>       0.99366633       0.01053212       0.87737044 </v>
    <v>       0.99777900       0.49287327       0.37441145 </v>
    <v>       0.99949049       0.50426812       0.87529007 </v>
    <v>       0.49847890       0.00126563       0.37638953 </v>
    <v>       0.51022520       0.01086818       0.87821126 </v>
    <v>       0.50507819       0.49552038       0.37408978 </v>
    <v>       0.49738439       0.50206283       0.87401368 </v>
    <v>       0.24913121       0.25099301       0.37503989 </v>
    <v>       0.24876585       0.24899800       0.87475133 </v>
    <v>       0.25063905       0.75319785       0.37543632 </v>
    <v>       0.24742704       0.74787470       0.87343841 </v>
    <v>       0.75036880       0.25585907       0.37392837 </v>
    <v>       0.75808008       0.20835963       0.89353912 </v>
    <v>       0.75204794       0.74974243       0.37461192 </v>
    <v>       0.75188088       0.75079183       0.87463677 </v>
    <v>       0.24911774       0.24883028       0.12454438 </v>
    <v>       0.24900133       0.25034441       0.62546860 </v>
    <v>       0.24629183       0.74696891       0.12634358 </v>
    <v>       0.25143582       0.75354826       0.62543927 </v>
    <v>       0.75969667       0.20871060       0.10634875 </v>
    <v>       0.74991328       0.25611221       0.62684033 </v>
    <v>       0.75099310       0.75084404       0.12467566 </v>
    <v>       0.75196945       0.75056730       0.62592683 </v>
   </varray>
  </structure>
  <varray name="forces" >
   <v>       0.00450977       0.00491100      -0.01191213 </v>
   <v>      -0.00950100      -0.00305438       0.00364304 </v>
   <v>      -0.01174927      -0.00939082      -0.00808928 </v>
   <v>      -0.00404780      -0.00086408      -0.00526118 </v>
   <v>      -0.02550746      -0.01004570      -0.01113402 </v>
   <v>       0.00724460       0.00683247       0.01479176 </v>
   <v>       0.00929130       0.00018046      -0.00515470 </v>
   <v>       0.00798016      -0.00968028      -0.00138648 </v>
   <v>      -0.00412972       0.00018619       0.00165025 </v>
   <v>       0.00128745       0.00859868       0.00649391 </v>
   <v>       0.00151372      -0.00133192       0.01128957 </v>
   <v>      -0.01670837      -0.01013386       0.01183042 </v>
   <v>       0.00666875       0.00849327      -0.01286231 </v>
   <v>      -0.01594707      -0.00305879       0.00946526 </v>
   <v>       0.00699925      -0.00026967      -0.00040868 </v>
   <v>       0.01073498      -0.00131832       0.00361970 </v>
   <v>      -0.00088758       0.00019410      -0.00752639 </v>
   <v>       0.00491497       0.00515841      -0.00776993 </v>
   <v>      -0.00519055       0.00552268      -0.00600895 </v>
   <v>       0.00224834      -0.00431999      -0.00091153 </v>
   <v>       0.01485624       0.02275101      -0.02595445 </v>
   <v>      -0.00595233       0.00124024       0.01151524 </v>
   <v>       0.01853752       0.00080486       0.00240002 </v>
   <v>       0.00651860      -0.00455322       0.00114920 </v>
   <v>       0.00845979       0.00202244      -0.00261387 </v>
   <v>      -0.00653313      -0.00372740       0.00999066 </v>
   <v>       0.00617857       0.00345279      -0.00406321 </v>
   <v>      -0.00856385       0.00161917       0.00284253 </v>
   <v>      -0.01050865      -0.00117406      -0.00212849 </v>
   <v>       0.02002894       0.03104537       0.01955282 </v>
   <v>       0.00663422      -0.00434248       0.00367857 </v>
   <v>       0.01577991      -0.00257905      -0.01025123 </v>
   <v>      -0.02126556       0.01398370      -0.01298042 </v>
   <v>       0.00724879      -0.00811088       0.00280467 </v>
   <v>      -0.01641301      -0.02754937      -0.00798743 </v>
   <v>       0.00187109       0.03096460       0.00235808 </v>
   <v>       0.03052546       0.01326274       0.00754106 </v>
   <v>      -0.01809665       0.00757855       0.01985322 </v>
   <v>      -0.01091658       0.00049991       0.00043425 </v>
   <v>      -0.02320767      -0.00538347       0.00871209 </v>
   <v>      -0.00374868      -0.00739529       0.00254785 </v>
   <v>      -0.01032794       0.00064197      -0.00685750 </v>
   <v>       0.01723369       0.06797643      -0.04801008 </v>
   <v>       0.00343344      -0.00160825       0.00404136 </v>
   <v>       0.00027823       0.03979934      -0.00276712 </v>
   <v>       0.00769235      -0.00655241      -0.00161272 </v>
   <v>      -0.01744803      -0.00931479       0.00415900 </v>
   <v>       0.00516263      -0.00516706       0.00315655 </v>
   <v>       0.00264786      -0.01418327      -0.00426040 </v>
   <v>       0.00705292       0.00442693      -0.02877407 </v>
   <v>       0.00024630      -0.00689825       0.01740227 </v>
   <v>      -0.00843549       0.00879956      -0.02230898 </v>
   <v>       0.00170283      -0.01028482       0.01811149 </v>
   <v>      -0.01528728       0.02491434      -0.00613721 </v>
   <v>      -0.01862233       0.01062373       0.01795914 </v>
   <v>      -0.00488939       0.00088088       0.00451396 </v>
   <v>      -0.01449390       0.00349997      -0.00423581 </v>
   <v>       0.02679916       0.02893140       0.00372365 </v>
   <v>       0.00307208      -0.00434191      -0.01018165 </v>
   <v>       0.02214322      -0.00596219       0.00845374 </v>
   <v>       0.00676114      -0.01011320       0.00449817 </v>
   <v>       0.00487442       0.01173847       0.00087320 </v>
   <v>       0.00216127      -0.00599920       0.00857094 </v>
   <v>       0.00615608      -0.00105323      -0.01042830 </v>
   <v>       0.01026104      -0.01928255       0.00168781 </v>
   <v>       0.00985206      -0.02172986      -0.00393475 </v>
   <v>       0.00162333       0.00749475       0.00290876 </v>
   <v>       0.02286876       0.01277797      -0.01467514 </v>
   <v>       0.02088295      -0.00819669      -0.01114622 </v>
   <v>       0.00984045      -0.00643466       0.00534192 </v>
   <v>       0.01034942      -0.00072795       0.01088838 </v>
   <v>      -0.00259885      -0.00371812       0.00045983 </v>
   <v>      -0.01457105       0.00503531      -0.00707392 </v>
   <v>      -0.02089719       0.01162529       0.00511895 </v>
   <v>      -0.02445217      -0.01559339      -0.00109964 </v>
   <v>      -0.01810235      -0.00641743      -0.00154811 </v>
   <v>      -0.00250638       0.01488820       0.02165539 </v>
   <v>      -0.01303716       0.00241737      -0.01867655 </v>
   <v>      -0.00221686       0.00471651       0.01183113 </v>
   <v>       0.00755438       0.01201711      -0.01090002 </v>
   <v>       0.02125675       0.00589526       0.00595490 </v>
   <v>       0.02119296      -0.00315845       0.00072391 </v>
   <v>      -0.00868282       0.00605268      -0.00040602 </v>
   <v>      -0.01228358       0.01735784      -0.00172322 </v>
   <v>       0.00995248       0.00863615       0.00157174 </v>
   <v>       0.00546387       0.00809440       0.00010079 </v>
   <v>       0.00697307       0.00771271       0.02124737 </v>
   <v>       0.00987304       0.00876206      -0.01772654 </v>
   <v>      -0.00942452      -0.00105977       0.00868733 </v>
   <v>       0.00130653      -0.00758946       0.00361622 </v>
   <v>       0.00948615      -0.00975350       0.01476121 </v>
   <v>       0.01320684      -0.01711519      -0.01562759 </v>
   <v>      -0.00976479      -0.00833850      -0.00326607 </v>
   <v>      -0.00728047      -0.01165242       0.00487358 </v>
   <v>      -0.01504661      -0.01580542      -0.00147313 </v>
   <v>      -0.01950780      -0.00422377       0.00308301 </v>
   <v>      -0.00435224       0.02796080      -0.00505506 </v>
   <v>       0.00403167       0.00291866       0.00099745 </v>
   <v>      -0.03438092      -0.04000817       0.00006363 </v>
   <v>      -0.00416147       0.00086235      -0.00299578 </v>
   <v>      -0.02428479      -0.01595842       0.01120239 </v>
   <v>      -0.00959234      -0.00763414      -0.00012895 </v>
   <v>      -0.00687594       0.01039348       0.00689494 </v>
   <v>      -0.01085898      -0.00551571      -0.00511561 </v>
   <v>      -0.02806163       0.01314758      -0.00131605 </v>
   <v>       0.00280626       0.00426675      -0.00320742 </v>
   <v>       0.01271879      -0.00613437       0.00036940 </v>
   <v>       0.00555630       0.00255489      -0.00182154 </v>
   <v>       0.00464778      -0.00798864      -0.00048508 </v>
   <v>      -0.00783559      -0.01145038       0.00263763 </v>
   <v>      -0.00141792      -0.00072254      -0.00251601 </v>
   <v>      -0.01073848      -0.01107045       0.00332336 </v>
   <v>      -0.00812860       0.00234391      -0.00349373 </v>
   <v>       0.01574773      -0.05520271      -0.00191468 </v>
   <v>       0.00100617      -0.00807860      -0.00334204 </v>
   <v>       0.00944425      -0.01567335       0.00365658 </v>
   <v>       0.00444370      -0.01242320      -0.00105573 </v>
   <v>       0.00326088      -0.00876958       0.00205077 </v>
   <v>       0.00545223      -0.00556486       0.00015373 </v>
   <v>      -0.01367520      -0.00170242       0.00340488 </v>
   <v>       0.00201370      -0.00524747      -0.00634229 </v>
   <v>       0.01301580       0.01512417      -0.00366482 </v>
   <v>       0.00196612      -0.00084730      -0.00427687 </v>
   <v>      -0.00671196       0.01778662      -0.00342133 </v>
   <v>       0.00201065       0.01496695      -0.00429186 </v>
   <v>      -0.00731430       0.00348898      -0.00190643 </v>
   <v>      -0.00895696      -0.00879385       0.01744910 </v>
   <v>      -0.00460962       0.00682576       0.00493893 </v>
   <v>       0.00903418      -0.01242747       0.02387430 </v>
   <v>       0.00850237       0.01324207      -0.01042048 </v>
   <v>       0.01406519       0.00928567       0.00356579 </v>
   <v>       0.00811008       0.00844976       0.00791622 </v>
   <v>      -0.00360181      -0.00151873       0.00465365 </v>
   <v>      -0.00204073      -0.01146306      -0.00574596 </v>
   <v>      -0.00126584       0.00902105      -0.00539438 </v>
   <v>      -0.00525544      -0.00879193      -0.00647907 </v>
   <v>       0.00036092       0.01400480       0.00236755 </v>
   <v>       0.01414243      -0.01014536      -0.01353809 </v>
   <v>       0.00803853       0.00884342      -0.01006512 </v>
   <v>       0.01025741       0.00225730      -0.00532893 </v>
   <v>      -0.00206502      -0.01317833       0.00960271 </v>
   <v>      -0.00316845      -0.00562371      -0.00188075 </v>
   <v>       0.00333669       0.00183951       0.00160498 </v>
   <v>      -0.00049673      -0.00851311      -0.00575320 </v>
   <v>      -0.00192855      -0.00074644      -0.00378392 </v>
   <v>       0.00572330      -0.00968943      -0.02354147 </v>
   <v>      -0.01082773      -0.00750402       0.01678609 </v>
   <v>       0.01331477       0.01499747       0.00724275 </v>
   <v>       0.00013259      -0.01257422       0.01321841 </v>
   <v>       0.00252751       0.00059673       0.00370949 </v>
   <v>      -0.00331876      -0.00535928       0.00734071 </v>
   <v>       0.00336071       0.00019802       0.00623749 </v>
   <v>       0.00905109      -0.01129869       0.01241731 </v>
   <v>      -0.00668820      -0.00581405       0.00392333 </v>
   <v>       0.01498240       0.01743016       0.02041368 </v>
   <v>      -0.00126762      -0.00772994      -0.01999088 </v>
   <v>       0.00096438       0.00068921       0.00553943 </v>
   <v>      -0.00078702      -0.00679273      -0.01816755 </v>
  </varray>
  <varray name="stress" >
   <v>       0.11177113      -0.02012694      -0.01372275 </v>
   <v>      -0.02012751       0.31636832      -0.01217150 </v>
   <v>      -0.01372284      -0.01217158       0.11102897 </v>
  </varray>
  <energy>
   <i name="e_fr_energy">  -1152.22592834 </i>
   <i name="e_wo_entrp">  -1152.22592834 </i>
   <i name="e_0_energy">     -0.00000000 </i>
  </energy>
  <time name="totalsc"> 1980.81 1983.86</time>
 </calculation>
 <calculation>
  <scstep>
   <time name="dav">  581.52  581.56</time>
   <time name="total">  588.71  588.85</time>
   <energy>
    <i name="alphaZ">   5613.75046483 </i>
    <i name="ewald"> -60717.72908409 </i>
    <i name="hartreedc"> -15733.92857360 </i>
    <i name="XCdc">   2851.52919325 </i>
    <i name="pawpsdc"> 112292.41869394 </i>
    <i name="pawaedc">-111040.09388645 </i>
    <i name="eentropy">     -0.00000000 </i>
    <i name="bandstr">  -7068.25690236 </i>
    <i name="atom">  72650.08363186 </i>
    <i name="e_fr_energy">  -1152.22646262 </i>
    <i name="e_wo_entrp">  -1152.22646262 </i>
    <i name="e_0_energy">  -1152.22646262 </i>
   </energy>
  </scstep>
  <scstep>
   <time name="diag">   65.17   65.18</time>
   <time name="diis">  105.27  105.27</time>
   <time name="orth">   33.54   33.56</time>
   <time name="total">  211.21  211.26</time>
   <energy>
    <i name="e_fr_energy">  -1152.22731901 </i>
    <i name="e_wo_entrp">  -1152.22731901 </i>
    <i name="e_0_energy">  -1152.22731901 </i>
   </energy>
  </scstep>
  <scstep>
   <time name="diag">   65.21   65.21</time>
   <time name="diis">   99.37   99.37</time>
   <time name="orth">   33.51   33.51</time>
   <time name="total">  205.28  205.35</time>
   <energy>
    <i name="e_fr_energy">  -1152.22711264 </i>
    <i name="e_wo_entrp">  -1152.22711264 </i>
    <i name="e_0_energy">  -1152.22711264 </i>
   </energy>
  </scstep>
  <scstep>
   <time name="diag">   65.26   65.26</time>
   <time name="diis">   91.42   91.42</time>
   <time name="orth">   33.47   33.47</time>
   <time name="total">  197.39  197.47</time>
   <energy>
    <i name="e_fr_energy">  -1152.22698313 </i>
    <i name="e_wo_entrp">  -1152.22698313 </i>
    <i name="e_0_energy">  -1152.22698313 </i>
   </energy>
  </scstep>
  <scstep>
   <time name="diag">   65.15   65.16</time>
   <time name="diis">   69.73   69.73</time>
   <time name="orth">   33.53   33.53</time>
   <time name="total">  175.62  175.69</time>
   <energy>
    <i name="e_fr_energy">  -1152.22693952 </i>
    <i name="e_wo_entrp">  -1152.22693952 </i>
    <i name="e_0_energy">  -1152.22693952 </i>
   </energy>
  </scstep>
  <scstep>
   <time name="diag">   65.18   65.19</time>
   <time name="diis">   63.53   63.53</time>
   <time name="orth">   33.55   33.55</time>
   <time name="total">  169.49  169.54</time>
   <energy>
    <i name="e_fr_energy">  -1152.22693951 </i>
    <i name="e_wo_entrp">  -1152.22693951 </i>
    <i name="e_0_energy">  -1152.22693951 </i>
   </energy>
  </scstep>
  <scstep>
   <time name="diag">   65.07   65.09</time>
   <time name="diis">   62.66   62.68</time>
   <time name="orth">   33.55   33.55</time>
   <time name="total">  168.52  168.59</time>
   <energy>
    <i name="e_fr_energy">  -1152.22693846 </i>
    <i name="e_wo_entrp">  -1152.22693846 </i>
    <i name="e_0_energy">  -1152.22693846 </i>
   </energy>
  </scstep>
  <scstep>
   <time name="diag">   65.06   65.06</time>
   <time name="diis">   60.38   60.39</time>
   <time name="orth">   33.56   33.56</time>
   <time name="total">  160.05  160.11</time>
   <energy>
    <i name="alphaZ">   5613.75046483 </i>
    <i name="ewald"> -60717.72908409 </i>
    <i name="hartreedc"> -15736.90369250 </i>
    <i name="XCdc">   2851.71698741 </i>
    <i name="pawpsdc"> 112236.22244576 </i>
    <i name="pawaedc">-110983.87024270 </i>
    <i name="eentropy">     -0.00000000 </i>
    <i name="bandstr">  -7065.49744754 </i>
    <i name="atom">  72650.08363186 </i>
    <i name="e_fr_energy">  -1152.22693697 </i>
    <i name="e_wo_entrp">  -1152.22693697 </i>
    <i name="e_0_energy">  -1152.22693697 </i>
   </energy>
  </scstep>
  <structure>
   <crystal>
    <varray name="basis" >
     <v>      11.22013991       0.00238611      -0.00038352 </v>
     <v>       0.00237201      11.23708024      -0.00083765 </v>
     <v>      -0.00054916      -0.00120226      15.95991313 </v>
    </varray>
    <i name="volume">   2012.25147814 </i>
    <varray name="rec_basis" >
     <v>       0.08912545      -0.00001881       0.00000307 </v>
     <v>      -0.00001892       0.08899109       0.00000670 </v>
     <v>       0.00000214       0.00000467       0.06265698 </v>
    </varray>
   </crystal>
   <varray name="positions" >
    <v>       0.00956225       0.25231428       0.13075128 </v>
    <v>       0.00082608       0.24990932       0.62312407 </v>
    <v>       0.00275243       0.74557936       0.13019048 </v>
    <v>       0.99908673       0.74994019       0.62263060 </v>
    <v>       0.49326385       0.24960923       0.13101918 </v>
    <v>       0.49866166       0.24965669       0.62233948 </v>
    <v>       0.49975005       0.74684098       0.12620129 </v>
    <v>       0.50110368       0.75032113       0.62363138 </v>
    <v>       0.00093722       0.24999161       0.37565908 </v>
    <v>       0.00949316       0.25182906       0.87014524 </v>
    <v>       0.99872102       0.74987040       0.37648027 </v>
    <v>       0.00282459       0.74568013       0.87084125 </v>
    <v>       0.49845943       0.24771273       0.37585117 </v>
    <v>       0.49297339       0.25254382       0.87022362 </v>
    <v>       0.50117445       0.75240231       0.37425245 </v>
    <v>       0.49964346       0.74462599       0.87526910 </v>
    <v>       0.24962150       0.00142303       0.13027925 </v>
    <v>       0.25002345       0.99961274       0.62327579 </v>
    <v>       0.25377468       0.50286382       0.12627317 </v>
    <v>       0.25101780       0.50068693       0.62434503 </v>
    <v>       0.75016506       0.98762751       0.13521291 </v>
    <v>       0.74875113       0.99558638       0.62093724 </v>
    <v>       0.74940012       0.51529719       0.12941004 </v>
    <v>       0.74920319       0.50277071       0.62280460 </v>
    <v>       0.25199165       0.99927486       0.37473548 </v>
    <v>       0.24717863       0.00189322       0.87167770 </v>
    <v>       0.25064083       0.50065240       0.37489630 </v>
    <v>       0.25379698       0.50277188       0.87457256 </v>
    <v>       0.74719130       0.99583506       0.37734034 </v>
    <v>       0.75229083       0.98684428       0.86613639 </v>
    <v>       0.74930432       0.50295708       0.37614196 </v>
    <v>       0.74935351       0.51536754       0.87136207 </v>
    <v>       0.00898468       0.98507828       0.00025033 </v>
    <v>       0.99911136       0.99841362       0.49948816 </v>
    <v>       0.00625982       0.50612565       0.00011534 </v>
    <v>       0.99889290       0.50021354       0.49995065 </v>
    <v>       0.48388778       0.99055248       0.00018826 </v>
    <v>       0.50024209       0.99828313       0.49825595 </v>
    <v>       0.50223707       0.50087180       0.49950443 </v>
    <v>       0.25080704       0.25400994       0.00010260 </v>
    <v>       0.24994745       0.25021363       0.49975585 </v>
    <v>       0.25032860       0.75046481       0.49980180 </v>
    <v>       0.74428706       0.27794828      -0.00002994 </v>
    <v>       0.74972123       0.25096082       0.49972114 </v>
    <v>       0.74946656       0.75082353       0.00017383 </v>
    <v>       0.25160466       0.24894647       0.25118540 </v>
    <v>       0.25025577       0.25033099       0.74865621 </v>
    <v>       0.25251547       0.75138355       0.24866243 </v>
    <v>       0.25072824       0.75005085       0.75131592 </v>
    <v>       0.74937838       0.24681854       0.25269497 </v>
    <v>       0.75040499       0.24772699       0.74723025 </v>
    <v>       0.74897991       0.75118316       0.25375492 </v>
    <v>       0.75039532       0.74979636       0.74643140 </v>
    <v>       0.99967928       0.00053780       0.25105872 </v>
    <v>       0.99967930       0.00060031       0.74845413 </v>
    <v>       0.00053265       0.49968434       0.25016220 </v>
    <v>       0.00023715       0.49949881       0.74988847 </v>
    <v>       0.50022602       0.00071792       0.74940919 </v>
    <v>       0.50058826       0.49943787       0.24822322 </v>
    <v>       0.50071408       0.49957867       0.75139211 </v>
    <v>       0.49468664       0.50515663       0.00037071 </v>
    <v>       0.25187515       0.74282526       0.00039559 </v>
    <v>       0.75029862       0.74946869       0.49988680 </v>
    <v>       0.50068110       0.00082999       0.25008192 </v>
    <v>       0.11081246       0.13912494       0.25065030 </v>
    <v>       0.11014823       0.13979826       0.74936151 </v>
    <v>       0.11121541       0.63714020       0.25342191 </v>
    <v>       0.11077234       0.63819982       0.74687921 </v>
    <v>       0.61353170       0.14112172       0.25049977 </v>
    <v>       0.61096955       0.14084599       0.74933604 </v>
    <v>       0.61370679       0.63619197       0.24952875 </v>
    <v>       0.61317099       0.63734372       0.75049518 </v>
    <v>       0.38842424       0.36148668       0.25101357 </v>
    <v>       0.38903378       0.36028306       0.74875103 </v>
    <v>       0.38748298       0.86219781       0.24575072 </v>
    <v>       0.39014945       0.86263801       0.75477927 </v>
    <v>       0.88724385       0.35852918       0.24190108 </v>
    <v>       0.88764389       0.35752921       0.75834461 </v>
    <v>       0.88926820       0.86207511       0.24819558 </v>
    <v>       0.88966545       0.86161947       0.75178170 </v>
    <v>       0.36024442       0.11321820       0.24866232 </v>
    <v>       0.36002475       0.11075010       0.75182886 </v>
    <v>       0.36270311       0.61143065       0.25255713 </v>
    <v>       0.36222091       0.61127991       0.74768266 </v>
    <v>       0.86090265       0.11018236       0.25472869 </v>
    <v>       0.85942492       0.10946699       0.74542556 </v>
    <v>       0.86271032       0.61129375       0.25063172 </v>
    <v>       0.86176897       0.61055617       0.74900946 </v>
    <v>       0.13791908       0.38784002       0.24756324 </v>
    <v>       0.13859869       0.38853281       0.75228983 </v>
    <v>       0.13677518       0.88981592       0.24731240 </v>
    <v>       0.13796826       0.89066025       0.75273342 </v>
    <v>       0.64155597       0.38504020       0.23958751 </v>
    <v>       0.64187019       0.38490107       0.76081825 </v>
    <v>       0.63831351       0.88572457       0.25240510 </v>
    <v>       0.63819109       0.88833707       0.74796580 </v>
    <v>       0.35203583       0.39234088       0.99975076 </v>
    <v>       0.36001328       0.38986892       0.50030680 </v>
    <v>       0.35023568       0.89558710       0.00020054 </v>
    <v>       0.35968975       0.89019708       0.50071116 </v>
    <v>       0.85403036       0.39923759       0.99951451 </v>
    <v>       0.85898778       0.38896064       0.50044520 </v>
    <v>       0.85220141       0.90853665       0.00027303 </v>
    <v>       0.86253857       0.89112716       0.49984594 </v>
    <v>       0.13100981       0.11255598       0.99972351 </v>
    <v>       0.13968902       0.11033174       0.49994798 </v>
    <v>       0.14398300       0.60406844       0.99949082 </v>
    <v>       0.13992261       0.60929152       0.50055238 </v>
    <v>       0.64043426       0.11231643       0.50086100 </v>
    <v>       0.64442778       0.61283307       0.99970914 </v>
    <v>       0.63860481       0.60870912       0.50029845 </v>
    <v>       0.10249007       0.35691103       0.99970159 </v>
    <v>       0.10995477       0.35928242       0.50035462 </v>
    <v>       0.10403801       0.85243627       0.99984811 </v>
    <v>       0.11046962       0.85969655       0.50037454 </v>
    <v>       0.59830367       0.35146671       0.00032664 </v>
    <v>       0.61023756       0.35832961       0.50003387 </v>
    <v>       0.60989794       0.86718195       0.99852604 </v>
    <v>       0.60951361       0.86270874       0.50095007 </v>
    <v>       0.39487851       0.14427776       0.99881592 </v>
    <v>       0.38893868       0.14056321       0.50073736 </v>
    <v>       0.39445523       0.64669345       0.00025668 </v>
    <v>       0.38982740       0.63891220       0.50007941 </v>
    <v>       0.88896917       0.14071994       0.50022817 </v>
    <v>       0.89520081       0.64916822       0.99986554 </v>
    <v>       0.89203607       0.63671073       0.50038475 </v>
    <v>       0.99412861       0.01064609       0.12271326 </v>
    <v>       0.00173470       0.99887682       0.62522645 </v>
    <v>       0.99985188       0.50407937       0.12415859 </v>
    <v>       0.99766907       0.49292700       0.62625904 </v>
    <v>       0.51104360       0.01139351       0.11899366 </v>
    <v>       0.49788757       0.00153544       0.62651533 </v>
    <v>       0.49747871       0.50232243       0.12591994 </v>
    <v>       0.50512861       0.49557303       0.62611136 </v>
    <v>       0.00197853       0.99873958       0.37480051 </v>
    <v>       0.99364374       0.01049437       0.87735086 </v>
    <v>       0.99778054       0.49293340       0.37441860 </v>
    <v>       0.99955130       0.50422454       0.87524915 </v>
    <v>       0.49851346       0.00130359       0.37635910 </v>
    <v>       0.51026930       0.01087786       0.87819516 </v>
    <v>       0.50506932       0.49546381       0.37411881 </v>
    <v>       0.49737078       0.50203868       0.87400799 </v>
    <v>       0.24914556       0.25100091       0.37504474 </v>
    <v>       0.24876372       0.24896145       0.87473393 </v>
    <v>       0.25063076       0.75319465       0.37542489 </v>
    <v>       0.24745166       0.74783308       0.87336724 </v>
    <v>       0.75032225       0.25582687       0.37397911 </v>
    <v>       0.75813731       0.20842401       0.89356102 </v>
    <v>       0.75204853       0.74968844       0.37465188 </v>
    <v>       0.75189175       0.75079439       0.87464798 </v>
    <v>       0.24910348       0.24880727       0.12456657 </v>
    <v>       0.24901578       0.25034526       0.62548746 </v>
    <v>       0.24633076       0.74692039       0.12638111 </v>
    <v>       0.25140707       0.75352331       0.62545113 </v>
    <v>       0.75976107       0.20878543       0.10641046 </v>
    <v>       0.74990783       0.25607902       0.62677990 </v>
    <v>       0.75099725       0.75084700       0.12469240 </v>
    <v>       0.75196607       0.75053813       0.62587191 </v>
   </varray>
  </structure>
  <varray name="forces" >
   <v>      -0.00068029       0.00443331       0.00611724 </v>
   <v>      -0.00859317      -0.00035095      -0.00844262 </v>
   <v>       0.00028551      -0.00737820       0.00200245 </v>
   <v>       0.00413060       0.00364818       0.00007988 </v>
   <v>      -0.01439022      -0.00454059      -0.00367136 </v>
   <v>       0.00536012       0.01073225       0.00406354 </v>
   <v>       0.00035193      -0.00530669      -0.00045756 </v>
   <v>       0.00114980      -0.00445340       0.00065436 </v>
   <v>      -0.00695385       0.00318508       0.00672028 </v>
   <v>       0.00807382       0.00884475      -0.00615293 </v>
   <v>      -0.00210393       0.00188333       0.00047649 </v>
   <v>       0.00256313      -0.00976960       0.00412673 </v>
   <v>       0.01329453       0.00592639      -0.00781360 </v>
   <v>      -0.02571927       0.00128206       0.00534042 </v>
   <v>       0.00754341      -0.00031381       0.00333723 </v>
   <v>      -0.00510920      -0.00087677      -0.00256679 </v>
   <v>      -0.00454300      -0.01242415       0.00162571 </v>
   <v>       0.00403013      -0.00287110       0.00224193 </v>
   <v>      -0.00458005       0.01311761      -0.00063361 </v>
   <v>       0.00490407      -0.00177618       0.00216176 </v>
   <v>       0.01142420       0.02522822      -0.00552694 </v>
   <v>      -0.00498859      -0.00287945      -0.00363459 </v>
   <v>       0.01322655       0.00451015       0.01122774 </v>
   <v>       0.00117950      -0.00672364      -0.01390653 </v>
   <v>       0.00772764      -0.00132588      -0.00745291 </v>
   <v>       0.00101265      -0.01784453      -0.00336339 </v>
   <v>       0.00501557       0.00129426      -0.00413788 </v>
   <v>      -0.00209042       0.00961710      -0.00436542 </v>
   <v>      -0.01201709      -0.00105596       0.00345182 </v>
   <v>       0.01068958       0.02149451       0.00252228 </v>
   <v>       0.00379949      -0.00233536       0.00505217 </v>
   <v>       0.00554563       0.00739972      -0.00896657 </v>
   <v>       0.04618418      -0.06154507       0.01867242 </v>
   <v>      -0.01467270       0.00087075      -0.00548709 </v>
   <v>       0.04534261       0.04011845       0.00804347 </v>
   <v>      -0.00311918      -0.01386349      -0.01288974 </v>
   <v>      -0.06724903      -0.04243767      -0.01036952 </v>
   <v>       0.02030617       0.00056788      -0.00631791 </v>
   <v>       0.00556185      -0.00487093      -0.00569652 </v>
   <v>       0.00360851       0.01658797       0.00112486 </v>
   <v>      -0.00682313       0.00704793      -0.00116752 </v>
   <v>       0.00979837      -0.00878766       0.01037618 </v>
   <v>      -0.01825285      -0.05505747       0.07550580 </v>
   <v>      -0.00477875      -0.00282870      -0.01303248 </v>
   <v>       0.00460990      -0.01840233       0.00562157 </v>
   <v>      -0.01253901      -0.00037021       0.01938621 </v>
   <v>       0.00945253       0.00268020      -0.01083249 </v>
   <v>      -0.01309784      -0.00093184       0.00082265 </v>
   <v>       0.00695621       0.00713854      -0.00583265 </v>
   <v>      -0.00274589       0.00540998       0.00650037 </v>
   <v>      -0.00255300       0.00183412      -0.02897744 </v>
   <v>       0.01126475       0.00522517       0.02223577 </v>
   <v>      -0.01072588       0.01483034      -0.02199755 </v>
   <v>       0.01760435      -0.01628449       0.00978204 </v>
   <v>       0.02332687      -0.01934492      -0.01515009 </v>
   <v>       0.00579053       0.01427205       0.02477953 </v>
   <v>       0.03148505       0.00112761      -0.01920982 </v>
   <v>      -0.02885670      -0.03229053      -0.00986510 </v>
[...]
       <r>   -15.8176     0.0000    32.0000 </r>
       <r>   -15.6657     0.0000    32.0000 </r>
       <r>   -15.5138     0.0000    32.0000 </r>
       <r>   -15.3619     0.0000    32.0000 </r>
       <r>   -15.2100     0.4699    32.0714 </r>
       <r>   -15.0581    16.2026    34.5326 </r>
       <r>   -14.9062    53.0570    42.5923 </r>
       <r>   -14.7543    51.4698    50.4109 </r>
       <r>   -14.6024    34.4781    55.6483 </r>
       <r>   -14.4505    33.7721    60.7785 </r>
       <r>   -14.2986    37.2540    66.4376 </r>
       <r>   -14.1467    83.5800    79.1339 </r>
       <r>   -13.9948   125.0414    98.1284 </r>
       <r>   -13.8429   128.8310   117.6985 </r>
       <r>   -13.6910    44.2757   124.4242 </r>
       <r>   -13.5391    10.3362   125.9944 </r>
       <r>   -13.3872     0.0370   126.0000 </r>
       <r>   -13.2352     0.0000   126.0000 </r>
       <r>   -13.0833     0.0000   126.0000 </r>
       <r>   -12.9314     0.0000   126.0000 </r>
       <r>   -12.7795     0.0026   126.0004 </r>
       <r>   -12.6276    13.2921   128.0195 </r>
       <r>   -12.4757    96.2806   142.6451 </r>
       <r>   -12.3238   180.0275   169.9923 </r>
       <r>   -12.1719   137.5702   190.8900 </r>
       <r>   -12.0200   130.3317   210.6882 </r>
       <r>   -11.8681    60.1386   219.8236 </r>
       <r>   -11.7162    14.2800   221.9928 </r>
       <r>   -11.5643     0.0475   222.0000 </r>
       <r>   -11.4124     0.0000   222.0000 </r>
       <r>   -11.2605     0.0000   222.0000 </r>
       <r>   -11.1086     0.0000   222.0000 </r>
       <r>   -10.9567     0.0000   222.0000 </r>
       <r>   -10.8048     0.0000   222.0000 </r>
       <r>   -10.6528     0.0000   222.0000 </r>
       <r>   -10.5009     0.0000   222.0000 </r>
       <r>   -10.3490     0.0000   222.0000 </r>
       <r>   -10.1971     0.0000   222.0000 </r>
       <r>   -10.0452     0.0000   222.0000 </r>
       <r>    -9.8933     0.0000   222.0000 </r>
       <r>    -9.7414     0.0000   222.0000 </r>
       <r>    -9.5895     0.0000   222.0000 </r>
       <r>    -9.4376     0.0000   222.0000 </r>
       <r>    -9.2857     0.0000   222.0000 </r>
       <r>    -9.1338     0.0000   222.0000 </r>
       <r>    -8.9819     0.0000   222.0000 </r>
       <r>    -8.8300     0.0000   222.0000 </r>
       <r>    -8.6781     0.0000   222.0000 </r>
       <r>    -8.5262     0.0000   222.0000 </r>
       <r>    -8.3743     0.0000   222.0000 </r>
       <r>    -8.2224     0.0000   222.0000 </r>
       <r>    -8.0704     0.0000   222.0000 </r>
       <r>    -7.9185     0.0000   222.0000 </r>
       <r>    -7.7666     0.0000   222.0000 </r>
       <r>    -7.6147     0.0000   222.0000 </r>
       <r>    -7.4628     0.0000   222.0000 </r>
       <r>    -7.3109     0.0000   222.0000 </r>
       <r>    -7.1590     0.0000   222.0000 </r>
       <r>    -7.0071     0.0000   222.0000 </r>
       <r>    -6.8552     0.0000   222.0000 </r>
       <r>    -6.7033     0.0000   222.0000 </r>
       <r>    -6.5514     0.0000   222.0000 </r>
       <r>    -6.3995     0.0000   222.0000 </r>
       <r>    -6.2476     0.0000   222.0000 </r>
       <r>    -6.0957     0.0000   222.0000 </r>
       <r>    -5.9438     0.0000   222.0000 </r>
       <r>    -5.7919     0.0000   222.0000 </r>
       <r>    -5.6400     0.0000   222.0000 </r>
       <r>    -5.4881     0.0000   222.0000 </r>
       <r>    -5.3361     0.0000   222.0000 </r>
       <r>    -5.1842     0.0000   222.0000 </r>
       <r>    -5.0323     0.0000   222.0000 </r>
       <r>    -4.8804     0.0000   222.0000 </r>
       <r>    -4.7285     0.0000   222.0000 </r>
       <r>    -4.5766     0.0000   222.0000 </r>
       <r>    -4.4247     0.0000   222.0000 </r>
       <r>    -4.2728     0.0000   222.0000 </r>
       <r>    -4.1209     0.0000   222.0000 </r>
       <r>    -3.9690     0.0000   222.0000 </r>
       <r>    -3.8171     0.0000   222.0000 </r>
       <r>    -3.6652     0.0000   222.0000 </r>
       <r>    -3.5133     0.0000   222.0000 </r>
       <r>    -3.3614     0.0000   222.0000 </r>
       <r>    -3.2095     0.0000   222.0000 </r>
       <r>    -3.0576     0.0000   222.0000 </r>
       <r>    -2.9057     0.0000   222.0000 </r>
       <r>    -2.7537     0.0000   222.0000 </r>
       <r>    -2.6018     0.0000   222.0000 </r>
       <r>    -2.4499     0.4438   222.0674 </r>
       <r>    -2.2980     7.0324   223.1357 </r>
       <r>    -2.1461    14.9905   225.4128 </r>
       <r>    -1.9942    25.8532   229.3401 </r>
       <r>    -1.8423    37.4452   235.0282 </r>
       <r>    -1.6904    58.8674   243.9705 </r>
       <r>    -1.5385    55.9168   252.4646 </r>
       <r>    -1.3866    59.7932   261.5475 </r>
       <r>    -1.2347    74.9230   272.9287 </r>
       <r>    -1.0828    71.9611   283.8600 </r>
       <r>    -0.9309    78.1997   295.7390 </r>
       <r>    -0.7790    75.8083   307.2548 </r>
       <r>    -0.6271   100.6937   322.5507 </r>
       <r>    -0.4752   121.6524   341.0304 </r>
       <r>    -0.3233    88.2960   354.4431 </r>
       <r>    -0.1714    58.2337   363.2891 </r>
       <r>    -0.0194    45.6020   370.2163 </r>
       <r>     0.1325    45.9356   377.1942 </r>
       <r>     0.2844    46.1862   384.2101 </r>
       <r>     0.4363    48.8096   391.6246 </r>
       <r>     0.5882    60.6250   400.8339 </r>
       <r>     0.7401    42.2906   407.2581 </r>
       <r>     0.8920    49.7504   414.8154 </r>
       <r>     1.0439    57.0649   423.4839 </r>
       <r>     1.1958    84.9902   436.3944 </r>
       <r>     1.3477    88.8299   449.8882 </r>
       <r>     1.4996    98.4435   464.8423 </r>
       <r>     1.6515    85.2954   477.7992 </r>
       <r>     1.8034    66.6849   487.9290 </r>
       <r>     1.9553    48.2606   495.2601 </r>
       <r>     2.1072    36.3003   500.7743 </r>
       <r>     2.2591    20.6972   503.9184 </r>
       <r>     2.4110     0.5375   504.0000 </r>
       <r>     2.5630     0.0000   504.0000 </r>
       <r>     2.7149     0.0000   504.0000 </r>
       <r>     2.8668     0.0000   504.0000 </r>
       <r>     3.0187     0.0000   504.0000 </r>
       <r>     3.1706     0.0000   504.0000 </r>
       <r>     3.3225     0.0000   504.0000 </r>
       <r>     3.4744     0.0000   504.0000 </r>
       <r>     3.6263     0.0000   504.0000 </r>
       <r>     3.7782     0.0000   504.0000 </r>
       <r>     3.9301     0.0000   504.0000 </r>
       <r>     4.0820     0.0000   504.0000 </r>
       <r>     4.2339     0.0000   504.0000 </r>
       <r>     4.3858     0.0045   504.0007 </r>
       <r>     4.5377     7.1938   505.0935 </r>
       <r>     4.6896    26.9550   509.1881 </r>
       <r>     4.8415    37.8701   514.9408 </r>
       <r>     4.9934    20.9156   518.1180 </r>
       <r>     5.1454    28.5054   522.4481 </r>
       <r>     5.2973    60.7355   531.6742 </r>
       <r>     5.4492    72.9145   542.7503 </r>
       <r>     5.6011    46.4673   549.8089 </r>
       <r>     5.7530    74.4168   561.1133 </r>
       <r>     5.9049    86.0286   574.1815 </r>
       <r>     6.0568   104.7676   590.0963 </r>
       <r>     6.2087    71.8467   601.0103 </r>
       <r>     6.3606    56.6495   609.6156 </r>
       <r>     6.5125    39.4550   615.6091 </r>
       <r>     6.6644    27.2637   619.7506 </r>
       <r>     6.8163    23.5667   623.3305 </r>
       <r>     6.9682    23.6322   626.9204 </r>
       <r>     7.1201    22.8902   630.3975 </r>
       <r>     7.2720    18.5682   633.2181 </r>
       <r>     7.4239    13.7323   635.3042 </r>
       <r>     7.5758    11.0730   636.9862 </r>
       <r>     7.7277    14.1315   639.1329 </r>
       <r>     7.8797    18.3718   641.9236 </r>
       <r>     8.0316    26.9807   646.0222 </r>
       <r>     8.1835    19.8121   649.0317 </r>
       <r>     8.3354    27.8158   653.2571 </r>
       <r>     8.4873    24.4936   656.9778 </r>
       <r>     8.6392    21.3984   660.2284 </r>
       <r>     8.7911    25.4999   664.1020 </r>
       <r>     8.9430    28.2619   668.3951 </r>
       <r>     9.0949    34.6996   673.6662 </r>
       <r>     9.2468    42.4716   680.1179 </r>
       <r>     9.3987    37.6242   685.8332 </r>
       <r>     9.5506    42.7464   692.3266 </r>
       <r>     9.7025    43.3813   698.9165 </r>
       <r>     9.8544    57.8336   707.7017 </r>
       <r>    10.0063    70.0127   718.3371 </r>
       <r>    10.1582    70.3855   729.0290 </r>
       <r>    10.3101    72.6716   740.0683 </r>
       <r>    10.4621    52.7916   748.0876 </r>
       <r>    10.6140    61.5908   757.4436 </r>
       <r>    10.7659    51.3416   765.2427 </r>
       <r>    10.9178    18.1407   767.9984 </r>
       <r>    11.0697     0.0107   768.0000 </r>
       <r>    11.2216     0.0000   768.0000 </r>
       <r>    11.3735     0.0000   768.0000 </r>
       <r>    11.5254     0.0000   768.0000 </r>
       <r>    11.6773     0.0000   768.0000 </r>
       <r>    11.8292     0.0000   768.0000 </r>
       <r>    11.9811     0.0000   768.0000 </r>
       <r>    12.1330     0.0000   768.0000 </r>
       <r>    12.2849     0.0000   768.0000 </r>
       <r>    12.4368     0.0000   768.0000 </r>
       <r>    12.5887     0.0000   768.0000 </r>
       <r>    12.7406     0.0000   768.0000 </r>
       <r>    12.8925     0.0000   768.0000 </r>
      </set>
     </set>
    </array>
   </total>
  </dos>
 </calculation>
 <structure name="finalpos" >
  <crystal>
   <varray name="basis" >
    <v>      11.22118346       0.00376631      -0.00022606 </v>
    <v>       0.00375456      11.23734607      -0.00083149 </v>
    <v>      -0.00032563      -0.00119383      15.95731543 </v>
   </varray>
   <i name="volume">   2012.15854631 </i>
   <varray name="rec_basis" >
    <v>       0.08911717      -0.00002978       0.00000182 </v>
    <v>      -0.00002987       0.08898899       0.00000666 </v>
    <v>       0.00000126       0.00000464       0.06266718 </v>
   </varray>
  </crystal>
  <varray name="positions" >
   <v>       0.00958104       0.25254467       0.13092400 </v>
   <v>       0.00049945       0.24979531       0.62309941 </v>
   <v>       0.00248108       0.74537276       0.13030234 </v>
   <v>       0.99904945       0.74996924       0.62262543 </v>
   <v>       0.49242260       0.24944903       0.13087926 </v>
   <v>       0.49882219       0.24984581       0.62252697 </v>
   <v>       0.50007370       0.74677734       0.12622946 </v>
   <v>       0.50135976       0.74994557       0.62363274 </v>
   <v>       0.00062797       0.25000423       0.37572728 </v>
   <v>       0.00952722       0.25193719       0.86996801 </v>
   <v>       0.99864256       0.74999635       0.37660277 </v>
   <v>       0.00259375       0.74527913       0.87074767 </v>
   <v>       0.49874120       0.24785085       0.37544639 </v>
   <v>       0.49207288       0.25244993       0.87042614 </v>
   <v>       0.50141853       0.75235704       0.37430746 </v>
   <v>       0.49993992       0.74464452       0.87518778 </v>
   <v>       0.24945521       0.00134333       0.13043735 </v>
   <v>       0.25014901       0.99974345       0.62326028 </v>
   <v>       0.25368297       0.50311920       0.12646146 </v>
   <v>       0.25113836       0.50051764       0.62435306 </v>
   <v>       0.75045920       0.98827883       0.13519884 </v>
   <v>       0.74862622       0.99557141       0.62109178 </v>
   <v>       0.74991931       0.51543936       0.12959734 </v>
   <v>       0.74933679       0.50255115       0.62266243 </v>
   <v>       0.25225367       0.99934873       0.37464021 </v>
   <v>       0.24695530       0.00153289       0.87159684 </v>
   <v>       0.25093663       0.50064917       0.37486660 </v>
   <v>       0.25365719       0.50305342       0.87429483 </v>
   <v>       0.74678300       0.99589708       0.37725798 </v>
   <v>       0.75273745       0.98755833       0.86608896 </v>
   <v>       0.74939113       0.50288298       0.37618144 </v>
   <v>       0.74977254       0.51547699       0.87097018 </v>
   <v>       0.00891216       0.98459409       0.00028312 </v>
   <v>       0.99904999       0.99850226       0.49948466 </v>
   <v>       0.00642349       0.50614014       0.00016107 </v>
   <v>       0.99899361       0.50030157       0.49995281 </v>
   <v>       0.48372477       0.99034079       0.00016393 </v>
   <v>       0.50027701       0.99841126       0.49828764 </v>
   <v>       0.50215976       0.50058067       0.49952651 </v>
   <v>       0.25040095       0.25407799       0.00012929 </v>
   <v>       0.24994865       0.25018860       0.49980288 </v>
   <v>       0.25037921       0.75041853       0.49976914 </v>
   <v>       0.74443235       0.27855918       0.00006118 </v>
   <v>       0.74966320       0.25080570       0.49970425 </v>
   <v>       0.74951396       0.75088807       0.00017854 </v>
   <v>       0.25152396       0.24894814       0.25130062 </v>
   <v>       0.25019364       0.25019062       0.74871601 </v>
   <v>       0.25255393       0.75137492       0.24869372 </v>
   <v>       0.25077256       0.75006811       0.75112876 </v>
   <v>       0.74938018       0.24691512       0.25248476 </v>
   <v>       0.75042550       0.24782241       0.74728748 </v>
   <v>       0.74904732       0.75125635       0.25383709 </v>
   <v>       0.75037749       0.74984859       0.74639498 </v>
   <v>       0.99973252       0.00049756       0.25119019 </v>
   <v>       0.99972508       0.00044074       0.74840593 </v>
   <v>       0.00064035       0.49988579       0.25048735 </v>
   <v>       0.00045320       0.49959935       0.74964519 </v>
   <v>       0.50030110       0.00061578       0.74945296 </v>
   <v>       0.50057495       0.49942217       0.24820522 </v>
   <v>       0.50056249       0.49949371       0.75157606 </v>
   <v>       0.49476067       0.50527969       0.00039284 </v>
   <v>       0.25202346       0.74251826       0.00036831 </v>
   <v>       0.75016131       0.74948187       0.49988657 </v>
   <v>       0.50087281       0.00082007       0.24993671 </v>
   <v>       0.11150334       0.13851557       0.25060800 </v>
   <v>       0.11069488       0.13914244       0.74950160 </v>
   <v>       0.11127444       0.63713789       0.25349443 </v>
   <v>       0.11090601       0.63801192       0.74670841 </v>
   <v>       0.61428199       0.14044972       0.24995328 </v>
   <v>       0.61155646       0.14047993       0.74971963 </v>
   <v>       0.61402577       0.63569991       0.24963442 </v>
   <v>       0.61336592       0.63698531       0.75061898 </v>
   <v>       0.38789680       0.36187015       0.25073304 </v>
   <v>       0.38830260       0.36080123       0.74901540 </v>
   <v>       0.38725373       0.86262340       0.24563657 </v>
   <v>       0.38989722       0.86305524       0.75478978 </v>
   <v>       0.88691893       0.35920703       0.24238554 </v>
   <v>       0.88733078       0.35807061       0.75779457 </v>
   <v>       0.88882706       0.86247668       0.24856636 </v>
   <v>       0.88932753       0.86184895       0.75156142 </v>
   <v>       0.36106360       0.11369916       0.24857953 </v>
   <v>       0.36062647       0.11122033       0.75202603 </v>
   <v>       0.36281216       0.61152705       0.25271002 </v>
   <v>       0.36249878       0.61143465       0.74750883 </v>
   <v>       0.86147486       0.11077357       0.25455440 </v>
   <v>       0.85981180       0.10981834       0.74561084 </v>
   <v>       0.86301006       0.61172400       0.25077183 </v>
   <v>       0.86220973       0.61096467       0.74884873 </v>
   <v>       0.13749175       0.38744495       0.24779300 </v>
   <v>       0.13814216       0.38811431       0.75225578 </v>
   <v>       0.13664500       0.88958437       0.24754603 </v>
   <v>       0.13777190       0.89034200       0.75241993 </v>
   <v>       0.64108192       0.38461088       0.23933357 </v>
   <v>       0.64145145       0.38447035       0.76089533 </v>
   <v>       0.63778839       0.88521221       0.25209415 </v>
   <v>       0.63792058       0.88798941       0.74831427 </v>
   <v>       0.35127003       0.39268152       0.99965156 </v>
   <v>       0.35988209       0.38985052       0.50040822 </v>
   <v>       0.35025916       0.89550581       0.00022001 </v>
   <v>       0.35967075       0.89035076       0.50072023 </v>
   <v>       0.85363273       0.40053568       0.99953666 </v>
   <v>       0.85892429       0.38898845       0.50043899 </v>
   <v>       0.85165613       0.90911952       0.00028863 </v>
   <v>       0.86239897       0.89125258       0.49979633 </v>
   <v>       0.12975085       0.11272813       0.99972061 </v>
   <v>       0.13973958       0.11034518       0.49997544 </v>
   <v>       0.14448860       0.60345526       0.99949866 </v>
   <v>       0.13998555       0.60933489       0.50048109 </v>
   <v>       0.64068165       0.11205167       0.50090677 </v>
   <v>       0.64477040       0.61280474       0.99967041 </v>
   <v>       0.63841681       0.60850328       0.50026185 </v>
   <v>       0.10174424       0.35645437       0.99974486 </v>
   <v>       0.10991895       0.35926580       0.50032811 </v>
   <v>       0.10368053       0.85184098       0.99981180 </v>
   <v>       0.11033496       0.85966528       0.50034972 </v>
   <v>       0.59785439       0.35116695       0.00030071 </v>
   <v>       0.61015187       0.35809682       0.50009515 </v>
   <v>       0.60975416       0.86683923       0.99861267 </v>
   <v>       0.60932721       0.86264708       0.50100671 </v>
   <v>       0.39388337       0.14393390       0.99894250 </v>
   <v>       0.38900691       0.14059836       0.50069699 </v>
   <v>       0.39517078       0.64715716       0.00011290 </v>
   <v>       0.38984602       0.63882987       0.50006015 </v>
   <v>       0.88910431       0.14094215       0.50018634 </v>
   <v>       0.89564378       0.64943426       0.99982720 </v>
   <v>       0.89193591       0.63674190       0.50043816 </v>
   <v>       0.99397193       0.00991037       0.12281633 </v>
   <v>       0.00150981       0.99926125       0.62516049 </v>
   <v>       0.99999063       0.50395530       0.12422599 </v>
   <v>       0.99798195       0.49320559       0.62612850 </v>
   <v>       0.51158642       0.01173440       0.11873576 </v>
   <v>       0.49820364       0.00188184       0.62661929 </v>
   <v>       0.49731255       0.50240984       0.12579092 </v>
   <v>       0.50515537       0.49508592       0.62620214 </v>
   <v>       0.00181601       0.99920151       0.37486563 </v>
   <v>       0.99355528       0.00986574       0.87723708 </v>
   <v>       0.99784232       0.49340204       0.37455068 </v>
   <v>       0.99972636       0.50391293       0.87517018 </v>
   <v>       0.49903327       0.00153750       0.37630598 </v>
   <v>       0.51068554       0.01118362       0.87842462 </v>
   <v>       0.50485613       0.49483614       0.37405811 </v>
   <v>       0.49734474       0.50187000       0.87413070 </v>
   <v>       0.24930021       0.25094483       0.37504133 </v>
   <v>       0.24848943       0.24857366       0.87479554 </v>
   <v>       0.25070049       0.75306132       0.37545658 </v>
   <v>       0.24744183       0.74740863       0.87320926 </v>
   <v>       0.74981388       0.25553536       0.37385591 </v>
   <v>       0.75934996       0.20934853       0.89354813 </v>
   <v>       0.75172888       0.74958584       0.37470630 </v>
   <v>       0.75223043       0.75090574       0.87461870 </v>
   <v>       0.24880394       0.24862063       0.12455899 </v>
   <v>       0.24911532       0.25023503       0.62552003 </v>
   <v>       0.24646289       0.74645825       0.12642125 </v>
   <v>       0.25136281       0.75346669       0.62535064 </v>
   <v>       0.76085520       0.20991143       0.10648568 </v>
   <v>       0.74970971       0.25558629       0.62681996 </v>
   <v>       0.75130990       0.75086419       0.12473309 </v>
   <v>       0.75163523       0.75034027       0.62589460 </v>
  </varray>
 </structure>
</modeling>
