       N       E                     dE             d eps       ncg     rms          rms(c)
DAV:   1    -0.108693411635E+04   -0.10869E+04   -0.19613E-02 13400   0.327E-01    0.450E-02
RMM:   2    -0.108693411553E+04    0.82333E-06   -0.54983E-05  7061   0.125E-02    0.752E-02
RMM:   3    -0.108693411501E+04    0.51470E-06   -0.10326E-05  6607   0.680E-03    0.170E-02
RMM:   4    -0.108693411503E+04   -0.19892E-07   -0.45012E-06  5092   0.305E-03    0.681E-03
RMM:   5    -0.108693411500E+04    0.28929E-07   -0.25357E-06  4759   0.332E-03    0.370E-03
RMM:   6    -0.108693411490E+04    0.10466E-06   -0.11618E-06  3021   0.216E-03    0.160E-03
RMM:   7    -0.108693411480E+04    0.10151E-06   -0.63485E-07  2613   0.221E-03    0.106E-03
RMM:   8    -0.108693411473E+04    0.66502E-07   -0.11213E-07  1762   0.191E-03
   1 F= -.10869341E+04 E0= -.10869341E+04  d E =-.108693E+04  mag=    50.0000
       N       E                     dE             d eps       ncg     rms          rms(c)
DAV:   1    -0.108693410490E+04    0.98944E-05   -0.32927E-01 12896   0.672E-01    0.248E-01
RMM:   2    -0.108693497854E+04   -0.87364E-03   -0.10590E-02 12312   0.139E-01    0.203E-01
RMM:   3    -0.108693495436E+04    0.24185E-04   -0.55775E-04 10869   0.499E-02    0.119E-01
RMM:   4    -0.108693489162E+04    0.62738E-04   -0.23343E-04  8054   0.203E-02    0.790E-02
RMM:   5    -0.108693488218E+04    0.94342E-05   -0.64226E-05  7288   0.140E-02    0.528E-02
RMM:   6    -0.108693488497E+04   -0.27876E-05   -0.25131E-05  7093   0.879E-03    0.152E-02
RMM:   7    -0.108693488741E+04   -0.24375E-05   -0.10799E-05  6996   0.588E-03    0.114E-02
RMM:   8    -0.108693488936E+04   -0.19513E-05   -0.69389E-06  6587   0.433E-03
   2 F= -.10869349E+04 E0= -.10869349E+04  d E =-.774630E-03  mag=    50.0000
       N       E                     dE             d eps       ncg     rms          rms(c)
DAV:   1    -0.108693489805E+04   -0.10640E-04   -0.45886E-03 13208   0.797E-02    0.302E-02
RMM:   2    -0.108693490822E+04   -0.10171E-04   -0.13060E-04  6958   0.173E-02    0.271E-02
RMM:   3    -0.108693490960E+04   -0.13802E-05   -0.14434E-05  6377   0.814E-03    0.138E-02
RMM:   4    -0.108693490902E+04    0.57662E-06   -0.48638E-06  5881   0.398E-03    0.110E-02
RMM:   5    -0.108693490886E+04    0.16244E-06   -0.18424E-06  5019   0.282E-03    0.507E-03
RMM:   6    -0.108693490883E+04    0.26441E-07   -0.26487E-07  1930   0.193E-03    0.148E-03
RMM:   7    -0.108693490884E+04   -0.77125E-09   -0.71634E-08  1536   0.182E-03    0.751E-04
RMM:   8    -0.108693490885E+04   -0.13461E-07   -0.34167E-08  1296   0.183E-03
   3 F= -.10869349E+04 E0= -.10869349E+04  d E =-.794119E-03  mag=    50.0000
       N       E                     dE             d eps       ncg     rms          rms(c)
DAV:   1    -0.108693475877E+04    0.15007E-03   -0.32852E-01 12464   0.682E-01    0.207E-01
RMM:   2    -0.108693567741E+04   -0.91864E-03   -0.85575E-03 12350   0.126E-01    0.135E-01
RMM:   3    -0.108693572695E+04   -0.49547E-04   -0.49614E-04 10613   0.509E-02    0.763E-02
RMM:   4    -0.108693569713E+04    0.29819E-04   -0.12822E-04  7297   0.159E-02    0.506E-02
RMM:   5    -0.108693569369E+04    0.34465E-05   -0.40246E-05  7104   0.112E-02    0.394E-02
RMM:   6    -0.108693569513E+04   -0.14429E-05   -0.19503E-05  6991   0.755E-03    0.937E-03
RMM:   7    -0.108693569620E+04   -0.10655E-05   -0.86062E-06  6809   0.538E-03    0.764E-03
RMM:   8    -0.108693569682E+04   -0.62386E-06   -0.52630E-06  6073   0.373E-03
   4 F= -.10869357E+04 E0= -.10869357E+04  d E =-.787971E-03  mag=    50.0000
