<?xml version="1.0" encoding="ISO-8859-1"?>
<modeling>
 <generator>
  <i name="program" type="string">vasp </i>
  <i name="version" type="string">5.4.1  </i>
  <i name="subversion" type="string">05Feb16 (build Jan 25 2017 20:16:33) complex                          parallel </i>
  <i name="platform" type="string">BWXE6 </i>
  <i name="date" type="string">2019 06 18 </i>
  <i name="time" type="string">09:48:37 </i>
 </generator>
 <incar>
  <i type="string" name="SYSTEM"> STF</i>
  <i type="string" name="PREC">normal</i>
  <i type="string" name="ALGO"> Fast</i>
  <i type="int" name="ISPIN">     2</i>
  <i type="int" name="NELM">    40</i>
  <i type="int" name="NELMIN">     8</i>
  <i type="int" name="IBRION">     2</i>
  <i name="EDIFF">      0.00010000</i>
  <i name="EDIFFG">     -0.03000000</i>
  <i type="int" name="NSW">    30</i>
  <i type="int" name="ISIF">     3</i>
  <i name="ENCUT">    520.00000000</i>
  <i type="int" name="NBANDS">   768</i>
  <v name="MAGMOM">      0.60000000      0.60000000      0.60000000      0.60000000      0.60000000      0.60000000      0.60000000      0.60000000      0.60000000      0.60000000      0.60000000      0.60000000      0.60000000      0.60000000      0.60000000      0.60000000      0.60000000      0.60000000      0.60000000      0.60000000
      0.60000000      0.60000000      0.60000000      0.60000000      0.60000000      0.60000000      0.60000000      0.60000000      0.60000000      0.60000000      0.60000000      0.60000000      0.60000000      0.60000000      0.60000000      0.60000000      0.60000000      0.60000000      0.60000000      0.60000000
      0.60000000      0.60000000      0.60000000      0.60000000      0.60000000      0.60000000      0.60000000      0.60000000      0.60000000      0.60000000      0.60000000      0.60000000      5.00000000      5.00000000      5.00000000      5.00000000      5.00000000      5.00000000      5.00000000      5.00000000
      5.00000000      5.00000000      5.00000000      5.00000000      0.60000000      0.60000000      0.60000000      0.60000000      0.60000000      0.60000000      0.60000000      0.60000000      0.60000000      0.60000000      0.60000000      0.60000000      0.60000000      0.60000000      0.60000000      0.60000000
      0.60000000      0.60000000      0.60000000      0.60000000      0.60000000      0.60000000      0.60000000      0.60000000      0.60000000      0.60000000      0.60000000      0.60000000      0.60000000      0.60000000      0.60000000      0.60000000      0.60000000      0.60000000      0.60000000      0.60000000
      0.60000000      0.60000000      0.60000000      0.60000000      0.60000000      0.60000000      0.60000000      0.60000000      0.60000000      0.60000000      0.60000000      0.60000000      0.60000000      0.60000000      0.60000000      0.60000000      0.60000000      0.60000000      0.60000000      0.60000000
      0.60000000      0.60000000      0.60000000      0.60000000      0.60000000      0.60000000      0.60000000      0.60000000      0.60000000      0.60000000      0.60000000      0.60000000      0.60000000      0.60000000      0.60000000      0.60000000      0.60000000      0.60000000      0.60000000      0.60000000
      0.60000000      0.60000000      0.60000000      0.60000000      0.60000000      0.60000000      0.60000000      0.60000000      0.60000000      0.60000000      0.60000000      0.60000000      0.60000000      0.60000000</v>
  <i type="string" name="LREAL"> Auto</i>
  <i type="int" name="ISMEAR">     0</i>
  <i name="SIGMA">      0.05000000</i>
  <i type="int" name="LMAXMIX">     4</i>
  <v type="int" name="KPOINT_BSE">    -1     0     0     0</v>
  <i type="int" name="NELM">    40</i>
  <i type="logical" name="LDAU"> T  </i>
  <v type="int" name="LDAUTYPE">     2</v>
  <v type="int" name="LDAUL">     0     2     2     0</v>
  <v name="LDAUU">      0.00000000      3.00000000      5.00000000      0.00000000</v>
  <v name="LDAUJ">      0.00000000      0.00000000      0.00000000      0.00000000</v>
  <i type="int" name="LDAUPRINT">     1</i>
 </incar>
 <kpoints>
  <generation param="Monkhorst-Pack">
   <v type="int" name="divisions">       2        2        2 </v>
   <v name="usershift">      0.00000000       0.00000000       0.00000000 </v>
   <v name="genvec1">      0.50000000      -0.00000000       0.00000000 </v>
   <v name="genvec2">      0.00000000       0.50000000      -0.00000000 </v>
   <v name="genvec3">     -0.00000000       0.00000000       0.50000000 </v>
   <v name="shift">      0.50000000       0.50000000       0.50000000 </v>
  </generation>
  <varray name="kpointlist" >
   <v>       0.25000000       0.25000000       0.25000000 </v>
   <v>      -0.25000000       0.25000000       0.25000000 </v>
   <v>       0.25000000      -0.25000000       0.25000000 </v>
   <v>      -0.25000000      -0.25000000       0.25000000 </v>
  </varray>
  <varray name="weights" >
   <v>       0.25000000 </v>
   <v>       0.25000000 </v>
   <v>       0.25000000 </v>
   <v>       0.25000000 </v>
  </varray>
 </kpoints>
 <parameters>
  <separator name="general" >
   <i type="string" name="SYSTEM">STF</i>
   <i type="logical" name="LCOMPAT"> F  </i>
  </separator>
  <separator name="electronic" >
   <i type="string" name="PREC">normal</i>
   <i name="ENMAX">    520.00000000</i>
   <i name="ENAUG">    605.39200000</i>
   <i name="EDIFF">      0.00010000</i>
   <i type="int" name="IALGO">    68</i>
   <i type="int" name="IWAVPR">    11</i>
   <i type="int" name="NBANDS">   768</i>
   <i name="NELECT">   1036.00000000</i>
   <i type="int" name="TURBO">     0</i>
   <i type="int" name="IRESTART">     0</i>
   <i type="int" name="NREBOOT">     0</i>
   <i type="int" name="NMIN">     0</i>
   <i name="EREF">      0.00000000</i>
   <separator name="electronic smearing" >
    <i type="int" name="ISMEAR">     0</i>
    <i name="SIGMA">      0.05000000</i>
    <i name="KSPACING">      0.50000000</i>
    <i type="logical" name="KGAMMA"> T  </i>
   </separator>
   <separator name="electronic projectors" >
    <i type="logical" name="LREAL"> T  </i>
    <v name="ROPT">     -0.00050000     -0.00050000     -0.00050000     -0.00050000</v>
    <i type="int" name="LMAXPAW">  -100</i>
    <i type="int" name="LMAXMIX">     4</i>
    <i type="logical" name="NLSPLINE"> F  </i>
   </separator>
   <separator name="electronic startup" >
    <i type="int" name="ISTART">     1</i>
    <i type="int" name="ICHARG">     0</i>
    <i type="int" name="INIWAV">     1</i>
   </separator>
   <separator name="electronic spin" >
    <i type="int" name="ISPIN">     2</i>
    <i type="logical" name="LNONCOLLINEAR"> F  </i>
    <v name="MAGMOM">      0.60000000      0.60000000      0.60000000      0.60000000      0.60000000      0.60000000      0.60000000      0.60000000      0.60000000      0.60000000      0.60000000      0.60000000      0.60000000      0.60000000      0.60000000      0.60000000      0.60000000      0.60000000      0.60000000      0.60000000
      0.60000000      0.60000000      0.60000000      0.60000000      0.60000000      0.60000000      0.60000000      0.60000000      0.60000000      0.60000000      0.60000000      0.60000000      0.60000000      0.60000000      0.60000000      0.60000000      0.60000000      0.60000000      0.60000000      0.60000000
      0.60000000      0.60000000      0.60000000      0.60000000      0.60000000      0.60000000      0.60000000      0.60000000      0.60000000      0.60000000      0.60000000      0.60000000      5.00000000      5.00000000      5.00000000      5.00000000      5.00000000      5.00000000      5.00000000      5.00000000
      5.00000000      5.00000000      5.00000000      5.00000000      0.60000000      0.60000000      0.60000000      0.60000000      0.60000000      0.60000000      0.60000000      0.60000000      0.60000000      0.60000000      0.60000000      0.60000000      0.60000000      0.60000000      0.60000000      0.60000000
      0.60000000      0.60000000      0.60000000      0.60000000      0.60000000      0.60000000      0.60000000      0.60000000      0.60000000      0.60000000      0.60000000      0.60000000      0.60000000      0.60000000      0.60000000      0.60000000      0.60000000      0.60000000      0.60000000      0.60000000
      0.60000000      0.60000000      0.60000000      0.60000000      0.60000000      0.60000000      0.60000000      0.60000000      0.60000000      0.60000000      0.60000000      0.60000000      0.60000000      0.60000000      0.60000000      0.60000000      0.60000000      0.60000000      0.60000000      0.60000000
      0.60000000      0.60000000      0.60000000      0.60000000      0.60000000      0.60000000      0.60000000      0.60000000      0.60000000      0.60000000      0.60000000      0.60000000      0.60000000      0.60000000      0.60000000      0.60000000      0.60000000      0.60000000      0.60000000      0.60000000
      0.60000000      0.60000000      0.60000000      0.60000000      0.60000000      0.60000000      0.60000000      0.60000000      0.60000000      0.60000000      0.60000000      0.60000000      0.60000000      0.60000000</v>
    <i name="NUPDOWN">     -1.00000000</i>
    <i type="logical" name="LSORBIT"> F  </i>
    <v name="SAXIS">      0.00000000      0.00000000      1.00000000</v>
    <i type="logical" name="LSPIRAL"> F  </i>
    <v name="QSPIRAL">      0.00000000      0.00000000      0.00000000</v>
    <i type="logical" name="LZEROZ"> F  </i>
   </separator>
   <separator name="electronic exchange-correlation" >
    <i type="logical" name="LASPH"> F  </i>
    <i type="logical" name="LMETAGGA"> F  </i>
   </separator>
   <separator name="electronic convergence" >
    <i type="int" name="NELM">    40</i>
    <i type="int" name="NELMDL">     0</i>
    <i type="int" name="NELMIN">     8</i>
    <i name="ENINI">    520.00000000</i>
    <separator name="electronic convergence detail" >
     <i type="logical" name="LDIAG"> T  </i>
     <i type="logical" name="LSUBROT"> F  </i>
     <i name="WEIMIN">      0.00100000</i>
     <i name="EBREAK">      0.00000003</i>
     <i name="DEPER">      0.30000000</i>
     <i type="int" name="NRMM">     4</i>
     <i name="TIME">      0.40000000</i>
    </separator>
   </separator>
   <separator name="electronic mixer" >
    <i name="AMIX">      0.40000000</i>
    <i name="BMIX">      1.00000000</i>
    <i name="AMIN">      0.10000000</i>
    <i name="AMIX_MAG">      1.60000000</i>
    <i name="BMIX_MAG">      1.00000000</i>
    <separator name="electronic mixer details" >
     <i type="int" name="IMIX">     4</i>
     <i type="logical" name="MIXFIRST"> F  </i>
     <i type="int" name="MAXMIX">   -45</i>
     <i name="WC">    100.00000000</i>
     <i type="int" name="INIMIX">     1</i>
     <i type="int" name="MIXPRE">     1</i>
     <i type="int" name="MREMOVE">     5</i>
    </separator>
   </separator>
   <separator name="electronic dipolcorrection" >
    <i type="logical" name="LDIPOL"> F  </i>
    <i type="logical" name="LMONO"> F  </i>
    <i type="int" name="IDIPOL">     0</i>
    <i name="EPSILON">      1.00000000</i>
    <v name="DIPOL">   -100.00000000   -100.00000000   -100.00000000</v>
    <i name="EFIELD">      0.00000000</i>
   </separator>
  </separator>
  <separator name="grids" >
   <i type="int" name="NGX">    64</i>
   <i type="int" name="NGY">    64</i>
   <i type="int" name="NGZ">    90</i>
   <i type="int" name="NGXF">   128</i>
   <i type="int" name="NGYF">   128</i>
   <i type="int" name="NGZF">   180</i>
   <i type="logical" name="ADDGRID"> F  </i>
  </separator>
  <separator name="ionic" >
   <i type="int" name="NSW">    30</i>
   <i type="int" name="IBRION">     2</i>
   <i type="int" name="ISIF">     3</i>
   <i name="PSTRESS">      0.00000000</i>
   <i name="EDIFFG">     -0.03000000</i>
   <i type="int" name="NFREE">     1</i>
   <i name="POTIM">      0.50000000</i>
   <i name="SMASS">     -3.00000000</i>
   <i name="SCALEE">      1.00000000</i>
  </separator>
  <separator name="ionic md" >
   <i name="TEBEG">      0.00010000</i>
   <i name="TEEND">      0.00010000</i>
   <i type="int" name="NBLOCK">     1</i>
   <i type="int" name="KBLOCK">    30</i>
   <i type="int" name="NPACO">   256</i>
   <i name="APACO">     16.00000000</i>
  </separator>
  <separator name="symmetry" >
   <i type="int" name="ISYM">     2</i>
   <i name="SYMPREC">      0.00001000</i>
  </separator>
  <separator name="dos" >
   <i type="logical" name="LORBIT"> F  </i>
   <v name="RWIGS">     -1.00000000     -1.00000000     -1.00000000     -1.00000000</v>
   <i type="int" name="NEDOS">   301</i>
   <i name="EMIN">     10.00000000</i>
   <i name="EMAX">    -10.00000000</i>
   <i name="EFERMI">      0.00000000</i>
  </separator>
  <separator name="writing" >
   <i type="int" name="NWRITE">     2</i>
   <i type="logical" name="LWAVE"> T  </i>
   <i type="logical" name="LCHARG"> T  </i>
   <i type="logical" name="LPARD"> F  </i>
   <i type="logical" name="LVTOT"> F  </i>
   <i type="logical" name="LVHAR"> F  </i>
   <i type="logical" name="LELF"> F  </i>
   <i type="logical" name="LOPTICS"> F  </i>
   <v name="STM">      0.00000000      0.00000000      0.00000000      0.00000000      0.00000000      0.00000000      0.00000000</v>
  </separator>
  <separator name="performance" >
   <i type="int" name="NPAR">     2</i>
   <i type="int" name="NSIM">     4</i>
   <i type="int" name="NBLK">    -1</i>
   <i type="logical" name="LPLANE"> T  </i>
   <i type="logical" name="LSCALAPACK"> T  </i>
   <i type="logical" name="LSCAAWARE"> F  </i>
   <i type="logical" name="LSCALU"> F  </i>
   <i type="logical" name="LASYNC"> F  </i>
   <i type="logical" name="LORBITALREAL"> F  </i>
  </separator>
  <separator name="miscellaneous" >
   <i type="int" name="IDIOT">     3</i>
   <i type="logical" name="LMUSIC"> F  </i>
   <v name="POMASS">     87.62000000     47.88000000     55.84700000     16.00000000</v>
   <v name="DARWINR">      0.00000000      0.00000000      0.00000000      0.00000000</v>
   <v name="DARWINV">      1.00000000      1.00000000      1.00000000      1.00000000</v>
   <i type="logical" name="LCORR"> T  </i>
  </separator>
  <i type="logical" name="GGA_COMPAT"> T  </i>
  <i type="logical" name="LBERRY"> F  </i>
  <i type="int" name="ICORELEVEL">     0</i>
  <i type="logical" name="LDAU"> T  </i>
  <v type="int" name="LDAUTYPE">     2</v>
  <v type="int" name="LDAUL">     0</v>
  <v name="LDAUU">      0.00000000</v>
  <v name="LDAUJ">      0.00000000</v>
  <i type="int" name="LDAUPRINT">     1</i>
  <i type="int" name="I_CONSTRAINED_M">     0</i>
  <separator name="electronic exchange-correlation" >
   <i type="string" name="GGA">--</i>
   <i type="int" name="VOSKOWN">     0</i>
   <i type="logical" name="LHFCALC"> F  </i>
   <i type="string" name="PRECFOCK"></i>
   <i type="logical" name="LSYMGRAD"> F  </i>
   <i type="logical" name="LHFONE"> F  </i>
   <i type="logical" name="LRHFCALC"> F  </i>
   <i type="logical" name="LTHOMAS"> F  </i>
   <i type="logical" name="LMODELHF"> F  </i>
   <i name="ENCUT4O">     -1.00000000</i>
   <i type="int" name="EXXOEP">     0</i>
   <i type="int" name="FOURORBIT">     0</i>
   <i name="AEXX">      0.00000000</i>
   <i name="HFALPHA">      0.00000000</i>
   <i name="MCALPHA">      0.00000000</i>
   <i name="ALDAX">      1.00000000</i>
   <i name="AGGAX">      1.00000000</i>
   <i name="ALDAC">      1.00000000</i>
   <i name="AGGAC">      1.00000000</i>
   <i type="int" name="NKREDX">     1</i>
   <i type="int" name="NKREDY">     1</i>
   <i type="int" name="NKREDZ">     1</i>
   <i type="logical" name="SHIFTRED"> F  </i>
   <i type="logical" name="ODDONLY"> F  </i>
   <i type="logical" name="EVENONLY"> F  </i>
   <i type="int" name="LMAXFOCK">     0</i>
   <i type="int" name="NMAXFOCKAE">     0</i>
   <i type="logical" name="LFOCKAEDFT"> F  </i>
   <i name="HFSCREEN">      0.00000000</i>
   <i name="HFSCREENC">      0.00000000</i>
   <i type="int" name="NBANDSGWLOW">     0</i>
  </separator>
  <separator name="vdW DFT" >
   <i type="logical" name="LUSE_VDW"> F  </i>
   <i name="Zab_VDW">     -0.84910000</i>
   <i name="PARAM1">      0.12340000</i>
   <i name="PARAM2">      1.00000000</i>
   <i name="PARAM3">      0.00000000</i>
  </separator>
  <separator name="model GW" >
   <i type="int" name="MODEL_GW">     0</i>
   <i name="MODEL_EPS0">      7.84786158</i>
   <i name="MODEL_ALPHA">      1.00000000</i>
  </separator>
  <separator name="linear response parameters" >
   <i type="logical" name="LEPSILON"> F  </i>
   <i type="logical" name="LRPA"> F  </i>
   <i type="logical" name="LNABLA"> F  </i>
   <i type="logical" name="LVEL"> F  </i>
   <i type="int" name="KINTER">     0</i>
   <i name="CSHIFT">      0.10000000</i>
   <i name="OMEGAMAX">     -1.00000000</i>
   <i name="DEG_THRESHOLD">      0.00200000</i>
  </separator>
  <separator name="orbital magnetization" >
   <i type="logical" name="NUCIND"> F  </i>
   <v name="MAGPOS">      0.00000000      0.00000000      0.00000000</v>
   <i type="logical" name="LNICSALL"> T  </i>
   <i type="logical" name="ORBITALMAG"> F  </i>
   <i type="logical" name="LMAGBLOCH"> F  </i>
   <i type="logical" name="LCHIMAG"> F  </i>
   <i type="logical" name="LGAUGE"> T  </i>
   <i type="int" name="MAGATOM">     0</i>
   <v name="MAGDIPOL">      0.00000000      0.00000000      0.00000000</v>
   <v name="AVECCONST">      0.00000000      0.00000000      0.00000000</v>
  </separator>
  <separator name="response functions" >
   <i type="logical" name="LADDER"> F  </i>
   <i type="logical" name="LFXC"> F  </i>
   <i type="logical" name="LHARTREE"> T  </i>
   <i type="int" name="IBSE">     0</i>
   <v type="int" name="KPOINT">    -1     0     0     0</v>
   <i type="logical" name="LTCTE"> F  </i>
   <i type="logical" name="LTETE"> F  </i>
   <i type="logical" name="LTRIPLET"> F  </i>
   <i type="logical" name="LFXCEPS"> F  </i>
   <i type="logical" name="LFXHEG"> F  </i>
   <i type="int" name="NATURALO">     0</i>
   <i type="logical" name="L2ORDER"> F  </i>
   <i type="logical" name="LUSEW"> F  </i>
   <i name="ENCUTGW">     -2.00000000</i>
   <i name="ENCUTGWSOFT">     -2.00000000</i>
   <i name="ENCUTLF">     -1.00000000</i>
   <i type="int" name="LMAXMP2">    -1</i>
   <i name="SCISSOR">      0.00000000</i>
   <i type="int" name="NOMEGA">     0</i>
   <i type="int" name="NOMEGAR">     0</i>
   <i type="int" name="NBANDSGW">    -1</i>
   <i type="int" name="NBANDSO">    -1</i>
   <i type="int" name="NBANDSV">    -1</i>
   <i type="int" name="NELM">    40</i>
   <i type="int" name="NELMHF">     1</i>
   <i type="int" name="DIM">     3</i>
   <i type="int" name="ANTIRES">     0</i>
   <i name="OMEGAMAX">    -30.00000000</i>
   <i name="OMEGAMIN">    -30.00000000</i>
   <i name="OMEGATL">   -200.00000000</i>
   <i type="int" name="OMEGAGRID">     0</i>
   <i name="CSHIFT">     -0.10000000</i>
   <i type="logical" name="SELFENERGY"> F  </i>
   <i type="logical" name="LSPECTRAL"> F  </i>
   <i type="logical" name="LSPECTRALGW"> F  </i>
   <i type="logical" name="LSINGLES"> F  </i>
   <i type="logical" name="LFERMIGW"> F  </i>
   <i type="logical" name="ODDONLYGW"> F  </i>
   <i type="logical" name="EVENONLYGW"> F  </i>
   <i type="int" name="NKREDLFX">     1</i>
   <i type="int" name="NKREDLFY">     1</i>
   <i type="int" name="NKREDLFZ">     1</i>
   <i type="int" name="MAXMEM">  1800</i>
   <i type="int" name="TELESCOPE">     0</i>
   <i type="int" name="TAUPAR">     1</i>
   <i type="int" name="OMEGAPAR">    -1</i>
   <i name="LAMBDA">      1.00000000</i>
  </separator>
  <separator name="External order field" >
   <i name="OFIELD_KAPPA">      0.00000000</i>
   <v name="OFIELD_K">      0.00000000      0.00000000      0.00000000</v>
   <i name="OFIELD_Q6_NEAR">      0.00000000</i>
   <i name="OFIELD_Q6_FAR">      0.00000000</i>
   <i name="OFIELD_A">      0.00000000</i>
  </separator>
 </parameters>
 <atominfo>
  <atoms>     154 </atoms>
  <types>       4 </types>
  <array name="atoms" >
   <dimension dim="1">ion</dimension>
   <field type="string">element</field>
   <field type="int">atomtype</field>
   <set>
    <rc><c>Sr</c><c>   1</c></rc>
    <rc><c>Sr</c><c>   1</c></rc>
    <rc><c>Sr</c><c>   1</c></rc>
    <rc><c>Sr</c><c>   1</c></rc>
    <rc><c>Sr</c><c>   1</c></rc>
    <rc><c>Sr</c><c>   1</c></rc>
    <rc><c>Sr</c><c>   1</c></rc>
    <rc><c>Sr</c><c>   1</c></rc>
    <rc><c>Sr</c><c>   1</c></rc>
    <rc><c>Sr</c><c>   1</c></rc>
    <rc><c>Sr</c><c>   1</c></rc>
    <rc><c>Sr</c><c>   1</c></rc>
    <rc><c>Sr</c><c>   1</c></rc>
    <rc><c>Sr</c><c>   1</c></rc>
    <rc><c>Sr</c><c>   1</c></rc>
    <rc><c>Sr</c><c>   1</c></rc>
    <rc><c>Sr</c><c>   1</c></rc>
    <rc><c>Sr</c><c>   1</c></rc>
    <rc><c>Sr</c><c>   1</c></rc>
    <rc><c>Sr</c><c>   1</c></rc>
    <rc><c>Sr</c><c>   1</c></rc>
    <rc><c>Sr</c><c>   1</c></rc>
    <rc><c>Sr</c><c>   1</c></rc>
    <rc><c>Sr</c><c>   1</c></rc>
    <rc><c>Sr</c><c>   1</c></rc>
    <rc><c>Sr</c><c>   1</c></rc>
    <rc><c>Sr</c><c>   1</c></rc>
    <rc><c>Sr</c><c>   1</c></rc>
    <rc><c>Sr</c><c>   1</c></rc>
    <rc><c>Sr</c><c>   1</c></rc>
    <rc><c>Sr</c><c>   1</c></rc>
    <rc><c>Sr</c><c>   1</c></rc>
    <rc><c>Ti</c><c>   2</c></rc>
    <rc><c>Ti</c><c>   2</c></rc>
    <rc><c>Ti</c><c>   2</c></rc>
    <rc><c>Ti</c><c>   2</c></rc>
    <rc><c>Ti</c><c>   2</c></rc>
    <rc><c>Ti</c><c>   2</c></rc>
    <rc><c>Ti</c><c>   2</c></rc>
    <rc><c>Ti</c><c>   2</c></rc>
    <rc><c>Ti</c><c>   2</c></rc>
    <rc><c>Ti</c><c>   2</c></rc>
    <rc><c>Ti</c><c>   2</c></rc>
    <rc><c>Ti</c><c>   2</c></rc>
    <rc><c>Ti</c><c>   2</c></rc>
    <rc><c>Ti</c><c>   2</c></rc>
    <rc><c>Ti</c><c>   2</c></rc>
    <rc><c>Ti</c><c>   2</c></rc>
    <rc><c>Ti</c><c>   2</c></rc>
    <rc><c>Ti</c><c>   2</c></rc>
    <rc><c>Ti</c><c>   2</c></rc>
    <rc><c>Ti</c><c>   2</c></rc>
    <rc><c>Fe</c><c>   3</c></rc>
    <rc><c>Fe</c><c>   3</c></rc>
    <rc><c>Fe</c><c>   3</c></rc>
    <rc><c>Fe</c><c>   3</c></rc>
    <rc><c>Fe</c><c>   3</c></rc>
    <rc><c>Fe</c><c>   3</c></rc>
    <rc><c>Fe</c><c>   3</c></rc>
    <rc><c>Fe</c><c>   3</c></rc>
    <rc><c>Fe</c><c>   3</c></rc>
    <rc><c>Fe</c><c>   3</c></rc>
    <rc><c>Fe</c><c>   3</c></rc>
    <rc><c>Fe</c><c>   3</c></rc>
    <rc><c>O </c><c>   4</c></rc>
    <rc><c>O </c><c>   4</c></rc>
    <rc><c>O </c><c>   4</c></rc>
    <rc><c>O </c><c>   4</c></rc>
    <rc><c>O </c><c>   4</c></rc>
    <rc><c>O </c><c>   4</c></rc>
    <rc><c>O </c><c>   4</c></rc>
    <rc><c>O </c><c>   4</c></rc>
    <rc><c>O </c><c>   4</c></rc>
    <rc><c>O </c><c>   4</c></rc>
    <rc><c>O </c><c>   4</c></rc>
    <rc><c>O </c><c>   4</c></rc>
    <rc><c>O </c><c>   4</c></rc>
    <rc><c>O </c><c>   4</c></rc>
    <rc><c>O </c><c>   4</c></rc>
    <rc><c>O </c><c>   4</c></rc>
    <rc><c>O </c><c>   4</c></rc>
    <rc><c>O </c><c>   4</c></rc>
    <rc><c>O </c><c>   4</c></rc>
    <rc><c>O </c><c>   4</c></rc>
    <rc><c>O </c><c>   4</c></rc>
    <rc><c>O </c><c>   4</c></rc>
    <rc><c>O </c><c>   4</c></rc>
    <rc><c>O </c><c>   4</c></rc>
    <rc><c>O </c><c>   4</c></rc>
    <rc><c>O </c><c>   4</c></rc>
    <rc><c>O </c><c>   4</c></rc>
    <rc><c>O </c><c>   4</c></rc>
    <rc><c>O </c><c>   4</c></rc>
    <rc><c>O </c><c>   4</c></rc>
    <rc><c>O </c><c>   4</c></rc>
    <rc><c>O </c><c>   4</c></rc>
    <rc><c>O </c><c>   4</c></rc>
    <rc><c>O </c><c>   4</c></rc>
    <rc><c>O </c><c>   4</c></rc>
    <rc><c>O </c><c>   4</c></rc>
    <rc><c>O </c><c>   4</c></rc>
    <rc><c>O </c><c>   4</c></rc>
    <rc><c>O </c><c>   4</c></rc>
    <rc><c>O </c><c>   4</c></rc>
    <rc><c>O </c><c>   4</c></rc>
    <rc><c>O </c><c>   4</c></rc>
    <rc><c>O </c><c>   4</c></rc>
    <rc><c>O </c><c>   4</c></rc>
    <rc><c>O </c><c>   4</c></rc>
    <rc><c>O </c><c>   4</c></rc>
    <rc><c>O </c><c>   4</c></rc>
    <rc><c>O </c><c>   4</c></rc>
    <rc><c>O </c><c>   4</c></rc>
    <rc><c>O </c><c>   4</c></rc>
    <rc><c>O </c><c>   4</c></rc>
    <rc><c>O </c><c>   4</c></rc>
    <rc><c>O </c><c>   4</c></rc>
    <rc><c>O </c><c>   4</c></rc>
    <rc><c>O </c><c>   4</c></rc>
    <rc><c>O </c><c>   4</c></rc>
    <rc><c>O </c><c>   4</c></rc>
    <rc><c>O </c><c>   4</c></rc>
    <rc><c>O </c><c>   4</c></rc>
    <rc><c>O </c><c>   4</c></rc>
    <rc><c>O </c><c>   4</c></rc>
    <rc><c>O </c><c>   4</c></rc>
    <rc><c>O </c><c>   4</c></rc>
    <rc><c>O </c><c>   4</c></rc>
    <rc><c>O </c><c>   4</c></rc>
    <rc><c>O </c><c>   4</c></rc>
    <rc><c>O </c><c>   4</c></rc>
    <rc><c>O </c><c>   4</c></rc>
    <rc><c>O </c><c>   4</c></rc>
    <rc><c>O </c><c>   4</c></rc>
    <rc><c>O </c><c>   4</c></rc>
    <rc><c>O </c><c>   4</c></rc>
    <rc><c>O </c><c>   4</c></rc>
    <rc><c>O </c><c>   4</c></rc>
    <rc><c>O </c><c>   4</c></rc>
    <rc><c>O </c><c>   4</c></rc>
    <rc><c>O </c><c>   4</c></rc>
    <rc><c>O </c><c>   4</c></rc>
    <rc><c>O </c><c>   4</c></rc>
    <rc><c>O </c><c>   4</c></rc>
    <rc><c>O </c><c>   4</c></rc>
    <rc><c>O </c><c>   4</c></rc>
    <rc><c>O </c><c>   4</c></rc>
    <rc><c>O </c><c>   4</c></rc>
    <rc><c>O </c><c>   4</c></rc>
    <rc><c>O </c><c>   4</c></rc>
    <rc><c>O </c><c>   4</c></rc>
    <rc><c>O </c><c>   4</c></rc>
    <rc><c>O </c><c>   4</c></rc>
    <rc><c>O </c><c>   4</c></rc>
   </set>
  </array>
  <array name="atomtypes" >
   <dimension dim="1">type</dimension>
   <field type="int">atomspertype</field>
   <field type="string">element</field>
   <field>mass</field>
   <field>valence</field>
   <field type="string">pseudopotential</field>
   <set>
    <rc><c>  32</c><c>Sr</c><c>     87.62000000</c><c>     10.00000000</c><c>  PAW_PBE Sr_sv 07Sep2000               </c></rc>
    <rc><c>  20</c><c>Ti</c><c>     47.88000000</c><c>      4.00000000</c><c>  PAW_PBE Ti 08Apr2002                  </c></rc>
    <rc><c>  12</c><c>Fe</c><c>     55.84700000</c><c>      8.00000000</c><c>  PAW_PBE Fe 06Sep2000                  </c></rc>
    <rc><c>  90</c><c>O </c><c>     16.00000000</c><c>      6.00000000</c><c>  PAW_PBE O 08Apr2002                   </c></rc>
   </set>
  </array>
 </atominfo>
 <structure name="initialpos" >
  <crystal>
   <varray name="basis" >
    <v>      11.25724321      -0.01368917       0.00064185 </v>
    <v>      -0.01370754      11.25914727       0.00692800 </v>
    <v>       0.00094592       0.00991915      15.89220167 </v>
   </varray>
   <i name="volume">   2014.28447345 </i>
   <varray name="rec_basis" >
    <v>       0.08883183       0.00010815      -0.00000535 </v>
    <v>       0.00010801       0.08881684      -0.00005544 </v>
    <v>      -0.00000363      -0.00003872       0.06292397 </v>
   </varray>
  </crystal>
  <varray name="positions" >
   <v>       0.99911455       0.24187769       0.11640191 </v>
   <v>       0.99646459       0.25305644       0.63079815 </v>
   <v>       0.98287071       0.74923811       0.11346979 </v>
   <v>       0.99831874       0.75250892       0.63276831 </v>
   <v>       0.50058344       0.24814033       0.11384730 </v>
   <v>       0.50273395       0.23879531       0.63031945 </v>
   <v>       0.51045853       0.74382764       0.11639873 </v>
   <v>       0.50220829       0.76454174       0.63465128 </v>
   <v>       0.00846497       0.23810701       0.37921742 </v>
   <v>       0.99779782       0.24996817       0.87886046 </v>
   <v>       0.98962180       0.75235143       0.38741049 </v>
   <v>       0.99664098       0.75218593       0.87170313 </v>
   <v>       0.49915233       0.24808285       0.37136566 </v>
   <v>       0.50263050       0.24021424       0.87890878 </v>
   <v>       0.51006994       0.75935778       0.38193626 </v>
   <v>       0.49938648       0.75571348       0.87144108 </v>
   <v>       0.25866009       0.01644288       0.11793502 </v>
   <v>       0.25470046       0.99774930       0.63314255 </v>
   <v>       0.25993893       0.47597238       0.11474544 </v>
   <v>       0.23863912       0.50817550       0.63166274 </v>
   <v>       0.74164290       0.00746072       0.11105615 </v>
   <v>       0.74817940       0.99898549       0.63365446 </v>
   <v>       0.74467283       0.49379727       0.10809730 </v>
   <v>       0.76213129       0.50215178       0.63316449 </v>
   <v>       0.26332042       0.01897870       0.38318128 </v>
   <v>       0.25179254       0.99949956       0.87277628 </v>
   <v>       0.24372533       0.49404718       0.37072640 </v>
   <v>       0.24741577       0.49870975       0.87820028 </v>
   <v>       0.74509405       0.00184456       0.38278277 </v>
   <v>       0.74618426       0.99967395       0.87293751 </v>
   <v>       0.75611414       0.50618326       0.38135625 </v>
   <v>       0.75858729       0.49680958       0.87622264 </v>
   <v>       0.00008074       0.00030097       0.99945100 </v>
   <v>       0.99951944       0.00098052       0.50271923 </v>
   <v>       0.00313079       0.50181347       0.00550369 </v>
   <v>       0.00076149       0.50115773       0.50097665 </v>
   <v>       0.49589373       0.99736650       0.99895295 </v>
   <v>       0.50048611       0.00364906       0.50303180 </v>
   <v>       0.50878019       0.50878549       0.49702977 </v>
   <v>       0.24910945       0.75072123       0.50530979 </v>
   <v>       0.75069145       0.24991993       0.49864333 </v>
   <v>       0.74708587       0.74709034       0.99566123 </v>
   <v>       0.75309790       0.75416167       0.50382391 </v>
   <v>       0.25121538       0.25154801       0.75251982 </v>
   <v>       0.27107426       0.76222465       0.25868659 </v>
   <v>       0.74919276       0.25030656       0.75343135 </v>
   <v>       0.01948071       0.97452576       0.24701004 </v>
   <v>       0.00139036       0.99893061       0.74978296 </v>
   <v>       0.00277940       0.50347202       0.75467847 </v>
   <v>       0.50904176       0.01237021       0.24875606 </v>
   <v>       0.50642730       0.50005070       0.24872017 </v>
   <v>       0.49599464       0.49785256       0.73812881 </v>
   <v>       0.49846746       0.49892667       0.00536185 </v>
   <v>       0.24988567       0.24793866       0.99772145 </v>
   <v>       0.24277227       0.24344361       0.50256931 </v>
   <v>       0.24782216       0.74919437       0.99209670 </v>
   <v>       0.74938152       0.24963503       0.99857927 </v>
   <v>       0.25949386       0.24947813       0.24810682 </v>
   <v>       0.24956814       0.75211893       0.75265570 </v>
   <v>       0.74069968       0.26670909       0.24857018 </v>
   <v>       0.73910951       0.76565683       0.24907495 </v>
   <v>       0.74801877       0.75095609       0.75184182 </v>
   <v>       0.99995845       0.45829720       0.24803799 </v>
   <v>       0.49949813       0.99739981       0.75201042 </v>
   <v>       0.12230590       0.11363651       0.25447203 </v>
   <v>       0.12005500       0.13538095       0.73696677 </v>
   <v>       0.11640337       0.63310732       0.74409006 </v>
   <v>       0.61511569       0.14675257       0.25153395 </v>
   <v>       0.62116441       0.13252214       0.74968118 </v>
   <v>       0.59269532       0.65075401       0.25721050 </v>
   <v>       0.61151326       0.62479528       0.75397417 </v>
   <v>       0.40216589       0.36316454       0.24581997 </v>
   <v>       0.38718491       0.37207338       0.77302766 </v>
   <v>       0.40211555       0.85656604       0.24585958 </v>
   <v>       0.37922065       0.86753367       0.74890183 </v>
   <v>       0.90205062       0.32332512       0.25326023 </v>
   <v>       0.88450372       0.37140822       0.75298140 </v>
   <v>       0.90294946       0.83731157       0.25181545 </v>
   <v>       0.88427705       0.87137663       0.74969724 </v>
   <v>       0.36837166       0.10912445       0.25760468 </v>
   <v>       0.36795526       0.12312607       0.75003447 </v>
   <v>       0.32340918       0.61240374       0.22959313 </v>
   <v>       0.37039769       0.61225782       0.76079620 </v>
   <v>       0.87091496       0.12102426       0.74807284 </v>
   <v>       0.87020129       0.61736308       0.75324858 </v>
   <v>       0.14778398       0.38533368       0.24732005 </v>
   <v>       0.13431220       0.38618864       0.74734354 </v>
   <v>       0.14133200       0.85591087       0.21733783 </v>
   <v>       0.13052199       0.88666857       0.74337278 </v>
   <v>       0.65487038       0.41409702       0.25507373 </v>
   <v>       0.62920425       0.38590756       0.75595110 </v>
   <v>       0.65287362       0.90727638       0.24776162 </v>
   <v>       0.63138799       0.88062179       0.74636876 </v>
   <v>       0.37517813       0.37772387       0.98702811 </v>
   <v>       0.36860270       0.87101086       0.01749567 </v>
   <v>       0.36571637       0.88169836       0.49653711 </v>
   <v>       0.87620372       0.38245121       0.00173800 </v>
   <v>       0.86374504       0.38958346       0.49200201 </v>
   <v>       0.86934241       0.87823509       0.00339095 </v>
   <v>       0.86323129       0.88617616       0.49865452 </v>
   <v>       0.12309438       0.12002290       0.00907198 </v>
   <v>       0.13398265       0.11360084       0.49890691 </v>
   <v>       0.13268454       0.62345126       0.02383074 </v>
   <v>       0.13086398       0.61893993       0.49606582 </v>
   <v>       0.62502757       0.11787648       0.99585256 </v>
   <v>       0.63971573       0.11231629       0.50541058 </v>
   <v>       0.62723923       0.61806115       0.98584105 </v>
   <v>       0.63477562       0.61132430       0.50084902 </v>
   <v>       0.11938598       0.37489545       0.00999095 </v>
   <v>       0.11819262       0.37431839       0.49180635 </v>
   <v>       0.11791925       0.87392059       0.01873971 </v>
   <v>       0.11383926       0.86661719       0.49746210 </v>
   <v>       0.62044833       0.37527115       0.99025803 </v>
   <v>       0.60092891       0.36165669       0.49378759 </v>
   <v>       0.62058991       0.86791671       0.00744914 </v>
   <v>       0.61627373       0.86256773       0.50087060 </v>
   <v>       0.37535163       0.12139028       0.99349285 </v>
   <v>       0.38982458       0.13842910       0.49909380 </v>
   <v>       0.37981337       0.62624933       0.99099439 </v>
   <v>       0.37739439       0.62325856       0.50008126 </v>
   <v>       0.87834205       0.12650749       0.99607860 </v>
   <v>       0.88794327       0.13904533       0.50168954 </v>
   <v>       0.87990807       0.62969007       0.99402681 </v>
   <v>       0.88385251       0.63533646       0.50181235 </v>
   <v>       0.96544095       0.01791749       0.13912279 </v>
   <v>       0.99508729       0.99782476       0.62211904 </v>
   <v>       0.97599340       0.52016969       0.13920693 </v>
   <v>       0.99782337       0.49688529       0.62219642 </v>
   <v>       0.50047752       0.01160048       0.12655327 </v>
   <v>       0.49657782       0.99900873       0.62366445 </v>
   <v>       0.50622885       0.50541863       0.12611323 </v>
   <v>       0.47868583       0.48056370       0.62022608 </v>
   <v>       0.98490921       0.00109837       0.36823306 </v>
   <v>       0.01064193       0.99856004       0.87572665 </v>
   <v>       0.99021945       0.52878017       0.35653387 </v>
   <v>       0.01415367       0.50585580       0.87918736 </v>
   <v>       0.50606903       0.99665073       0.37599906 </v>
   <v>       0.49713432       0.98688083       0.87737691 </v>
   <v>       0.47851054       0.49760474       0.37680374 </v>
   <v>       0.26557828       0.26401952       0.38107818 </v>
   <v>       0.22969582       0.24298217       0.87338066 </v>
   <v>       0.24440470       0.74923502       0.37165147 </v>
   <v>       0.23045624       0.75879638       0.87570197 </v>
   <v>       0.75225344       0.23875676       0.37477000 </v>
   <v>       0.75479959       0.25054803       0.87327929 </v>
   <v>       0.75203954       0.73969313       0.37439976 </v>
   <v>       0.74977493       0.75961671       0.87539131 </v>
   <v>       0.26391051       0.24550065       0.12451720 </v>
   <v>       0.26987668       0.27696269       0.62069061 </v>
   <v>       0.25201593       0.74790667       0.62327442 </v>
   <v>       0.74848199       0.24804034       0.12649991 </v>
   <v>       0.75054738       0.26395263       0.62358200 </v>
   <v>       0.74893955       0.72695162       0.12821138 </v>
   <v>       0.74937795       0.74423227       0.62444474 </v>
  </varray>
 </structure>
 <calculation>
  <scstep>
   <time name="dav">  599.56  599.62</time>
   <time name="total">  606.81  606.94</time>
   <energy>
    <i name="alphaZ">   5597.02949626 </i>
    <i name="ewald"> -61170.45281731 </i>
    <i name="hartreedc"> -17346.74030805 </i>
    <i name="XCdc">   3073.52226028 </i>
    <i name="pawpsdc"> 113943.74085794 </i>
    <i name="pawaedc">-112994.69214317 </i>
    <i name="eentropy">     -0.00000000 </i>
    <i name="bandstr">  -7106.15342382 </i>
    <i name="atom">  74916.81196153 </i>
    <i name="e_fr_energy">  -1086.93411635 </i>
    <i name="e_wo_entrp">  -1086.93411635 </i>
    <i name="e_0_energy">  -1086.93411635 </i>
   </energy>
  </scstep>
  <scstep>
   <time name="diag">   64.81   64.81</time>
   <time name="diis">   63.38   63.39</time>
   <time name="orth">   33.52   33.52</time>
   <time name="total">  168.90  168.93</time>
   <energy>
    <i name="e_fr_energy">  -1086.93411553 </i>
    <i name="e_wo_entrp">  -1086.93411553 </i>
    <i name="e_0_energy">  -1086.93411553 </i>
   </energy>
  </scstep>
  <scstep>
   <time name="diag">   64.82   64.82</time>
   <time name="diis">   59.88   59.89</time>
   <time name="orth">   33.47   33.48</time>
   <time name="total">  165.39  165.43</time>
   <energy>
    <i name="e_fr_energy">  -1086.93411501 </i>
    <i name="e_wo_entrp">  -1086.93411501 </i>
    <i name="e_0_energy">  -1086.93411501 </i>
   </energy>
  </scstep>
  <scstep>
   <time name="diag">   64.79   64.80</time>
   <time name="diis">   54.12   54.12</time>
   <time name="orth">   33.50   33.50</time>
   <time name="total">  159.61  159.65</time>
   <energy>
    <i name="e_fr_energy">  -1086.93411503 </i>
    <i name="e_wo_entrp">  -1086.93411503 </i>
    <i name="e_0_energy">  -1086.93411503 </i>
   </energy>
  </scstep>
  <scstep>
   <time name="diag">   64.82   64.84</time>
   <time name="diis">   53.09   53.10</time>
   <time name="orth">   33.45   33.47</time>
   <time name="total">  158.58  158.66</time>
   <energy>
    <i name="e_fr_energy">  -1086.93411500 </i>
    <i name="e_wo_entrp">  -1086.93411500 </i>
    <i name="e_0_energy">  -1086.93411500 </i>
   </energy>
  </scstep>
  <scstep>
   <time name="diag">   64.78   64.78</time>
   <time name="diis">   47.13   47.13</time>
   <time name="orth">   33.51   33.51</time>
   <time name="total">  152.63  152.66</time>
   <energy>
    <i name="e_fr_energy">  -1086.93411490 </i>
    <i name="e_wo_entrp">  -1086.93411490 </i>
    <i name="e_0_energy">  -1086.93411490 </i>
   </energy>
  </scstep>
  <scstep>
   <time name="diag">   64.84   64.85</time>
   <time name="diis">   45.93   45.93</time>
   <time name="orth">   33.48   33.51</time>
   <time name="total">  151.54  151.65</time>
   <energy>
    <i name="e_fr_energy">  -1086.93411480 </i>
    <i name="e_wo_entrp">  -1086.93411480 </i>
    <i name="e_0_energy">  -1086.93411480 </i>
   </energy>
  </scstep>
  <scstep>
   <time name="diag">   64.86   64.91</time>
   <time name="diis">   43.20   43.22</time>
   <time name="orth">   33.49   33.49</time>
   <time name="total">  142.60  142.75</time>
   <energy>
    <i name="alphaZ">   5597.02949626 </i>
    <i name="ewald"> -61170.45281731 </i>
    <i name="hartreedc"> -17346.72068201 </i>
    <i name="XCdc">   3073.51978093 </i>
    <i name="pawpsdc"> 113942.72507679 </i>
    <i name="pawaedc">-112993.69201471 </i>
    <i name="eentropy">     -0.00000000 </i>
    <i name="bandstr">  -7106.15491620 </i>
    <i name="atom">  74916.81196153 </i>
    <i name="e_fr_energy">  -1086.93411473 </i>
    <i name="e_wo_entrp">  -1086.93411473 </i>
    <i name="e_0_energy">  -1086.93411473 </i>
   </energy>
  </scstep>
  <structure>
   <crystal>
    <varray name="basis" >
     <v>      11.25724321      -0.01368917       0.00064185 </v>
     <v>      -0.01370754      11.25914727       0.00692800 </v>
     <v>       0.00094592       0.00991915      15.89220167 </v>
    </varray>
    <i name="volume">   2014.28447345 </i>
    <varray name="rec_basis" >
     <v>       0.08883183       0.00010815      -0.00000535 </v>
     <v>       0.00010801       0.08881684      -0.00005544 </v>
     <v>      -0.00000363      -0.00003872       0.06292397 </v>
    </varray>
   </crystal>
   <varray name="positions" >
    <v>       0.99911455       0.24187769       0.11640191 </v>
    <v>       0.99646459       0.25305644       0.63079815 </v>
    <v>       0.98287071       0.74923811       0.11346979 </v>
    <v>       0.99831874       0.75250892       0.63276831 </v>
    <v>       0.50058344       0.24814033       0.11384730 </v>
    <v>       0.50273395       0.23879531       0.63031945 </v>
    <v>       0.51045853       0.74382764       0.11639873 </v>
    <v>       0.50220829       0.76454174       0.63465128 </v>
    <v>       0.00846497       0.23810701       0.37921742 </v>
    <v>       0.99779782       0.24996817       0.87886046 </v>
    <v>       0.98962180       0.75235143       0.38741049 </v>
    <v>       0.99664098       0.75218593       0.87170313 </v>
    <v>       0.49915233       0.24808285       0.37136566 </v>
    <v>       0.50263050       0.24021424       0.87890878 </v>
    <v>       0.51006994       0.75935778       0.38193626 </v>
    <v>       0.49938648       0.75571348       0.87144108 </v>
    <v>       0.25866009       0.01644288       0.11793502 </v>
    <v>       0.25470046       0.99774930       0.63314255 </v>
    <v>       0.25993893       0.47597238       0.11474544 </v>
    <v>       0.23863912       0.50817550       0.63166274 </v>
    <v>       0.74164290       0.00746072       0.11105615 </v>
    <v>       0.74817940       0.99898549       0.63365446 </v>
    <v>       0.74467283       0.49379727       0.10809730 </v>
    <v>       0.76213129       0.50215178       0.63316449 </v>
    <v>       0.26332042       0.01897870       0.38318128 </v>
    <v>       0.25179254       0.99949956       0.87277628 </v>
    <v>       0.24372533       0.49404718       0.37072640 </v>
    <v>       0.24741577       0.49870975       0.87820028 </v>
    <v>       0.74509405       0.00184456       0.38278277 </v>
    <v>       0.74618426       0.99967395       0.87293751 </v>
    <v>       0.75611414       0.50618326       0.38135625 </v>
    <v>       0.75858729       0.49680958       0.87622264 </v>
    <v>       0.00008074       0.00030097       0.99945100 </v>
    <v>       0.99951944       0.00098052       0.50271923 </v>
    <v>       0.00313079       0.50181347       0.00550369 </v>
    <v>       0.00076149       0.50115773       0.50097665 </v>
    <v>       0.49589373       0.99736650       0.99895295 </v>
    <v>       0.50048611       0.00364906       0.50303180 </v>
    <v>       0.50878019       0.50878549       0.49702977 </v>
    <v>       0.24910945       0.75072123       0.50530979 </v>
    <v>       0.75069145       0.24991993       0.49864333 </v>
    <v>       0.74708587       0.74709034       0.99566123 </v>
    <v>       0.75309790       0.75416167       0.50382391 </v>
    <v>       0.25121538       0.25154801       0.75251982 </v>
    <v>       0.27107426       0.76222465       0.25868659 </v>
    <v>       0.74919276       0.25030656       0.75343135 </v>
    <v>       0.01948071       0.97452576       0.24701004 </v>
    <v>       0.00139036       0.99893061       0.74978296 </v>
    <v>       0.00277940       0.50347202       0.75467847 </v>
    <v>       0.50904176       0.01237021       0.24875606 </v>
    <v>       0.50642730       0.50005070       0.24872017 </v>
    <v>       0.49599464       0.49785256       0.73812881 </v>
    <v>       0.49846746       0.49892667       0.00536185 </v>
    <v>       0.24988567       0.24793866       0.99772145 </v>
    <v>       0.24277227       0.24344361       0.50256931 </v>
    <v>       0.24782216       0.74919437       0.99209670 </v>
    <v>       0.74938152       0.24963503       0.99857927 </v>
    <v>       0.25949386       0.24947813       0.24810682 </v>
    <v>       0.24956814       0.75211893       0.75265570 </v>
    <v>       0.74069968       0.26670909       0.24857018 </v>
    <v>       0.73910951       0.76565683       0.24907495 </v>
    <v>       0.74801877       0.75095609       0.75184182 </v>
    <v>       0.99995845       0.45829720       0.24803799 </v>
    <v>       0.49949813       0.99739981       0.75201042 </v>
    <v>       0.12230590       0.11363651       0.25447203 </v>
    <v>       0.12005500       0.13538095       0.73696677 </v>
    <v>       0.11640337       0.63310732       0.74409006 </v>
    <v>       0.61511569       0.14675257       0.25153395 </v>
    <v>       0.62116441       0.13252214       0.74968118 </v>
    <v>       0.59269532       0.65075401       0.25721050 </v>
    <v>       0.61151326       0.62479528       0.75397417 </v>
    <v>       0.40216589       0.36316454       0.24581997 </v>
    <v>       0.38718491       0.37207338       0.77302766 </v>
    <v>       0.40211555       0.85656604       0.24585958 </v>
    <v>       0.37922065       0.86753367       0.74890183 </v>
    <v>       0.90205062       0.32332512       0.25326023 </v>
    <v>       0.88450372       0.37140822       0.75298140 </v>
    <v>       0.90294946       0.83731157       0.25181545 </v>
    <v>       0.88427705       0.87137663       0.74969724 </v>
    <v>       0.36837166       0.10912445       0.25760468 </v>
    <v>       0.36795526       0.12312607       0.75003447 </v>
    <v>       0.32340918       0.61240374       0.22959313 </v>
    <v>       0.37039769       0.61225782       0.76079620 </v>
    <v>       0.87091496       0.12102426       0.74807284 </v>
    <v>       0.87020129       0.61736308       0.75324858 </v>
    <v>       0.14778398       0.38533368       0.24732005 </v>
    <v>       0.13431220       0.38618864       0.74734354 </v>
    <v>       0.14133200       0.85591087       0.21733783 </v>
    <v>       0.13052199       0.88666857       0.74337278 </v>
    <v>       0.65487038       0.41409702       0.25507373 </v>
    <v>       0.62920425       0.38590756       0.75595110 </v>
    <v>       0.65287362       0.90727638       0.24776162 </v>
    <v>       0.63138799       0.88062179       0.74636876 </v>
    <v>       0.37517813       0.37772387       0.98702811 </v>
    <v>       0.36860270       0.87101086       0.01749567 </v>
    <v>       0.36571637       0.88169836       0.49653711 </v>
    <v>       0.87620372       0.38245121       0.00173800 </v>
    <v>       0.86374504       0.38958346       0.49200201 </v>
    <v>       0.86934241       0.87823509       0.00339095 </v>
    <v>       0.86323129       0.88617616       0.49865452 </v>
    <v>       0.12309438       0.12002290       0.00907198 </v>
    <v>       0.13398265       0.11360084       0.49890691 </v>
    <v>       0.13268454       0.62345126       0.02383074 </v>
    <v>       0.13086398       0.61893993       0.49606582 </v>
    <v>       0.62502757       0.11787648       0.99585256 </v>
    <v>       0.63971573       0.11231629       0.50541058 </v>
    <v>       0.62723923       0.61806115       0.98584105 </v>
    <v>       0.63477562       0.61132430       0.50084902 </v>
    <v>       0.11938598       0.37489545       0.00999095 </v>
    <v>       0.11819262       0.37431839       0.49180635 </v>
    <v>       0.11791925       0.87392059       0.01873971 </v>
    <v>       0.11383926       0.86661719       0.49746210 </v>
    <v>       0.62044833       0.37527115       0.99025803 </v>
    <v>       0.60092891       0.36165669       0.49378759 </v>
    <v>       0.62058991       0.86791671       0.00744914 </v>
    <v>       0.61627373       0.86256773       0.50087060 </v>
    <v>       0.37535163       0.12139028       0.99349285 </v>
    <v>       0.38982458       0.13842910       0.49909380 </v>
    <v>       0.37981337       0.62624933       0.99099439 </v>
    <v>       0.37739439       0.62325856       0.50008126 </v>
    <v>       0.87834205       0.12650749       0.99607860 </v>
    <v>       0.88794327       0.13904533       0.50168954 </v>
    <v>       0.87990807       0.62969007       0.99402681 </v>
    <v>       0.88385251       0.63533646       0.50181235 </v>
    <v>       0.96544095       0.01791749       0.13912279 </v>
    <v>       0.99508729       0.99782476       0.62211904 </v>
    <v>       0.97599340       0.52016969       0.13920693 </v>
    <v>       0.99782337       0.49688529       0.62219642 </v>
    <v>       0.50047752       0.01160048       0.12655327 </v>
    <v>       0.49657782       0.99900873       0.62366445 </v>
    <v>       0.50622885       0.50541863       0.12611323 </v>
    <v>       0.47868583       0.48056370       0.62022608 </v>
    <v>       0.98490921       0.00109837       0.36823306 </v>
    <v>       0.01064193       0.99856004       0.87572665 </v>
    <v>       0.99021945       0.52878017       0.35653387 </v>
    <v>       0.01415367       0.50585580       0.87918736 </v>
    <v>       0.50606903       0.99665073       0.37599906 </v>
    <v>       0.49713432       0.98688083       0.87737691 </v>
    <v>       0.47851054       0.49760474       0.37680374 </v>
    <v>       0.26557828       0.26401952       0.38107818 </v>
    <v>       0.22969582       0.24298217       0.87338066 </v>
    <v>       0.24440470       0.74923502       0.37165147 </v>
    <v>       0.23045624       0.75879638       0.87570197 </v>
    <v>       0.75225344       0.23875676       0.37477000 </v>
    <v>       0.75479959       0.25054803       0.87327929 </v>
    <v>       0.75203954       0.73969313       0.37439976 </v>
    <v>       0.74977493       0.75961671       0.87539131 </v>
    <v>       0.26391051       0.24550065       0.12451720 </v>
    <v>       0.26987668       0.27696269       0.62069061 </v>
    <v>       0.25201593       0.74790667       0.62327442 </v>
    <v>       0.74848199       0.24804034       0.12649991 </v>
    <v>       0.75054738       0.26395263       0.62358200 </v>
    <v>       0.74893955       0.72695162       0.12821138 </v>
    <v>       0.74937795       0.74423227       0.62444474 </v>
   </varray>
  </structure>
  <varray name="forces" >
   <v>      -0.00966738       0.01189512       0.00432403 </v>
   <v>      -0.00299385      -0.00289873      -0.00002745 </v>
   <v>       0.00951056       0.01152817       0.00343445 </v>
   <v>       0.00540159      -0.00440560      -0.00947701 </v>
   <v>       0.00461329       0.00371351       0.00789434 </v>
   <v>      -0.00356248       0.00177948      -0.00536021 </v>
   <v>       0.00492929       0.00356265       0.00039527 </v>
   <v>      -0.00978067       0.00178284      -0.00092242 </v>
   <v>      -0.00911316       0.00471191      -0.01210643 </v>
   <v>       0.00391793      -0.00303178       0.00010588 </v>
   <v>       0.01639941       0.00160719      -0.00689223 </v>
   <v>      -0.00728692       0.00293762      -0.01154189 </v>
   <v>       0.00266535      -0.00533370      -0.01011195 </v>
   <v>      -0.00617602       0.00319147      -0.00829822 </v>
   <v>      -0.00157814      -0.00365884      -0.00301046 </v>
   <v>      -0.00027680      -0.00143987      -0.00324284 </v>
   <v>      -0.00318042      -0.01028151       0.01338544 </v>
   <v>      -0.00299108      -0.00370991      -0.00558072 </v>
   <v>      -0.00724452       0.00867805       0.01004564 </v>
   <v>       0.00085296      -0.00374510      -0.00793629 </v>
   <v>      -0.00082803       0.00509154       0.00600606 </v>
   <v>      -0.00215365      -0.00488031      -0.00433587 </v>
   <v>       0.00827628      -0.00417199       0.01138671 </v>
   <v>      -0.00347213      -0.00409041      -0.00034208 </v>
   <v>       0.00898380      -0.01227274      -0.00583646 </v>
   <v>       0.00407194      -0.00101384       0.00186523 </v>
   <v>      -0.00043418       0.00566222      -0.00641101 </v>
   <v>       0.01144573      -0.00359931      -0.00298005 </v>
   <v>      -0.00105015      -0.00136802      -0.00180129 </v>
   <v>      -0.00341602      -0.00172454       0.00253032 </v>
   <v>       0.00295750      -0.00328199      -0.00727355 </v>
   <v>      -0.00802936       0.00226218      -0.00122075 </v>
   <v>      -0.00303085       0.01347197       0.00783941 </v>
   <v>      -0.01134838      -0.00159105       0.00805156 </v>
   <v>      -0.01156709      -0.00602238       0.00995593 </v>
   <v>      -0.00694469       0.00563741       0.00998378 </v>
   <v>       0.03211472      -0.01976054       0.01116586 </v>
   <v>       0.00033138      -0.00660978       0.02869058 </v>
   <v>      -0.01631710      -0.03222807       0.01795651 </v>
   <v>       0.01110476       0.00419860       0.02031465 </v>
   <v>      -0.00719403       0.00151317      -0.00774200 </v>
   <v>      -0.00382590       0.01533927      -0.00256244 </v>
   <v>      -0.00542577      -0.00024227       0.00869821 </v>
   <v>       0.01960719       0.00151099      -0.01080797 </v>
   <v>      -0.01484927       0.00319474       0.01679058 </v>
   <v>      -0.01042176       0.00740605      -0.00593455 </v>
   <v>      -0.01843975       0.00056165      -0.02575939 </v>
   <v>      -0.00080117      -0.01277392      -0.01884894 </v>
   <v>      -0.01859736       0.00135390      -0.00765766 </v>
   <v>       0.00538464       0.00563010      -0.00421483 </v>
   <v>       0.01688563       0.01415721      -0.00548779 </v>
   <v>       0.00383020      -0.01626888      -0.00995119 </v>
   <v>       0.00633528       0.00084314       0.00415489 </v>
   <v>       0.00182746       0.00844955       0.00404587 </v>
   <v>       0.01125377       0.00516460      -0.00124426 </v>
   <v>       0.00799388       0.00357729      -0.00734122 </v>
   <v>       0.00010185       0.00671843       0.00768798 </v>
   <v>      -0.00729216       0.00987961       0.00094265 </v>
   <v>      -0.00762896      -0.00064283      -0.00470939 </v>
   <v>       0.00903348       0.01661129       0.00755836 </v>
   <v>       0.00604159      -0.00157488       0.00382060 </v>
   <v>      -0.00362609       0.00118469       0.00551870 </v>
   <v>       0.01543560       0.00152961      -0.00711895 </v>
   <v>      -0.00160285      -0.00995172      -0.01514602 </v>
   <v>       0.01977831      -0.00878761       0.01581659 </v>
   <v>       0.00402039      -0.00509789       0.00298008 </v>
   <v>       0.00069508      -0.00299761      -0.00443289 </v>
   <v>      -0.01176781      -0.01352104      -0.00224340 </v>
   <v>      -0.00157563      -0.00612789      -0.00443656 </v>
   <v>       0.01453994      -0.00526189      -0.00891950 </v>
   <v>      -0.00826899       0.00214892       0.00521822 </v>
   <v>      -0.00811733       0.00134698       0.00059805 </v>
   <v>      -0.01145742       0.00114029      -0.00699917 </v>
   <v>      -0.00816164      -0.00918778       0.00302178 </v>
   <v>       0.00020853      -0.00361715       0.01499618 </v>
   <v>      -0.00900645       0.00512225       0.00245157 </v>
   <v>       0.00619921       0.00617690      -0.00884185 </v>
   <v>       0.00913445       0.00689368       0.00061612 </v>
   <v>      -0.00188086       0.00509418      -0.00378679 </v>
   <v>       0.00487285       0.01040530       0.00087491 </v>
   <v>       0.00233054       0.00313094       0.00149565 </v>
   <v>       0.02442691       0.00482609      -0.00465049 </v>
   <v>      -0.00071948       0.00473970       0.00772167 </v>
   <v>      -0.00356483       0.00717137       0.00663684 </v>
   <v>       0.00615736      -0.00344295       0.00589321 </v>
   <v>       0.01342850      -0.01423195       0.00852362 </v>
   <v>      -0.01157811      -0.00910738       0.00016714 </v>
   <v>       0.01559666      -0.00099494      -0.00118479 </v>
   <v>       0.00261586      -0.01161132       0.00559660 </v>
   <v>      -0.00561677       0.00195632      -0.01482465 </v>
   <v>      -0.00714827      -0.00117304       0.00273599 </v>
   <v>      -0.01473361       0.01968144       0.00183487 </v>
   <v>      -0.00213187       0.00247979      -0.00133157 </v>
   <v>       0.00349095      -0.00194238       0.00195576 </v>
   <v>      -0.00594171       0.00842052      -0.00541905 </v>
   <v>      -0.00814539      -0.01876116      -0.01016632 </v>
   <v>       0.00795727       0.00218109      -0.00337656 </v>
   <v>       0.00755378       0.00633523       0.00373780 </v>
   <v>      -0.00465897       0.00153365       0.00421386 </v>
   <v>       0.00734420       0.00874610       0.00946001 </v>
   <v>       0.00207187      -0.00164264      -0.00945214 </v>
   <v>       0.00053655      -0.00053610       0.00469704 </v>
   <v>      -0.00263230      -0.00515095      -0.01127833 </v>
   <v>      -0.00928458      -0.01667847       0.00747534 </v>
   <v>      -0.00615258       0.00355182      -0.00017019 </v>
   <v>      -0.00105393       0.00237827      -0.00093667 </v>
   <v>       0.00725427       0.00774685      -0.00276906 </v>
   <v>       0.02684463       0.02969229       0.00335545 </v>
   <v>      -0.00269461      -0.00455871       0.00235058 </v>
   <v>       0.00605570       0.00496090       0.01537541 </v>
   <v>      -0.00028115      -0.00253891      -0.00202169 </v>
   <v>       0.00601252       0.00395472       0.00005464 </v>
   <v>      -0.00780141       0.00434672      -0.00472661 </v>
   <v>      -0.01624654       0.00849486       0.01426823 </v>
   <v>      -0.00044643       0.00359850       0.00183020 </v>
   <v>       0.00628552       0.00167008       0.01345636 </v>
   <v>      -0.00337477       0.01562788      -0.00833031 </v>
   <v>      -0.00671394       0.00035226      -0.00083927 </v>
   <v>      -0.00101316      -0.00082474      -0.00484462 </v>
   <v>      -0.01386021      -0.01336547      -0.00566583 </v>
   <v>       0.01045456      -0.00292305       0.00544282 </v>
   <v>       0.00472714      -0.00694762      -0.00563671 </v>
   <v>       0.00350128       0.00760352      -0.00422499 </v>
   <v>       0.00348875      -0.02135294      -0.00610019 </v>
   <v>       0.01883786      -0.01736996       0.03071720 </v>
   <v>      -0.00465453       0.00836570      -0.02040027 </v>
   <v>      -0.00304235      -0.01118671      -0.00993147 </v>
   <v>      -0.00611776      -0.00254117      -0.00362150 </v>
   <v>      -0.00366759      -0.00194804      -0.00133672 </v>
   <v>      -0.01739929      -0.01140057      -0.00936068 </v>
   <v>      -0.00687410       0.00756233       0.02394235 </v>
   <v>      -0.00898549       0.01496589      -0.03216807 </v>
   <v>       0.00583702      -0.00274619       0.00417828 </v>
   <v>      -0.00512025       0.00288184       0.00382435 </v>
   <v>      -0.00637873       0.00115222       0.02015824 </v>
   <v>      -0.00332668      -0.01497966       0.00465832 </v>
   <v>       0.01816064       0.00666902       0.00086361 </v>
   <v>       0.00490088       0.00225113       0.00232307 </v>
   <v>       0.01619155       0.00010360      -0.01103830 </v>
   <v>       0.00473786       0.00319250       0.00358917 </v>
   <v>      -0.00598272       0.00098529       0.00792356 </v>
   <v>      -0.02183396      -0.00604924       0.00318133 </v>
   <v>      -0.00031142      -0.00680180      -0.01697396 </v>
   <v>      -0.01000598       0.00431878       0.01414391 </v>
   <v>      -0.01457101      -0.00499954       0.00566321 </v>
   <v>       0.00158297      -0.00234750      -0.00682405 </v>
   <v>      -0.00457582       0.00424014       0.00890867 </v>
   <v>      -0.00071592       0.00076190       0.00225301 </v>
   <v>      -0.00479974      -0.01101888      -0.01226889 </v>
   <v>      -0.00023522      -0.00298109      -0.01811067 </v>
   <v>       0.00424621       0.00512569      -0.00190548 </v>
   <v>       0.00608787      -0.00897311       0.00155205 </v>
   <v>       0.00826948       0.01435501       0.00039820 </v>
   <v>       0.00903450       0.00352385      -0.00689464 </v>
  </varray>
  <varray name="stress" >
   <v>      -0.15767170      -0.00189600      -0.04541409 </v>
   <v>      -0.00189565      -0.15242544       0.00035444 </v>
   <v>      -0.04541471       0.00035436      -0.01205502 </v>
  </varray>
  <energy>
   <i name="e_fr_energy">  -1086.93411473 </i>
   <i name="e_wo_entrp">  -1086.93411473 </i>
   <i name="e_0_energy">     -0.00000000 </i>
  </energy>
  <time name="totalsc"> 1971.88 1973.97</time>
 </calculation>
 <calculation>
  <scstep>
   <time name="dav">  580.36  580.52</time>
   <time name="total">  587.58  587.79</time>
   <energy>
    <i name="alphaZ">   5597.73969648 </i>
    <i name="ewald"> -61174.56917001 </i>
    <i name="hartreedc"> -17345.97970016 </i>
    <i name="XCdc">   3073.68259838 </i>
    <i name="pawpsdc"> 113942.72044880 </i>
    <i name="pawaedc">-112993.68748045 </i>
    <i name="eentropy">     -0.00000000 </i>
    <i name="bandstr">  -7103.65245947 </i>
    <i name="atom">  74916.81196153 </i>
    <i name="e_fr_energy">  -1086.93410490 </i>
    <i name="e_wo_entrp">  -1086.93410490 </i>
    <i name="e_0_energy">  -1086.93410490 </i>
   </energy>
  </scstep>
  <scstep>
   <time name="diag">   64.87   64.88</time>
   <time name="diis">  104.58  104.59</time>
   <time name="orth">   33.48   33.48</time>
   <time name="total">  210.09  210.15</time>
   <energy>
    <i name="e_fr_energy">  -1086.93497854 </i>
    <i name="e_wo_entrp">  -1086.93497854 </i>
    <i name="e_0_energy">  -1086.93497854 </i>
   </energy>
  </scstep>
  <scstep>
   <time name="diag">   65.00   65.00</time>
   <time name="diis">   93.64   93.66</time>
   <time name="orth">   33.47   33.47</time>
   <time name="total">  199.28  199.39</time>
   <energy>
    <i name="e_fr_energy">  -1086.93495436 </i>
    <i name="e_wo_entrp">  -1086.93495436 </i>
    <i name="e_0_energy">  -1086.93495436 </i>
   </energy>
  </scstep>
  <scstep>
   <time name="diag">   64.92   64.93</time>
   <time name="diis">   70.70   70.71</time>
   <time name="orth">   33.45   33.44</time>
   <time name="total">  176.26  176.34</time>
   <energy>
    <i name="e_fr_energy">  -1086.93489162 </i>
    <i name="e_wo_entrp">  -1086.93489162 </i>
    <i name="e_0_energy">  -1086.93489162 </i>
   </energy>
  </scstep>
  <scstep>
   <time name="diag">   64.92   64.94</time>
   <time name="diis">   65.06   65.06</time>
   <time name="orth">   33.43   33.45</time>
   <time name="total">  170.61  170.66</time>
   <energy>
    <i name="e_fr_energy">  -1086.93488218 </i>
    <i name="e_wo_entrp">  -1086.93488218 </i>
    <i name="e_0_energy">  -1086.93488218 </i>
   </energy>
  </scstep>
  <scstep>
   <time name="diag">   64.94   65.01</time>
   <time name="diis">   63.44   63.44</time>
   <time name="orth">   33.45   33.45</time>
   <time name="total">  169.01  169.15</time>
   <energy>
    <i name="e_fr_energy">  -1086.93488497 </i>
    <i name="e_wo_entrp">  -1086.93488497 </i>
    <i name="e_0_energy">  -1086.93488497 </i>
   </energy>
  </scstep>
  <scstep>
   <time name="diag">   65.06   65.06</time>
   <time name="diis">   62.64   62.65</time>
   <time name="orth">   33.52   33.52</time>
   <time name="total">  168.52  168.60</time>
   <energy>
    <i name="e_fr_energy">  -1086.93488741 </i>
    <i name="e_wo_entrp">  -1086.93488741 </i>
    <i name="e_0_energy">  -1086.93488741 </i>
   </energy>
  </scstep>
  <scstep>
   <time name="diag">   64.96   64.98</time>
   <time name="diis">   60.96   60.96</time>
   <time name="orth">   33.49   33.49</time>
   <time name="total">  160.46  160.54</time>
   <energy>
    <i name="alphaZ">   5597.73969648 </i>
    <i name="ewald"> -61174.56917001 </i>
    <i name="hartreedc"> -17344.07083097 </i>
    <i name="XCdc">   3073.55581871 </i>
    <i name="pawpsdc"> 113955.82976642 </i>
    <i name="pawaedc">-113006.83285580 </i>
    <i name="eentropy">     -0.00000000 </i>
    <i name="bandstr">  -7105.39927572 </i>
    <i name="atom">  74916.81196153 </i>
    <i name="e_fr_energy">  -1086.93488936 </i>
    <i name="e_wo_entrp">  -1086.93488936 </i>
    <i name="e_0_energy">  -1086.93488936 </i>
   </energy>
  </scstep>
  <structure>
   <crystal>
    <varray name="basis" >
     <v>      11.25654416      -0.01369676       0.00044050 </v>
     <v>      -0.01371522      11.25847138       0.00692979 </v>
     <v>       0.00066160       0.00992077      15.89212620 </v>
    </varray>
    <i name="volume">   2014.02891579 </i>
    <varray name="rec_basis" >
     <v>       0.08883734       0.00010823      -0.00000377 </v>
     <v>       0.00010808       0.08882217      -0.00005545 </v>
     <v>      -0.00000251      -0.00003873       0.06292427 </v>
    </varray>
   </crystal>
   <varray name="positions" >
    <v>       0.99907318       0.24192859       0.11641502 </v>
    <v>       0.99645175       0.25304400       0.63079807 </v>
    <v>       0.98291153       0.74928754       0.11348020 </v>
    <v>       0.99834187       0.75249010       0.63273955 </v>
    <v>       0.50060323       0.24815625       0.11387126 </v>
    <v>       0.50271869       0.23880293       0.63030317 </v>
    <v>       0.51047967       0.74384293       0.11639992 </v>
    <v>       0.50216638       0.76454933       0.63464848 </v>
    <v>       0.00842594       0.23812718       0.37918066 </v>
    <v>       0.99781460       0.24995520       0.87886079 </v>
    <v>       0.98969209       0.75235842       0.38738956 </v>
    <v>       0.99660977       0.75219851       0.87166808 </v>
    <v>       0.49916372       0.24806004       0.37133498 </v>
    <v>       0.50260405       0.24022791       0.87888359 </v>
    <v>       0.51006315       0.75934210       0.38192713 </v>
    <v>       0.49938529       0.75570732       0.87143124 </v>
    <v>       0.25864640       0.01639877       0.11797568 </v>
    <v>       0.25468762       0.99773340       0.63312562 </v>
    <v>       0.25990792       0.47600950       0.11477592 </v>
    <v>       0.23864276       0.50815948       0.63163865 </v>
    <v>       0.74163938       0.00748251       0.11107438 </v>
    <v>       0.74817015       0.99896458       0.63364130 </v>
    <v>       0.74470827       0.49377940       0.10813187 </v>
    <v>       0.76211639       0.50213424       0.63316346 </v>
    <v>       0.26335886       0.01892618       0.38316359 </v>
    <v>       0.25180998       0.99949523       0.87278194 </v>
    <v>       0.24372350       0.49407146       0.37070693 </v>
    <v>       0.24746481       0.49869439       0.87819124 </v>
    <v>       0.74508954       0.00183870       0.38277731 </v>
    <v>       0.74616961       0.99966654       0.87294519 </v>
    <v>       0.75612680       0.50616923       0.38133418 </v>
    <v>       0.75855289       0.49681924       0.87621893 </v>
    <v>       0.00006782       0.00035866       0.99947477 </v>
    <v>       0.99947080       0.00097363       0.50274368 </v>
    <v>       0.00308119       0.50178758       0.00553392 </v>
    <v>       0.00073176       0.50118182       0.50100695 </v>
    <v>       0.49603125       0.99728197       0.99898687 </v>
    <v>       0.50048749       0.00362066       0.50311890 </v>
    <v>       0.50871009       0.50864727       0.49708434 </v>
    <v>       0.24915706       0.75073923       0.50537144 </v>
    <v>       0.75066063       0.24992640       0.49861983 </v>
    <v>       0.74706955       0.74715606       0.99565342 </v>
    <v>       0.75307464       0.75416058       0.50385031 </v>
    <v>       0.25129942       0.25155462       0.75248701 </v>
    <v>       0.27101064       0.76223822       0.25873756 </v>
    <v>       0.74914814       0.25033825       0.75341333 </v>
    <v>       0.01940170       0.97452814       0.24693185 </v>
    <v>       0.00138687       0.99887592       0.74972577 </v>
    <v>       0.00269971       0.50347775       0.75465522 </v>
    <v>       0.50906487       0.01239437       0.24874325 </v>
    <v>       0.50649973       0.50011146       0.24870349 </v>
    <v>       0.49601097       0.49778290       0.73809863 </v>
    <v>       0.49849461       0.49893031       0.00537446 </v>
    <v>       0.24989354       0.24797486       0.99773372 </v>
    <v>       0.24282053       0.24346580       0.50256552 </v>
    <v>       0.24785643       0.74920976       0.99207441 </v>
    <v>       0.74938199       0.24966379       0.99860259 </v>
    <v>       0.25946266       0.24952042       0.24810966 </v>
    <v>       0.24953545       0.75211615       0.75264140 </v>
    <v>       0.74073848       0.26678029       0.24859310 </v>
    <v>       0.73913539       0.76565010       0.24908655 </v>
    <v>       0.74800324       0.75096113       0.75185857 </v>
    <v>       0.00002461       0.45830386       0.24801637 </v>
    <v>       0.49949121       0.99735720       0.75196446 </v>
    <v>       0.12239061       0.11359892       0.25452006 </v>
    <v>       0.12007220       0.13535912       0.73697583 </v>
    <v>       0.11640633       0.63309450       0.74407661 </v>
    <v>       0.61506519       0.14669458       0.25152717 </v>
    <v>       0.62115762       0.13249588       0.74966773 </v>
    <v>       0.59275761       0.65073156       0.25718343 </v>
    <v>       0.61147783       0.62480443       0.75399001 </v>
    <v>       0.40213111       0.36317027       0.24582178 </v>
    <v>       0.38713582       0.37207822       0.77300641 </v>
    <v>       0.40208052       0.85652663       0.24586877 </v>
    <v>       0.37922152       0.86751813       0.74894736 </v>
    <v>       0.90201205       0.32334702       0.25326766 </v>
    <v>       0.88453033       0.37143475       0.75295454 </v>
    <v>       0.90298864       0.83734116       0.25181731 </v>
    <v>       0.88426902       0.87139846       0.74968574 </v>
    <v>       0.36839260       0.10916906       0.25760731 </v>
    <v>       0.36796527       0.12313949       0.75003900 </v>
    <v>       0.32351389       0.61242456       0.22957900 </v>
    <v>       0.37039463       0.61227811       0.76081963 </v>
    <v>       0.87089972       0.12105495       0.74809297 </v>
    <v>       0.87022766       0.61734835       0.75326648 </v>
    <v>       0.14784146       0.38527274       0.24734594 </v>
    <v>       0.13426253       0.38614955       0.74734407 </v>
    <v>       0.14139883       0.85590669       0.21733423 </v>
    <v>       0.13053314       0.88661881       0.74338979 </v>
    <v>       0.65484632       0.41410542       0.25502872 </v>
    <v>       0.62917361       0.38590248       0.75595941 </v>
    <v>       0.65281058       0.90736063       0.24776716 </v>
    <v>       0.63137886       0.88063241       0.74636471 </v>
    <v>       0.37519308       0.37771556       0.98703405 </v>
    <v>       0.36857728       0.87104693       0.01747920 </v>
    <v>       0.36568137       0.88161796       0.49650629 </v>
    <v>       0.87623783       0.38246060       0.00172775 </v>
    <v>       0.86377745       0.38961063       0.49201334 </v>
    <v>       0.86932245       0.87824162       0.00340374 </v>
    <v>       0.86326281       0.88621364       0.49868322 </v>
    <v>       0.12310325       0.12001590       0.00904329 </v>
    <v>       0.13398494       0.11359854       0.49892117 </v>
    <v>       0.13267323       0.62342921       0.02379651 </v>
    <v>       0.13082410       0.61886840       0.49608855 </v>
    <v>       0.62500122       0.11789167       0.99585204 </v>
    <v>       0.63971123       0.11232648       0.50540773 </v>
    <v>       0.62727036       0.61809439       0.98583263 </v>
    <v>       0.63489082       0.61145165       0.50085915 </v>
    <v>       0.11937440       0.37487589       0.00999810 </v>
    <v>       0.11821860       0.37433964       0.49185302 </v>
    <v>       0.11791804       0.87390972       0.01873358 </v>
    <v>       0.11386505       0.86663417       0.49746225 </v>
    <v>       0.62041492       0.37528974       0.99024367 </v>
    <v>       0.60085932       0.36169296       0.49383089 </v>
    <v>       0.62058801       0.86793212       0.00745469 </v>
    <v>       0.61630067       0.86257488       0.50091145 </v>
    <v>       0.37533725       0.12145725       0.99346753 </v>
    <v>       0.38979581       0.13843058       0.49909126 </v>
    <v>       0.37980903       0.62624581       0.99097968 </v>
    <v>       0.37733492       0.62320124       0.50006409 </v>
    <v>       0.87838684       0.12649500       0.99609512 </v>
    <v>       0.88796350       0.13901561       0.50167245 </v>
    <v>       0.87992312       0.62972267       0.99401397 </v>
    <v>       0.88386735       0.63524500       0.50179387 </v>
    <v>       0.96552158       0.01784308       0.13921607 </v>
    <v>       0.99506740       0.99786064       0.62205710 </v>
    <v>       0.97598031       0.52012177       0.13917680 </v>
    <v>       0.99779714       0.49687438       0.62218543 </v>
    <v>       0.50046179       0.01159211       0.12654922 </v>
    <v>       0.49650320       0.99895982       0.62363605 </v>
    <v>       0.50619943       0.50545093       0.12618589 </v>
    <v>       0.47864741       0.48062787       0.62012841 </v>
    <v>       0.98493421       0.00108662       0.36824574 </v>
    <v>       0.01062000       0.99857236       0.87573825 </v>
    <v>       0.99019211       0.52878502       0.35659507 </v>
    <v>       0.01413933       0.50579159       0.87920153 </v>
    <v>       0.50614690       0.99667940       0.37600167 </v>
    <v>       0.49715533       0.98689049       0.87738396 </v>
    <v>       0.47857993       0.49760530       0.37677023 </v>
    <v>       0.26559860       0.26403321       0.38108907 </v>
    <v>       0.22967018       0.24298634       0.87340471 </v>
    <v>       0.24431110       0.74920898       0.37166114 </v>
    <v>       0.23045488       0.75876728       0.87565045 </v>
    <v>       0.75221058       0.23877518       0.37481293 </v>
    <v>       0.75473712       0.25052651       0.87329650 </v>
    <v>       0.75204631       0.73968310       0.37437905 </v>
    <v>       0.74975534       0.75963483       0.87541834 </v>
    <v>       0.26390745       0.24550390       0.12452404 </v>
    <v>       0.26985606       0.27691548       0.62065339 </v>
    <v>       0.25201491       0.74789394       0.62321945 </v>
    <v>       0.74850022       0.24806233       0.12649412 </v>
    <v>       0.75057343       0.26391421       0.62358673 </v>
    <v>       0.74897506       0.72701317       0.12821257 </v>
    <v>       0.74941669       0.74424744       0.62442380 </v>
   </varray>
  </structure>
  <varray name="forces" >
   <v>      -0.00102678       0.00981041       0.00153125 </v>
   <v>       0.00147067      -0.00206801      -0.00241550 </v>
   <v>       0.01137172       0.00676973      -0.00343569 </v>
   <v>       0.00540027      -0.00575600      -0.01320797 </v>
   <v>      -0.00437799       0.00204382       0.00759289 </v>
   <v>      -0.00454853      -0.00142705      -0.00845176 </v>
   <v>      -0.00139094       0.00245503       0.00648660 </v>
   <v>      -0.00781906      -0.00576635      -0.00228581 </v>
   <v>      -0.00009927      -0.00151652      -0.00084360 </v>
   <v>       0.00988149      -0.00223480      -0.00464304 </v>
   <v>       0.01755494       0.00373944      -0.00137383 </v>
   <v>      -0.00050588       0.00038959      -0.00596233 </v>
   <v>      -0.00565791      -0.00665892      -0.01286534 </v>
   <v>      -0.00948728      -0.00460410       0.00063973 </v>
   <v>      -0.00005016      -0.00602150      -0.00212294 </v>
   <v>      -0.00605274      -0.00122666      -0.00326598 </v>
   <v>       0.00256844      -0.00400018       0.00799153 </v>
   <v>      -0.00901334       0.00252578      -0.00708960 </v>
   <v>      -0.00164618       0.00661344       0.00684921 </v>
   <v>      -0.00807155      -0.00658095      -0.00948006 </v>
   <v>      -0.00220280       0.00399956       0.00856050 </v>
   <v>       0.00291398      -0.00144971      -0.00458143 </v>
   <v>       0.00542502       0.00268921       0.00734807 </v>
   <v>       0.00033801      -0.00109432      -0.00830872 </v>
   <v>       0.00255980      -0.00681357      -0.00788510 </v>
   <v>       0.00323734       0.00380150       0.00699664 </v>
   <v>       0.00160473       0.00372408      -0.00133593 </v>
   <v>       0.00273853      -0.00308974      -0.00126151 </v>
   <v>      -0.00051819      -0.00427944      -0.00069783 </v>
   <v>      -0.00080402       0.00361822      -0.00052320 </v>
   <v>       0.00261679       0.00424993      -0.00103656 </v>
   <v>      -0.00315193       0.00271196       0.00351958 </v>
   <v>       0.01294407      -0.00253602      -0.01071226 </v>
   <v>       0.00885624      -0.00482451      -0.02512759 </v>
   <v>       0.00475341       0.00442067      -0.00505690 </v>
   <v>       0.00635840       0.00276687      -0.00164245 </v>
   <v>      -0.02313184       0.02662229      -0.00152955 </v>
   <v>      -0.00097756      -0.00045217      -0.02239263 </v>
   <v>       0.03531285       0.04049619      -0.02325930 </v>
   <v>      -0.01761684      -0.00787916      -0.02277056 </v>
   <v>       0.01380478      -0.00258851       0.00324091 </v>
   <v>       0.01459676      -0.00131821       0.00930390 </v>
   <v>       0.00505677      -0.01134297      -0.00434176 </v>
   <v>      -0.02330489      -0.00837103       0.02136434 </v>
   <v>       0.00466509      -0.00975381      -0.00085868 </v>
   <v>       0.00892978      -0.00731728      -0.00254239 </v>
   <v>       0.01796391      -0.00708831       0.04521596 </v>
   <v>       0.00354065       0.01946390       0.00696174 </v>
   <v>       0.01293001      -0.01295059       0.00066413 </v>
   <v>      -0.01682990      -0.00627172       0.00843087 </v>
   <v>      -0.01374463       0.00326207       0.00500347 </v>
   <v>      -0.01173305       0.00844884      -0.00716264 </v>
   <v>      -0.00123015       0.00290821       0.01046466 </v>
   <v>       0.00404589      -0.00156570       0.00485510 </v>
   <v>      -0.00509353      -0.00069400      -0.01172939 </v>
   <v>      -0.00012206       0.00061181      -0.01117932 </v>
   <v>      -0.00118712       0.00357924      -0.00040822 </v>
   <v>       0.00545778      -0.00383984       0.00175011 </v>
   <v>      -0.00785063      -0.00777374       0.00070916 </v>
   <v>      -0.00987117      -0.00107940       0.00408857 </v>
   <v>      -0.00065253       0.01113968       0.00490401 </v>
   <v>      -0.00207737       0.00049585       0.00111595 </v>
   <v>       0.01408640       0.00602945       0.01038608 </v>
   <v>      -0.00393760      -0.00538975       0.00887302 </v>
   <v>       0.00843132      -0.00882664       0.01217220 </v>
   <v>       0.00495357      -0.01000472       0.00012823 </v>
   <v>      -0.00086088      -0.00228559      -0.00627434 </v>
   <v>       0.01977211       0.01838086      -0.00582838 </v>
   <v>      -0.00405808      -0.00046609      -0.00713935 </v>
   <v>       0.02067712       0.00699313      -0.00716100 </v>
   <v>      -0.00689044      -0.00256260       0.00241481 </v>
   <v>      -0.00021207       0.00803203       0.00067201 </v>
   <v>      -0.00018352       0.00741919      -0.01116479 </v>
   <v>      -0.00410865      -0.00101775       0.00719669 </v>
   <v>       0.00343556       0.00040550       0.00460058 </v>
   <v>       0.00020657       0.01174759       0.00023228 </v>
   <v>      -0.01313923      -0.00430997      -0.00785878 </v>
   <v>       0.00080531      -0.00116771      -0.00106034 </v>
[...]
       <r>   -16.6435     0.0000    32.0000 </r>
       <r>   -16.4905     0.0000    32.0000 </r>
       <r>   -16.3374     0.0000    32.0000 </r>
       <r>   -16.1844     0.0000    32.0000 </r>
       <r>   -16.0313     0.0000    32.0000 </r>
       <r>   -15.8782     0.0000    32.0000 </r>
       <r>   -15.7252     0.0000    32.0000 </r>
       <r>   -15.5721     0.0000    32.0000 </r>
       <r>   -15.4191     0.1103    32.0169 </r>
       <r>   -15.2660    11.8616    33.8324 </r>
       <r>   -15.1130    17.2218    36.4683 </r>
       <r>   -14.9599    30.8701    41.1931 </r>
       <r>   -14.8068    43.6856    47.8795 </r>
       <r>   -14.6538    45.4601    54.8374 </r>
       <r>   -14.5007    42.1360    61.2866 </r>
       <r>   -14.3477    42.7781    67.8341 </r>
       <r>   -14.1946    59.3723    76.9214 </r>
       <r>   -14.0416    75.9145    88.5405 </r>
       <r>   -13.8885    83.1276   101.2637 </r>
       <r>   -13.7355    63.3399   110.9583 </r>
       <r>   -13.5824    40.5724   117.1682 </r>
       <r>   -13.4293    24.4490   120.9102 </r>
       <r>   -13.2763     6.8536   121.9592 </r>
       <r>   -13.1232     0.2665   122.0000 </r>
       <r>   -12.9702     0.0002   122.0000 </r>
       <r>   -12.8171     6.1207   122.9368 </r>
       <r>   -12.6641    40.4625   129.1299 </r>
       <r>   -12.5110   100.9492   144.5808 </r>
       <r>   -12.3579   137.0133   165.5515 </r>
       <r>   -12.2049   121.0611   184.0806 </r>
       <r>   -12.0518   101.9555   199.6856 </r>
       <r>   -11.8988    70.0363   210.4050 </r>
       <r>   -11.7457    35.8557   215.8930 </r>
       <r>   -11.5927    13.6143   217.9767 </r>
       <r>   -11.4396     0.1520   218.0000 </r>
       <r>   -11.2866     0.0000   218.0000 </r>
       <r>   -11.1335     0.0000   218.0000 </r>
       <r>   -10.9804     0.0000   218.0000 </r>
       <r>   -10.8274     0.0000   218.0000 </r>
       <r>   -10.6743     0.0000   218.0000 </r>
       <r>   -10.5213     0.0000   218.0000 </r>
       <r>   -10.3682     0.0000   218.0000 </r>
       <r>   -10.2152     0.0000   218.0000 </r>
       <r>   -10.0621     0.0000   218.0000 </r>
       <r>    -9.9090     0.0000   218.0000 </r>
       <r>    -9.7560     0.0000   218.0000 </r>
       <r>    -9.6029     0.0000   218.0000 </r>
       <r>    -9.4499     0.0000   218.0000 </r>
       <r>    -9.2968     0.0000   218.0000 </r>
       <r>    -9.1438     0.0000   218.0000 </r>
       <r>    -8.9907     0.0000   218.0000 </r>
       <r>    -8.8377     0.0000   218.0000 </r>
       <r>    -8.6846     0.0000   218.0000 </r>
       <r>    -8.5315     0.0000   218.0000 </r>
       <r>    -8.3785     0.0000   218.0000 </r>
       <r>    -8.2254     0.0000   218.0000 </r>
       <r>    -8.0724     0.0000   218.0000 </r>
       <r>    -7.9193     0.0000   218.0000 </r>
       <r>    -7.7663     0.0000   218.0000 </r>
       <r>    -7.6132     0.0000   218.0000 </r>
       <r>    -7.4602     0.0000   218.0000 </r>
       <r>    -7.3071     0.0000   218.0000 </r>
       <r>    -7.1540     0.0000   218.0000 </r>
       <r>    -7.0010     0.0000   218.0000 </r>
       <r>    -6.8479     0.0000   218.0000 </r>
       <r>    -6.6949     0.0000   218.0000 </r>
       <r>    -6.5418     0.0000   218.0000 </r>
       <r>    -6.3888     0.0000   218.0000 </r>
       <r>    -6.2357     0.0000   218.0000 </r>
       <r>    -6.0826     0.0000   218.0000 </r>
       <r>    -5.9296     0.0000   218.0000 </r>
       <r>    -5.7765     0.0000   218.0000 </r>
       <r>    -5.6235     0.0000   218.0000 </r>
       <r>    -5.4704     0.0000   218.0000 </r>
       <r>    -5.3174     0.0000   218.0000 </r>
       <r>    -5.1643     0.0000   218.0000 </r>
       <r>    -5.0113     0.0000   218.0000 </r>
       <r>    -4.8582     0.0000   218.0000 </r>
       <r>    -4.7051     0.0000   218.0000 </r>
       <r>    -4.5521     1.8715   218.2864 </r>
       <r>    -4.3990     8.7523   219.6260 </r>
       <r>    -4.2460     8.9439   220.9950 </r>
       <r>    -4.0929    11.9397   222.8224 </r>
       <r>    -3.9399     1.1604   223.0000 </r>
       <r>    -3.7868     0.0000   223.0000 </r>
       <r>    -3.6337     0.0000   223.0000 </r>
       <r>    -3.4807     0.0000   223.0000 </r>
       <r>    -3.3276     0.0000   223.0000 </r>
       <r>    -3.1746     0.0000   223.0000 </r>
       <r>    -3.0215     0.0000   223.0000 </r>
       <r>    -2.8685     0.0000   223.0000 </r>
       <r>    -2.7154     0.0000   223.0000 </r>
       <r>    -2.5624     0.0021   223.0003 </r>
       <r>    -2.4093     5.7799   223.8850 </r>
       <r>    -2.2562    15.2536   226.2196 </r>
       <r>    -2.1032    20.1497   229.3037 </r>
       <r>    -1.9501    34.2293   234.5427 </r>
       <r>    -1.7971    35.3393   239.9516 </r>
       <r>    -1.6440    52.6787   248.0144 </r>
       <r>    -1.4910    42.6488   254.5420 </r>
       <r>    -1.3379    52.7200   262.6111 </r>
       <r>    -1.1848    61.9376   272.0911 </r>
       <r>    -1.0318    68.2207   282.5327 </r>
       <r>    -0.8787    77.7274   294.4293 </r>
       <r>    -0.7257    79.2655   306.5614 </r>
       <r>    -0.5726    94.9408   321.0927 </r>
       <r>    -0.4196    96.7271   335.8974 </r>
       <r>    -0.2665    74.5438   347.3067 </r>
       <r>    -0.1135    58.7851   356.3042 </r>
       <r>     0.0396    53.1632   364.4411 </r>
       <r>     0.1927    50.7500   372.2087 </r>
       <r>     0.3457    48.3725   379.6124 </r>
       <r>     0.4988    56.3561   388.2381 </r>
       <r>     0.6518    55.1351   396.6768 </r>
       <r>     0.8049    55.5093   405.1729 </r>
       <r>     0.9579    55.1834   413.6190 </r>
       <r>     1.1110    64.2545   423.4536 </r>
       <r>     1.2641    64.3434   433.3017 </r>
       <r>     1.4171    75.2672   444.8219 </r>
       <r>     1.5702    79.0912   456.9273 </r>
       <r>     1.7232    74.6573   468.3540 </r>
       <r>     1.8763    60.5438   477.6206 </r>
       <r>     2.0293    45.7473   484.6225 </r>
       <r>     2.1824    29.2259   489.0957 </r>
       <r>     2.3354    17.3992   491.7588 </r>
       <r>     2.4885     7.9297   492.9725 </r>
       <r>     2.6416     0.1799   493.0000 </r>
       <r>     2.7946     0.0000   493.0000 </r>
       <r>     2.9477     0.0000   493.0000 </r>
       <r>     3.1007     0.0000   493.0000 </r>
       <r>     3.2538     0.0000   493.0000 </r>
       <r>     3.4068     0.0000   493.0000 </r>
       <r>     3.5599     0.0000   493.0000 </r>
       <r>     3.7129     0.0000   493.0000 </r>
       <r>     3.8660     0.0000   493.0000 </r>
       <r>     4.0191     0.0000   493.0000 </r>
       <r>     4.1721     0.0000   493.0000 </r>
       <r>     4.3252     0.0087   493.0013 </r>
       <r>     4.4782     6.8720   494.0531 </r>
       <r>     4.6313    36.0582   499.5721 </r>
       <r>     4.7843    44.8855   506.4421 </r>
       <r>     4.9374    35.6062   511.8918 </r>
       <r>     5.0905    49.5451   519.4750 </r>
       <r>     5.2435    65.1097   529.4404 </r>
       <r>     5.3966    75.3092   540.9670 </r>
       <r>     5.5496    65.2484   550.9536 </r>
       <r>     5.7027    73.8517   562.2571 </r>
       <r>     5.8557    79.3290   574.3989 </r>
       <r>     6.0088    79.5489   586.5743 </r>
       <r>     6.1618    72.5777   597.6828 </r>
       <r>     6.3149    61.8680   607.1521 </r>
       <r>     6.4680    37.5428   612.8982 </r>
       <r>     6.6210    14.2852   615.0847 </r>
       <r>     6.7741    13.6733   617.1775 </r>
       <r>     6.9271    13.0514   619.1750 </r>
       <r>     7.0802    19.2222   622.1171 </r>
       <r>     7.2332    15.8737   624.5467 </r>
       <r>     7.3863    19.8026   627.5776 </r>
       <r>     7.5394    15.2213   629.9073 </r>
       <r>     7.6924    15.7678   632.3207 </r>
       <r>     7.8455    17.1918   634.9520 </r>
       <r>     7.9985    22.9884   638.4705 </r>
       <r>     8.1516    25.7416   642.4104 </r>
       <r>     8.3046    24.2514   646.1222 </r>
       <r>     8.4577    23.0148   649.6448 </r>
       <r>     8.6107    23.0476   653.1724 </r>
       <r>     8.7638    30.7761   657.8829 </r>
       <r>     8.9169    33.9096   663.0729 </r>
       <r>     9.0699    39.3375   669.0938 </r>
       <r>     9.2230    32.8542   674.1223 </r>
       <r>     9.3760    37.5499   679.8695 </r>
       <r>     9.5291    44.7866   686.7244 </r>
       <r>     9.6821    54.1812   695.0172 </r>
       <r>     9.8352    55.5963   703.5265 </r>
       <r>     9.9883    57.0247   712.2545 </r>
       <r>    10.1413    60.0709   721.4488 </r>
       <r>    10.2944    56.3449   730.0727 </r>
       <r>    10.4474    54.9713   738.4864 </r>
       <r>    10.6005    58.1579   747.3878 </r>
       <r>    10.7535    54.0387   755.6588 </r>
       <r>    10.9066    56.7950   764.3516 </r>
       <r>    11.0596    23.8211   767.9975 </r>
       <r>    11.2127     0.0160   768.0000 </r>
       <r>    11.3658     0.0000   768.0000 </r>
       <r>    11.5188     0.0000   768.0000 </r>
       <r>    11.6719     0.0000   768.0000 </r>
       <r>    11.8249     0.0000   768.0000 </r>
       <r>    11.9780     0.0000   768.0000 </r>
       <r>    12.1310     0.0000   768.0000 </r>
       <r>    12.2841     0.0000   768.0000 </r>
       <r>    12.4371     0.0000   768.0000 </r>
       <r>    12.5902     0.0000   768.0000 </r>
       <r>    12.7433     0.0000   768.0000 </r>
       <r>    12.8963     0.0000   768.0000 </r>
       <r>    13.0494     0.0000   768.0000 </r>
      </set>
     </set>
    </array>
   </total>
  </dos>
 </calculation>
 <structure name="finalpos" >
  <crystal>
   <varray name="basis" >
    <v>      11.25628900      -0.01395233       0.00034919 </v>
    <v>      -0.01397093      11.25818860       0.00686942 </v>
    <v>       0.00053230       0.00983454      15.89309956 </v>
   </varray>
   <i name="volume">   2014.05592798 </i>
   <varray name="rec_basis" >
    <v>       0.08883936       0.00011025      -0.00000304 </v>
    <v>       0.00011010       0.08882441      -0.00005497 </v>
    <v>      -0.00000200      -0.00003839       0.06292041 </v>
   </varray>
  </crystal>
  <varray name="positions" >
   <v>       0.99904594       0.24198926       0.11642783 </v>
   <v>       0.99644855       0.25302977       0.63079232 </v>
   <v>       0.98297167       0.74934187       0.11347812 </v>
   <v>       0.99837600       0.75245800       0.63268903 </v>
   <v>       0.50060193       0.24817246       0.11390273 </v>
   <v>       0.50269606       0.23880335       0.63027413 </v>
   <v>       0.51048796       0.74386036       0.11641537 </v>
   <v>       0.50211658       0.76453426       0.63464160 </v>
   <v>       0.00840217       0.23813445       0.37915753 </v>
   <v>       0.99785513       0.24994047       0.87885011 </v>
   <v>       0.98978966       0.75237502       0.38737357 </v>
   <v>       0.99658527       0.75220824       0.87163322 </v>
   <v>       0.49915338       0.24802621       0.37128839 </v>
   <v>       0.50255841       0.24022158       0.87886954 </v>
   <v>       0.51005949       0.75931289       0.38191713 </v>
   <v>       0.49936506       0.75570010       0.87141801 </v>
   <v>       0.25864707       0.01636110       0.11801672 </v>
   <v>       0.25465222       0.99773256       0.63309977 </v>
   <v>       0.25988463       0.47605234       0.11480888 </v>
   <v>       0.23861954       0.50812883       0.63160311 </v>
   <v>       0.74163181       0.00750838       0.11110512 </v>
   <v>       0.74817343       0.99894876       0.63362345 </v>
   <v>       0.74475001       0.49377700       0.10817084 </v>
   <v>       0.76210730       0.50212036       0.63314385 </v>
   <v>       0.26338995       0.01887358       0.38313482 </v>
   <v>       0.25183007       0.99950491       0.87280076 </v>
   <v>       0.24372716       0.49409673       0.37069217 </v>
   <v>       0.24750263       0.49867557       0.87818268 </v>
   <v>       0.74508530       0.00182156       0.38277251 </v>
   <v>       0.74615881       0.99967413       0.87294825 </v>
   <v>       0.75614224       0.50617432       0.38131840 </v>
   <v>       0.75852220       0.49683348       0.87622464 </v>
   <v>       0.00010356       0.00038094       0.99946405 </v>
   <v>       0.99947413       0.00094932       0.50269792 </v>
   <v>       0.00306760       0.50178737       0.00553983 </v>
   <v>       0.00073627       0.50120553       0.50102042 </v>
   <v>       0.49602688       0.99733005       0.99900253 </v>
   <v>       0.50047921       0.00360684       0.50313345 </v>
   <v>       0.50878668       0.50869711       0.49706317 </v>
   <v>       0.24913283       0.75072760       0.50535201 </v>
   <v>       0.75068611       0.24992066       0.49861203 </v>
   <v>       0.74710948       0.74718995       0.99567182 </v>
   <v>       0.75307865       0.75412155       0.50385478 </v>
   <v>       0.25127028       0.25152246       0.75252041 </v>
   <v>       0.27098701       0.76220339       0.25876911 </v>
   <v>       0.74915393       0.25033310       0.75339548 </v>
   <v>       0.01941379       0.97450867       0.24699420 </v>
   <v>       0.00139558       0.99891004       0.74970637 </v>
   <v>       0.00270006       0.50343512       0.75464290 </v>
   <v>       0.50902061       0.01238522       0.24875592 </v>
   <v>       0.50649631       0.50015808       0.24870534 </v>
   <v>       0.49598022       0.49777154       0.73806484 </v>
   <v>       0.49850705       0.49894226       0.00540701 </v>
   <v>       0.24991059       0.24799042       0.99775316 </v>
   <v>       0.24283197       0.24347628       0.50253531 </v>
   <v>       0.24787676       0.74922123       0.99203454 </v>
   <v>       0.74937875       0.24969240       0.99861541 </v>
   <v>       0.25946206       0.24953281       0.24811541 </v>
   <v>       0.24948927       0.75208855       0.75263494 </v>
   <v>       0.74073367       0.26682597       0.24861454 </v>
   <v>       0.73914928       0.76568357       0.24910526 </v>
   <v>       0.74798711       0.75096606       0.75187110 </v>
   <v>       0.00011136       0.45832790       0.24802836 </v>
   <v>       0.49947672       0.99730782       0.75195903 </v>
   <v>       0.12246413       0.11354939       0.25457583 </v>
   <v>       0.12009994       0.13531168       0.73698083 </v>
   <v>       0.11640471       0.63308002       0.74405402 </v>
   <v>       0.61510698       0.14671845       0.25150980 </v>
   <v>       0.62113772       0.13247531       0.74963916 </v>
   <v>       0.59286358       0.65074205       0.25715045 </v>
   <v>       0.61143529       0.62480067       0.75400460 </v>
   <v>       0.40211116       0.36320038       0.24582423 </v>
   <v>       0.38710959       0.37210707       0.77296660 </v>
   <v>       0.40204815       0.85650161       0.24589200 </v>
   <v>       0.37923548       0.86751195       0.74898231 </v>
   <v>       0.90199098       0.32340063       0.25327128 </v>
   <v>       0.88449739       0.37143535       0.75292082 </v>
   <v>       0.90301290       0.83735364       0.25181437 </v>
   <v>       0.88423841       0.87140481       0.74966492 </v>
   <v>       0.36843102       0.10922117       0.25760942 </v>
   <v>       0.36800761       0.12314233       0.75003444 </v>
   <v>       0.32362936       0.61248279       0.22956820 </v>
   <v>       0.37042743       0.61226006       0.76083092 </v>
   <v>       0.87088222       0.12108115       0.74810556 </v>
   <v>       0.87019996       0.61736653       0.75328915 </v>
   <v>       0.14785141       0.38523451       0.24737582 </v>
   <v>       0.13421657       0.38609864       0.74733248 </v>
   <v>       0.14142359       0.85592636       0.21731824 </v>
   <v>       0.13053512       0.88656864       0.74339504 </v>
   <v>       0.65486648       0.41408705       0.25497613 </v>
   <v>       0.62912162       0.38590281       0.75596046 </v>
   <v>       0.65279564       0.90739556       0.24776633 </v>
   <v>       0.63137549       0.88063427       0.74635080 </v>
   <v>       0.37522974       0.37773385       0.98704318 </v>
   <v>       0.36856036       0.87108722       0.01746013 </v>
   <v>       0.36569000       0.88154977       0.49647618 </v>
   <v>       0.87623242       0.38243936       0.00172196 </v>
   <v>       0.86375843       0.38959146       0.49202572 </v>
   <v>       0.86929162       0.87826928       0.00342430 </v>
   <v>       0.86326450       0.88621795       0.49871523 </v>
   <v>       0.12309309       0.12000292       0.00902779 </v>
   <v>       0.13400069       0.11360413       0.49894159 </v>
   <v>       0.13266699       0.62341002       0.02375617 </v>
   <v>       0.13080408       0.61882468       0.49612424 </v>
   <v>       0.62500511       0.11791804       0.99586048 </v>
   <v>       0.63969610       0.11234178       0.50541941 </v>
   <v>       0.62728109       0.61812337       0.98583292 </v>
   <v>       0.63484923       0.61143752       0.50087180 </v>
   <v>       0.11934959       0.37485336       0.01001889 </v>
   <v>       0.11825647       0.37435502       0.49190241 </v>
   <v>       0.11790777       0.87390075       0.01872763 </v>
   <v>       0.11389878       0.86663863       0.49747477 </v>
   <v>       0.62039482       0.37531795       0.99023474 </v>
   <v>       0.60079104       0.36169678       0.49388830 </v>
   <v>       0.62058933       0.86795601       0.00746568 </v>
   <v>       0.61631696       0.86260791       0.50097037 </v>
   <v>       0.37537360       0.12148411       0.99344229 </v>
   <v>       0.38979668       0.13840354       0.49909939 </v>
   <v>       0.37982171       0.62624158       0.99096020 </v>
   <v>       0.37727371       0.62310418       0.50003991 </v>
   <v>       0.87841368       0.12650389       0.99613471 </v>
   <v>       0.88793869       0.13902189       0.50164788 </v>
   <v>       0.87992660       0.62976616       0.99400025 </v>
   <v>       0.88385856       0.63518692       0.50177004 </v>
   <v>       0.96555335       0.01781595       0.13921908 </v>
   <v>       0.99503883       0.99789881       0.62205924 </v>
   <v>       0.97596644       0.52005118       0.13915430 </v>
   <v>       0.99775009       0.49686630       0.62220916 </v>
   <v>       0.50045206       0.01157412       0.12652856 </v>
   <v>       0.49641612       0.99888909       0.62364429 </v>
   <v>       0.50618158       0.50548704       0.12619994 </v>
   <v>       0.47860506       0.48067291       0.62009693 </v>
   <v>       0.98495179       0.00107362       0.36823973 </v>
   <v>       0.01058101       0.99858002       0.87573524 </v>
   <v>       0.99016327       0.52875606       0.35661017 </v>
   <v>       0.01411166       0.50571431       0.87920107 </v>
   <v>       0.50623851       0.99670686       0.37602634 </v>
   <v>       0.49719936       0.98689514       0.87738420 </v>
   <v>       0.47867584       0.49760866       0.37677708 </v>
   <v>       0.26563150       0.26405981       0.38109785 </v>
   <v>       0.22965216       0.24300170       0.87339876 </v>
   <v>       0.24418995       0.74917519       0.37170403 </v>
   <v>       0.23045878       0.75873368       0.87560859 </v>
   <v>       0.75214827       0.23881003       0.37483975 </v>
   <v>       0.75465673       0.25051199       0.87330184 </v>
   <v>       0.75206169       0.73968707       0.37434593 </v>
   <v>       0.74972629       0.75967044       0.87542003 </v>
   <v>       0.26389405       0.24551191       0.12453184 </v>
   <v>       0.26985753       0.27686250       0.62063967 </v>
   <v>       0.25202663       0.74788399       0.62322713 </v>
   <v>       0.74853037       0.24809064       0.12649683 </v>
   <v>       0.75059019       0.26387399       0.62359322 </v>
   <v>       0.74901306       0.72708999       0.12821092 </v>
   <v>       0.74947505       0.74427033       0.62444029 </v>
  </varray>
 </structure>
</modeling>
