       N       E                     dE             d eps       ncg     rms          rms(c)
DAV:   1    -0.994550787926E+03   -0.99455E+03   -0.90910E-02 13120   0.721E-01    0.491E-02
RMM:   2    -0.994550785424E+03    0.25020E-05   -0.56619E-05  7190   0.144E-02    0.824E-02
RMM:   3    -0.994550785847E+03   -0.42259E-06   -0.13454E-05  6965   0.751E-03    0.899E-03
RMM:   4    -0.994550786578E+03   -0.73097E-06   -0.28306E-06  4580   0.282E-03    0.495E-03
RMM:   5    -0.994550787333E+03   -0.75545E-06   -0.24044E-06  4835   0.278E-03    0.627E-03
RMM:   6    -0.994550787433E+03   -0.10036E-06   -0.69658E-07  3370   0.224E-03    0.189E-03
RMM:   7    -0.994550787457E+03   -0.23982E-07   -0.28951E-07  2282   0.198E-03    0.109E-03
RMM:   8    -0.994550787463E+03   -0.59372E-08   -0.12765E-07  1972   0.189E-03
   1 F= -.99455079E+03 E0= -.99455079E+03  d E =-.994551E+03  mag=   120.0000
       N       E                     dE             d eps       ncg     rms          rms(c)
DAV:   1    -0.994549949927E+03    0.83753E-03   -0.47293E-01 12480   0.823E-01    0.414E-01
RMM:   2    -0.994552101240E+03   -0.21513E-02   -0.14252E-02 12552   0.173E-01    0.265E-01
RMM:   3    -0.994552337392E+03   -0.23615E-03   -0.83236E-04 11450   0.497E-02    0.149E-01
RMM:   4    -0.994552264159E+03    0.73233E-04   -0.14036E-04  7895   0.180E-02    0.924E-02
RMM:   5    -0.994552238632E+03    0.25527E-04   -0.11960E-04  7436   0.138E-02    0.387E-02
RMM:   6    -0.994552242213E+03   -0.35810E-05   -0.24211E-05  7222   0.889E-03    0.310E-02
RMM:   7    -0.994552243938E+03   -0.17249E-05   -0.10990E-05  7046   0.450E-03    0.147E-02
RMM:   8    -0.994552245372E+03   -0.14339E-05   -0.54322E-06  6545   0.426E-03
   2 F= -.99455225E+03 E0= -.99455225E+03  d E =-.145791E-02  mag=   120.0000
       N       E                     dE             d eps       ncg     rms          rms(c)
DAV:   1    -0.994552203907E+03    0.40031E-04   -0.15252E-02 12912   0.148E-01    0.738E-02
RMM:   2    -0.994552272193E+03   -0.68286E-04   -0.44091E-04 10136   0.308E-02    0.487E-02
RMM:   3    -0.994552281597E+03   -0.94045E-05   -0.34373E-05  6926   0.118E-02    0.299E-02
RMM:   4    -0.994552280882E+03    0.71571E-06   -0.99216E-06  6523   0.485E-03    0.183E-02
RMM:   5    -0.994552280456E+03    0.42557E-06   -0.60070E-06  5991   0.369E-03    0.835E-03
RMM:   6    -0.994552280865E+03   -0.40946E-06   -0.14936E-06  3911   0.248E-03    0.364E-03
RMM:   7    -0.994552281002E+03   -0.13676E-06   -0.37389E-07  2640   0.207E-03    0.192E-03
RMM:   8    -0.994552281151E+03   -0.14913E-06   -0.86014E-08  1756   0.193E-03
   3 F= -.99455228E+03 E0= -.99455228E+03  d E =-.149369E-02  mag=   120.0000
       N       E                     dE             d eps       ncg     rms          rms(c)
DAV:   1    -0.994552306729E+03   -0.25727E-04   -0.29444E-01 12496   0.657E-01    0.248E-01
RMM:   2    -0.994553387220E+03   -0.10805E-02   -0.80899E-03 12585   0.127E-01    0.146E-01
RMM:   3    -0.994553481601E+03   -0.94382E-04   -0.41358E-04  9731   0.365E-02    0.756E-02
RMM:   4    -0.994553459074E+03    0.22527E-04   -0.73204E-05  7240   0.131E-02    0.435E-02
RMM:   5    -0.994553451595E+03    0.74796E-05   -0.46732E-05  7175   0.926E-03    0.176E-02
RMM:   6    -0.994553453114E+03   -0.15191E-05   -0.12855E-05  6902   0.574E-03    0.100E-02
RMM:   7    -0.994553453635E+03   -0.52091E-06   -0.57312E-06  5753   0.358E-03    0.634E-03
RMM:   8    -0.994553453836E+03   -0.20151E-06   -0.27342E-06  4681   0.302E-03
   4 F= -.99455345E+03 E0= -.99455345E+03  d E =-.117268E-02  mag=   120.0000
       N       E                     dE             d eps       ncg     rms          rms(c)
DAV:   1    -0.994549549873E+03    0.39038E-02   -0.12794E+00 12368   0.137E+00    0.517E-01
RMM:   2    -0.994554234633E+03   -0.46848E-02   -0.35087E-02 12590   0.265E-01    0.303E-01
RMM:   3    -0.994554673811E+03   -0.43918E-03   -0.21156E-03 12899   0.760E-02    0.156E-01
RMM:   4    -0.994554551585E+03    0.12223E-03   -0.28881E-04  8853   0.228E-02    0.874E-02
RMM:   5    -0.994554515385E+03    0.36200E-04   -0.17191E-04  7468   0.168E-02    0.347E-02
RMM:   6    -0.994554518991E+03   -0.36067E-05   -0.39368E-05  7260   0.118E-02    0.384E-02
RMM:   7    -0.994554520772E+03   -0.17802E-05   -0.18802E-05  7148   0.609E-03    0.136E-02
RMM:   8    -0.994554521453E+03   -0.68120E-06   -0.99504E-06  7046   0.577E-03
   5 F= -.99455452E+03 E0= -.99455452E+03  d E =-.224030E-02  mag=   120.0000
       N       E                     dE             d eps       ncg     rms          rms(c)
DAV:   1    -0.994553262698E+03    0.12581E-02   -0.54118E-01 12712   0.884E-01    0.366E-01
RMM:   2    -0.994555520241E+03   -0.22575E-02   -0.14665E-02 12571   0.172E-01    0.206E-01
RMM:   3    -0.994555780703E+03   -0.26046E-03   -0.87406E-04 11011   0.496E-02    0.102E-01
RMM:   4    -0.994555741621E+03    0.39083E-04   -0.11440E-04  7485   0.156E-02    0.630E-02
RMM:   5    -0.994555724778E+03    0.16843E-04   -0.72172E-05  7248   0.112E-02    0.348E-02
RMM:   6    -0.994555725817E+03   -0.10392E-05   -0.23492E-05  7162   0.767E-03    0.182E-02
RMM:   7    -0.994555726379E+03   -0.56157E-06   -0.10207E-05  6993   0.503E-03    0.124E-02
RMM:   8    -0.994555726231E+03    0.14796E-06   -0.54708E-06  6177   0.386E-03
   6 F= -.99455573E+03 E0= -.99455573E+03  d E =-.120478E-02  mag=   120.0000
