<?xml version="1.0" encoding="ISO-8859-1"?>
<modeling>
 <generator>
  <i name="program" type="string">vasp </i>
  <i name="version" type="string">5.4.1  </i>
  <i name="subversion" type="string">05Feb16 (build Jan 25 2017 20:16:33) complex                          parallel </i>
  <i name="platform" type="string">BWXE6 </i>
  <i name="date" type="string">2019 08 07 </i>
  <i name="time" type="string">18:17:50 </i>
 </generator>
 <incar>
  <i type="string" name="SYSTEM"> STF</i>
  <i type="string" name="PREC">normal</i>
  <i type="string" name="ALGO"> Fast</i>
  <i type="int" name="ISPIN">     2</i>
  <i type="int" name="NELM">    40</i>
  <i type="int" name="NELMIN">     8</i>
  <i type="int" name="IBRION">     2</i>
  <i name="EDIFF">      0.00010000</i>
  <i name="EDIFFG">     -0.03000000</i>
  <i type="int" name="NSW">    30</i>
  <i type="int" name="ISIF">     3</i>
  <i name="ENCUT">    520.00000000</i>
  <i type="int" name="NBANDS">   768</i>
  <v name="MAGMOM">      0.60000000      0.60000000      0.60000000      0.60000000      0.60000000      0.60000000      0.60000000      0.60000000      0.60000000      0.60000000      0.60000000      0.60000000      0.60000000      0.60000000      0.60000000      0.60000000      0.60000000      0.60000000      0.60000000      0.60000000
      0.60000000      0.60000000      0.60000000      0.60000000      0.60000000      0.60000000      0.60000000      0.60000000      0.60000000      0.60000000      0.60000000      0.60000000      0.60000000      0.60000000      0.60000000      0.60000000      0.60000000      0.60000000      0.60000000      0.60000000
      5.00000000      5.00000000      5.00000000      5.00000000      5.00000000      5.00000000      5.00000000      5.00000000      5.00000000      5.00000000      5.00000000      5.00000000      5.00000000      5.00000000      5.00000000      5.00000000      5.00000000      5.00000000      5.00000000      5.00000000
      5.00000000      5.00000000      5.00000000      5.00000000      0.60000000      0.60000000      0.60000000      0.60000000      0.60000000      0.60000000      0.60000000      0.60000000      0.60000000      0.60000000      0.60000000      0.60000000      0.60000000      0.60000000      0.60000000      0.60000000
      0.60000000      0.60000000      0.60000000      0.60000000      0.60000000      0.60000000      0.60000000      0.60000000      0.60000000      0.60000000      0.60000000      0.60000000      0.60000000      0.60000000      0.60000000      0.60000000      0.60000000      0.60000000      0.60000000      0.60000000
      0.60000000      0.60000000      0.60000000      0.60000000      0.60000000      0.60000000      0.60000000      0.60000000      0.60000000      0.60000000      0.60000000      0.60000000      0.60000000      0.60000000      0.60000000      0.60000000      0.60000000      0.60000000      0.60000000      0.60000000
      0.60000000      0.60000000      0.60000000      0.60000000      0.60000000      0.60000000      0.60000000      0.60000000      0.60000000      0.60000000      0.60000000      0.60000000      0.60000000      0.60000000      0.60000000      0.60000000      0.60000000      0.60000000      0.60000000      0.60000000
      0.60000000      0.60000000      0.60000000      0.60000000      0.60000000      0.60000000      0.60000000      0.60000000</v>
  <i type="string" name="LREAL"> Auto</i>
  <i type="int" name="ISMEAR">     0</i>
  <i name="SIGMA">      0.05000000</i>
  <i type="int" name="LMAXMIX">     4</i>
  <v type="int" name="KPOINT_BSE">    -1     0     0     0</v>
  <i type="int" name="NELM">    40</i>
  <i type="logical" name="LDAU"> T  </i>
  <v type="int" name="LDAUTYPE">     2</v>
  <v type="int" name="LDAUL">     0     2     2     0</v>
  <v name="LDAUU">      0.00000000      3.00000000      5.00000000      0.00000000</v>
  <v name="LDAUJ">      0.00000000      0.00000000      0.00000000      0.00000000</v>
  <i type="int" name="LDAUPRINT">     1</i>
 </incar>
 <kpoints>
  <generation param="Monkhorst-Pack">
   <v type="int" name="divisions">       2        2        2 </v>
   <v name="usershift">      0.00000000       0.00000000       0.00000000 </v>
   <v name="genvec1">      0.50000000      -0.00000000       0.00000000 </v>
   <v name="genvec2">      0.00000000       0.50000000       0.00000000 </v>
   <v name="genvec3">      0.00000000       0.00000000       0.50000000 </v>
   <v name="shift">      0.50000000       0.50000000       0.50000000 </v>
  </generation>
  <varray name="kpointlist" >
   <v>       0.25000000       0.25000000       0.25000000 </v>
   <v>      -0.25000000       0.25000000       0.25000000 </v>
   <v>       0.25000000      -0.25000000       0.25000000 </v>
   <v>      -0.25000000      -0.25000000       0.25000000 </v>
  </varray>
  <varray name="weights" >
   <v>       0.25000000 </v>
   <v>       0.25000000 </v>
   <v>       0.25000000 </v>
   <v>       0.25000000 </v>
  </varray>
 </kpoints>
 <parameters>
  <separator name="general" >
   <i type="string" name="SYSTEM">STF</i>
   <i type="logical" name="LCOMPAT"> F  </i>
  </separator>
  <separator name="electronic" >
   <i type="string" name="PREC">normal</i>
   <i name="ENMAX">    520.00000000</i>
   <i name="ENAUG">    605.39200000</i>
   <i name="EDIFF">      0.00010000</i>
   <i type="int" name="IALGO">    68</i>
   <i type="int" name="IWAVPR">    11</i>
   <i type="int" name="NBANDS">   768</i>
   <i name="NELECT">   1048.00000000</i>
   <i type="int" name="TURBO">     0</i>
   <i type="int" name="IRESTART">     0</i>
   <i type="int" name="NREBOOT">     0</i>
   <i type="int" name="NMIN">     0</i>
   <i name="EREF">      0.00000000</i>
   <separator name="electronic smearing" >
    <i type="int" name="ISMEAR">     0</i>
    <i name="SIGMA">      0.05000000</i>
    <i name="KSPACING">      0.50000000</i>
    <i type="logical" name="KGAMMA"> T  </i>
   </separator>
   <separator name="electronic projectors" >
    <i type="logical" name="LREAL"> T  </i>
    <v name="ROPT">     -0.00050000     -0.00050000     -0.00050000     -0.00050000</v>
    <i type="int" name="LMAXPAW">  -100</i>
    <i type="int" name="LMAXMIX">     4</i>
    <i type="logical" name="NLSPLINE"> F  </i>
   </separator>
   <separator name="electronic startup" >
    <i type="int" name="ISTART">     1</i>
    <i type="int" name="ICHARG">     0</i>
    <i type="int" name="INIWAV">     1</i>
   </separator>
   <separator name="electronic spin" >
    <i type="int" name="ISPIN">     2</i>
    <i type="logical" name="LNONCOLLINEAR"> F  </i>
    <v name="MAGMOM">      0.60000000      0.60000000      0.60000000      0.60000000      0.60000000      0.60000000      0.60000000      0.60000000      0.60000000      0.60000000      0.60000000      0.60000000      0.60000000      0.60000000      0.60000000      0.60000000      0.60000000      0.60000000      0.60000000      0.60000000
      0.60000000      0.60000000      0.60000000      0.60000000      0.60000000      0.60000000      0.60000000      0.60000000      0.60000000      0.60000000      0.60000000      0.60000000      0.60000000      0.60000000      0.60000000      0.60000000      0.60000000      0.60000000      0.60000000      0.60000000
      5.00000000      5.00000000      5.00000000      5.00000000      5.00000000      5.00000000      5.00000000      5.00000000      5.00000000      5.00000000      5.00000000      5.00000000      5.00000000      5.00000000      5.00000000      5.00000000      5.00000000      5.00000000      5.00000000      5.00000000
      5.00000000      5.00000000      5.00000000      5.00000000      0.60000000      0.60000000      0.60000000      0.60000000      0.60000000      0.60000000      0.60000000      0.60000000      0.60000000      0.60000000      0.60000000      0.60000000      0.60000000      0.60000000      0.60000000      0.60000000
      0.60000000      0.60000000      0.60000000      0.60000000      0.60000000      0.60000000      0.60000000      0.60000000      0.60000000      0.60000000      0.60000000      0.60000000      0.60000000      0.60000000      0.60000000      0.60000000      0.60000000      0.60000000      0.60000000      0.60000000
      0.60000000      0.60000000      0.60000000      0.60000000      0.60000000      0.60000000      0.60000000      0.60000000      0.60000000      0.60000000      0.60000000      0.60000000      0.60000000      0.60000000      0.60000000      0.60000000      0.60000000      0.60000000      0.60000000      0.60000000
      0.60000000      0.60000000      0.60000000      0.60000000      0.60000000      0.60000000      0.60000000      0.60000000      0.60000000      0.60000000      0.60000000      0.60000000      0.60000000      0.60000000      0.60000000      0.60000000      0.60000000      0.60000000      0.60000000      0.60000000
      0.60000000      0.60000000      0.60000000      0.60000000      0.60000000      0.60000000      0.60000000      0.60000000</v>
    <i name="NUPDOWN">     -1.00000000</i>
    <i type="logical" name="LSORBIT"> F  </i>
    <v name="SAXIS">      0.00000000      0.00000000      1.00000000</v>
    <i type="logical" name="LSPIRAL"> F  </i>
    <v name="QSPIRAL">      0.00000000      0.00000000      0.00000000</v>
    <i type="logical" name="LZEROZ"> F  </i>
   </separator>
   <separator name="electronic exchange-correlation" >
    <i type="logical" name="LASPH"> F  </i>
    <i type="logical" name="LMETAGGA"> F  </i>
   </separator>
   <separator name="electronic convergence" >
    <i type="int" name="NELM">    40</i>
    <i type="int" name="NELMDL">     0</i>
    <i type="int" name="NELMIN">     8</i>
    <i name="ENINI">    520.00000000</i>
    <separator name="electronic convergence detail" >
     <i type="logical" name="LDIAG"> T  </i>
     <i type="logical" name="LSUBROT"> F  </i>
     <i name="WEIMIN">      0.00100000</i>
     <i name="EBREAK">      0.00000003</i>
     <i name="DEPER">      0.30000000</i>
     <i type="int" name="NRMM">     4</i>
     <i name="TIME">      0.40000000</i>
    </separator>
   </separator>
   <separator name="electronic mixer" >
    <i name="AMIX">      0.40000000</i>
    <i name="BMIX">      1.00000000</i>
    <i name="AMIN">      0.10000000</i>
    <i name="AMIX_MAG">      1.60000000</i>
    <i name="BMIX_MAG">      1.00000000</i>
    <separator name="electronic mixer details" >
     <i type="int" name="IMIX">     4</i>
     <i type="logical" name="MIXFIRST"> F  </i>
     <i type="int" name="MAXMIX">   -45</i>
     <i name="WC">    100.00000000</i>
     <i type="int" name="INIMIX">     1</i>
     <i type="int" name="MIXPRE">     1</i>
     <i type="int" name="MREMOVE">     5</i>
    </separator>
   </separator>
   <separator name="electronic dipolcorrection" >
    <i type="logical" name="LDIPOL"> F  </i>
    <i type="logical" name="LMONO"> F  </i>
    <i type="int" name="IDIPOL">     0</i>
    <i name="EPSILON">      1.00000000</i>
    <v name="DIPOL">   -100.00000000   -100.00000000   -100.00000000</v>
    <i name="EFIELD">      0.00000000</i>
   </separator>
  </separator>
  <separator name="grids" >
   <i type="int" name="NGX">    64</i>
   <i type="int" name="NGY">    64</i>
   <i type="int" name="NGZ">    90</i>
   <i type="int" name="NGXF">   128</i>
   <i type="int" name="NGYF">   128</i>
   <i type="int" name="NGZF">   180</i>
   <i type="logical" name="ADDGRID"> F  </i>
  </separator>
  <separator name="ionic" >
   <i type="int" name="NSW">    30</i>
   <i type="int" name="IBRION">     2</i>
   <i type="int" name="ISIF">     3</i>
   <i name="PSTRESS">      0.00000000</i>
   <i name="EDIFFG">     -0.03000000</i>
   <i type="int" name="NFREE">     1</i>
   <i name="POTIM">      0.50000000</i>
   <i name="SMASS">     -3.00000000</i>
   <i name="SCALEE">      1.00000000</i>
  </separator>
  <separator name="ionic md" >
   <i name="TEBEG">      0.00010000</i>
   <i name="TEEND">      0.00010000</i>
   <i type="int" name="NBLOCK">     1</i>
   <i type="int" name="KBLOCK">    30</i>
   <i type="int" name="NPACO">   256</i>
   <i name="APACO">     16.00000000</i>
  </separator>
  <separator name="symmetry" >
   <i type="int" name="ISYM">     2</i>
   <i name="SYMPREC">      0.00001000</i>
  </separator>
  <separator name="dos" >
   <i type="logical" name="LORBIT"> F  </i>
   <v name="RWIGS">     -1.00000000     -1.00000000     -1.00000000     -1.00000000</v>
   <i type="int" name="NEDOS">   301</i>
   <i name="EMIN">     10.00000000</i>
   <i name="EMAX">    -10.00000000</i>
   <i name="EFERMI">      0.00000000</i>
  </separator>
  <separator name="writing" >
   <i type="int" name="NWRITE">     2</i>
   <i type="logical" name="LWAVE"> T  </i>
   <i type="logical" name="LCHARG"> T  </i>
   <i type="logical" name="LPARD"> F  </i>
   <i type="logical" name="LVTOT"> F  </i>
   <i type="logical" name="LVHAR"> F  </i>
   <i type="logical" name="LELF"> F  </i>
   <i type="logical" name="LOPTICS"> F  </i>
   <v name="STM">      0.00000000      0.00000000      0.00000000      0.00000000      0.00000000      0.00000000      0.00000000</v>
  </separator>
  <separator name="performance" >
   <i type="int" name="NPAR">     2</i>
   <i type="int" name="NSIM">     4</i>
   <i type="int" name="NBLK">    -1</i>
   <i type="logical" name="LPLANE"> T  </i>
   <i type="logical" name="LSCALAPACK"> T  </i>
   <i type="logical" name="LSCAAWARE"> F  </i>
   <i type="logical" name="LSCALU"> F  </i>
   <i type="logical" name="LASYNC"> F  </i>
   <i type="logical" name="LORBITALREAL"> F  </i>
  </separator>
  <separator name="miscellaneous" >
   <i type="int" name="IDIOT">     3</i>
   <i type="logical" name="LMUSIC"> F  </i>
   <v name="POMASS">     87.62000000     47.88000000     55.84700000     16.00000000</v>
   <v name="DARWINR">      0.00000000      0.00000000      0.00000000      0.00000000</v>
   <v name="DARWINV">      1.00000000      1.00000000      1.00000000      1.00000000</v>
   <i type="logical" name="LCORR"> T  </i>
  </separator>
  <i type="logical" name="GGA_COMPAT"> T  </i>
  <i type="logical" name="LBERRY"> F  </i>
  <i type="int" name="ICORELEVEL">     0</i>
  <i type="logical" name="LDAU"> T  </i>
  <v type="int" name="LDAUTYPE">     2</v>
  <v type="int" name="LDAUL">     0</v>
  <v name="LDAUU">      0.00000000</v>
  <v name="LDAUJ">      0.00000000</v>
  <i type="int" name="LDAUPRINT">     1</i>
  <i type="int" name="I_CONSTRAINED_M">     0</i>
  <separator name="electronic exchange-correlation" >
   <i type="string" name="GGA">--</i>
   <i type="int" name="VOSKOWN">     0</i>
   <i type="logical" name="LHFCALC"> F  </i>
   <i type="string" name="PRECFOCK"></i>
   <i type="logical" name="LSYMGRAD"> F  </i>
   <i type="logical" name="LHFONE"> F  </i>
   <i type="logical" name="LRHFCALC"> F  </i>
   <i type="logical" name="LTHOMAS"> F  </i>
   <i type="logical" name="LMODELHF"> F  </i>
   <i name="ENCUT4O">     -1.00000000</i>
   <i type="int" name="EXXOEP">     0</i>
   <i type="int" name="FOURORBIT">     0</i>
   <i name="AEXX">      0.00000000</i>
   <i name="HFALPHA">      0.00000000</i>
   <i name="MCALPHA">      0.00000000</i>
   <i name="ALDAX">      1.00000000</i>
   <i name="AGGAX">      1.00000000</i>
   <i name="ALDAC">      1.00000000</i>
   <i name="AGGAC">      1.00000000</i>
   <i type="int" name="NKREDX">     1</i>
   <i type="int" name="NKREDY">     1</i>
   <i type="int" name="NKREDZ">     1</i>
   <i type="logical" name="SHIFTRED"> F  </i>
   <i type="logical" name="ODDONLY"> F  </i>
   <i type="logical" name="EVENONLY"> F  </i>
   <i type="int" name="LMAXFOCK">     0</i>
   <i type="int" name="NMAXFOCKAE">     0</i>
   <i type="logical" name="LFOCKAEDFT"> F  </i>
   <i name="HFSCREEN">      0.00000000</i>
   <i name="HFSCREENC">      0.00000000</i>
   <i type="int" name="NBANDSGWLOW">     0</i>
  </separator>
  <separator name="vdW DFT" >
   <i type="logical" name="LUSE_VDW"> F  </i>
   <i name="Zab_VDW">     -0.84910000</i>
   <i name="PARAM1">      0.12340000</i>
   <i name="PARAM2">      1.00000000</i>
   <i name="PARAM3">      0.00000000</i>
  </separator>
  <separator name="model GW" >
   <i type="int" name="MODEL_GW">     0</i>
   <i name="MODEL_EPS0">      8.19589900</i>
   <i name="MODEL_ALPHA">      1.00000000</i>
  </separator>
  <separator name="linear response parameters" >
   <i type="logical" name="LEPSILON"> F  </i>
   <i type="logical" name="LRPA"> F  </i>
   <i type="logical" name="LNABLA"> F  </i>
   <i type="logical" name="LVEL"> F  </i>
   <i type="int" name="KINTER">     0</i>
   <i name="CSHIFT">      0.10000000</i>
   <i name="OMEGAMAX">     -1.00000000</i>
   <i name="DEG_THRESHOLD">      0.00200000</i>
  </separator>
  <separator name="orbital magnetization" >
   <i type="logical" name="NUCIND"> F  </i>
   <v name="MAGPOS">      0.00000000      0.00000000      0.00000000</v>
   <i type="logical" name="LNICSALL"> T  </i>
   <i type="logical" name="ORBITALMAG"> F  </i>
   <i type="logical" name="LMAGBLOCH"> F  </i>
   <i type="logical" name="LCHIMAG"> F  </i>
   <i type="logical" name="LGAUGE"> T  </i>
   <i type="int" name="MAGATOM">     0</i>
   <v name="MAGDIPOL">      0.00000000      0.00000000      0.00000000</v>
   <v name="AVECCONST">      0.00000000      0.00000000      0.00000000</v>
  </separator>
  <separator name="response functions" >
   <i type="logical" name="LADDER"> F  </i>
   <i type="logical" name="LFXC"> F  </i>
   <i type="logical" name="LHARTREE"> T  </i>
   <i type="int" name="IBSE">     0</i>
   <v type="int" name="KPOINT">    -1     0     0     0</v>
   <i type="logical" name="LTCTE"> F  </i>
   <i type="logical" name="LTETE"> F  </i>
   <i type="logical" name="LTRIPLET"> F  </i>
   <i type="logical" name="LFXCEPS"> F  </i>
   <i type="logical" name="LFXHEG"> F  </i>
   <i type="int" name="NATURALO">     0</i>
   <i type="logical" name="L2ORDER"> F  </i>
   <i type="logical" name="LUSEW"> F  </i>
   <i name="ENCUTGW">     -2.00000000</i>
   <i name="ENCUTGWSOFT">     -2.00000000</i>
   <i name="ENCUTLF">     -1.00000000</i>
   <i type="int" name="LMAXMP2">    -1</i>
   <i name="SCISSOR">      0.00000000</i>
   <i type="int" name="NOMEGA">     0</i>
   <i type="int" name="NOMEGAR">     0</i>
   <i type="int" name="NBANDSGW">    -1</i>
   <i type="int" name="NBANDSO">    -1</i>
   <i type="int" name="NBANDSV">    -1</i>
   <i type="int" name="NELM">    40</i>
   <i type="int" name="NELMHF">     1</i>
   <i type="int" name="DIM">     3</i>
   <i type="int" name="ANTIRES">     0</i>
   <i name="OMEGAMAX">    -30.00000000</i>
   <i name="OMEGAMIN">    -30.00000000</i>
   <i name="OMEGATL">   -200.00000000</i>
   <i type="int" name="OMEGAGRID">     0</i>
   <i name="CSHIFT">     -0.10000000</i>
   <i type="logical" name="SELFENERGY"> F  </i>
   <i type="logical" name="LSPECTRAL"> F  </i>
   <i type="logical" name="LSPECTRALGW"> F  </i>
   <i type="logical" name="LSINGLES"> F  </i>
   <i type="logical" name="LFERMIGW"> F  </i>
   <i type="logical" name="ODDONLYGW"> F  </i>
   <i type="logical" name="EVENONLYGW"> F  </i>
   <i type="int" name="NKREDLFX">     1</i>
   <i type="int" name="NKREDLFY">     1</i>
   <i type="int" name="NKREDLFZ">     1</i>
   <i type="int" name="MAXMEM">  1800</i>
   <i type="int" name="TELESCOPE">     0</i>
   <i type="int" name="TAUPAR">     1</i>
   <i type="int" name="OMEGAPAR">    -1</i>
   <i name="LAMBDA">      1.00000000</i>
  </separator>
  <separator name="External order field" >
   <i name="OFIELD_KAPPA">      0.00000000</i>
   <v name="OFIELD_K">      0.00000000      0.00000000      0.00000000</v>
   <i name="OFIELD_Q6_NEAR">      0.00000000</i>
   <i name="OFIELD_Q6_FAR">      0.00000000</i>
   <i name="OFIELD_A">      0.00000000</i>
  </separator>
 </parameters>
 <atominfo>
  <atoms>     148 </atoms>
  <types>       4 </types>
  <array name="atoms" >
   <dimension dim="1">ion</dimension>
   <field type="string">element</field>
   <field type="int">atomtype</field>
   <set>
    <rc><c>Sr</c><c>   1</c></rc>
    <rc><c>Sr</c><c>   1</c></rc>
    <rc><c>Sr</c><c>   1</c></rc>
    <rc><c>Sr</c><c>   1</c></rc>
    <rc><c>Sr</c><c>   1</c></rc>
    <rc><c>Sr</c><c>   1</c></rc>
    <rc><c>Sr</c><c>   1</c></rc>
    <rc><c>Sr</c><c>   1</c></rc>
    <rc><c>Sr</c><c>   1</c></rc>
    <rc><c>Sr</c><c>   1</c></rc>
    <rc><c>Sr</c><c>   1</c></rc>
    <rc><c>Sr</c><c>   1</c></rc>
    <rc><c>Sr</c><c>   1</c></rc>
    <rc><c>Sr</c><c>   1</c></rc>
    <rc><c>Sr</c><c>   1</c></rc>
    <rc><c>Sr</c><c>   1</c></rc>
    <rc><c>Sr</c><c>   1</c></rc>
    <rc><c>Sr</c><c>   1</c></rc>
    <rc><c>Sr</c><c>   1</c></rc>
    <rc><c>Sr</c><c>   1</c></rc>
    <rc><c>Sr</c><c>   1</c></rc>
    <rc><c>Sr</c><c>   1</c></rc>
    <rc><c>Sr</c><c>   1</c></rc>
    <rc><c>Sr</c><c>   1</c></rc>
    <rc><c>Sr</c><c>   1</c></rc>
    <rc><c>Sr</c><c>   1</c></rc>
    <rc><c>Sr</c><c>   1</c></rc>
    <rc><c>Sr</c><c>   1</c></rc>
    <rc><c>Sr</c><c>   1</c></rc>
    <rc><c>Sr</c><c>   1</c></rc>
    <rc><c>Sr</c><c>   1</c></rc>
    <rc><c>Sr</c><c>   1</c></rc>
    <rc><c>Ti</c><c>   2</c></rc>
    <rc><c>Ti</c><c>   2</c></rc>
    <rc><c>Ti</c><c>   2</c></rc>
    <rc><c>Ti</c><c>   2</c></rc>
    <rc><c>Ti</c><c>   2</c></rc>
    <rc><c>Ti</c><c>   2</c></rc>
    <rc><c>Ti</c><c>   2</c></rc>
    <rc><c>Ti</c><c>   2</c></rc>
    <rc><c>Fe</c><c>   3</c></rc>
    <rc><c>Fe</c><c>   3</c></rc>
    <rc><c>Fe</c><c>   3</c></rc>
    <rc><c>Fe</c><c>   3</c></rc>
    <rc><c>Fe</c><c>   3</c></rc>
    <rc><c>Fe</c><c>   3</c></rc>
    <rc><c>Fe</c><c>   3</c></rc>
    <rc><c>Fe</c><c>   3</c></rc>
    <rc><c>Fe</c><c>   3</c></rc>
    <rc><c>Fe</c><c>   3</c></rc>
    <rc><c>Fe</c><c>   3</c></rc>
    <rc><c>Fe</c><c>   3</c></rc>
    <rc><c>Fe</c><c>   3</c></rc>
    <rc><c>Fe</c><c>   3</c></rc>
    <rc><c>Fe</c><c>   3</c></rc>
    <rc><c>Fe</c><c>   3</c></rc>
    <rc><c>Fe</c><c>   3</c></rc>
    <rc><c>Fe</c><c>   3</c></rc>
    <rc><c>Fe</c><c>   3</c></rc>
    <rc><c>Fe</c><c>   3</c></rc>
    <rc><c>Fe</c><c>   3</c></rc>
    <rc><c>Fe</c><c>   3</c></rc>
    <rc><c>Fe</c><c>   3</c></rc>
    <rc><c>Fe</c><c>   3</c></rc>
    <rc><c>O </c><c>   4</c></rc>
    <rc><c>O </c><c>   4</c></rc>
    <rc><c>O </c><c>   4</c></rc>
    <rc><c>O </c><c>   4</c></rc>
    <rc><c>O </c><c>   4</c></rc>
    <rc><c>O </c><c>   4</c></rc>
    <rc><c>O </c><c>   4</c></rc>
    <rc><c>O </c><c>   4</c></rc>
    <rc><c>O </c><c>   4</c></rc>
    <rc><c>O </c><c>   4</c></rc>
    <rc><c>O </c><c>   4</c></rc>
    <rc><c>O </c><c>   4</c></rc>
    <rc><c>O </c><c>   4</c></rc>
    <rc><c>O </c><c>   4</c></rc>
    <rc><c>O </c><c>   4</c></rc>
    <rc><c>O </c><c>   4</c></rc>
    <rc><c>O </c><c>   4</c></rc>
    <rc><c>O </c><c>   4</c></rc>
    <rc><c>O </c><c>   4</c></rc>
    <rc><c>O </c><c>   4</c></rc>
    <rc><c>O </c><c>   4</c></rc>
    <rc><c>O </c><c>   4</c></rc>
    <rc><c>O </c><c>   4</c></rc>
    <rc><c>O </c><c>   4</c></rc>
    <rc><c>O </c><c>   4</c></rc>
    <rc><c>O </c><c>   4</c></rc>
    <rc><c>O </c><c>   4</c></rc>
    <rc><c>O </c><c>   4</c></rc>
    <rc><c>O </c><c>   4</c></rc>
    <rc><c>O </c><c>   4</c></rc>
    <rc><c>O </c><c>   4</c></rc>
    <rc><c>O </c><c>   4</c></rc>
    <rc><c>O </c><c>   4</c></rc>
    <rc><c>O </c><c>   4</c></rc>
    <rc><c>O </c><c>   4</c></rc>
    <rc><c>O </c><c>   4</c></rc>
    <rc><c>O </c><c>   4</c></rc>
    <rc><c>O </c><c>   4</c></rc>
    <rc><c>O </c><c>   4</c></rc>
    <rc><c>O </c><c>   4</c></rc>
    <rc><c>O </c><c>   4</c></rc>
    <rc><c>O </c><c>   4</c></rc>
    <rc><c>O </c><c>   4</c></rc>
    <rc><c>O </c><c>   4</c></rc>
    <rc><c>O </c><c>   4</c></rc>
    <rc><c>O </c><c>   4</c></rc>
    <rc><c>O </c><c>   4</c></rc>
    <rc><c>O </c><c>   4</c></rc>
    <rc><c>O </c><c>   4</c></rc>
    <rc><c>O </c><c>   4</c></rc>
    <rc><c>O </c><c>   4</c></rc>
    <rc><c>O </c><c>   4</c></rc>
    <rc><c>O </c><c>   4</c></rc>
    <rc><c>O </c><c>   4</c></rc>
    <rc><c>O </c><c>   4</c></rc>
    <rc><c>O </c><c>   4</c></rc>
    <rc><c>O </c><c>   4</c></rc>
    <rc><c>O </c><c>   4</c></rc>
    <rc><c>O </c><c>   4</c></rc>
    <rc><c>O </c><c>   4</c></rc>
    <rc><c>O </c><c>   4</c></rc>
    <rc><c>O </c><c>   4</c></rc>
    <rc><c>O </c><c>   4</c></rc>
    <rc><c>O </c><c>   4</c></rc>
    <rc><c>O </c><c>   4</c></rc>
    <rc><c>O </c><c>   4</c></rc>
    <rc><c>O </c><c>   4</c></rc>
    <rc><c>O </c><c>   4</c></rc>
    <rc><c>O </c><c>   4</c></rc>
    <rc><c>O </c><c>   4</c></rc>
    <rc><c>O </c><c>   4</c></rc>
    <rc><c>O </c><c>   4</c></rc>
    <rc><c>O </c><c>   4</c></rc>
    <rc><c>O </c><c>   4</c></rc>
    <rc><c>O </c><c>   4</c></rc>
    <rc><c>O </c><c>   4</c></rc>
    <rc><c>O </c><c>   4</c></rc>
    <rc><c>O </c><c>   4</c></rc>
    <rc><c>O </c><c>   4</c></rc>
    <rc><c>O </c><c>   4</c></rc>
    <rc><c>O </c><c>   4</c></rc>
    <rc><c>O </c><c>   4</c></rc>
    <rc><c>O </c><c>   4</c></rc>
    <rc><c>O </c><c>   4</c></rc>
   </set>
  </array>
  <array name="atomtypes" >
   <dimension dim="1">type</dimension>
   <field type="int">atomspertype</field>
   <field type="string">element</field>
   <field>mass</field>
   <field>valence</field>
   <field type="string">pseudopotential</field>
   <set>
    <rc><c>  32</c><c>Sr</c><c>     87.62000000</c><c>     10.00000000</c><c>  PAW_PBE Sr_sv 07Sep2000               </c></rc>
    <rc><c>   8</c><c>Ti</c><c>     47.88000000</c><c>      4.00000000</c><c>  PAW_PBE Ti 08Apr2002                  </c></rc>
    <rc><c>  24</c><c>Fe</c><c>     55.84700000</c><c>      8.00000000</c><c>  PAW_PBE Fe 06Sep2000                  </c></rc>
    <rc><c>  84</c><c>O </c><c>     16.00000000</c><c>      6.00000000</c><c>  PAW_PBE O 08Apr2002                   </c></rc>
   </set>
  </array>
 </atominfo>
 <structure name="initialpos" >
  <crystal>
   <varray name="basis" >
    <v>      11.21269089      -0.00539156       0.00093987 </v>
    <v>      -0.00526619      11.39437852       0.00216963 </v>
    <v>       0.00128531       0.00281694      15.82365059 </v>
   </varray>
   <i name="volume">   2021.65508636 </i>
   <varray name="rec_basis" >
    <v>       0.08918468       0.00004122      -0.00000725 </v>
    <v>       0.00004220       0.08776260      -0.00001563 </v>
    <v>      -0.00000530      -0.00001204       0.06319654 </v>
   </varray>
  </crystal>
  <varray name="positions" >
   <v>       0.99479589       0.23714940       0.11247671 </v>
   <v>       0.00464448       0.23468523       0.61729614 </v>
   <v>       0.99712602       0.75065148       0.10858471 </v>
   <v>       0.98447812       0.74703250       0.61610362 </v>
   <v>       0.50244547       0.23201577       0.12122418 </v>
   <v>       0.49223403       0.23696990       0.61141810 </v>
   <v>       0.49360403       0.75750081       0.11575694 </v>
   <v>       0.50695568       0.74741503       0.61210123 </v>
   <v>       0.98969293       0.23422639       0.38490580 </v>
   <v>       0.00817523       0.23427065       0.88110603 </v>
   <v>       0.00704183       0.74801751       0.38847678 </v>
   <v>       0.99414081       0.75382981       0.88414590 </v>
   <v>       0.50883100       0.23380311       0.38019992 </v>
   <v>       0.49012302       0.24132012       0.89091021 </v>
   <v>       0.48484418       0.74906485       0.38398753 </v>
   <v>       0.49663947       0.74953865       0.89073476 </v>
   <v>       0.23989578       0.00873625       0.10549834 </v>
   <v>       0.25158576       0.01582461       0.62196336 </v>
   <v>       0.23071165       0.51087182       0.11031325 </v>
   <v>       0.24963716       0.48757416       0.61317330 </v>
   <v>       0.75590731       0.01828756       0.12254578 </v>
   <v>       0.74145843       0.00165127       0.60782532 </v>
   <v>       0.76607152       0.49554220       0.11652551 </v>
   <v>       0.74405158       0.51347009       0.61047789 </v>
   <v>       0.24177073       0.00105138       0.39211114 </v>
   <v>       0.25596241       0.01762273       0.88120144 </v>
   <v>       0.24434678       0.51509280       0.38901138 </v>
   <v>       0.26424884       0.49405856       0.88557822 </v>
   <v>       0.75205282       0.01888740       0.37590547 </v>
   <v>       0.73968604       0.00726753       0.89397067 </v>
   <v>       0.74968976       0.48616696       0.38518719 </v>
   <v>       0.73050716       0.51289578       0.88931924 </v>
   <v>       0.74549187       0.25429135       0.99867026 </v>
   <v>       0.99506689       0.99522742       0.50327562 </v>
   <v>       0.49519052       0.99569262       0.49699983 </v>
   <v>       0.24406636       0.74935028       0.99530219 </v>
   <v>       0.74413343       0.74939952       0.00452117 </v>
   <v>       0.99470768       0.49986855       0.50242524 </v>
   <v>       0.49476131       0.50033885       0.49613579 </v>
   <v>       0.25930046       0.24481673       0.74910834 </v>
   <v>       0.99588234       0.00095021       0.99559062 </v>
   <v>       0.49830245       0.98450367       0.75184358 </v>
   <v>       0.99470946       0.50244047       0.97699571 </v>
   <v>       0.75887055       0.24746429       0.25067176 </v>
   <v>       0.49449523       0.00177438       0.00378863 </v>
   <v>       0.49304415       0.50314063       0.02462785 </v>
   <v>       0.76949937       0.77427319       0.24664165 </v>
   <v>       0.24522575       0.25349370       0.00315127 </v>
   <v>       0.51249291       0.46248367       0.25280993 </v>
   <v>       0.25273563       0.28623964       0.25190678 </v>
   <v>       0.24549739       0.24860909       0.49482439 </v>
   <v>       0.74599308       0.24863614       0.50279741 </v>
   <v>       0.24475857       0.74512822       0.52284972 </v>
   <v>       0.74484636       0.74493835       0.47778037 </v>
   <v>       0.26813384       0.77573130       0.75381292 </v>
   <v>       0.25458157       0.80085714       0.24284638 </v>
   <v>       0.75311265       0.28572144       0.75023447 </v>
   <v>       0.01061826       0.46934919       0.25713719 </v>
   <v>       0.75445534       0.79967331       0.75697466 </v>
   <v>       0.99829519       0.98315206       0.24765448 </v>
   <v>       0.01781727       0.98376901       0.75077852 </v>
   <v>       0.52060473       0.98603065       0.24926738 </v>
   <v>       0.01298898       0.46056524       0.74696058 </v>
   <v>       0.51061278       0.46893595       0.74187946 </v>
   <v>       0.00117128       0.00139090       0.12284621 </v>
   <v>       0.97785572       0.00556828       0.63224162 </v>
   <v>       0.98309312       0.54471759       0.15664651 </v>
   <v>       0.99285073       0.51966077       0.63617513 </v>
   <v>       0.47619132       0.00672520       0.13298070 </v>
   <v>       0.50441922       0.99746738       0.62253761 </v>
   <v>       0.48214487       0.53584659       0.14816545 </v>
   <v>       0.48816649       0.51444771       0.62599442 </v>
   <v>       0.00598680       0.99452683       0.37920340 </v>
   <v>       0.97332595       0.01159457       0.86503850 </v>
   <v>       0.98878130       0.51526429       0.37377282 </v>
   <v>       0.98624277       0.53277057       0.85230052 </v>
   <v>       0.47896722       0.00368694       0.36928605 </v>
   <v>       0.50276226       0.00682099       0.87509675 </v>
   <v>       0.49240157       0.52132333       0.36440425 </v>
   <v>       0.48169075       0.54427836       0.84183439 </v>
   <v>       0.22385039       0.22362228       0.36109218 </v>
   <v>       0.25722009       0.25572982       0.87383318 </v>
   <v>       0.22261897       0.72432030       0.34332689 </v>
   <v>       0.24821973       0.72120733       0.86522744 </v>
   <v>       0.75294655       0.25396091       0.37769292 </v>
   <v>       0.72327003       0.23456346       0.86261211 </v>
   <v>       0.74691712       0.70806228       0.35499759 </v>
   <v>       0.73125752       0.74454110       0.87108896 </v>
   <v>       0.22299370       0.22957834       0.14234272 </v>
   <v>       0.25450722       0.25470815       0.62301904 </v>
   <v>       0.23191277       0.74708295       0.12802530 </v>
   <v>       0.24570334       0.70867498       0.64581296 </v>
   <v>       0.75765936       0.25683446       0.12176072 </v>
   <v>       0.72448790       0.22315422       0.64166276 </v>
   <v>       0.74971093       0.72281818       0.13400782 </v>
   <v>       0.72279018       0.72236604       0.65696053 </v>
   <v>       0.17970138       0.43753557       0.25246925 </v>
   <v>       0.41754328       0.32418017       0.25216480 </v>
   <v>       0.67128277       0.41142100       0.24814941 </v>
   <v>       0.92284589       0.33186001       0.25015634 </v>
   <v>       0.17329133       0.94938305       0.24874270 </v>
   <v>       0.42003551       0.83241698       0.25018632 </v>
   <v>       0.66942821       0.90353593       0.24909041 </v>
   <v>       0.93112750       0.82514454       0.25037257 </v>
   <v>       0.12307649       0.11715238       0.50693907 </v>
   <v>       0.37408213       0.12532436       0.49808437 </v>
   <v>       0.62293650       0.11739541       0.49446038 </v>
   <v>       0.87417615       0.12496407       0.50184332 </v>
   <v>       0.11590016       0.37460223       0.49850183 </v>
   <v>       0.36946502       0.37868311       0.48829728 </v>
   <v>       0.61584251       0.37472669       0.50174319 </v>
   <v>       0.86970464       0.37829507       0.51182812 </v>
   <v>       0.12328239       0.62075364       0.50363389 </v>
   <v>       0.37183727       0.62917858       0.49754778 </v>
   <v>       0.62325951       0.62085818       0.49677092 </v>
   <v>       0.87188923       0.62838439       0.50302751 </v>
   <v>       0.11868601       0.86718191       0.51469365 </v>
   <v>       0.36470474       0.87168663       0.50467076 </v>
   <v>       0.61851431       0.86705057       0.48778366 </v>
   <v>       0.86507777       0.87114041       0.49703421 </v>
   <v>       0.17227217       0.40765321       0.75006520 </v>
   <v>       0.42281016       0.33074120       0.74854617 </v>
   <v>       0.67946976       0.43663797       0.74795140 </v>
   <v>       0.91836636       0.32212138       0.74894397 </v>
   <v>       0.16909811       0.90642596       0.75211167 </v>
   <v>       0.42966280       0.82772162       0.74993481 </v>
   <v>       0.67340473       0.94799055       0.75107741 </v>
   <v>       0.92061990       0.83070382       0.75020620 </v>
   <v>       0.12407405       0.12334175       0.99245885 </v>
   <v>       0.37300480       0.13196345       0.00342227 </v>
   <v>       0.62531688       0.12568524       0.00718550 </v>
   <v>       0.87134721       0.13341078       0.99623430 </v>
   <v>       0.11260953       0.37847639       0.00006154 </v>
   <v>       0.36805615       0.38348261       0.01286667 </v>
   <v>       0.61499100       0.37822868       0.00119215 </v>
   <v>       0.86590878       0.38237889       0.98552453 </v>
   <v>       0.11966234       0.62332000       0.99591584 </v>
   <v>       0.37124973       0.62926707       0.00417906 </v>
   <v>       0.61934815       0.62285526       0.00441940 </v>
   <v>       0.87113206       0.62779445       0.99509457 </v>
   <v>       0.12072866       0.87173466       0.98653609 </v>
   <v>       0.36581137       0.87373760       0.99541871 </v>
   <v>       0.62121431       0.87254904       0.01082270 </v>
   <v>       0.86585771       0.87303515       0.00160986 </v>
   <v>       0.61425149       0.14081088       0.25013751 </v>
   <v>       0.87284728       0.10093536       0.25291451 </v>
   <v>       0.11754133       0.14437766       0.74802463 </v>
   <v>       0.36788700       0.10311086       0.74666507 </v>
  </varray>
 </structure>
 <calculation>
  <scstep>
   <time name="dav">  299.67  299.67</time>
   <time name="total">  303.45  303.55</time>
   <energy>
    <i name="alphaZ">   5558.52338522 </i>
    <i name="ewald"> -62630.80991730 </i>
    <i name="hartreedc"> -18903.51561804 </i>
    <i name="XCdc">   3409.12338179 </i>
    <i name="pawpsdc"> 120510.10654942 </i>
    <i name="pawaedc">-120016.24428119 </i>
    <i name="eentropy">     -0.00000000 </i>
    <i name="bandstr">  -7238.63874386 </i>
    <i name="atom">  78316.90445604 </i>
    <i name="e_fr_energy">   -994.55078793 </i>
    <i name="e_wo_entrp">   -994.55078793 </i>
    <i name="e_0_energy">   -994.55078793 </i>
   </energy>
  </scstep>
  <scstep>
   <time name="diag">   33.37   33.38</time>
   <time name="diis">   31.93   31.94</time>
   <time name="orth">   18.98   18.98</time>
   <time name="total">   88.05   88.08</time>
   <energy>
    <i name="e_fr_energy">   -994.55078542 </i>
    <i name="e_wo_entrp">   -994.55078542 </i>
    <i name="e_0_energy">   -994.55078542 </i>
   </energy>
  </scstep>
  <scstep>
   <time name="diag">   33.39   33.39</time>
   <time name="diis">   31.43   31.43</time>
   <time name="orth">   18.96   18.96</time>
   <time name="total">   87.55   87.60</time>
   <energy>
    <i name="e_fr_energy">   -994.55078585 </i>
    <i name="e_wo_entrp">   -994.55078585 </i>
    <i name="e_0_energy">   -994.55078585 </i>
   </energy>
  </scstep>
  <scstep>
   <time name="diag">   33.36   33.37</time>
   <time name="diis">   27.66   27.67</time>
   <time name="orth">   18.97   18.97</time>
   <time name="total">   83.76   83.93</time>
   <energy>
    <i name="e_fr_energy">   -994.55078658 </i>
    <i name="e_wo_entrp">   -994.55078658 </i>
    <i name="e_0_energy">   -994.55078658 </i>
   </energy>
  </scstep>
  <scstep>
   <time name="diag">   33.38   33.39</time>
   <time name="diis">   27.65   27.65</time>
   <time name="orth">   18.97   18.96</time>
   <time name="total">   83.77   83.84</time>
   <energy>
    <i name="e_fr_energy">   -994.55078733 </i>
    <i name="e_wo_entrp">   -994.55078733 </i>
    <i name="e_0_energy">   -994.55078733 </i>
   </energy>
  </scstep>
  <scstep>
   <time name="diag">   33.39   33.39</time>
   <time name="diis">   25.31   25.30</time>
   <time name="orth">   18.97   18.97</time>
   <time name="total">   81.43   81.49</time>
   <energy>
    <i name="e_fr_energy">   -994.55078743 </i>
    <i name="e_wo_entrp">   -994.55078743 </i>
    <i name="e_0_energy">   -994.55078743 </i>
   </energy>
  </scstep>
  <scstep>
   <time name="diag">   33.35   33.35</time>
   <time name="diis">   23.55   23.55</time>
   <time name="orth">   18.96   18.96</time>
   <time name="total">   79.62   79.73</time>
   <energy>
    <i name="e_fr_energy">   -994.55078746 </i>
    <i name="e_wo_entrp">   -994.55078746 </i>
    <i name="e_0_energy">   -994.55078746 </i>
   </energy>
  </scstep>
  <scstep>
   <time name="diag">   33.40   33.41</time>
   <time name="diis">   22.95   22.95</time>
   <time name="orth">   18.94   18.94</time>
   <time name="total">   75.86   75.99</time>
   <energy>
    <i name="alphaZ">   5558.52338522 </i>
    <i name="ewald"> -62630.80991730 </i>
    <i name="hartreedc"> -18903.51550914 </i>
    <i name="XCdc">   3409.12224938 </i>
    <i name="pawpsdc"> 120506.03648619 </i>
    <i name="pawaedc">-120012.17512483 </i>
    <i name="eentropy">     -0.00000000 </i>
    <i name="bandstr">  -7238.63681301 </i>
    <i name="atom">  78316.90445604 </i>
    <i name="e_fr_energy">   -994.55078746 </i>
    <i name="e_wo_entrp">   -994.55078746 </i>
    <i name="e_0_energy">   -994.55078746 </i>
   </energy>
  </scstep>
  <structure>
   <crystal>
    <varray name="basis" >
     <v>      11.21269089      -0.00539156       0.00093987 </v>
     <v>      -0.00526619      11.39437852       0.00216963 </v>
     <v>       0.00128531       0.00281694      15.82365059 </v>
    </varray>
    <i name="volume">   2021.65508636 </i>
    <varray name="rec_basis" >
     <v>       0.08918468       0.00004122      -0.00000725 </v>
     <v>       0.00004220       0.08776260      -0.00001563 </v>
     <v>      -0.00000530      -0.00001204       0.06319654 </v>
    </varray>
   </crystal>
   <varray name="positions" >
    <v>       0.99479589       0.23714940       0.11247671 </v>
    <v>       0.00464448       0.23468523       0.61729614 </v>
    <v>       0.99712602       0.75065148       0.10858471 </v>
    <v>       0.98447812       0.74703250       0.61610362 </v>
    <v>       0.50244547       0.23201577       0.12122418 </v>
    <v>       0.49223403       0.23696990       0.61141810 </v>
    <v>       0.49360403       0.75750081       0.11575694 </v>
    <v>       0.50695568       0.74741503       0.61210123 </v>
    <v>       0.98969293       0.23422639       0.38490580 </v>
    <v>       0.00817523       0.23427065       0.88110603 </v>
    <v>       0.00704183       0.74801751       0.38847678 </v>
    <v>       0.99414081       0.75382981       0.88414590 </v>
    <v>       0.50883100       0.23380311       0.38019992 </v>
    <v>       0.49012302       0.24132012       0.89091021 </v>
    <v>       0.48484418       0.74906485       0.38398753 </v>
    <v>       0.49663947       0.74953865       0.89073476 </v>
    <v>       0.23989578       0.00873625       0.10549834 </v>
    <v>       0.25158576       0.01582461       0.62196336 </v>
    <v>       0.23071165       0.51087182       0.11031325 </v>
    <v>       0.24963716       0.48757416       0.61317330 </v>
    <v>       0.75590731       0.01828756       0.12254578 </v>
    <v>       0.74145843       0.00165127       0.60782532 </v>
    <v>       0.76607152       0.49554220       0.11652551 </v>
    <v>       0.74405158       0.51347009       0.61047789 </v>
    <v>       0.24177073       0.00105138       0.39211114 </v>
    <v>       0.25596241       0.01762273       0.88120144 </v>
    <v>       0.24434678       0.51509280       0.38901138 </v>
    <v>       0.26424884       0.49405856       0.88557822 </v>
    <v>       0.75205282       0.01888740       0.37590547 </v>
    <v>       0.73968604       0.00726753       0.89397067 </v>
    <v>       0.74968976       0.48616696       0.38518719 </v>
    <v>       0.73050716       0.51289578       0.88931924 </v>
    <v>       0.74549187       0.25429135       0.99867026 </v>
    <v>       0.99506689       0.99522742       0.50327562 </v>
    <v>       0.49519052       0.99569262       0.49699983 </v>
    <v>       0.24406636       0.74935028       0.99530219 </v>
    <v>       0.74413343       0.74939952       0.00452117 </v>
    <v>       0.99470768       0.49986855       0.50242524 </v>
    <v>       0.49476131       0.50033885       0.49613579 </v>
    <v>       0.25930046       0.24481673       0.74910834 </v>
    <v>       0.99588234       0.00095021       0.99559062 </v>
    <v>       0.49830245       0.98450367       0.75184358 </v>
    <v>       0.99470946       0.50244047       0.97699571 </v>
    <v>       0.75887055       0.24746429       0.25067176 </v>
    <v>       0.49449523       0.00177438       0.00378863 </v>
    <v>       0.49304415       0.50314063       0.02462785 </v>
    <v>       0.76949937       0.77427319       0.24664165 </v>
    <v>       0.24522575       0.25349370       0.00315127 </v>
    <v>       0.51249291       0.46248367       0.25280993 </v>
    <v>       0.25273563       0.28623964       0.25190678 </v>
    <v>       0.24549739       0.24860909       0.49482439 </v>
    <v>       0.74599308       0.24863614       0.50279741 </v>
    <v>       0.24475857       0.74512822       0.52284972 </v>
    <v>       0.74484636       0.74493835       0.47778037 </v>
    <v>       0.26813384       0.77573130       0.75381292 </v>
    <v>       0.25458157       0.80085714       0.24284638 </v>
    <v>       0.75311265       0.28572144       0.75023447 </v>
    <v>       0.01061826       0.46934919       0.25713719 </v>
    <v>       0.75445534       0.79967331       0.75697466 </v>
    <v>       0.99829519       0.98315206       0.24765448 </v>
    <v>       0.01781727       0.98376901       0.75077852 </v>
    <v>       0.52060473       0.98603065       0.24926738 </v>
    <v>       0.01298898       0.46056524       0.74696058 </v>
    <v>       0.51061278       0.46893595       0.74187946 </v>
    <v>       0.00117128       0.00139090       0.12284621 </v>
    <v>       0.97785572       0.00556828       0.63224162 </v>
    <v>       0.98309312       0.54471759       0.15664651 </v>
    <v>       0.99285073       0.51966077       0.63617513 </v>
    <v>       0.47619132       0.00672520       0.13298070 </v>
    <v>       0.50441922       0.99746738       0.62253761 </v>
    <v>       0.48214487       0.53584659       0.14816545 </v>
    <v>       0.48816649       0.51444771       0.62599442 </v>
    <v>       0.00598680       0.99452683       0.37920340 </v>
    <v>       0.97332595       0.01159457       0.86503850 </v>
    <v>       0.98878130       0.51526429       0.37377282 </v>
    <v>       0.98624277       0.53277057       0.85230052 </v>
    <v>       0.47896722       0.00368694       0.36928605 </v>
    <v>       0.50276226       0.00682099       0.87509675 </v>
    <v>       0.49240157       0.52132333       0.36440425 </v>
    <v>       0.48169075       0.54427836       0.84183439 </v>
    <v>       0.22385039       0.22362228       0.36109218 </v>
    <v>       0.25722009       0.25572982       0.87383318 </v>
    <v>       0.22261897       0.72432030       0.34332689 </v>
    <v>       0.24821973       0.72120733       0.86522744 </v>
    <v>       0.75294655       0.25396091       0.37769292 </v>
    <v>       0.72327003       0.23456346       0.86261211 </v>
    <v>       0.74691712       0.70806228       0.35499759 </v>
    <v>       0.73125752       0.74454110       0.87108896 </v>
    <v>       0.22299370       0.22957834       0.14234272 </v>
    <v>       0.25450722       0.25470815       0.62301904 </v>
    <v>       0.23191277       0.74708295       0.12802530 </v>
    <v>       0.24570334       0.70867498       0.64581296 </v>
    <v>       0.75765936       0.25683446       0.12176072 </v>
    <v>       0.72448790       0.22315422       0.64166276 </v>
    <v>       0.74971093       0.72281818       0.13400782 </v>
    <v>       0.72279018       0.72236604       0.65696053 </v>
    <v>       0.17970138       0.43753557       0.25246925 </v>
    <v>       0.41754328       0.32418017       0.25216480 </v>
    <v>       0.67128277       0.41142100       0.24814941 </v>
    <v>       0.92284589       0.33186001       0.25015634 </v>
    <v>       0.17329133       0.94938305       0.24874270 </v>
    <v>       0.42003551       0.83241698       0.25018632 </v>
    <v>       0.66942821       0.90353593       0.24909041 </v>
    <v>       0.93112750       0.82514454       0.25037257 </v>
    <v>       0.12307649       0.11715238       0.50693907 </v>
    <v>       0.37408213       0.12532436       0.49808437 </v>
    <v>       0.62293650       0.11739541       0.49446038 </v>
    <v>       0.87417615       0.12496407       0.50184332 </v>
    <v>       0.11590016       0.37460223       0.49850183 </v>
    <v>       0.36946502       0.37868311       0.48829728 </v>
    <v>       0.61584251       0.37472669       0.50174319 </v>
    <v>       0.86970464       0.37829507       0.51182812 </v>
    <v>       0.12328239       0.62075364       0.50363389 </v>
    <v>       0.37183727       0.62917858       0.49754778 </v>
    <v>       0.62325951       0.62085818       0.49677092 </v>
    <v>       0.87188923       0.62838439       0.50302751 </v>
    <v>       0.11868601       0.86718191       0.51469365 </v>
    <v>       0.36470474       0.87168663       0.50467076 </v>
    <v>       0.61851431       0.86705057       0.48778366 </v>
    <v>       0.86507777       0.87114041       0.49703421 </v>
    <v>       0.17227217       0.40765321       0.75006520 </v>
    <v>       0.42281016       0.33074120       0.74854617 </v>
    <v>       0.67946976       0.43663797       0.74795140 </v>
    <v>       0.91836636       0.32212138       0.74894397 </v>
    <v>       0.16909811       0.90642596       0.75211167 </v>
    <v>       0.42966280       0.82772162       0.74993481 </v>
    <v>       0.67340473       0.94799055       0.75107741 </v>
    <v>       0.92061990       0.83070382       0.75020620 </v>
    <v>       0.12407405       0.12334175       0.99245885 </v>
    <v>       0.37300480       0.13196345       0.00342227 </v>
    <v>       0.62531688       0.12568524       0.00718550 </v>
    <v>       0.87134721       0.13341078       0.99623430 </v>
    <v>       0.11260953       0.37847639       0.00006154 </v>
    <v>       0.36805615       0.38348261       0.01286667 </v>
    <v>       0.61499100       0.37822868       0.00119215 </v>
    <v>       0.86590878       0.38237889       0.98552453 </v>
    <v>       0.11966234       0.62332000       0.99591584 </v>
    <v>       0.37124973       0.62926707       0.00417906 </v>
    <v>       0.61934815       0.62285526       0.00441940 </v>
    <v>       0.87113206       0.62779445       0.99509457 </v>
    <v>       0.12072866       0.87173466       0.98653609 </v>
    <v>       0.36581137       0.87373760       0.99541871 </v>
    <v>       0.62121431       0.87254904       0.01082270 </v>
    <v>       0.86585771       0.87303515       0.00160986 </v>
    <v>       0.61425149       0.14081088       0.25013751 </v>
    <v>       0.87284728       0.10093536       0.25291451 </v>
    <v>       0.11754133       0.14437766       0.74802463 </v>
    <v>       0.36788700       0.10311086       0.74666507 </v>
   </varray>
  </structure>
  <varray name="forces" >
   <v>      -0.00043793      -0.01616931       0.01031756 </v>
   <v>      -0.00853515       0.00625510       0.01193185 </v>
   <v>       0.00573183       0.01278285       0.00845482 </v>
   <v>       0.01069646      -0.00562479      -0.00625040 </v>
   <v>      -0.01935118       0.00916129      -0.01575333 </v>
   <v>       0.00681519       0.00047570       0.00644370 </v>
   <v>      -0.00333668      -0.00199188      -0.00944111 </v>
   <v>       0.00053979      -0.00063811      -0.00978925 </v>
   <v>       0.00150528       0.01218604      -0.01020465 </v>
   <v>      -0.00789347       0.01597981      -0.00347242 </v>
   <v>      -0.00794311      -0.01188873      -0.00216027 </v>
   <v>      -0.00488644       0.03571289       0.00382831 </v>
   <v>      -0.00410726      -0.00326138      -0.00742978 </v>
   <v>       0.00011767      -0.00151380       0.00598215 </v>
   <v>       0.02163903       0.00120200      -0.00223512 </v>
   <v>       0.00759316       0.00318049       0.00951634 </v>
   <v>      -0.00226143      -0.01077042       0.00383095 </v>
   <v>      -0.00417759      -0.01944327       0.00053948 </v>
   <v>       0.01861074      -0.00010954       0.00406022 </v>
   <v>      -0.01207056       0.00929973       0.01156534 </v>
   <v>      -0.02259035      -0.00137481      -0.00160837 </v>
   <v>       0.00341822      -0.01528219      -0.00148377 </v>
   <v>       0.01003843       0.01321752      -0.01274494 </v>
   <v>       0.00946516      -0.01646649       0.01228356 </v>
   <v>      -0.00572636      -0.00180331      -0.00517139 </v>
   <v>      -0.00953485      -0.00326112       0.00421718 </v>
   <v>       0.00513434      -0.01023759      -0.01604643 </v>
   <v>       0.01794837       0.00333416       0.00344104 </v>
   <v>      -0.00393408      -0.01117278      -0.00476289 </v>
   <v>      -0.01332383      -0.01459336      -0.00086821 </v>
   <v>       0.01298192       0.00649964      -0.00378507 </v>
   <v>       0.00252973      -0.00341570      -0.01237239 </v>
   <v>       0.00211531       0.00300014      -0.01081759 </v>
   <v>      -0.03300983       0.00730300       0.00715027 </v>
   <v>       0.00927095       0.00743572      -0.00623448 </v>
   <v>       0.03279937       0.00261199      -0.00608088 </v>
   <v>      -0.01790204       0.01306669       0.01095621 </v>
   <v>      -0.01960372      -0.01598557      -0.01206968 </v>
   <v>       0.00362839      -0.00577835      -0.00209989 </v>
   <v>      -0.00043564       0.02251452       0.04606591 </v>
   <v>      -0.00239919       0.00774886       0.00065390 </v>
   <v>      -0.00342845       0.00102818       0.01417975 </v>
   <v>      -0.00679980      -0.00902284       0.02314401 </v>
   <v>       0.00348486      -0.00148544      -0.00854267 </v>
   <v>      -0.00590294       0.00503970      -0.00384024 </v>
   <v>       0.00291432      -0.00570133      -0.02094916 </v>
   <v>      -0.01144038      -0.00162463       0.03188103 </v>
   <v>       0.01126265       0.00405916      -0.00478682 </v>
   <v>      -0.00998387      -0.00491332      -0.02368831 </v>
   <v>      -0.00168109       0.00612899      -0.00584688 </v>
   <v>       0.00568481      -0.00440805      -0.00371434 </v>
   <v>       0.01005190      -0.00094990       0.00165988 </v>
   <v>      -0.00114160       0.00954297      -0.01666819 </v>
   <v>       0.01608548       0.00646543       0.01367889 </v>
   <v>      -0.01548437       0.01320719      -0.00526353 </v>
   <v>       0.02221995       0.01353771      -0.02105145 </v>
   <v>       0.00288093       0.01772006       0.00557328 </v>
   <v>      -0.00129388       0.00531902       0.00067466 </v>
   <v>       0.02598445      -0.01258596      -0.00417182 </v>
   <v>       0.00709085      -0.00200974       0.00668893 </v>
   <v>       0.00787464       0.00330100      -0.02055571 </v>
   <v>      -0.00594859       0.00049336      -0.00254840 </v>
   <v>      -0.00448542       0.01011743       0.02571128 </v>
   <v>       0.00331211       0.01118329       0.03848745 </v>
   <v>       0.00203923      -0.00890845      -0.00497191 </v>
   <v>       0.00589405       0.00176439       0.00242394 </v>
   <v>      -0.00842377       0.02423340       0.01551152 </v>
   <v>       0.00328533       0.00879179      -0.00436723 </v>
   <v>       0.00431063       0.00370468       0.00174010 </v>
   <v>      -0.00040449      -0.00344980       0.01166950 </v>
   <v>      -0.00139573      -0.02371549      -0.01094614 </v>
   <v>       0.00368542      -0.00940526       0.01329747 </v>
   <v>       0.00268752       0.00500383      -0.01503660 </v>
   <v>       0.00729671      -0.00083382       0.00782625 </v>
   <v>      -0.00811542      -0.02014751       0.00052689 </v>
   <v>      -0.00263826      -0.02237170       0.00655158 </v>
   <v>       0.00011774       0.00807292       0.00184889 </v>
   <v>      -0.00171381      -0.01736400      -0.01181899 </v>
   <v>       0.00651295      -0.00773833       0.00311183 </v>
   <v>       0.00493565      -0.01598404      -0.02220932 </v>
   <v>       0.01562078       0.00119627      -0.00807899 </v>
   <v>      -0.01528435       0.00129560      -0.01175043 </v>
   <v>       0.00900594      -0.00544049       0.03007940 </v>
   <v>      -0.01619932       0.00549115      -0.01376028 </v>
   <v>      -0.00606494      -0.00087645      -0.00518928 </v>
   <v>       0.01739206      -0.01096228      -0.02098310 </v>
   <v>       0.00021091       0.00887170       0.00082647 </v>
   <v>       0.01856243       0.00631699      -0.01456898 </v>
   <v>       0.00821310      -0.00906637       0.00766870 </v>
   <v>       0.00232541      -0.00257524      -0.01437267 </v>
   <v>       0.01333271      -0.00279351       0.01456517 </v>
   <v>       0.00594203       0.01080442      -0.01388825 </v>
   <v>       0.00132713      -0.00020980       0.01185388 </v>
   <v>       0.01351140      -0.00709560       0.00142764 </v>
   <v>      -0.02254351       0.00731675       0.01467878 </v>
   <v>      -0.00021872       0.00993497      -0.00081603 </v>
   <v>      -0.02375281      -0.00579471      -0.00773724 </v>
   <v>      -0.00236632       0.01953982      -0.00317595 </v>
   <v>      -0.00944179      -0.00536249       0.01109451 </v>
   <v>      -0.00123312       0.01352343      -0.01219647 </v>
   <v>      -0.01531547      -0.02053479       0.01079664 </v>
   <v>      -0.01480596      -0.00138137       0.01460466 </v>
   <v>      -0.00220777       0.00174415       0.00902885 </v>
   <v>      -0.01761026       0.02031636       0.01137354 </v>
   <v>       0.00693845       0.01173884      -0.00689794 </v>
   <v>      -0.00266552       0.00074222       0.00463633 </v>
   <v>      -0.00887214       0.00140036       0.00169483 </v>
   <v>       0.01074473      -0.00142772      -0.00031897 </v>
   <v>       0.00088273      -0.01561152      -0.00048667 </v>
   <v>       0.00211196       0.00481961       0.00193034 </v>
   <v>      -0.01286778       0.00507829       0.00867532 </v>
   <v>       0.00755102       0.00313532      -0.00177175 </v>
   <v>      -0.00672474       0.00470007       0.00209351 </v>
   <v>      -0.00379804      -0.01532304      -0.01002630 </v>
   <v>      -0.01262152      -0.00522509      -0.00566602 </v>
   <v>       0.00267719      -0.01653730       0.01932965 </v>
   <v>       0.01933646      -0.01013436      -0.00765204 </v>
   <v>       0.00737465      -0.00472638      -0.00740489 </v>
   <v>       0.00350224      -0.00273318       0.00348890 </v>
   <v>       0.00540445      -0.01695934       0.00295197 </v>
   <v>       0.01697444      -0.00572729       0.01291648 </v>
   <v>      -0.01678577      -0.00959102       0.00221734 </v>
   <v>      -0.01303830      -0.00853420      -0.00277861 </v>
   <v>      -0.01501379       0.01572325       0.01329334 </v>
   <v>       0.00943721      -0.01454557      -0.01174449 </v>
   <v>      -0.00855055       0.00605337      -0.00364421 </v>
   <v>      -0.01830508      -0.00304353      -0.01001213 </v>
   <v>       0.00089265      -0.00442493      -0.00300369 </v>
   <v>      -0.01663366      -0.00644396       0.00489456 </v>
   <v>      -0.00305786      -0.00575568      -0.00648890 </v>
   <v>      -0.00731775      -0.00323792       0.00045942 </v>
   <v>       0.00683456      -0.00959532       0.00253937 </v>
   <v>       0.00669660       0.01378222      -0.00528336 </v>
   <v>       0.00180284      -0.00005982       0.00038771 </v>
   <v>       0.00329659       0.00294168      -0.00923960 </v>
   <v>       0.00196389      -0.00020364      -0.02122245 </v>
   <v>      -0.00412007       0.00961471       0.00568864 </v>
   <v>      -0.01080645       0.00364523      -0.00637969 </v>
   <v>      -0.00363133       0.00630681      -0.00824821 </v>
   <v>       0.00498013       0.00085690       0.00274221 </v>
   <v>      -0.00314544       0.00527547      -0.00077672 </v>
   <v>      -0.00727073      -0.01142525       0.00245434 </v>
   <v>       0.00432811      -0.01054374       0.00417031 </v>
   <v>       0.00521939       0.00936410       0.00069035 </v>
   <v>       0.01490613      -0.00383419      -0.00595053 </v>
   <v>       0.00346082       0.02389628      -0.00093193 </v>
   <v>       0.02110570      -0.00206576       0.00637476 </v>
   <v>      -0.00004503       0.01609598       0.00725295 </v>
  </varray>
  <varray name="stress" >
   <v>       0.05611528       0.01759754       0.03296670 </v>
   <v>       0.01759744      -0.36692361      -0.03679170 </v>
   <v>       0.03296649      -0.03679133      -0.07097270 </v>
  </varray>
  <energy>
   <i name="e_fr_energy">   -994.55078746 </i>
   <i name="e_wo_entrp">   -994.55078746 </i>
   <i name="e_0_energy">     -0.00000000 </i>
  </energy>
  <time name="totalsc"> 1036.36 1038.72</time>
 </calculation>
 <calculation>
  <scstep>
   <time name="dav">  287.43  287.42</time>
   <time name="total">  291.14  291.21</time>
   <energy>
    <i name="alphaZ">   5559.39637375 </i>
    <i name="ewald"> -62634.10787808 </i>
    <i name="hartreedc"> -18904.44370282 </i>
    <i name="XCdc">   3409.34206071 </i>
    <i name="pawpsdc"> 120506.02862443 </i>
    <i name="pawaedc">-120012.16734665 </i>
    <i name="eentropy">     -0.00000000 </i>
    <i name="bandstr">  -7235.50253732 </i>
    <i name="atom">  78316.90445604 </i>
    <i name="e_fr_energy">   -994.54994993 </i>
    <i name="e_wo_entrp">   -994.54994993 </i>
    <i name="e_0_energy">   -994.54994993 </i>
   </energy>
  </scstep>
  <scstep>
   <time name="diag">   33.44   33.45</time>
   <time name="diis">   52.69   52.70</time>
   <time name="orth">   18.99   18.99</time>
   <time name="total">  108.93  108.97</time>
   <energy>
    <i name="e_fr_energy">   -994.55210124 </i>
    <i name="e_wo_entrp">   -994.55210124 </i>
    <i name="e_0_energy">   -994.55210124 </i>
   </energy>
  </scstep>
  <scstep>
   <time name="diag">   33.46   33.46</time>
   <time name="diis">   48.67   48.68</time>
   <time name="orth">   18.99   18.98</time>
   <time name="total">  104.91  104.98</time>
   <energy>
    <i name="e_fr_energy">   -994.55233739 </i>
    <i name="e_wo_entrp">   -994.55233739 </i>
    <i name="e_0_energy">   -994.55233739 </i>
   </energy>
  </scstep>
  <scstep>
   <time name="diag">   33.45   33.47</time>
   <time name="diis">   34.68   34.71</time>
   <time name="orth">   18.96   18.99</time>
   <time name="total">   90.89   91.00</time>
   <energy>
    <i name="e_fr_energy">   -994.55226416 </i>
    <i name="e_wo_entrp">   -994.55226416 </i>
    <i name="e_0_energy">   -994.55226416 </i>
   </energy>
  </scstep>
  <scstep>
   <time name="diag">   33.38   33.42</time>
   <time name="diis">   32.93   32.92</time>
   <time name="orth">   18.99   18.99</time>
   <time name="total">   89.07   89.17</time>
   <energy>
    <i name="e_fr_energy">   -994.55223863 </i>
    <i name="e_wo_entrp">   -994.55223863 </i>
    <i name="e_0_energy">   -994.55223863 </i>
   </energy>
  </scstep>
  <scstep>
   <time name="diag">   33.40   33.40</time>
   <time name="diis">   32.14   32.16</time>
   <time name="orth">   18.99   18.99</time>
   <time name="total">   88.34   88.42</time>
   <energy>
    <i name="e_fr_energy">   -994.55224221 </i>
    <i name="e_wo_entrp">   -994.55224221 </i>
    <i name="e_0_energy">   -994.55224221 </i>
   </energy>
  </scstep>
  <scstep>
   <time name="diag">   33.38   33.38</time>
   <time name="diis">   31.66   31.68</time>
   <time name="orth">   18.97   18.96</time>
   <time name="total">   87.79   87.86</time>
   <energy>
    <i name="e_fr_energy">   -994.55224394 </i>
    <i name="e_wo_entrp">   -994.55224394 </i>
    <i name="e_0_energy">   -994.55224394 </i>
   </energy>
  </scstep>
  <scstep>
   <time name="diag">   33.41   33.41</time>
   <time name="diis">   30.70   30.71</time>
   <time name="orth">   18.97   18.97</time>
   <time name="total">   83.65   83.73</time>
   <energy>
    <i name="alphaZ">   5559.39637375 </i>
    <i name="ewald"> -62634.10787808 </i>
    <i name="hartreedc"> -18902.08192341 </i>
    <i name="XCdc">   3409.17911832 </i>
    <i name="pawpsdc"> 120519.15052149 </i>
    <i name="pawaedc">-120025.33539819 </i>
    <i name="eentropy">     -0.00000000 </i>
    <i name="bandstr">  -7237.65751529 </i>
    <i name="atom">  78316.90445604 </i>
    <i name="e_fr_energy">   -994.55224537 </i>
    <i name="e_wo_entrp">   -994.55224537 </i>
    <i name="e_0_energy">   -994.55224537 </i>
   </energy>
  </scstep>
  <structure>
   <crystal>
    <varray name="basis" >
     <v>      11.21294966      -0.00530960       0.00109196 </v>
     <v>      -0.00518381      11.39265883       0.00199707 </v>
     <v>       0.00149992       0.00257707      15.82318865 </v>
    </varray>
    <i name="volume">   2021.33762712 </i>
    <varray name="rec_basis" >
     <v>       0.08918262       0.00004058      -0.00000846 </v>
     <v>       0.00004157       0.08777584      -0.00001430 </v>
     <v>      -0.00000616      -0.00001108       0.06319839 </v>
    </varray>
   </crystal>
   <varray name="positions" >
    <v>       0.99479397       0.23708094       0.11250818 </v>
    <v>       0.00460776       0.23471169       0.61733252 </v>
    <v>       0.99715070       0.75070561       0.10861048 </v>
    <v>       0.98452413       0.74700871       0.61608456 </v>
    <v>       0.50236223       0.23205453       0.12117615 </v>
    <v>       0.49226335       0.23697193       0.61143774 </v>
    <v>       0.49358967       0.75749238       0.11572816 </v>
    <v>       0.50695800       0.74741234       0.61207139 </v>
    <v>       0.98969944       0.23427800       0.38487468 </v>
    <v>       0.00814130       0.23433829       0.88109544 </v>
    <v>       0.00700763       0.74796716       0.38847021 </v>
    <v>       0.99411985       0.75398100       0.88415756 </v>
    <v>       0.50881333       0.23378930       0.38017727 </v>
    <v>       0.49012352       0.24131371       0.89092845 </v>
    <v>       0.48493728       0.74906998       0.38398071 </v>
    <v>       0.49667214       0.74955212       0.89076377 </v>
    <v>       0.23988602       0.00869064       0.10551002 </v>
    <v>       0.25156774       0.01574228       0.62196502 </v>
    <v>       0.23079172       0.51087139       0.11032563 </v>
    <v>       0.24958524       0.48761350       0.61320856 </v>
    <v>       0.75581012       0.01828169       0.12254089 </v>
    <v>       0.74147311       0.00158657       0.60782080 </v>
    <v>       0.76611474       0.49559819       0.11648665 </v>
    <v>       0.74409226       0.51340038       0.61051535 </v>
    <v>       0.24174609       0.00104373       0.39209538 </v>
    <v>       0.25592138       0.01760890       0.88121430 </v>
    <v>       0.24436885       0.51504948       0.38896246 </v>
    <v>       0.26432607       0.49407271       0.88558871 </v>
    <v>       0.75203587       0.01884009       0.37589095 </v>
    <v>       0.73962868       0.00720571       0.89396804 </v>
    <v>       0.74974563       0.48619451       0.38517564 </v>
    <v>       0.73051804       0.51288133       0.88928152 </v>
    <v>       0.74550098       0.25430407       0.99863728 </v>
    <v>       0.99492488       0.99525827       0.50329742 </v>
    <v>       0.49523043       0.99572413       0.49698082 </v>
    <v>       0.24420749       0.74936141       0.99528364 </v>
    <v>       0.74405643       0.74945480       0.00455457 </v>
    <v>       0.99462331       0.49980084       0.50238846 </v>
    <v>       0.49477691       0.50031440       0.49612939 </v>
    <v>       0.25929862       0.24491202       0.74924878 </v>
    <v>       0.99587203       0.00098301       0.99559261 </v>
    <v>       0.49828769       0.98450801       0.75188681 </v>
    <v>       0.99468018       0.50240223       0.97706628 </v>
    <v>       0.75888554       0.24745801       0.25064571 </v>
    <v>       0.49446985       0.00179571       0.00377692 </v>
    <v>       0.49305669       0.50311652       0.02456399 </v>
    <v>       0.76945013       0.77426627       0.24673885 </v>
    <v>       0.24527422       0.25351092       0.00313667 </v>
    <v>       0.51244995       0.46246286       0.25273772 </v>
    <v>       0.25272841       0.28626559       0.25188895 </v>
    <v>       0.24552184       0.24859044       0.49481306 </v>
    <v>       0.74603632       0.24863213       0.50280246 </v>
    <v>       0.24475368       0.74516863       0.52279889 </v>
    <v>       0.74491558       0.74496575       0.47782206 </v>
    <v>       0.26806725       0.77578719       0.75379687 </v>
    <v>       0.25467721       0.80091452       0.24278218 </v>
    <v>       0.75312508       0.28579646       0.75025145 </v>
    <v>       0.01061270       0.46937171       0.25713925 </v>
    <v>       0.75456712       0.79962008       0.75696194 </v>
    <v>       0.99832570       0.98314356       0.24767487 </v>
    <v>       0.01785116       0.98378302       0.75071585 </v>
    <v>       0.52057914       0.98603273       0.24925961 </v>
    <v>       0.01296969       0.46060804       0.74703896 </v>
    <v>       0.51062704       0.46898327       0.74199680 </v>
    <v>       0.00118004       0.00135319       0.12283106 </v>
    <v>       0.97788108       0.00557576       0.63224901 </v>
    <v>       0.98305692       0.54482017       0.15669379 </v>
    <v>       0.99286489       0.51969800       0.63616181 </v>
    <v>       0.47620988       0.00674089       0.13298600 </v>
    <v>       0.50441747       0.99745276       0.62257318 </v>
    <v>       0.48213882       0.53574619       0.14813209 </v>
    <v>       0.48818233       0.51440789       0.62603497 </v>
    <v>       0.00599837       0.99454804       0.37915755 </v>
    <v>       0.97335734       0.01159105       0.86506236 </v>
    <v>       0.98874634       0.51517897       0.37377444 </v>
    <v>       0.98623137       0.53267584       0.85232051 </v>
    <v>       0.47896774       0.00372111       0.36929168 </v>
    <v>       0.50275486       0.00674748       0.87506073 </v>
    <v>       0.49242957       0.52129058       0.36441374 </v>
    <v>       0.48171196       0.54421071       0.84176669 </v>
    <v>       0.22391760       0.22362738       0.36106754 </v>
    <v>       0.25715434       0.25573529       0.87379736 </v>
    <v>       0.22265770       0.72429726       0.34341859 </v>
    <v>       0.24815004       0.72123055       0.86518549 </v>
    <v>       0.75292046       0.25395719       0.37767711 </v>
    <v>       0.72334484       0.23451709       0.86254814 </v>
    <v>       0.74691805       0.70809984       0.35500010 </v>
    <v>       0.73133741       0.74456790       0.87104454 </v>
    <v>       0.22302902       0.22953996       0.14236610 </v>
    <v>       0.25451723       0.25469726       0.62297522 </v>
    <v>       0.23197012       0.74707114       0.12806970 </v>
    <v>       0.24572893       0.70872075       0.64577061 </v>
    <v>       0.75766507       0.25683357       0.12179686 </v>
    <v>       0.72454602       0.22312421       0.64166711 </v>
    <v>       0.74961395       0.72284911       0.13405258 </v>
    <v>       0.72278925       0.72240810       0.65695804 </v>
    <v>       0.17959917       0.43751099       0.25244567 </v>
    <v>       0.41753314       0.32426289       0.25215510 </v>
    <v>       0.67124213       0.41139826       0.24818324 </v>
    <v>       0.92284061       0.33191727       0.25011915 </v>
    <v>       0.17322539       0.94929607       0.24877564 </v>
    <v>       0.41997180       0.83241109       0.25023085 </v>
    <v>       0.66941871       0.90354331       0.24911793 </v>
    <v>       0.93105177       0.82523051       0.25040724 </v>
    <v>       0.12310637       0.11720210       0.50691803 </v>
    <v>       0.37407066       0.12532749       0.49809850 </v>
    <v>       0.62289833       0.11740132       0.49446555 </v>
    <v>       0.87422238       0.12495805       0.50184234 </v>
    <v>       0.11590393       0.37453614       0.49850035 </v>
    <v>       0.36947412       0.37870352       0.48830316 </v>
    <v>       0.61578716       0.37474816       0.50176964 </v>
    <v>       0.86973714       0.37830836       0.51182271 </v>
    <v>       0.12325347       0.62077352       0.50364027 </v>
    <v>       0.37182090       0.62911370       0.49751723 </v>
    <v>       0.62320520       0.62083604       0.49675365 </v>
    <v>       0.87190071       0.62831436       0.50308645 </v>
    <v>       0.11876918       0.86713905       0.51467033 </v>
    <v>       0.36473647       0.87166664       0.50464818 </v>
    <v>       0.61852937       0.86703900       0.48779429 </v>
    <v>       0.86510099       0.87106861       0.49704322 </v>
    <v>       0.17234519       0.40762898       0.75010457 </v>
    <v>       0.42273792       0.33070056       0.74855294 </v>
    <v>       0.67941365       0.43660181       0.74794293 </v>
    <v>       0.91830179       0.32218791       0.74898449 </v>
    <v>       0.16913869       0.90636440       0.75207587 </v>
    <v>       0.42962602       0.82774724       0.74992370 </v>
    <v>       0.67332597       0.94797763       0.75104689 </v>
    <v>       0.92062373       0.83068509       0.75019705 </v>
    <v>       0.12400247       0.12331443       0.99247378 </v>
    <v>       0.37299163       0.13193908       0.00340249 </v>
    <v>       0.62528539       0.12567151       0.00718690 </v>
    <v>       0.87137659       0.13337016       0.99624204 </v>
    <v>       0.11263837       0.37853477       0.00004542 </v>
    <v>       0.36806390       0.38348236       0.01286785 </v>
    <v>       0.61500519       0.37824115       0.00116397 </v>
    <v>       0.86591724       0.38237805       0.98545983 </v>
    <v>       0.11964463       0.62336070       0.99593318 </v>
    <v>       0.37120324       0.62928248       0.00415961 </v>
    <v>       0.61933254       0.62288197       0.00439425 </v>
    <v>       0.87115349       0.62779808       0.99510293 </v>
    <v>       0.12071513       0.87175699       0.98653372 </v>
    <v>       0.36578007       0.87368921       0.99542620 </v>
    <v>       0.62123290       0.87250441       0.01083542 </v>
    <v>       0.86588018       0.87307481       0.00161196 </v>
    <v>       0.61431562       0.14079468       0.25011937 </v>
    <v>       0.87286222       0.10103654       0.25291165 </v>
    <v>       0.11763213       0.14436895       0.74804406 </v>
    <v>       0.36788684       0.10317901       0.74668718 </v>
   </varray>
  </structure>
  <varray name="forces" >
   <v>      -0.00106958      -0.01843221       0.01332154 </v>
   <v>       0.00413666       0.00857124       0.01079397 </v>
   <v>       0.00744758       0.01425471       0.00277835 </v>
   <v>       0.01835290      -0.01166866      -0.00794747 </v>
   <v>      -0.01355606       0.01038925      -0.00565647 </v>
   <v>      -0.00345066       0.00287070       0.00887758 </v>
   <v>      -0.00274625      -0.00332903       0.00210549 </v>
   <v>      -0.00519737      -0.00117029      -0.00871007 </v>
   <v>       0.00476787       0.00644682      -0.00944805 </v>
   <v>      -0.00952384       0.00766842      -0.00157102 </v>
   <v>       0.00433267      -0.00843577       0.00119988 </v>
   <v>      -0.00265237       0.02525449       0.00954314 </v>
   <v>      -0.00477838       0.00291025      -0.00557264 </v>
   <v>       0.00153729      -0.00403477      -0.00529784 </v>
   <v>       0.01136043      -0.00421314       0.00298611 </v>
   <v>       0.00709943       0.00448736      -0.00699732 </v>
   <v>      -0.00740502      -0.00492326       0.00231235 </v>
   <v>       0.00190067      -0.00727423      -0.00279244 </v>
   <v>       0.00995115       0.00418309       0.00608889 </v>
   <v>      -0.00813280       0.00436025       0.00332537 </v>
   <v>      -0.01625494      -0.00032606       0.00402094 </v>
   <v>      -0.00877628      -0.01267019       0.00830644 </v>
   <v>       0.00710773       0.01017597      -0.00323717 </v>
   <v>       0.00096731      -0.01137009       0.00930608 </v>
   <v>      -0.00374328      -0.00322354       0.00712233 </v>
   <v>      -0.01549029      -0.00564827      -0.00274702 </v>
   <v>       0.00712268      -0.00665946      -0.00377051 </v>
   <v>       0.00572841       0.00934182       0.00044627 </v>
   <v>      -0.00229102      -0.00431178      -0.00908551 </v>
   <v>      -0.00660225      -0.01378857      -0.00716796 </v>
   <v>       0.00020078       0.00250598      -0.00229022 </v>
   <v>       0.00956846       0.00251995      -0.01147029 </v>
   <v>       0.01046988      -0.00503725       0.00225276 </v>
   <v>       0.03901395      -0.00876822      -0.00940116 </v>
   <v>      -0.01172281       0.00548296       0.01090526 </v>
   <v>      -0.02970256       0.00587731      -0.01583431 </v>
   <v>       0.03375807      -0.01113466       0.00827824 </v>
   <v>       0.02936609      -0.00310611      -0.00166354 </v>
   <v>      -0.01420313      -0.00096930       0.00242273 </v>
   <v>       0.00617665       0.00464335      -0.01742039 </v>
   <v>      -0.00258128       0.00022574       0.00018822 </v>
   <v>      -0.00831902       0.00139530      -0.00895783 </v>
   <v>       0.00445084       0.01316724       0.01432868 </v>
   <v>       0.00271199       0.00126734      -0.00536961 </v>
   <v>      -0.00402969       0.00613174      -0.00387120 </v>
   <v>       0.01002195      -0.00074945      -0.01045707 </v>
   <v>      -0.00320908       0.00082069       0.00401973 </v>
   <v>      -0.00958971       0.00021118      -0.00143843 </v>
   <v>       0.00440773       0.00337214       0.00838412 </v>
   <v>      -0.00227858       0.00164676       0.00647302 </v>
   <v>       0.00518898       0.00174153       0.01337460 </v>
   <v>      -0.00516965       0.00393314      -0.00231745 </v>
   <v>       0.00217072      -0.00270633      -0.02323671 </v>
   <v>      -0.00419492      -0.01064637       0.01762982 </v>
   <v>       0.00440183      -0.00773741      -0.01816366 </v>
   <v>      -0.00197384      -0.01356567       0.02839310 </v>
   <v>      -0.00110190       0.00097766      -0.00954396 </v>
   <v>      -0.00715673       0.00750798       0.00044497 </v>
   <v>       0.00694849       0.00158834      -0.00692041 </v>
   <v>      -0.00300089       0.00688150       0.00465403 </v>
   <v>       0.00955095       0.00745388       0.00313170 </v>
   <v>      -0.00161312       0.00402718       0.00781139 </v>
   <v>       0.01420786       0.00364060      -0.00582799 </v>
   <v>      -0.00764991      -0.01604104      -0.03187755 </v>
   <v>       0.00215707      -0.00578364       0.00421615 </v>
   <v>       0.00139009       0.00159854      -0.00354422 </v>
   <v>      -0.00956856       0.02506856       0.00912781 </v>
   <v>       0.00130038      -0.00164004       0.01508815 </v>
   <v>       0.00077446       0.00104905      -0.00742684 </v>
   <v>       0.00198963       0.00018571      -0.00190509 </v>
   <v>      -0.00377768      -0.00605409      -0.02971196 </v>
   <v>       0.00521401      -0.00865634       0.02266602 </v>
   <v>      -0.00354835       0.00512407      -0.00075666 </v>
   <v>       0.00844197      -0.00330078      -0.01199070 </v>
   <v>      -0.01208679      -0.01384994       0.00183352 </v>
   <v>      -0.00491677      -0.01074037       0.02034229 </v>
   <v>       0.00260336       0.00728683      -0.00798239 </v>
   <v>      -0.00207512      -0.01595788       0.01410849 </v>
   <v>       0.00760520      -0.00639864      -0.01450007 </v>
   <v>      -0.00294507       0.01233644       0.03530346 </v>
   <v>       0.01440793       0.00033475      -0.01379411 </v>
   <v>      -0.01188094       0.00302460       0.02388215 </v>
   <v>       0.01337783       0.01141391      -0.00123045 </v>
   <v>      -0.00964339       0.00176375       0.00119809 </v>
   <v>      -0.00136658      -0.00151545       0.00464078 </v>
   <v>       0.00965239      -0.01402673       0.00260983 </v>
   <v>       0.00009346       0.00285555       0.01872804 </v>
   <v>       0.01147801       0.00455027      -0.00191482 </v>
   <v>       0.00992414      -0.00974713      -0.00467337 </v>
   <v>       0.00036275      -0.00132312       0.00463712 </v>
   <v>       0.01356913      -0.00475077      -0.00428162 </v>
   <v>       0.00736887       0.00973055      -0.00353147 </v>
   <v>      -0.00073544       0.00207291      -0.01350670 </v>
   <v>       0.01784841      -0.00441017       0.00060823 </v>
   <v>      -0.02173379       0.00844828       0.00925464 </v>
   <v>       0.00149657       0.00391790      -0.00944354 </v>
   <v>      -0.01017145      -0.00533704      -0.00771302 </v>
   <v>      -0.01153777       0.00286278      -0.00597709 </v>
   <v>      -0.00534686       0.00000797       0.00387950 </v>
   <v>      -0.00652417       0.00790779      -0.01081770 </v>
   <v>      -0.00878390      -0.01182200       0.00402576 </v>
   <v>       0.00723655       0.00557310       0.00078334 </v>
   <v>      -0.01082313       0.00475311       0.00626103 </v>
   <v>      -0.01656779       0.01179972       0.01125484 </v>
   <v>      -0.01378559      -0.00716932      -0.00658900 </v>
   <v>       0.00589108      -0.00624240       0.00010389 </v>
   <v>       0.00509524       0.00186884       0.00076196 </v>
   <v>      -0.00153727      -0.00048983      -0.00010283 </v>
   <v>      -0.01024815      -0.00667019      -0.00411322 </v>
[...]
       <r>   -17.6383     0.0000    32.0000 </r>
       <r>   -17.4845     0.0000    32.0000 </r>
       <r>   -17.3307     0.0000    32.0000 </r>
       <r>   -17.1769     0.0000    32.0000 </r>
       <r>   -17.0232     0.0000    32.0000 </r>
       <r>   -16.8694     0.0000    32.0000 </r>
       <r>   -16.7156     0.0000    32.0000 </r>
       <r>   -16.5618     0.0000    32.0000 </r>
       <r>   -16.4081     0.0000    32.0000 </r>
       <r>   -16.2543     0.0000    32.0000 </r>
       <r>   -16.1005     0.0000    32.0000 </r>
       <r>   -15.9467     0.0000    32.0000 </r>
       <r>   -15.7930     0.0000    32.0000 </r>
       <r>   -15.6392     0.0000    32.0000 </r>
       <r>   -15.4854     0.0000    32.0000 </r>
       <r>   -15.3316     0.0677    32.0104 </r>
       <r>   -15.1779     8.7121    33.3501 </r>
       <r>   -15.0241    35.5784    38.8212 </r>
       <r>   -14.8703    42.3104    45.3276 </r>
       <r>   -14.7165    43.2952    51.9854 </r>
       <r>   -14.5627    39.3831    58.0415 </r>
       <r>   -14.4090    43.9159    64.7948 </r>
       <r>   -14.2552    63.8399    74.6118 </r>
       <r>   -14.1014    81.7318    87.1802 </r>
       <r>   -13.9476    73.2257    98.4406 </r>
       <r>   -13.7939    53.7939   106.7128 </r>
       <r>   -13.6401    40.4672   112.9357 </r>
       <r>   -13.4863    14.3306   115.1394 </r>
       <r>   -13.3325     5.5957   115.9999 </r>
       <r>   -13.1788     0.0004   116.0000 </r>
       <r>   -13.0250     0.0000   116.0000 </r>
       <r>   -12.8712     0.0002   116.0000 </r>
       <r>   -12.7174     9.3734   117.4414 </r>
       <r>   -12.5637    80.4065   129.8060 </r>
       <r>   -12.4099   140.4483   151.4037 </r>
       <r>   -12.2561   114.0628   168.9438 </r>
       <r>   -12.1023    97.6543   183.9607 </r>
       <r>   -11.9485    82.1738   196.5971 </r>
       <r>   -11.7948    62.3206   206.1805 </r>
       <r>   -11.6410    29.5342   210.7222 </r>
       <r>   -11.4872     8.3019   211.9988 </r>
       <r>   -11.3334     0.0076   212.0000 </r>
       <r>   -11.1797     0.0000   212.0000 </r>
       <r>   -11.0259     0.0000   212.0000 </r>
       <r>   -10.8721     0.0000   212.0000 </r>
       <r>   -10.7183     0.0000   212.0000 </r>
       <r>   -10.5646     0.0000   212.0000 </r>
       <r>   -10.4108     0.0000   212.0000 </r>
       <r>   -10.2570     0.0000   212.0000 </r>
       <r>   -10.1032     0.0000   212.0000 </r>
       <r>    -9.9495     0.0000   212.0000 </r>
       <r>    -9.7957     0.0000   212.0000 </r>
       <r>    -9.6419     0.0000   212.0000 </r>
       <r>    -9.4881     0.0000   212.0000 </r>
       <r>    -9.3344     0.0000   212.0000 </r>
       <r>    -9.1806     0.0000   212.0000 </r>
       <r>    -9.0268     0.0000   212.0000 </r>
       <r>    -8.8730     0.0000   212.0000 </r>
       <r>    -8.7192     0.0000   212.0000 </r>
       <r>    -8.5655     0.0000   212.0000 </r>
       <r>    -8.4117     0.0000   212.0000 </r>
       <r>    -8.2579     0.0000   212.0000 </r>
       <r>    -8.1041     0.0000   212.0000 </r>
       <r>    -7.9504     0.0000   212.0000 </r>
       <r>    -7.7966     0.0000   212.0000 </r>
       <r>    -7.6428     0.0000   212.0000 </r>
       <r>    -7.4890     0.0000   212.0000 </r>
       <r>    -7.3353     0.0000   212.0000 </r>
       <r>    -7.1815     0.0000   212.0000 </r>
       <r>    -7.0277     0.0000   212.0000 </r>
       <r>    -6.8739     0.0000   212.0000 </r>
       <r>    -6.7202     0.0000   212.0000 </r>
       <r>    -6.5664     0.0000   212.0000 </r>
       <r>    -6.4126     0.0000   212.0000 </r>
       <r>    -6.2588     0.0000   212.0000 </r>
       <r>    -6.1050     0.0000   212.0000 </r>
       <r>    -5.9513     0.0000   212.0000 </r>
       <r>    -5.7975     0.0000   212.0000 </r>
       <r>    -5.6437     0.0000   212.0000 </r>
       <r>    -5.4899     0.0000   212.0000 </r>
       <r>    -5.3362     0.0000   212.0000 </r>
       <r>    -5.1824     0.0000   212.0000 </r>
       <r>    -5.0286     0.0000   212.0000 </r>
       <r>    -4.8748     0.0000   212.0000 </r>
       <r>    -4.7211     0.0000   212.0000 </r>
       <r>    -4.5673     0.0000   212.0000 </r>
       <r>    -4.4135     0.0000   212.0000 </r>
       <r>    -4.2597     0.0000   212.0000 </r>
       <r>    -4.1060     0.0000   212.0000 </r>
       <r>    -3.9522     0.0000   212.0000 </r>
       <r>    -3.7984     0.0000   212.0000 </r>
       <r>    -3.6446     0.0000   212.0000 </r>
       <r>    -3.4909     0.0000   212.0000 </r>
       <r>    -3.3371     0.0000   212.0000 </r>
       <r>    -3.1833     0.0000   212.0000 </r>
       <r>    -3.0295     0.0000   212.0000 </r>
       <r>    -2.8757     0.0000   212.0000 </r>
       <r>    -2.7220     0.0171   212.0026 </r>
       <r>    -2.5682     7.3015   213.1254 </r>
       <r>    -2.4144     7.5818   214.2913 </r>
       <r>    -2.2606    19.6314   217.3102 </r>
       <r>    -2.1069    18.6026   220.1708 </r>
       <r>    -1.9531    22.3236   223.6036 </r>
       <r>    -1.7993    29.3915   228.1234 </r>
       <r>    -1.6455    29.7502   232.6982 </r>
       <r>    -1.4918    34.5086   238.0048 </r>
       <r>    -1.3380    45.9735   245.0745 </r>
       <r>    -1.1842    69.4991   255.7618 </r>
       <r>    -1.0304    71.2354   266.7161 </r>
       <r>    -0.8767    75.3256   278.2994 </r>
       <r>    -0.7229    89.4991   292.0623 </r>
       <r>    -0.5691    90.6715   306.0054 </r>
       <r>    -0.4153    75.9995   317.6923 </r>
       <r>    -0.2616    59.0660   326.7753 </r>
       <r>    -0.1078    64.0840   336.6299 </r>
       <r>     0.0460    64.4255   346.5370 </r>
       <r>     0.1998    67.3595   356.8953 </r>
       <r>     0.3536    59.1521   365.9915 </r>
       <r>     0.5073    57.3206   374.8060 </r>
       <r>     0.6611    60.1625   384.0576 </r>
       <r>     0.8149    56.2345   392.7051 </r>
       <r>     0.9687    58.2108   401.6566 </r>
       <r>     1.1224    67.2270   411.9945 </r>
       <r>     1.2762    71.3750   422.9702 </r>
       <r>     1.4300    76.2431   434.6946 </r>
       <r>     1.5838    75.5571   446.3135 </r>
       <r>     1.7375    59.2759   455.4287 </r>
       <r>     1.8913    21.0507   458.6659 </r>
       <r>     2.0451    21.1937   461.9249 </r>
       <r>     2.1989    13.4787   463.9976 </r>
       <r>     2.3526     0.0154   464.0000 </r>
       <r>     2.5064     0.0000   464.0000 </r>
       <r>     2.6602     0.0000   464.0000 </r>
       <r>     2.8140     0.0000   464.0000 </r>
       <r>     2.9678     0.0000   464.0000 </r>
       <r>     3.1215     0.0000   464.0000 </r>
       <r>     3.2753     0.0000   464.0000 </r>
       <r>     3.4291     0.0000   464.0000 </r>
       <r>     3.5829     0.0000   464.0000 </r>
       <r>     3.7366     0.0000   464.0000 </r>
       <r>     3.8904     0.0000   464.0000 </r>
       <r>     4.0442     0.0000   464.0000 </r>
       <r>     4.1980     3.7554   464.5775 </r>
       <r>     4.3517    61.2278   473.9929 </r>
       <r>     4.5055    76.4531   485.7495 </r>
       <r>     4.6593    67.6794   496.1570 </r>
       <r>     4.8131    75.8181   507.8161 </r>
       <r>     4.9668    68.3485   518.3264 </r>
       <r>     5.1206    77.0558   530.1758 </r>
       <r>     5.2744    82.4436   542.8537 </r>
       <r>     5.4282    78.0591   554.8573 </r>
       <r>     5.5819    90.4011   568.7589 </r>
       <r>     5.7357    90.8571   582.7305 </r>
       <r>     5.8895    81.6999   595.2940 </r>
       <r>     6.0433    47.9377   602.6657 </r>
       <r>     6.1971    16.9476   605.2719 </r>
       <r>     6.3508     9.5098   606.7343 </r>
       <r>     6.5046     2.7091   607.1509 </r>
       <r>     6.6584     5.8979   608.0578 </r>
       <r>     6.8122     6.4338   609.0472 </r>
       <r>     6.9659    13.1985   611.0768 </r>
       <r>     7.1197    13.4182   613.1402 </r>
       <r>     7.2735    17.4459   615.8230 </r>
       <r>     7.4273    13.7670   617.9400 </r>
       <r>     7.5810    21.7178   621.2797 </r>
       <r>     7.7348    17.5715   623.9818 </r>
       <r>     7.8886    23.5108   627.5972 </r>
       <r>     8.0424    13.9796   629.7469 </r>
       <r>     8.1961    23.5656   633.3707 </r>
       <r>     8.3499    22.8406   636.8831 </r>
       <r>     8.5037    19.6893   639.9108 </r>
       <r>     8.6575    30.8312   644.6519 </r>
       <r>     8.8113    23.7373   648.3022 </r>
       <r>     8.9650    30.4074   652.9781 </r>
       <r>     9.1188    40.5374   659.2118 </r>
       <r>     9.2726    41.2186   665.5502 </r>
       <r>     9.4264    47.6497   672.8776 </r>
       <r>     9.5801    45.9187   679.9388 </r>
       <r>     9.7339    42.2634   686.4379 </r>
       <r>     9.8877    50.2362   694.1631 </r>
       <r>    10.0415    47.2608   701.4307 </r>
       <r>    10.1952    57.1448   710.2182 </r>
       <r>    10.3490    54.2036   718.5534 </r>
       <r>    10.5028    48.6669   726.0372 </r>
       <r>    10.6566    46.4091   733.1739 </r>
       <r>    10.8103    44.9158   740.0808 </r>
       <r>    10.9641    55.8344   748.6669 </r>
       <r>    11.1179    53.0515   756.8249 </r>
       <r>    11.2717    50.9092   764.6535 </r>
       <r>    11.4254    21.7451   767.9974 </r>
       <r>    11.5792     0.0169   768.0000 </r>
       <r>    11.7330     0.0000   768.0000 </r>
       <r>    11.8868     0.0000   768.0000 </r>
       <r>    12.0406     0.0000   768.0000 </r>
       <r>    12.1943     0.0000   768.0000 </r>
       <r>    12.3481     0.0000   768.0000 </r>
       <r>    12.5019     0.0000   768.0000 </r>
       <r>    12.6557     0.0000   768.0000 </r>
       <r>    12.8094     0.0000   768.0000 </r>
       <r>    12.9632     0.0000   768.0000 </r>
       <r>    13.1170     0.0000   768.0000 </r>
       <r>    13.2708     0.0000   768.0000 </r>
       <r>    13.4245     0.0000   768.0000 </r>
      </set>
     </set>
    </array>
   </total>
  </dos>
 </calculation>
 <structure name="finalpos" >
  <crystal>
   <varray name="basis" >
    <v>      11.21590110      -0.00474372       0.00167392 </v>
    <v>      -0.00461132      11.39032439       0.00187618 </v>
    <v>       0.00232154       0.00240897      15.82396214 </v>
   </varray>
   <i name="volume">   2021.55426545 </i>
   <varray name="rec_basis" >
    <v>       0.08915915       0.00003610      -0.00001309 </v>
    <v>       0.00003713       0.08779383      -0.00001337 </v>
    <v>      -0.00000944      -0.00001041       0.06319530 </v>
   </varray>
  </crystal>
  <varray name="positions" >
   <v>       0.99479023       0.23668018       0.11269437 </v>
   <v>       0.00458301       0.23484280       0.61749375 </v>
   <v>       0.99732553       0.75103485       0.10870718 </v>
   <v>       0.98485056       0.74682282       0.61599330 </v>
   <v>       0.50201911       0.23225832       0.12103792 </v>
   <v>       0.49228621       0.23700507       0.61156318 </v>
   <v>       0.49351175       0.75743279       0.11568231 </v>
   <v>       0.50691710       0.74739542       0.61195769 </v>
   <v>       0.98975155       0.23444551       0.38474783 </v>
   <v>       0.00795003       0.23456484       0.88107958 </v>
   <v>       0.00697830       0.74777422       0.38845660 </v>
   <v>       0.99404753       0.75454383       0.88425241 </v>
   <v>       0.50874984       0.23381023       0.38006903 </v>
   <v>       0.49015777       0.24124259       0.89091709 </v>
   <v>       0.48530675       0.74902884       0.38399071 </v>
   <v>       0.49685447       0.74965560       0.89074782 </v>
   <v>       0.23979136       0.00854071       0.10554899 </v>
   <v>       0.25157519       0.01554202       0.62195592 </v>
   <v>       0.23108933       0.51093671       0.11037565 </v>
   <v>       0.24938774       0.48773664       0.61329948 </v>
   <v>       0.75537996       0.01826804       0.12257449 </v>
   <v>       0.74139363       0.00130945       0.60785842 </v>
   <v>       0.76626740       0.49580984       0.11641772 </v>
   <v>       0.74417267       0.51316302       0.61063683 </v>
   <v>       0.24165250       0.00098377       0.39211178 </v>
   <v>       0.25563499       0.01752435       0.88121419 </v>
   <v>       0.24451333       0.51487557       0.38882355 </v>
   <v>       0.26454945       0.49423279       0.88563944 </v>
   <v>       0.75198656       0.01875060       0.37582067 </v>
   <v>       0.73941526       0.00693499       0.89389487 </v>
   <v>       0.74982623       0.48626391       0.38514052 </v>
   <v>       0.73067814       0.51291414       0.88910929 </v>
   <v>       0.74559732       0.25422419       0.99860211 </v>
   <v>       0.99502547       0.99530710       0.50323475 </v>
   <v>       0.49524564       0.99581595       0.49703051 </v>
   <v>       0.24417710       0.74935268       0.99515245 </v>
   <v>       0.74417201       0.74943989       0.00470090 </v>
   <v>       0.99471081       0.49961641       0.50232345 </v>
   <v>       0.49473409       0.50024446       0.49613661 </v>
   <v>       0.25937027       0.24507567       0.74934558 </v>
   <v>       0.99582192       0.00108753       0.99559353 </v>
   <v>       0.49816240       0.98452296       0.75188858 </v>
   <v>       0.99475919       0.50250481       0.97728689 </v>
   <v>       0.75892657       0.24747713       0.25056250 </v>
   <v>       0.49437569       0.00187252       0.00372780 </v>
   <v>       0.49319474       0.50307121       0.02431960 </v>
   <v>       0.76929225       0.77428761       0.24690853 </v>
   <v>       0.24521054       0.25354602       0.00310435 </v>
   <v>       0.51246052       0.46250845       0.25262838 </v>
   <v>       0.25270425       0.28629662       0.25185025 </v>
   <v>       0.24561990       0.24855360       0.49493981 </v>
   <v>       0.74605430       0.24863428       0.50277544 </v>
   <v>       0.24479681       0.74519336       0.52246594 </v>
   <v>       0.74499073       0.74487398       0.47809259 </v>
   <v>       0.26802288       0.77577925       0.75365298 </v>
   <v>       0.25479561       0.80079410       0.24291614 </v>
   <v>       0.75313144       0.28585372       0.75021047 </v>
   <v>       0.01049317       0.46952359       0.25710582 </v>
   <v>       0.75481609       0.79957954       0.75686704 </v>
   <v>       0.99829397       0.98323983       0.24775344 </v>
   <v>       0.01801080       0.98393492       0.75064704 </v>
   <v>       0.52050611       0.98611346       0.24928258 </v>
   <v>       0.01310518       0.46076416       0.74714207 </v>
   <v>       0.51049360       0.46891121       0.74201793 </v>
   <v>       0.00122536       0.00119681       0.12284853 </v>
   <v>       0.97796289       0.00561343       0.63220935 </v>
   <v>       0.98283385       0.54538946       0.15687621 </v>
   <v>       0.99293834       0.51971481       0.63629894 </v>
   <v>       0.47624911       0.00677620       0.13294740 </v>
   <v>       0.50441197       0.99743281       0.62260250 </v>
   <v>       0.48208847       0.53543852       0.14783173 </v>
   <v>       0.48824415       0.51424583       0.62623347 </v>
   <v>       0.00597199       0.99465891       0.37908347 </v>
   <v>       0.97353497       0.01152131       0.86501156 </v>
   <v>       0.98853834       0.51485970       0.37383027 </v>
   <v>       0.98613307       0.53238043       0.85256404 </v>
   <v>       0.47900236       0.00389766       0.36924973 </v>
   <v>       0.50272182       0.00639210       0.87512127 </v>
   <v>       0.49257517       0.52114397       0.36432574 </v>
   <v>       0.48173339       0.54419563       0.84193578 </v>
   <v>       0.22418960       0.22360960       0.36095237 </v>
   <v>       0.25688516       0.25577037       0.87394702 </v>
   <v>       0.22289181       0.72438087       0.34361486 </v>
   <v>       0.24788200       0.72132209       0.86509342 </v>
   <v>       0.75285936       0.25393559       0.37768535 </v>
   <v>       0.72359870       0.23423400       0.86246588 </v>
   <v>       0.74693168       0.70819012       0.35521180 </v>
   <v>       0.73165437       0.74466784       0.87096834 </v>
   <v>       0.22323193       0.22934515       0.14237999 </v>
   <v>       0.25455376       0.25468634       0.62296281 </v>
   <v>       0.23226517       0.74699381       0.12812187 </v>
   <v>       0.24584514       0.70890946       0.64557936 </v>
   <v>       0.75767467       0.25687703       0.12170729 </v>
   <v>       0.72489351       0.22301771       0.64167663 </v>
   <v>       0.74914281       0.72300799       0.13421169 </v>
   <v>       0.72279867       0.72249385       0.65683819 </v>
   <v>       0.17927140       0.43742277       0.25233236 </v>
   <v>       0.41736362       0.32442277       0.25208867 </v>
   <v>       0.67111505       0.41136241       0.24826283 </v>
   <v>       0.92272850       0.33215012       0.24994201 </v>
   <v>       0.17298537       0.94898440       0.24886811 </v>
   <v>       0.42000472       0.83246632       0.25031526 </v>
   <v>       0.66926423       0.90359064       0.24924939 </v>
   <v>       0.93071222       0.82551882       0.25057701 </v>
   <v>       0.12302671       0.11721301       0.50681309 </v>
   <v>       0.37410238       0.12526783       0.49813257 </v>
   <v>       0.62287346       0.11742914       0.49448954 </v>
   <v>       0.87430610       0.12492178       0.50182790 </v>
   <v>       0.11581726       0.37433624       0.49845948 </v>
   <v>       0.36946232       0.37870517       0.48828628 </v>
   <v>       0.61575441       0.37468882       0.50190643 </v>
   <v>       0.86974569       0.37820094       0.51180920 </v>
   <v>       0.12306051       0.62076200       0.50362464 </v>
   <v>       0.37173720       0.62887911       0.49739893 </v>
   <v>       0.62315130       0.62083616       0.49669702 </v>
   <v>       0.87180557       0.62806130       0.50329771 </v>
   <v>       0.11885455       0.86718408       0.51453541 </v>
   <v>       0.36495332       0.87160734       0.50452374 </v>
   <v>       0.61868776       0.86704714       0.48783378 </v>
   <v>       0.86530096       0.87085194       0.49709906 </v>
   <v>       0.17241353       0.40771699       0.75032293 </v>
   <v>       0.42254482       0.33071368       0.74868911 </v>
   <v>       0.67918577       0.43653407       0.74795933 </v>
   <v>       0.91817396       0.32254666       0.74912545 </v>
   <v>       0.16904769       0.90638350       0.75190986 </v>
   <v>       0.42942145       0.82780264       0.74992008 </v>
   <v>       0.67312004       0.94778170       0.75095073 </v>
   <v>       0.92082297       0.83067333       0.75009778 </v>
   <v>       0.12388532       0.12338074       0.99254497 </v>
   <v>       0.37288054       0.13183849       0.00327793 </v>
   <v>       0.62517927       0.12567870       0.00714274 </v>
   <v>       0.87132872       0.13333597       0.99628595 </v>
   <v>       0.11283265       0.37872129       0.00002696 </v>
   <v>       0.36811813       0.38341556       0.01280955 </v>
   <v>       0.61508495       0.37825756       0.00096972 </v>
   <v>       0.86589115       0.38231074       0.98522007 </v>
   <v>       0.11960164       0.62356085       0.99605251 </v>
   <v>       0.37118378       0.62921048       0.00402714 </v>
   <v>       0.61925016       0.62296423       0.00424930 </v>
   <v>       0.87110033       0.62785927       0.99520162 </v>
   <v>       0.12079346       0.87185916       0.98655561 </v>
   <v>       0.36583049       0.87363498       0.99546593 </v>
   <v>       0.62118449       0.87242946       0.01087635 </v>
   <v>       0.86582016       0.87316967       0.00163797 </v>
   <v>       0.61451553       0.14068276       0.24999080 </v>
   <v>       0.87299752       0.10137025       0.25283936 </v>
   <v>       0.11784281       0.14427792       0.74814982 </v>
   <v>       0.36793562       0.10335503       0.74686453 </v>
  </varray>
 </structure>
</modeling>
