       N       E                     dE             d eps       ncg     rms          rms(c)
DAV:   1    -0.105701743272E+04   -0.10570E+04   -0.11651E-02 13584   0.255E-01    0.316E-02
RMM:   2    -0.105701743157E+04    0.11473E-05   -0.20665E-05  6521   0.756E-03    0.521E-02
RMM:   3    -0.105701743186E+04   -0.28915E-06   -0.56513E-06  6012   0.450E-03    0.418E-03
RMM:   4    -0.105701743189E+04   -0.34037E-07   -0.11490E-06  2701   0.183E-03    0.247E-03
RMM:   5    -0.105701743194E+04   -0.45242E-07   -0.67751E-07  2714   0.203E-03    0.281E-03
RMM:   6    -0.105701743196E+04   -0.18845E-07   -0.24766E-07  2106   0.170E-03    0.141E-03
RMM:   7    -0.105701743197E+04   -0.12500E-07   -0.20702E-07  1878   0.175E-03    0.681E-04
RMM:   8    -0.105701743198E+04   -0.88330E-08   -0.62040E-08  1561   0.166E-03
   1 F= -.10570174E+04 E0= -.10570174E+04  d E =-.105702E+04  mag=    80.0000
       N       E                     dE             d eps       ncg     rms          rms(c)
DAV:   1    -0.105701662594E+04    0.80603E-03   -0.85538E-01 12416   0.108E+00    0.464E-01
RMM:   2    -0.105701950575E+04   -0.28798E-02   -0.26814E-02 12314   0.231E-01    0.353E-01
RMM:   3    -0.105701968712E+04   -0.18137E-03   -0.16294E-03 12742   0.680E-02    0.198E-01
RMM:   4    -0.105701948413E+04    0.20299E-03   -0.35710E-04  9973   0.245E-02    0.111E-01
RMM:   5    -0.105701942360E+04    0.60531E-04   -0.24286E-04  8853   0.189E-02    0.385E-02
RMM:   6    -0.105701942524E+04   -0.16410E-05   -0.33279E-05  7280   0.107E-02    0.313E-02
RMM:   7    -0.105701942580E+04   -0.56265E-06   -0.13367E-05  6949   0.454E-03    0.193E-02
RMM:   8    -0.105701942639E+04   -0.58269E-06   -0.65925E-06  6567   0.439E-03
   2 F= -.10570194E+04 E0= -.10570194E+04  d E =-.199441E-02  mag=    80.0000
       N       E                     dE             d eps       ncg     rms          rms(c)
DAV:   1    -0.105701942819E+04   -0.23841E-05   -0.20117E-02 13328   0.166E-01    0.739E-02
RMM:   2    -0.105701949533E+04   -0.67143E-04   -0.62310E-04 11158   0.357E-02    0.567E-02
RMM:   3    -0.105701949930E+04   -0.39707E-05   -0.28745E-05  6858   0.106E-02    0.317E-02
RMM:   4    -0.105701949581E+04    0.34892E-05   -0.92538E-06  6378   0.494E-03    0.183E-02
RMM:   5    -0.105701949402E+04    0.17904E-05   -0.76108E-06  5702   0.356E-03    0.111E-02
RMM:   6    -0.105701949405E+04   -0.29628E-07   -0.93291E-07  3535   0.237E-03    0.384E-03
RMM:   7    -0.105701949401E+04    0.37107E-07   -0.65889E-08  1558   0.160E-03    0.216E-03
RMM:   8    -0.105701949399E+04    0.29599E-07   -0.90846E-08  1475   0.164E-03
   3 F= -.10570195E+04 E0= -.10570195E+04  d E =-.206201E-02  mag=    80.0000
       N       E                     dE             d eps       ncg     rms          rms(c)
DAV:   1    -0.105701918815E+04    0.30586E-03   -0.60343E-01 12480   0.922E-01    0.288E-01
RMM:   2    -0.105702092612E+04   -0.17380E-02   -0.16676E-02 12420   0.178E-01    0.202E-01
RMM:   3    -0.105702099835E+04   -0.72237E-04   -0.93827E-04 11495   0.549E-02    0.116E-01
RMM:   4    -0.105702092335E+04    0.75000E-04   -0.17551E-04  7480   0.186E-02    0.645E-02
RMM:   5    -0.105702091059E+04    0.12764E-04   -0.85636E-05  7253   0.125E-02    0.394E-02
RMM:   6    -0.105702091277E+04   -0.21801E-05   -0.22415E-05  7047   0.850E-03    0.227E-02
RMM:   7    -0.105702091380E+04   -0.10263E-05   -0.10875E-05  6628   0.448E-03    0.115E-02
RMM:   8    -0.105702091443E+04   -0.63839E-06   -0.56494E-06  6179   0.427E-03
   4 F= -.10570209E+04 E0= -.10570209E+04  d E =-.142045E-02  mag=    80.0000
       N       E                     dE             d eps       ncg     rms          rms(c)
DAV:   1    -0.105702080978E+04    0.10402E-03   -0.67975E-02 12464   0.309E-01    0.968E-02
RMM:   2    -0.105702100872E+04   -0.19894E-03   -0.19070E-03 12247   0.596E-02    0.684E-02
RMM:   3    -0.105702101382E+04   -0.50947E-05   -0.82698E-05  7120   0.189E-02    0.400E-02
RMM:   4    -0.105702100794E+04    0.58760E-05   -0.30811E-05  7028   0.830E-03    0.226E-02
RMM:   5    -0.105702100719E+04    0.74707E-06   -0.14802E-05  6557   0.576E-03    0.255E-02
RMM:   6    -0.105702100765E+04   -0.45147E-06   -0.63743E-06  5964   0.417E-03    0.799E-03
RMM:   7    -0.105702100794E+04   -0.29737E-06   -0.24011E-06  4461   0.258E-03    0.377E-03
RMM:   8    -0.105702100810E+04   -0.15314E-06   -0.13186E-06  3660   0.235E-03
   5 F= -.10570210E+04 E0= -.10570210E+04  d E =-.151411E-02  mag=    80.0000
       N       E                     dE             d eps       ncg     rms          rms(c)
DAV:   1    -0.105702085259E+04    0.15536E-03   -0.50188E-01 12704   0.841E-01    0.226E-01
RMM:   2    -0.105702225822E+04   -0.14056E-02   -0.13084E-02 12584   0.154E-01    0.137E-01
RMM:   3    -0.105702231551E+04   -0.57296E-04   -0.69567E-04 10628   0.474E-02    0.774E-02
RMM:   4    -0.105702228308E+04    0.32433E-04   -0.11943E-04  7203   0.153E-02    0.437E-02
RMM:   5    -0.105702227635E+04    0.67297E-05   -0.63983E-05  7127   0.106E-02    0.169E-02
RMM:   6    -0.105702227815E+04   -0.17988E-05   -0.18367E-05  6994   0.698E-03    0.143E-02
RMM:   7    -0.105702227892E+04   -0.77192E-06   -0.97182E-06  6220   0.421E-03    0.687E-03
RMM:   8    -0.105702227903E+04   -0.11246E-06   -0.53426E-06  5524   0.390E-03
   6 F= -.10570223E+04 E0= -.10570223E+04  d E =-.127094E-02  mag=    80.0000
       N       E                     dE             d eps       ncg     rms          rms(c)
DAV:   1    -0.105701710548E+04    0.51734E-02   -0.22690E+00 12584   0.179E+00    0.480E-01
RMM:   2    -0.105702344925E+04   -0.63438E-02   -0.59020E-02 12599   0.326E-01    0.291E-01
RMM:   3    -0.105702371627E+04   -0.26701E-03   -0.32560E-03 12802   0.101E-01    0.164E-01
RMM:   4    -0.105702357222E+04    0.14405E-03   -0.65304E-04 12179   0.304E-02    0.904E-02
RMM:   5    -0.105702353362E+04    0.38604E-04   -0.27038E-04  8292   0.193E-02    0.401E-02
RMM:   6    -0.105702353700E+04   -0.33785E-05   -0.52646E-05  7217   0.123E-02    0.302E-02
RMM:   7    -0.105702353927E+04   -0.22686E-05   -0.27939E-05  7126   0.711E-03    0.147E-02
RMM:   8    -0.105702353969E+04   -0.42250E-06   -0.16095E-05  6999   0.654E-03
   7 F= -.10570235E+04 E0= -.10570235E+04  d E =-.253159E-02  mag=    80.0000
       N       E                     dE             d eps       ncg     rms          rms(c)
DAV:   1    -0.105702321182E+04    0.32744E-03   -0.55329E-01 12688   0.877E-01    0.227E-01
RMM:   2    -0.105702472155E+04   -0.15097E-02   -0.14582E-02 12548   0.161E-01    0.146E-01
RMM:   3    -0.105702477051E+04   -0.48959E-04   -0.79234E-04 10964   0.499E-02    0.859E-02
RMM:   4    -0.105702473544E+04    0.35070E-04   -0.12712E-04  7281   0.158E-02    0.512E-02
RMM:   5    -0.105702472688E+04    0.85577E-05   -0.75441E-05  7162   0.113E-02    0.202E-02
RMM:   6    -0.105702472982E+04   -0.29367E-05   -0.22016E-05  7043   0.746E-03    0.154E-02
RMM:   7    -0.105702473113E+04   -0.13110E-05   -0.12208E-05  6422   0.455E-03    0.748E-03
RMM:   8    -0.105702473192E+04   -0.78883E-06   -0.68682E-06  5847   0.433E-03
   8 F= -.10570247E+04 E0= -.10570247E+04  d E =-.119223E-02  mag=    80.0000
