       N       E                     dE             d eps       ncg     rms          rms(c)
DAV:   1    -0.108947957394E+04   -0.10895E+04   -0.16452E-02 13368   0.301E-01    0.289E-02
RMM:   2    -0.108947957303E+04    0.91353E-06   -0.19501E-05  6608   0.738E-03    0.499E-02
RMM:   3    -0.108947957322E+04   -0.19255E-06   -0.55499E-06  5894   0.439E-03    0.399E-03
RMM:   4    -0.108947957325E+04   -0.30399E-07   -0.12204E-06  2784   0.185E-03    0.243E-03
RMM:   5    -0.108947957331E+04   -0.54933E-07   -0.74703E-07  2723   0.206E-03    0.299E-03
RMM:   6    -0.108947957333E+04   -0.18437E-07   -0.27202E-07  2051   0.167E-03    0.134E-03
RMM:   7    -0.108947957333E+04   -0.92114E-08   -0.20826E-07  1819   0.171E-03    0.593E-04
RMM:   8    -0.108947957334E+04   -0.59954E-08   -0.42174E-08  1458   0.161E-03
   1 F= -.10894796E+04 E0= -.10894796E+04  d E =-.108948E+04  mag=    60.0000
       N       E                     dE             d eps       ncg     rms          rms(c)
DAV:   1    -0.108947957026E+04    0.30759E-05   -0.19672E-01 12544   0.518E-01    0.186E-01
RMM:   2    -0.108948012547E+04   -0.55521E-03   -0.56320E-03 12296   0.104E-01    0.144E-01
RMM:   3    -0.108948014084E+04   -0.15369E-04   -0.26401E-04  8814   0.313E-02    0.874E-02
RMM:   4    -0.108948011140E+04    0.29436E-04   -0.77000E-05  7194   0.135E-02    0.503E-02
RMM:   5    -0.108948009928E+04    0.12118E-04   -0.69272E-05  7131   0.102E-02    0.393E-02
RMM:   6    -0.108948010028E+04   -0.99547E-06   -0.19971E-05  6619   0.778E-03    0.219E-02
RMM:   7    -0.108948010085E+04   -0.57393E-06   -0.73232E-06  5811   0.347E-03    0.101E-02
RMM:   8    -0.108948010107E+04   -0.22042E-06   -0.35220E-06  5016   0.343E-03
   2 F= -.10894801E+04 E0= -.10894801E+04  d E =-.527733E-03  mag=    60.0000
       N       E                     dE             d eps       ncg     rms          rms(c)
DAV:   1    -0.108948010124E+04   -0.38925E-06   -0.41308E-05  7912   0.868E-03    0.136E-02
RMM:   2    -0.108948010185E+04   -0.61131E-06   -0.66598E-06  5797   0.494E-03    0.248E-02
RMM:   3    -0.108948010193E+04   -0.73429E-07   -0.14951E-06  3204   0.218E-03    0.363E-03
RMM:   4    -0.108948010194E+04   -0.14057E-07   -0.41244E-07  2306   0.203E-03    0.338E-03
RMM:   5    -0.108948010193E+04    0.96916E-08   -0.14876E-08  1615   0.173E-03    0.170E-03
RMM:   6    -0.108948010193E+04    0.41036E-08   -0.30975E-09  1282   0.173E-03    0.985E-04
RMM:   7    -0.108948010192E+04    0.40891E-08   -0.29426E-09  1115   0.173E-03    0.424E-04
RMM:   8    -0.108948010192E+04    0.66939E-09   -0.32996E-09  1027   0.173E-03
   3 F= -.10894801E+04 E0= -.10894801E+04  d E =-.528583E-03  mag=    60.0000
       N       E                     dE             d eps       ncg     rms          rms(c)
DAV:   1    -0.108948015672E+04   -0.54801E-04   -0.15946E-01 12448   0.468E-01    0.123E-01
RMM:   2    -0.108948056599E+04   -0.40927E-03   -0.41624E-03 12352   0.862E-02    0.837E-02
RMM:   3    -0.108948056985E+04   -0.38549E-05   -0.18561E-04  7583   0.276E-02    0.517E-02
RMM:   4    -0.108948055824E+04    0.11609E-04   -0.58030E-05  6932   0.113E-02    0.280E-02
RMM:   5    -0.108948055749E+04    0.75037E-06   -0.27252E-05  6791   0.782E-03    0.307E-02
RMM:   6    -0.108948055835E+04   -0.86057E-06   -0.10615E-05  5922   0.525E-03    0.101E-02
RMM:   7    -0.108948055900E+04   -0.64679E-06   -0.45503E-06  4784   0.323E-03    0.498E-03
RMM:   8    -0.108948055941E+04   -0.41439E-06   -0.26446E-06  3806   0.276E-03
   4 F= -.10894806E+04 E0= -.10894806E+04  d E =-.457487E-03  mag=    60.0000
