<?xml version="1.0" encoding="ISO-8859-1"?>
<modeling>
 <generator>
  <i name="program" type="string">vasp </i>
  <i name="version" type="string">5.4.1  </i>
  <i name="subversion" type="string">05Feb16 (build Jan 25 2017 20:16:33) complex                          parallel </i>
  <i name="platform" type="string">BWXE6 </i>
  <i name="date" type="string">2019 06 25 </i>
  <i name="time" type="string">10:07:10 </i>
 </generator>
 <incar>
  <i type="string" name="SYSTEM"> STF</i>
  <i type="string" name="PREC">normal</i>
  <i type="string" name="ALGO"> Fast</i>
  <i type="int" name="ISPIN">     2</i>
  <i type="int" name="NELM">    40</i>
  <i type="int" name="NELMIN">     8</i>
  <i type="int" name="IBRION">     2</i>
  <i name="EDIFF">      0.00010000</i>
  <i name="EDIFFG">     -0.03000000</i>
  <i type="int" name="NSW">    30</i>
  <i type="int" name="ISIF">     3</i>
  <i name="ENCUT">    520.00000000</i>
  <i type="int" name="NBANDS">   768</i>
  <v name="MAGMOM">      0.60000000      0.60000000      0.60000000      0.60000000      0.60000000      0.60000000      0.60000000      0.60000000      0.60000000      0.60000000      0.60000000      0.60000000      0.60000000      0.60000000      0.60000000      0.60000000      0.60000000      0.60000000      0.60000000      0.60000000
      0.60000000      0.60000000      0.60000000      0.60000000      0.60000000      0.60000000      0.60000000      0.60000000      0.60000000      0.60000000      0.60000000      0.60000000      0.60000000      0.60000000      0.60000000      0.60000000      0.60000000      0.60000000      0.60000000      0.60000000
      0.60000000      0.60000000      0.60000000      0.60000000      0.60000000      0.60000000      0.60000000      0.60000000      0.60000000      0.60000000      0.60000000      0.60000000      0.60000000      0.60000000      0.60000000      0.60000000      5.00000000      5.00000000      5.00000000      5.00000000
      5.00000000      5.00000000      5.00000000      5.00000000      0.60000000      0.60000000      0.60000000      0.60000000      0.60000000      0.60000000      0.60000000      0.60000000      0.60000000      0.60000000      0.60000000      0.60000000      0.60000000      0.60000000      0.60000000      0.60000000
      0.60000000      0.60000000      0.60000000      0.60000000      0.60000000      0.60000000      0.60000000      0.60000000      0.60000000      0.60000000      0.60000000      0.60000000      0.60000000      0.60000000      0.60000000      0.60000000      0.60000000      0.60000000      0.60000000      0.60000000
      0.60000000      0.60000000      0.60000000      0.60000000      0.60000000      0.60000000      0.60000000      0.60000000      0.60000000      0.60000000      0.60000000      0.60000000      0.60000000      0.60000000      0.60000000      0.60000000      0.60000000      0.60000000      0.60000000      0.60000000
      0.60000000      0.60000000      0.60000000      0.60000000      0.60000000      0.60000000      0.60000000      0.60000000      0.60000000      0.60000000      0.60000000      0.60000000      0.60000000      0.60000000      0.60000000      0.60000000      0.60000000      0.60000000      0.60000000      0.60000000
      0.60000000      0.60000000      0.60000000      0.60000000      0.60000000      0.60000000      0.60000000      0.60000000      0.60000000      0.60000000      0.60000000      0.60000000      0.60000000      0.60000000      0.60000000      0.60000000</v>
  <i type="string" name="LREAL"> Auto</i>
  <i type="int" name="ISMEAR">     0</i>
  <i name="SIGMA">      0.05000000</i>
  <i type="int" name="LMAXMIX">     4</i>
  <v type="int" name="KPOINT_BSE">    -1     0     0     0</v>
  <i type="int" name="NELM">    40</i>
  <i type="logical" name="LDAU"> T  </i>
  <v type="int" name="LDAUTYPE">     2</v>
  <v type="int" name="LDAUL">     0     2     2     0</v>
  <v name="LDAUU">      0.00000000      3.00000000      5.00000000      0.00000000</v>
  <v name="LDAUJ">      0.00000000      0.00000000      0.00000000      0.00000000</v>
  <i type="int" name="LDAUPRINT">     1</i>
 </incar>
 <kpoints>
  <generation param="Monkhorst-Pack">
   <v type="int" name="divisions">       2        2        2 </v>
   <v name="usershift">      0.00000000       0.00000000       0.00000000 </v>
   <v name="genvec1">      0.50000000       0.00000000       0.00000000 </v>
   <v name="genvec2">     -0.00000000       0.50000000       0.00000000 </v>
   <v name="genvec3">      0.00000000      -0.00000000       0.50000000 </v>
   <v name="shift">      0.50000000       0.50000000       0.50000000 </v>
  </generation>
  <varray name="kpointlist" >
   <v>       0.25000000       0.25000000       0.25000000 </v>
   <v>      -0.25000000       0.25000000       0.25000000 </v>
   <v>       0.25000000      -0.25000000       0.25000000 </v>
   <v>      -0.25000000      -0.25000000       0.25000000 </v>
  </varray>
  <varray name="weights" >
   <v>       0.25000000 </v>
   <v>       0.25000000 </v>
   <v>       0.25000000 </v>
   <v>       0.25000000 </v>
  </varray>
 </kpoints>
 <parameters>
  <separator name="general" >
   <i type="string" name="SYSTEM">STF</i>
   <i type="logical" name="LCOMPAT"> F  </i>
  </separator>
  <separator name="electronic" >
   <i type="string" name="PREC">normal</i>
   <i name="ENMAX">    520.00000000</i>
   <i name="ENAUG">    605.39200000</i>
   <i name="EDIFF">      0.00010000</i>
   <i type="int" name="IALGO">    68</i>
   <i type="int" name="IWAVPR">    11</i>
   <i type="int" name="NBANDS">   768</i>
   <i name="NELECT">   1032.00000000</i>
   <i type="int" name="TURBO">     0</i>
   <i type="int" name="IRESTART">     0</i>
   <i type="int" name="NREBOOT">     0</i>
   <i type="int" name="NMIN">     0</i>
   <i name="EREF">      0.00000000</i>
   <separator name="electronic smearing" >
    <i type="int" name="ISMEAR">     0</i>
    <i name="SIGMA">      0.05000000</i>
    <i name="KSPACING">      0.50000000</i>
    <i type="logical" name="KGAMMA"> T  </i>
   </separator>
   <separator name="electronic projectors" >
    <i type="logical" name="LREAL"> T  </i>
    <v name="ROPT">     -0.00050000     -0.00050000     -0.00050000     -0.00050000</v>
    <i type="int" name="LMAXPAW">  -100</i>
    <i type="int" name="LMAXMIX">     4</i>
    <i type="logical" name="NLSPLINE"> F  </i>
   </separator>
   <separator name="electronic startup" >
    <i type="int" name="ISTART">     1</i>
    <i type="int" name="ICHARG">     0</i>
    <i type="int" name="INIWAV">     1</i>
   </separator>
   <separator name="electronic spin" >
    <i type="int" name="ISPIN">     2</i>
    <i type="logical" name="LNONCOLLINEAR"> F  </i>
    <v name="MAGMOM">      0.60000000      0.60000000      0.60000000      0.60000000      0.60000000      0.60000000      0.60000000      0.60000000      0.60000000      0.60000000      0.60000000      0.60000000      0.60000000      0.60000000      0.60000000      0.60000000      0.60000000      0.60000000      0.60000000      0.60000000
      0.60000000      0.60000000      0.60000000      0.60000000      0.60000000      0.60000000      0.60000000      0.60000000      0.60000000      0.60000000      0.60000000      0.60000000      0.60000000      0.60000000      0.60000000      0.60000000      0.60000000      0.60000000      0.60000000      0.60000000
      0.60000000      0.60000000      0.60000000      0.60000000      0.60000000      0.60000000      0.60000000      0.60000000      0.60000000      0.60000000      0.60000000      0.60000000      0.60000000      0.60000000      0.60000000      0.60000000      5.00000000      5.00000000      5.00000000      5.00000000
      5.00000000      5.00000000      5.00000000      5.00000000      0.60000000      0.60000000      0.60000000      0.60000000      0.60000000      0.60000000      0.60000000      0.60000000      0.60000000      0.60000000      0.60000000      0.60000000      0.60000000      0.60000000      0.60000000      0.60000000
      0.60000000      0.60000000      0.60000000      0.60000000      0.60000000      0.60000000      0.60000000      0.60000000      0.60000000      0.60000000      0.60000000      0.60000000      0.60000000      0.60000000      0.60000000      0.60000000      0.60000000      0.60000000      0.60000000      0.60000000
      0.60000000      0.60000000      0.60000000      0.60000000      0.60000000      0.60000000      0.60000000      0.60000000      0.60000000      0.60000000      0.60000000      0.60000000      0.60000000      0.60000000      0.60000000      0.60000000      0.60000000      0.60000000      0.60000000      0.60000000
      0.60000000      0.60000000      0.60000000      0.60000000      0.60000000      0.60000000      0.60000000      0.60000000      0.60000000      0.60000000      0.60000000      0.60000000      0.60000000      0.60000000      0.60000000      0.60000000      0.60000000      0.60000000      0.60000000      0.60000000
      0.60000000      0.60000000      0.60000000      0.60000000      0.60000000      0.60000000      0.60000000      0.60000000      0.60000000      0.60000000      0.60000000      0.60000000      0.60000000      0.60000000      0.60000000      0.60000000</v>
    <i name="NUPDOWN">     -1.00000000</i>
    <i type="logical" name="LSORBIT"> F  </i>
    <v name="SAXIS">      0.00000000      0.00000000      1.00000000</v>
    <i type="logical" name="LSPIRAL"> F  </i>
    <v name="QSPIRAL">      0.00000000      0.00000000      0.00000000</v>
    <i type="logical" name="LZEROZ"> F  </i>
   </separator>
   <separator name="electronic exchange-correlation" >
    <i type="logical" name="LASPH"> F  </i>
    <i type="logical" name="LMETAGGA"> F  </i>
   </separator>
   <separator name="electronic convergence" >
    <i type="int" name="NELM">    40</i>
    <i type="int" name="NELMDL">     0</i>
    <i type="int" name="NELMIN">     8</i>
    <i name="ENINI">    520.00000000</i>
    <separator name="electronic convergence detail" >
     <i type="logical" name="LDIAG"> T  </i>
     <i type="logical" name="LSUBROT"> F  </i>
     <i name="WEIMIN">      0.00100000</i>
     <i name="EBREAK">      0.00000003</i>
     <i name="DEPER">      0.30000000</i>
     <i type="int" name="NRMM">     4</i>
     <i name="TIME">      0.40000000</i>
    </separator>
   </separator>
   <separator name="electronic mixer" >
    <i name="AMIX">      0.40000000</i>
    <i name="BMIX">      1.00000000</i>
    <i name="AMIN">      0.10000000</i>
    <i name="AMIX_MAG">      1.60000000</i>
    <i name="BMIX_MAG">      1.00000000</i>
    <separator name="electronic mixer details" >
     <i type="int" name="IMIX">     4</i>
     <i type="logical" name="MIXFIRST"> F  </i>
     <i type="int" name="MAXMIX">   -45</i>
     <i name="WC">    100.00000000</i>
     <i type="int" name="INIMIX">     1</i>
     <i type="int" name="MIXPRE">     1</i>
     <i type="int" name="MREMOVE">     5</i>
    </separator>
   </separator>
   <separator name="electronic dipolcorrection" >
    <i type="logical" name="LDIPOL"> F  </i>
    <i type="logical" name="LMONO"> F  </i>
    <i type="int" name="IDIPOL">     0</i>
    <i name="EPSILON">      1.00000000</i>
    <v name="DIPOL">   -100.00000000   -100.00000000   -100.00000000</v>
    <i name="EFIELD">      0.00000000</i>
   </separator>
  </separator>
  <separator name="grids" >
   <i type="int" name="NGX">    64</i>
   <i type="int" name="NGY">    64</i>
   <i type="int" name="NGZ">    90</i>
   <i type="int" name="NGXF">   128</i>
   <i type="int" name="NGYF">   128</i>
   <i type="int" name="NGZF">   180</i>
   <i type="logical" name="ADDGRID"> F  </i>
  </separator>
  <separator name="ionic" >
   <i type="int" name="NSW">    30</i>
   <i type="int" name="IBRION">     2</i>
   <i type="int" name="ISIF">     3</i>
   <i name="PSTRESS">      0.00000000</i>
   <i name="EDIFFG">     -0.03000000</i>
   <i type="int" name="NFREE">     1</i>
   <i name="POTIM">      0.50000000</i>
   <i name="SMASS">     -3.00000000</i>
   <i name="SCALEE">      1.00000000</i>
  </separator>
  <separator name="ionic md" >
   <i name="TEBEG">      0.00010000</i>
   <i name="TEEND">      0.00010000</i>
   <i type="int" name="NBLOCK">     1</i>
   <i type="int" name="KBLOCK">    30</i>
   <i type="int" name="NPACO">   256</i>
   <i name="APACO">     16.00000000</i>
  </separator>
  <separator name="symmetry" >
   <i type="int" name="ISYM">     2</i>
   <i name="SYMPREC">      0.00001000</i>
  </separator>
  <separator name="dos" >
   <i type="logical" name="LORBIT"> F  </i>
   <v name="RWIGS">     -1.00000000     -1.00000000     -1.00000000     -1.00000000</v>
   <i type="int" name="NEDOS">   301</i>
   <i name="EMIN">     10.00000000</i>
   <i name="EMAX">    -10.00000000</i>
   <i name="EFERMI">      0.00000000</i>
  </separator>
  <separator name="writing" >
   <i type="int" name="NWRITE">     2</i>
   <i type="logical" name="LWAVE"> T  </i>
   <i type="logical" name="LCHARG"> T  </i>
   <i type="logical" name="LPARD"> F  </i>
   <i type="logical" name="LVTOT"> F  </i>
   <i type="logical" name="LVHAR"> F  </i>
   <i type="logical" name="LELF"> F  </i>
   <i type="logical" name="LOPTICS"> F  </i>
   <v name="STM">      0.00000000      0.00000000      0.00000000      0.00000000      0.00000000      0.00000000      0.00000000</v>
  </separator>
  <separator name="performance" >
   <i type="int" name="NPAR">     2</i>
   <i type="int" name="NSIM">     4</i>
   <i type="int" name="NBLK">    -1</i>
   <i type="logical" name="LPLANE"> T  </i>
   <i type="logical" name="LSCALAPACK"> T  </i>
   <i type="logical" name="LSCAAWARE"> F  </i>
   <i type="logical" name="LSCALU"> F  </i>
   <i type="logical" name="LASYNC"> F  </i>
   <i type="logical" name="LORBITALREAL"> F  </i>
  </separator>
  <separator name="miscellaneous" >
   <i type="int" name="IDIOT">     3</i>
   <i type="logical" name="LMUSIC"> F  </i>
   <v name="POMASS">     87.62000000     47.88000000     55.84700000     16.00000000</v>
   <v name="DARWINR">      0.00000000      0.00000000      0.00000000      0.00000000</v>
   <v name="DARWINV">      1.00000000      1.00000000      1.00000000      1.00000000</v>
   <i type="logical" name="LCORR"> T  </i>
  </separator>
  <i type="logical" name="GGA_COMPAT"> T  </i>
  <i type="logical" name="LBERRY"> F  </i>
  <i type="int" name="ICORELEVEL">     0</i>
  <i type="logical" name="LDAU"> T  </i>
  <v type="int" name="LDAUTYPE">     2</v>
  <v type="int" name="LDAUL">     0</v>
  <v name="LDAUU">      0.00000000</v>
  <v name="LDAUJ">      0.00000000</v>
  <i type="int" name="LDAUPRINT">     1</i>
  <i type="int" name="I_CONSTRAINED_M">     0</i>
  <separator name="electronic exchange-correlation" >
   <i type="string" name="GGA">--</i>
   <i type="int" name="VOSKOWN">     0</i>
   <i type="logical" name="LHFCALC"> F  </i>
   <i type="string" name="PRECFOCK"></i>
   <i type="logical" name="LSYMGRAD"> F  </i>
   <i type="logical" name="LHFONE"> F  </i>
   <i type="logical" name="LRHFCALC"> F  </i>
   <i type="logical" name="LTHOMAS"> F  </i>
   <i type="logical" name="LMODELHF"> F  </i>
   <i name="ENCUT4O">     -1.00000000</i>
   <i type="int" name="EXXOEP">     0</i>
   <i type="int" name="FOURORBIT">     0</i>
   <i name="AEXX">      0.00000000</i>
   <i name="HFALPHA">      0.00000000</i>
   <i name="MCALPHA">      0.00000000</i>
   <i name="ALDAX">      1.00000000</i>
   <i name="AGGAX">      1.00000000</i>
   <i name="ALDAC">      1.00000000</i>
   <i name="AGGAC">      1.00000000</i>
   <i type="int" name="NKREDX">     1</i>
   <i type="int" name="NKREDY">     1</i>
   <i type="int" name="NKREDZ">     1</i>
   <i type="logical" name="SHIFTRED"> F  </i>
   <i type="logical" name="ODDONLY"> F  </i>
   <i type="logical" name="EVENONLY"> F  </i>
   <i type="int" name="LMAXFOCK">     0</i>
   <i type="int" name="NMAXFOCKAE">     0</i>
   <i type="logical" name="LFOCKAEDFT"> F  </i>
   <i name="HFSCREEN">      0.00000000</i>
   <i name="HFSCREENC">      0.00000000</i>
   <i type="int" name="NBANDSGWLOW">     0</i>
  </separator>
  <separator name="vdW DFT" >
   <i type="logical" name="LUSE_VDW"> F  </i>
   <i name="Zab_VDW">     -0.84910000</i>
   <i name="PARAM1">      0.12340000</i>
   <i name="PARAM2">      1.00000000</i>
   <i name="PARAM3">      0.00000000</i>
  </separator>
  <separator name="model GW" >
   <i type="int" name="MODEL_GW">     0</i>
   <i name="MODEL_EPS0">      7.73619092</i>
   <i name="MODEL_ALPHA">      1.00000000</i>
  </separator>
  <separator name="linear response parameters" >
   <i type="logical" name="LEPSILON"> F  </i>
   <i type="logical" name="LRPA"> F  </i>
   <i type="logical" name="LNABLA"> F  </i>
   <i type="logical" name="LVEL"> F  </i>
   <i type="int" name="KINTER">     0</i>
   <i name="CSHIFT">      0.10000000</i>
   <i name="OMEGAMAX">     -1.00000000</i>
   <i name="DEG_THRESHOLD">      0.00200000</i>
  </separator>
  <separator name="orbital magnetization" >
   <i type="logical" name="NUCIND"> F  </i>
   <v name="MAGPOS">      0.00000000      0.00000000      0.00000000</v>
   <i type="logical" name="LNICSALL"> T  </i>
   <i type="logical" name="ORBITALMAG"> F  </i>
   <i type="logical" name="LMAGBLOCH"> F  </i>
   <i type="logical" name="LCHIMAG"> F  </i>
   <i type="logical" name="LGAUGE"> T  </i>
   <i type="int" name="MAGATOM">     0</i>
   <v name="MAGDIPOL">      0.00000000      0.00000000      0.00000000</v>
   <v name="AVECCONST">      0.00000000      0.00000000      0.00000000</v>
  </separator>
  <separator name="response functions" >
   <i type="logical" name="LADDER"> F  </i>
   <i type="logical" name="LFXC"> F  </i>
   <i type="logical" name="LHARTREE"> T  </i>
   <i type="int" name="IBSE">     0</i>
   <v type="int" name="KPOINT">    -1     0     0     0</v>
   <i type="logical" name="LTCTE"> F  </i>
   <i type="logical" name="LTETE"> F  </i>
   <i type="logical" name="LTRIPLET"> F  </i>
   <i type="logical" name="LFXCEPS"> F  </i>
   <i type="logical" name="LFXHEG"> F  </i>
   <i type="int" name="NATURALO">     0</i>
   <i type="logical" name="L2ORDER"> F  </i>
   <i type="logical" name="LUSEW"> F  </i>
   <i name="ENCUTGW">     -2.00000000</i>
   <i name="ENCUTGWSOFT">     -2.00000000</i>
   <i name="ENCUTLF">     -1.00000000</i>
   <i type="int" name="LMAXMP2">    -1</i>
   <i name="SCISSOR">      0.00000000</i>
   <i type="int" name="NOMEGA">     0</i>
   <i type="int" name="NOMEGAR">     0</i>
   <i type="int" name="NBANDSGW">    -1</i>
   <i type="int" name="NBANDSO">    -1</i>
   <i type="int" name="NBANDSV">    -1</i>
   <i type="int" name="NELM">    40</i>
   <i type="int" name="NELMHF">     1</i>
   <i type="int" name="DIM">     3</i>
   <i type="int" name="ANTIRES">     0</i>
   <i name="OMEGAMAX">    -30.00000000</i>
   <i name="OMEGAMIN">    -30.00000000</i>
   <i name="OMEGATL">   -200.00000000</i>
   <i type="int" name="OMEGAGRID">     0</i>
   <i name="CSHIFT">     -0.10000000</i>
   <i type="logical" name="SELFENERGY"> F  </i>
   <i type="logical" name="LSPECTRAL"> F  </i>
   <i type="logical" name="LSPECTRALGW"> F  </i>
   <i type="logical" name="LSINGLES"> F  </i>
   <i type="logical" name="LFERMIGW"> F  </i>
   <i type="logical" name="ODDONLYGW"> F  </i>
   <i type="logical" name="EVENONLYGW"> F  </i>
   <i type="int" name="NKREDLFX">     1</i>
   <i type="int" name="NKREDLFY">     1</i>
   <i type="int" name="NKREDLFZ">     1</i>
   <i type="int" name="MAXMEM">  1800</i>
   <i type="int" name="TELESCOPE">     0</i>
   <i type="int" name="TAUPAR">     1</i>
   <i type="int" name="OMEGAPAR">    -1</i>
   <i name="LAMBDA">      1.00000000</i>
  </separator>
  <separator name="External order field" >
   <i name="OFIELD_KAPPA">      0.00000000</i>
   <v name="OFIELD_K">      0.00000000      0.00000000      0.00000000</v>
   <i name="OFIELD_Q6_NEAR">      0.00000000</i>
   <i name="OFIELD_Q6_FAR">      0.00000000</i>
   <i name="OFIELD_A">      0.00000000</i>
  </separator>
 </parameters>
 <atominfo>
  <atoms>     156 </atoms>
  <types>       4 </types>
  <array name="atoms" >
   <dimension dim="1">ion</dimension>
   <field type="string">element</field>
   <field type="int">atomtype</field>
   <set>
    <rc><c>Sr</c><c>   1</c></rc>
    <rc><c>Sr</c><c>   1</c></rc>
    <rc><c>Sr</c><c>   1</c></rc>
    <rc><c>Sr</c><c>   1</c></rc>
    <rc><c>Sr</c><c>   1</c></rc>
    <rc><c>Sr</c><c>   1</c></rc>
    <rc><c>Sr</c><c>   1</c></rc>
    <rc><c>Sr</c><c>   1</c></rc>
    <rc><c>Sr</c><c>   1</c></rc>
    <rc><c>Sr</c><c>   1</c></rc>
    <rc><c>Sr</c><c>   1</c></rc>
    <rc><c>Sr</c><c>   1</c></rc>
    <rc><c>Sr</c><c>   1</c></rc>
    <rc><c>Sr</c><c>   1</c></rc>
    <rc><c>Sr</c><c>   1</c></rc>
    <rc><c>Sr</c><c>   1</c></rc>
    <rc><c>Sr</c><c>   1</c></rc>
    <rc><c>Sr</c><c>   1</c></rc>
    <rc><c>Sr</c><c>   1</c></rc>
    <rc><c>Sr</c><c>   1</c></rc>
    <rc><c>Sr</c><c>   1</c></rc>
    <rc><c>Sr</c><c>   1</c></rc>
    <rc><c>Sr</c><c>   1</c></rc>
    <rc><c>Sr</c><c>   1</c></rc>
    <rc><c>Sr</c><c>   1</c></rc>
    <rc><c>Sr</c><c>   1</c></rc>
    <rc><c>Sr</c><c>   1</c></rc>
    <rc><c>Sr</c><c>   1</c></rc>
    <rc><c>Sr</c><c>   1</c></rc>
    <rc><c>Sr</c><c>   1</c></rc>
    <rc><c>Sr</c><c>   1</c></rc>
    <rc><c>Sr</c><c>   1</c></rc>
    <rc><c>Ti</c><c>   2</c></rc>
    <rc><c>Ti</c><c>   2</c></rc>
    <rc><c>Ti</c><c>   2</c></rc>
    <rc><c>Ti</c><c>   2</c></rc>
    <rc><c>Ti</c><c>   2</c></rc>
    <rc><c>Ti</c><c>   2</c></rc>
    <rc><c>Ti</c><c>   2</c></rc>
    <rc><c>Ti</c><c>   2</c></rc>
    <rc><c>Ti</c><c>   2</c></rc>
    <rc><c>Ti</c><c>   2</c></rc>
    <rc><c>Ti</c><c>   2</c></rc>
    <rc><c>Ti</c><c>   2</c></rc>
    <rc><c>Ti</c><c>   2</c></rc>
    <rc><c>Ti</c><c>   2</c></rc>
    <rc><c>Ti</c><c>   2</c></rc>
    <rc><c>Ti</c><c>   2</c></rc>
    <rc><c>Ti</c><c>   2</c></rc>
    <rc><c>Ti</c><c>   2</c></rc>
    <rc><c>Ti</c><c>   2</c></rc>
    <rc><c>Ti</c><c>   2</c></rc>
    <rc><c>Ti</c><c>   2</c></rc>
    <rc><c>Ti</c><c>   2</c></rc>
    <rc><c>Ti</c><c>   2</c></rc>
    <rc><c>Ti</c><c>   2</c></rc>
    <rc><c>Fe</c><c>   3</c></rc>
    <rc><c>Fe</c><c>   3</c></rc>
    <rc><c>Fe</c><c>   3</c></rc>
    <rc><c>Fe</c><c>   3</c></rc>
    <rc><c>Fe</c><c>   3</c></rc>
    <rc><c>Fe</c><c>   3</c></rc>
    <rc><c>Fe</c><c>   3</c></rc>
    <rc><c>Fe</c><c>   3</c></rc>
    <rc><c>O </c><c>   4</c></rc>
    <rc><c>O </c><c>   4</c></rc>
    <rc><c>O </c><c>   4</c></rc>
    <rc><c>O </c><c>   4</c></rc>
    <rc><c>O </c><c>   4</c></rc>
    <rc><c>O </c><c>   4</c></rc>
    <rc><c>O </c><c>   4</c></rc>
    <rc><c>O </c><c>   4</c></rc>
    <rc><c>O </c><c>   4</c></rc>
    <rc><c>O </c><c>   4</c></rc>
    <rc><c>O </c><c>   4</c></rc>
    <rc><c>O </c><c>   4</c></rc>
    <rc><c>O </c><c>   4</c></rc>
    <rc><c>O </c><c>   4</c></rc>
    <rc><c>O </c><c>   4</c></rc>
    <rc><c>O </c><c>   4</c></rc>
    <rc><c>O </c><c>   4</c></rc>
    <rc><c>O </c><c>   4</c></rc>
    <rc><c>O </c><c>   4</c></rc>
    <rc><c>O </c><c>   4</c></rc>
    <rc><c>O </c><c>   4</c></rc>
    <rc><c>O </c><c>   4</c></rc>
    <rc><c>O </c><c>   4</c></rc>
    <rc><c>O </c><c>   4</c></rc>
    <rc><c>O </c><c>   4</c></rc>
    <rc><c>O </c><c>   4</c></rc>
    <rc><c>O </c><c>   4</c></rc>
    <rc><c>O </c><c>   4</c></rc>
    <rc><c>O </c><c>   4</c></rc>
    <rc><c>O </c><c>   4</c></rc>
    <rc><c>O </c><c>   4</c></rc>
    <rc><c>O </c><c>   4</c></rc>
    <rc><c>O </c><c>   4</c></rc>
    <rc><c>O </c><c>   4</c></rc>
    <rc><c>O </c><c>   4</c></rc>
    <rc><c>O </c><c>   4</c></rc>
    <rc><c>O </c><c>   4</c></rc>
    <rc><c>O </c><c>   4</c></rc>
    <rc><c>O </c><c>   4</c></rc>
    <rc><c>O </c><c>   4</c></rc>
    <rc><c>O </c><c>   4</c></rc>
    <rc><c>O </c><c>   4</c></rc>
    <rc><c>O </c><c>   4</c></rc>
    <rc><c>O </c><c>   4</c></rc>
    <rc><c>O </c><c>   4</c></rc>
    <rc><c>O </c><c>   4</c></rc>
    <rc><c>O </c><c>   4</c></rc>
    <rc><c>O </c><c>   4</c></rc>
    <rc><c>O </c><c>   4</c></rc>
    <rc><c>O </c><c>   4</c></rc>
    <rc><c>O </c><c>   4</c></rc>
    <rc><c>O </c><c>   4</c></rc>
    <rc><c>O </c><c>   4</c></rc>
    <rc><c>O </c><c>   4</c></rc>
    <rc><c>O </c><c>   4</c></rc>
    <rc><c>O </c><c>   4</c></rc>
    <rc><c>O </c><c>   4</c></rc>
    <rc><c>O </c><c>   4</c></rc>
    <rc><c>O </c><c>   4</c></rc>
    <rc><c>O </c><c>   4</c></rc>
    <rc><c>O </c><c>   4</c></rc>
    <rc><c>O </c><c>   4</c></rc>
    <rc><c>O </c><c>   4</c></rc>
    <rc><c>O </c><c>   4</c></rc>
    <rc><c>O </c><c>   4</c></rc>
    <rc><c>O </c><c>   4</c></rc>
    <rc><c>O </c><c>   4</c></rc>
    <rc><c>O </c><c>   4</c></rc>
    <rc><c>O </c><c>   4</c></rc>
    <rc><c>O </c><c>   4</c></rc>
    <rc><c>O </c><c>   4</c></rc>
    <rc><c>O </c><c>   4</c></rc>
    <rc><c>O </c><c>   4</c></rc>
    <rc><c>O </c><c>   4</c></rc>
    <rc><c>O </c><c>   4</c></rc>
    <rc><c>O </c><c>   4</c></rc>
    <rc><c>O </c><c>   4</c></rc>
    <rc><c>O </c><c>   4</c></rc>
    <rc><c>O </c><c>   4</c></rc>
    <rc><c>O </c><c>   4</c></rc>
    <rc><c>O </c><c>   4</c></rc>
    <rc><c>O </c><c>   4</c></rc>
    <rc><c>O </c><c>   4</c></rc>
    <rc><c>O </c><c>   4</c></rc>
    <rc><c>O </c><c>   4</c></rc>
    <rc><c>O </c><c>   4</c></rc>
    <rc><c>O </c><c>   4</c></rc>
    <rc><c>O </c><c>   4</c></rc>
    <rc><c>O </c><c>   4</c></rc>
    <rc><c>O </c><c>   4</c></rc>
    <rc><c>O </c><c>   4</c></rc>
    <rc><c>O </c><c>   4</c></rc>
   </set>
  </array>
  <array name="atomtypes" >
   <dimension dim="1">type</dimension>
   <field type="int">atomspertype</field>
   <field type="string">element</field>
   <field>mass</field>
   <field>valence</field>
   <field type="string">pseudopotential</field>
   <set>
    <rc><c>  32</c><c>Sr</c><c>     87.62000000</c><c>     10.00000000</c><c>  PAW_PBE Sr_sv 07Sep2000               </c></rc>
    <rc><c>  24</c><c>Ti</c><c>     47.88000000</c><c>      4.00000000</c><c>  PAW_PBE Ti 08Apr2002                  </c></rc>
    <rc><c>   8</c><c>Fe</c><c>     55.84700000</c><c>      8.00000000</c><c>  PAW_PBE Fe 06Sep2000                  </c></rc>
    <rc><c>  92</c><c>O </c><c>     16.00000000</c><c>      6.00000000</c><c>  PAW_PBE O 08Apr2002                   </c></rc>
   </set>
  </array>
 </atominfo>
 <structure name="initialpos" >
  <crystal>
   <varray name="basis" >
    <v>      11.24705961       0.00268226       0.00373652 </v>
    <v>       0.00268109      11.23934443      -0.01300095 </v>
    <v>       0.00529575      -0.01860520      15.91186956 </v>
   </varray>
   <i name="volume">   2011.40963821 </i>
   <varray name="rec_basis" >
    <v>       0.08891214      -0.00002124      -0.00002962 </v>
    <v>      -0.00002125       0.08897329       0.00010404 </v>
    <v>      -0.00002090       0.00007270       0.06284626 </v>
   </varray>
  </crystal>
  <varray name="positions" >
   <v>       0.98782429       0.25206241       0.13463677 </v>
   <v>       0.99180484       0.26343783       0.62260877 </v>
   <v>       0.99795439       0.74783074       0.13261973 </v>
   <v>       0.99053329       0.73703952       0.62665794 </v>
   <v>       0.51589118       0.25126272       0.12817904 </v>
   <v>       0.50717821       0.24469650       0.62800742 </v>
   <v>       0.50296882       0.74731020       0.12660849 </v>
   <v>       0.50914108       0.75468126       0.62794933 </v>
   <v>       0.99573229       0.26276313       0.36910560 </v>
   <v>       0.98634709       0.25259196       0.87251887 </v>
   <v>       0.99057489       0.73884084       0.36863914 </v>
   <v>       0.00154506       0.74600434       0.87502051 </v>
   <v>       0.50179915       0.24924393       0.37243664 </v>
   <v>       0.51516283       0.24994716       0.87752258 </v>
   <v>       0.50937429       0.75138561       0.37046341 </v>
   <v>       0.50099356       0.74905163       0.87340617 </v>
   <v>       0.25592744       0.99348553       0.12733292 </v>
   <v>       0.26567192       0.00103707       0.62682906 </v>
   <v>       0.25346050       0.50397022       0.13160360 </v>
   <v>       0.24896389       0.50784605       0.62445808 </v>
   <v>       0.74551616       0.00316460       0.13325307 </v>
   <v>       0.73218404       0.99583476       0.62417940 </v>
   <v>       0.74634181       0.49329759       0.12780050 </v>
   <v>       0.74883777       0.50263204       0.62378990 </v>
   <v>       0.25717107       0.00378992       0.36939465 </v>
   <v>       0.26400592       0.99142830       0.87702050 </v>
   <v>       0.24710158       0.49704644       0.37348448 </v>
   <v>       0.25963252       0.51152539       0.87457501 </v>
   <v>       0.73786899       0.99832958       0.37497465 </v>
   <v>       0.74174111       0.00043624       0.87498372 </v>
   <v>       0.75331483       0.50095585       0.36696882 </v>
   <v>       0.73896485       0.49613187       0.87615811 </v>
   <v>       0.99817716       0.00058594       0.00964556 </v>
   <v>       0.99318546       0.01327201       0.49698806 </v>
   <v>       0.99493428       0.50800515       0.00014185 </v>
   <v>       0.99908776       0.50017809       0.49895360 </v>
   <v>       0.50611424       0.99682639       0.00007215 </v>
   <v>       0.50007371       0.49522900       0.50051830 </v>
   <v>       0.26015803       0.24223925       0.00282665 </v>
   <v>       0.25511473       0.74754825       0.00102536 </v>
   <v>       0.26098262       0.74627372       0.49971002 </v>
   <v>       0.74387273       0.25192014       0.49808389 </v>
   <v>       0.74709010       0.74978546       0.00064951 </v>
   <v>       0.74848346       0.74891616       0.49687865 </v>
   <v>       0.24790587       0.25115848       0.24812196 </v>
   <v>       0.24752828       0.25340948       0.76190434 </v>
   <v>       0.24734831       0.75027383       0.25199245 </v>
   <v>       0.24955892       0.75377680       0.75065630 </v>
   <v>       0.74952470       0.24783198       0.75021292 </v>
   <v>       0.74950022       0.75064429       0.75340524 </v>
   <v>       0.99973355       0.99895546       0.25681484 </v>
   <v>       0.00279714       0.99691819       0.73510857 </v>
   <v>       0.00108980       0.49846187       0.74999282 </v>
   <v>       0.50090032       0.00062657       0.25125024 </v>
   <v>       0.50110432       0.49987484       0.24861547 </v>
   <v>       0.49972347       0.49976747       0.74765706 </v>
   <v>       0.49483016       0.00475209       0.50179498 </v>
   <v>       0.50027042       0.49939480       0.00166493 </v>
   <v>       0.25114283       0.25012088       0.49051772 </v>
   <v>       0.75184292       0.24676005       0.00062163 </v>
   <v>       0.75105759       0.24982678       0.25132552 </v>
   <v>       0.75161074       0.74929467       0.24821986 </v>
   <v>       0.00025944       0.49888675       0.24770027 </v>
   <v>       0.49960337       0.00086934       0.75013184 </v>
   <v>       0.11342204       0.13474777       0.25423871 </v>
   <v>       0.11711500       0.13453770       0.74124362 </v>
   <v>       0.11622917       0.63674593       0.24818624 </v>
   <v>       0.11705752       0.63333857       0.75013219 </v>
   <v>       0.61462340       0.13277237       0.25001961 </v>
   <v>       0.62111908       0.13184208       0.74993636 </v>
   <v>       0.61383775       0.63336826       0.25003448 </v>
   <v>       0.61778968       0.63096728       0.75145269 </v>
   <v>       0.38237200       0.36331547       0.24358280 </v>
   <v>       0.37616260       0.36790222       0.73775504 </v>
   <v>       0.38282666       0.86517873       0.25311801 </v>
   <v>       0.37592706       0.87010715       0.74988414 </v>
   <v>       0.88459861       0.36582437       0.25069049 </v>
   <v>       0.88566489       0.36577132       0.75085792 </v>
   <v>       0.88900944       0.86719837       0.25229482 </v>
   <v>       0.88746004       0.86856481       0.75864223 </v>
   <v>       0.36251453       0.11584136       0.23938774 </v>
   <v>       0.36183431       0.12726554       0.74579575 </v>
   <v>       0.36235841       0.61726420       0.25930978 </v>
   <v>       0.36501817       0.62253454       0.74349264 </v>
   <v>       0.86954395       0.11156822       0.26508339 </v>
   <v>       0.87575233       0.11148036       0.75874403 </v>
   <v>       0.86816338       0.61524987       0.24144172 </v>
   <v>       0.87087741       0.61373165       0.75777360 </v>
   <v>       0.13723417       0.38341290       0.25552644 </v>
   <v>       0.13579989       0.37669226       0.72740797 </v>
   <v>       0.13583633       0.88710514       0.24041116 </v>
   <v>       0.12538036       0.89102075       0.77402298 </v>
   <v>       0.63112307       0.38447104       0.24606830 </v>
   <v>       0.63213671       0.38164760       0.74410275 </v>
   <v>       0.63208828       0.88541877       0.25409253 </v>
   <v>       0.63353338       0.87863821       0.75371331 </v>
   <v>       0.34341108       0.39050005       0.00186837 </v>
   <v>       0.35902301       0.39219869       0.50871000 </v>
   <v>       0.36298712       0.88873436       0.00055890 </v>
   <v>       0.34720561       0.89369934       0.49883874 </v>
   <v>       0.88623511       0.37401353       0.99705455 </v>
   <v>       0.86395477       0.38599678       0.50191515 </v>
   <v>       0.87332208       0.88278565       0.98591675 </v>
   <v>       0.87536459       0.88343594       0.49961888 </v>
   <v>       0.12816043       0.12066618       0.98377402 </v>
   <v>       0.13673874       0.11023414       0.51148566 </v>
   <v>       0.14077218       0.60941144       0.99828789 </v>
   <v>       0.13094221       0.62652515       0.50329801 </v>
   <v>       0.63440609       0.11088874       0.99918469 </v>
   <v>       0.63819988       0.11476050       0.50133056 </v>
   <v>       0.64090922       0.61349666       0.00153558 </v>
   <v>       0.63727256       0.61202478       0.49868542 </v>
   <v>       0.11698497       0.36479263       0.50777179 </v>
   <v>       0.11552332       0.87099512       0.99340971 </v>
   <v>       0.61431798       0.36423605       0.00259985 </v>
   <v>       0.61065329       0.36190685       0.50785927 </v>
   <v>       0.61364157       0.86190756       0.99433816 </v>
   <v>       0.61607205       0.86311785       0.49835087 </v>
   <v>       0.38745452       0.14003238       0.00201382 </v>
   <v>       0.38068342       0.14544697       0.51849257 </v>
   <v>       0.38982519       0.64100408       0.99710356 </v>
   <v>       0.38900106       0.64373127       0.50065838 </v>
   <v>       0.88619670       0.12187007       0.97933012 </v>
   <v>       0.88864576       0.13818354       0.49335964 </v>
   <v>       0.88833523       0.63275987       0.00034013 </v>
   <v>       0.88486800       0.63459787       0.50042908 </v>
   <v>       0.99148789       0.00945863       0.12585491 </v>
   <v>       0.01442342       0.97280410       0.62009776 </v>
   <v>       0.02033281       0.48312960       0.11779777 </v>
   <v>       0.99306961       0.50517177       0.62631204 </v>
   <v>       0.50222487       0.99404235       0.12392320 </v>
   <v>       0.50293162       0.99288264       0.62625410 </v>
   <v>       0.49313927       0.50620997       0.12632782 </v>
   <v>       0.50210330       0.50971728       0.62422075 </v>
   <v>       0.02681116       0.97958550       0.38173458 </v>
   <v>       0.00279796       0.50031985       0.37751863 </v>
   <v>       0.02593263       0.48080891       0.87644702 </v>
   <v>       0.49134161       0.01084792       0.37575184 </v>
   <v>       0.49390044       0.00481123       0.87584817 </v>
   <v>       0.49669749       0.49184797       0.37723079 </v>
   <v>       0.49508270       0.49374613       0.87082442 </v>
   <v>       0.25897986       0.24572853       0.37254207 </v>
   <v>       0.23335353       0.27087242       0.87744667 </v>
   <v>       0.22975772       0.76329015       0.37937654 </v>
   <v>       0.25466215       0.74690869       0.87453317 </v>
   <v>       0.74292597       0.25774273       0.37784616 </v>
   <v>       0.74556367       0.25627353       0.87250243 </v>
   <v>       0.75272377       0.74747226       0.37520851 </v>
   <v>       0.74973272       0.74314323       0.87579758 </v>
   <v>       0.22211186       0.25252853       0.11891241 </v>
   <v>       0.25311780       0.74883232       0.12459377 </v>
   <v>       0.22757825       0.77059677       0.62334190 </v>
   <v>       0.75971183       0.23830284       0.12421737 </v>
   <v>       0.76030992       0.24127411       0.62557439 </v>
   <v>       0.75347431       0.76300946       0.12125165 </v>
   <v>       0.75406622       0.74971628       0.62775863 </v>
  </varray>
 </structure>
 <calculation>
  <scstep>
   <time name="dav">  604.91  604.91</time>
   <time name="total">  612.05  612.14</time>
   <energy>
    <i name="alphaZ">   5610.67030976 </i>
    <i name="ewald"> -60953.62419526 </i>
    <i name="hartreedc"> -16546.22293929 </i>
    <i name="XCdc">   2962.35262738 </i>
    <i name="pawpsdc"> 112516.61872122 </i>
    <i name="pawaedc">-111415.77972456 </i>
    <i name="eentropy">     -0.00000000 </i>
    <i name="bandstr">  -7076.28429925 </i>
    <i name="atom">  73783.44779670 </i>
    <i name="e_fr_energy">  -1118.82170329 </i>
    <i name="e_wo_entrp">  -1118.82170329 </i>
    <i name="e_0_energy">  -1118.82170329 </i>
   </energy>
  </scstep>
  <scstep>
   <time name="diag">   64.87   64.89</time>
   <time name="diis">   60.73   60.75</time>
   <time name="orth">   33.40   33.39</time>
   <time name="total">  166.16  166.22</time>
   <energy>
    <i name="e_fr_energy">  -1118.82170342 </i>
    <i name="e_wo_entrp">  -1118.82170342 </i>
    <i name="e_0_energy">  -1118.82170342 </i>
   </energy>
  </scstep>
  <scstep>
   <time name="diag">   64.83   64.83</time>
   <time name="diis">   54.12   54.11</time>
   <time name="orth">   33.44   33.44</time>
   <time name="total">  159.57  159.62</time>
   <energy>
    <i name="e_fr_energy">  -1118.82170365 </i>
    <i name="e_wo_entrp">  -1118.82170365 </i>
    <i name="e_0_energy">  -1118.82170365 </i>
   </energy>
  </scstep>
  <scstep>
   <time name="diag">   64.85   64.85</time>
   <time name="diis">   46.36   46.37</time>
   <time name="orth">   33.45   33.45</time>
   <time name="total">  151.82  151.92</time>
   <energy>
    <i name="e_fr_energy">  -1118.82170377 </i>
    <i name="e_wo_entrp">  -1118.82170377 </i>
    <i name="e_0_energy">  -1118.82170377 </i>
   </energy>
  </scstep>
  <scstep>
   <time name="diag">   64.88   64.88</time>
   <time name="diis">   46.19   46.20</time>
   <time name="orth">   33.41   33.41</time>
   <time name="total">  151.65  151.73</time>
   <energy>
    <i name="e_fr_energy">  -1118.82170382 </i>
    <i name="e_wo_entrp">  -1118.82170382 </i>
    <i name="e_0_energy">  -1118.82170382 </i>
   </energy>
  </scstep>
  <scstep>
   <time name="diag">   64.81   64.85</time>
   <time name="diis">   43.43   43.45</time>
   <time name="orth">   33.47   33.47</time>
   <time name="total">  148.88  149.01</time>
   <energy>
    <i name="e_fr_energy">  -1118.82170384 </i>
    <i name="e_wo_entrp">  -1118.82170384 </i>
    <i name="e_0_energy">  -1118.82170384 </i>
   </energy>
  </scstep>
  <scstep>
   <time name="diag">   64.70   64.70</time>
   <time name="diis">   43.23   43.25</time>
   <time name="orth">   33.31   33.31</time>
   <time name="total">  148.47  148.55</time>
   <energy>
    <i name="e_fr_energy">  -1118.82170385 </i>
    <i name="e_wo_entrp">  -1118.82170385 </i>
    <i name="e_0_energy">  -1118.82170385 </i>
   </energy>
  </scstep>
  <scstep>
   <time name="diag">   64.70   64.70</time>
   <time name="diis">   41.83   41.83</time>
   <time name="orth">   33.30   33.30</time>
   <time name="total">  140.87  140.94</time>
   <energy>
    <i name="alphaZ">   5610.67030976 </i>
    <i name="ewald"> -60953.62419526 </i>
    <i name="hartreedc"> -16546.23307776 </i>
    <i name="XCdc">   2962.35243525 </i>
    <i name="pawpsdc"> 112515.85110665 </i>
    <i name="pawaedc">-111415.01540340 </i>
    <i name="eentropy">     -0.00000000 </i>
    <i name="bandstr">  -7076.27067580 </i>
    <i name="atom">  73783.44779670 </i>
    <i name="e_fr_energy">  -1118.82170386 </i>
    <i name="e_wo_entrp">  -1118.82170386 </i>
    <i name="e_0_energy">  -1118.82170386 </i>
   </energy>
  </scstep>
  <structure>
   <crystal>
    <varray name="basis" >
     <v>      11.24705961       0.00268226       0.00373652 </v>
     <v>       0.00268109      11.23934443      -0.01300095 </v>
     <v>       0.00529575      -0.01860520      15.91186956 </v>
    </varray>
    <i name="volume">   2011.40963821 </i>
    <varray name="rec_basis" >
     <v>       0.08891214      -0.00002124      -0.00002962 </v>
     <v>      -0.00002125       0.08897329       0.00010404 </v>
     <v>      -0.00002090       0.00007270       0.06284626 </v>
    </varray>
   </crystal>
   <varray name="positions" >
    <v>       0.98782429       0.25206241       0.13463677 </v>
    <v>       0.99180484       0.26343783       0.62260877 </v>
    <v>       0.99795439       0.74783074       0.13261973 </v>
    <v>       0.99053329       0.73703952       0.62665794 </v>
    <v>       0.51589118       0.25126272       0.12817904 </v>
    <v>       0.50717821       0.24469650       0.62800742 </v>
    <v>       0.50296882       0.74731020       0.12660849 </v>
    <v>       0.50914108       0.75468126       0.62794933 </v>
    <v>       0.99573229       0.26276313       0.36910560 </v>
    <v>       0.98634709       0.25259196       0.87251887 </v>
    <v>       0.99057489       0.73884084       0.36863914 </v>
    <v>       0.00154506       0.74600434       0.87502051 </v>
    <v>       0.50179915       0.24924393       0.37243664 </v>
    <v>       0.51516283       0.24994716       0.87752258 </v>
    <v>       0.50937429       0.75138561       0.37046341 </v>
    <v>       0.50099356       0.74905163       0.87340617 </v>
    <v>       0.25592744       0.99348553       0.12733292 </v>
    <v>       0.26567192       0.00103707       0.62682906 </v>
    <v>       0.25346050       0.50397022       0.13160360 </v>
    <v>       0.24896389       0.50784605       0.62445808 </v>
    <v>       0.74551616       0.00316460       0.13325307 </v>
    <v>       0.73218404       0.99583476       0.62417940 </v>
    <v>       0.74634181       0.49329759       0.12780050 </v>
    <v>       0.74883777       0.50263204       0.62378990 </v>
    <v>       0.25717107       0.00378992       0.36939465 </v>
    <v>       0.26400592       0.99142830       0.87702050 </v>
    <v>       0.24710158       0.49704644       0.37348448 </v>
    <v>       0.25963252       0.51152539       0.87457501 </v>
    <v>       0.73786899       0.99832958       0.37497465 </v>
    <v>       0.74174111       0.00043624       0.87498372 </v>
    <v>       0.75331483       0.50095585       0.36696882 </v>
    <v>       0.73896485       0.49613187       0.87615811 </v>
    <v>       0.99817716       0.00058594       0.00964556 </v>
    <v>       0.99318546       0.01327201       0.49698806 </v>
    <v>       0.99493428       0.50800515       0.00014185 </v>
    <v>       0.99908776       0.50017809       0.49895360 </v>
    <v>       0.50611424       0.99682639       0.00007215 </v>
    <v>       0.50007371       0.49522900       0.50051830 </v>
    <v>       0.26015803       0.24223925       0.00282665 </v>
    <v>       0.25511473       0.74754825       0.00102536 </v>
    <v>       0.26098262       0.74627372       0.49971002 </v>
    <v>       0.74387273       0.25192014       0.49808389 </v>
    <v>       0.74709010       0.74978546       0.00064951 </v>
    <v>       0.74848346       0.74891616       0.49687865 </v>
    <v>       0.24790587       0.25115848       0.24812196 </v>
    <v>       0.24752828       0.25340948       0.76190434 </v>
    <v>       0.24734831       0.75027383       0.25199245 </v>
    <v>       0.24955892       0.75377680       0.75065630 </v>
    <v>       0.74952470       0.24783198       0.75021292 </v>
    <v>       0.74950022       0.75064429       0.75340524 </v>
    <v>       0.99973355       0.99895546       0.25681484 </v>
    <v>       0.00279714       0.99691819       0.73510857 </v>
    <v>       0.00108980       0.49846187       0.74999282 </v>
    <v>       0.50090032       0.00062657       0.25125024 </v>
    <v>       0.50110432       0.49987484       0.24861547 </v>
    <v>       0.49972347       0.49976747       0.74765706 </v>
    <v>       0.49483016       0.00475209       0.50179498 </v>
    <v>       0.50027042       0.49939480       0.00166493 </v>
    <v>       0.25114283       0.25012088       0.49051772 </v>
    <v>       0.75184292       0.24676005       0.00062163 </v>
    <v>       0.75105759       0.24982678       0.25132552 </v>
    <v>       0.75161074       0.74929467       0.24821986 </v>
    <v>       0.00025944       0.49888675       0.24770027 </v>
    <v>       0.49960337       0.00086934       0.75013184 </v>
    <v>       0.11342204       0.13474777       0.25423871 </v>
    <v>       0.11711500       0.13453770       0.74124362 </v>
    <v>       0.11622917       0.63674593       0.24818624 </v>
    <v>       0.11705752       0.63333857       0.75013219 </v>
    <v>       0.61462340       0.13277237       0.25001961 </v>
    <v>       0.62111908       0.13184208       0.74993636 </v>
    <v>       0.61383775       0.63336826       0.25003448 </v>
    <v>       0.61778968       0.63096728       0.75145269 </v>
    <v>       0.38237200       0.36331547       0.24358280 </v>
    <v>       0.37616260       0.36790222       0.73775504 </v>
    <v>       0.38282666       0.86517873       0.25311801 </v>
    <v>       0.37592706       0.87010715       0.74988414 </v>
    <v>       0.88459861       0.36582437       0.25069049 </v>
    <v>       0.88566489       0.36577132       0.75085792 </v>
    <v>       0.88900944       0.86719837       0.25229482 </v>
    <v>       0.88746004       0.86856481       0.75864223 </v>
    <v>       0.36251453       0.11584136       0.23938774 </v>
    <v>       0.36183431       0.12726554       0.74579575 </v>
    <v>       0.36235841       0.61726420       0.25930978 </v>
    <v>       0.36501817       0.62253454       0.74349264 </v>
    <v>       0.86954395       0.11156822       0.26508339 </v>
    <v>       0.87575233       0.11148036       0.75874403 </v>
    <v>       0.86816338       0.61524987       0.24144172 </v>
    <v>       0.87087741       0.61373165       0.75777360 </v>
    <v>       0.13723417       0.38341290       0.25552644 </v>
    <v>       0.13579989       0.37669226       0.72740797 </v>
    <v>       0.13583633       0.88710514       0.24041116 </v>
    <v>       0.12538036       0.89102075       0.77402298 </v>
    <v>       0.63112307       0.38447104       0.24606830 </v>
    <v>       0.63213671       0.38164760       0.74410275 </v>
    <v>       0.63208828       0.88541877       0.25409253 </v>
    <v>       0.63353338       0.87863821       0.75371331 </v>
    <v>       0.34341108       0.39050005       0.00186837 </v>
    <v>       0.35902301       0.39219869       0.50871000 </v>
    <v>       0.36298712       0.88873436       0.00055890 </v>
    <v>       0.34720561       0.89369934       0.49883874 </v>
    <v>       0.88623511       0.37401353       0.99705455 </v>
    <v>       0.86395477       0.38599678       0.50191515 </v>
    <v>       0.87332208       0.88278565       0.98591675 </v>
    <v>       0.87536459       0.88343594       0.49961888 </v>
    <v>       0.12816043       0.12066618       0.98377402 </v>
    <v>       0.13673874       0.11023414       0.51148566 </v>
    <v>       0.14077218       0.60941144       0.99828789 </v>
    <v>       0.13094221       0.62652515       0.50329801 </v>
    <v>       0.63440609       0.11088874       0.99918469 </v>
    <v>       0.63819988       0.11476050       0.50133056 </v>
    <v>       0.64090922       0.61349666       0.00153558 </v>
    <v>       0.63727256       0.61202478       0.49868542 </v>
    <v>       0.11698497       0.36479263       0.50777179 </v>
    <v>       0.11552332       0.87099512       0.99340971 </v>
    <v>       0.61431798       0.36423605       0.00259985 </v>
    <v>       0.61065329       0.36190685       0.50785927 </v>
    <v>       0.61364157       0.86190756       0.99433816 </v>
    <v>       0.61607205       0.86311785       0.49835087 </v>
    <v>       0.38745452       0.14003238       0.00201382 </v>
    <v>       0.38068342       0.14544697       0.51849257 </v>
    <v>       0.38982519       0.64100408       0.99710356 </v>
    <v>       0.38900106       0.64373127       0.50065838 </v>
    <v>       0.88619670       0.12187007       0.97933012 </v>
    <v>       0.88864576       0.13818354       0.49335964 </v>
    <v>       0.88833523       0.63275987       0.00034013 </v>
    <v>       0.88486800       0.63459787       0.50042908 </v>
    <v>       0.99148789       0.00945863       0.12585491 </v>
    <v>       0.01442342       0.97280410       0.62009776 </v>
    <v>       0.02033281       0.48312960       0.11779777 </v>
    <v>       0.99306961       0.50517177       0.62631204 </v>
    <v>       0.50222487       0.99404235       0.12392320 </v>
    <v>       0.50293162       0.99288264       0.62625410 </v>
    <v>       0.49313927       0.50620997       0.12632782 </v>
    <v>       0.50210330       0.50971728       0.62422075 </v>
    <v>       0.02681116       0.97958550       0.38173458 </v>
    <v>       0.00279796       0.50031985       0.37751863 </v>
    <v>       0.02593263       0.48080891       0.87644702 </v>
    <v>       0.49134161       0.01084792       0.37575184 </v>
    <v>       0.49390044       0.00481123       0.87584817 </v>
    <v>       0.49669749       0.49184797       0.37723079 </v>
    <v>       0.49508270       0.49374613       0.87082442 </v>
    <v>       0.25897986       0.24572853       0.37254207 </v>
    <v>       0.23335353       0.27087242       0.87744667 </v>
    <v>       0.22975772       0.76329015       0.37937654 </v>
    <v>       0.25466215       0.74690869       0.87453317 </v>
    <v>       0.74292597       0.25774273       0.37784616 </v>
    <v>       0.74556367       0.25627353       0.87250243 </v>
    <v>       0.75272377       0.74747226       0.37520851 </v>
    <v>       0.74973272       0.74314323       0.87579758 </v>
    <v>       0.22211186       0.25252853       0.11891241 </v>
    <v>       0.25311780       0.74883232       0.12459377 </v>
    <v>       0.22757825       0.77059677       0.62334190 </v>
    <v>       0.75971183       0.23830284       0.12421737 </v>
    <v>       0.76030992       0.24127411       0.62557439 </v>
    <v>       0.75347431       0.76300946       0.12125165 </v>
    <v>       0.75406622       0.74971628       0.62775863 </v>
   </varray>
  </structure>
  <varray name="forces" >
   <v>       0.00634285      -0.00037294      -0.00004585 </v>
   <v>       0.01192274      -0.00449796      -0.01054785 </v>
   <v>       0.00040635       0.00037332       0.00076473 </v>
   <v>       0.00221706       0.00376713       0.00591550 </v>
   <v>      -0.00360060       0.00042830      -0.00557854 </v>
   <v>      -0.00666998       0.00091808      -0.00271378 </v>
   <v>      -0.00879988       0.00031707      -0.00969665 </v>
   <v>       0.00122197       0.00019221       0.00011365 </v>
   <v>       0.00507631      -0.00396737       0.00238367 </v>
   <v>       0.00453868      -0.00191650       0.00106207 </v>
   <v>       0.00636860      -0.00272999      -0.00338907 </v>
   <v>       0.00591349       0.00241993      -0.00455170 </v>
   <v>       0.00012988      -0.00160245       0.00687359 </v>
   <v>      -0.00999671      -0.00286150      -0.00196924 </v>
   <v>      -0.00320517       0.00231337       0.00662621 </v>
   <v>      -0.00574399       0.00258251       0.00226489 </v>
   <v>      -0.01071579       0.00122900      -0.00623372 </v>
   <v>      -0.00751557       0.00743531       0.00056391 </v>
   <v>      -0.00249200      -0.00030334      -0.00523157 </v>
   <v>       0.00074269      -0.01196572      -0.00031277 </v>
   <v>       0.00450879      -0.00338786       0.00338338 </v>
   <v>       0.01055256       0.00577670      -0.00407927 </v>
   <v>       0.00184406       0.00382394      -0.00046197 </v>
   <v>       0.00006928      -0.00552737      -0.00224172 </v>
   <v>      -0.00189167      -0.00386792       0.00150397 </v>
   <v>      -0.00869461       0.00449642      -0.00129152 </v>
   <v>      -0.00646708      -0.00084894       0.00063558 </v>
   <v>       0.00014933       0.00744272       0.00770013 </v>
   <v>       0.00342414      -0.00008399       0.00268946 </v>
   <v>       0.00407749       0.00559901       0.00128445 </v>
   <v>      -0.00306638      -0.00899280       0.00897560 </v>
   <v>      -0.00243393       0.00122859       0.00032825 </v>
   <v>       0.00651078      -0.00228067       0.03801383 </v>
   <v>      -0.02283046       0.02244614       0.00485731 </v>
   <v>       0.00406493      -0.01462351       0.02377169 </v>
   <v>       0.00257837       0.00006145      -0.01063329 </v>
   <v>      -0.00016676      -0.00390944       0.00515306 </v>
   <v>       0.00255288      -0.00436926      -0.00021155 </v>
   <v>       0.01629915      -0.00211549       0.02128360 </v>
   <v>       0.01396186      -0.00482546       0.00041679 </v>
   <v>      -0.01389617       0.01131406      -0.00818768 </v>
   <v>       0.00382356      -0.00173471      -0.02408591 </v>
   <v>      -0.00029595       0.00161017       0.01122011 </v>
   <v>      -0.00085963      -0.00853348      -0.00215374 </v>
   <v>       0.00123028       0.01630957       0.00268899 </v>
   <v>      -0.01165206      -0.00913898      -0.00151618 </v>
   <v>      -0.00387195      -0.00149152      -0.00872633 </v>
   <v>       0.00646406       0.00378650       0.00469357 </v>
   <v>       0.01635982       0.00284855       0.00642537 </v>
   <v>       0.00297348      -0.00023042      -0.00740980 </v>
   <v>      -0.01053460       0.00282162      -0.01376548 </v>
   <v>      -0.00512415       0.01637171       0.00745519 </v>
   <v>      -0.00121489       0.00329435      -0.00116787 </v>
   <v>       0.00015900       0.00712645      -0.00200597 </v>
   <v>       0.01528551       0.00013503      -0.00973707 </v>
   <v>       0.00220474      -0.00315466       0.01241325 </v>
   <v>      -0.00075622      -0.00510233      -0.00332291 </v>
   <v>      -0.00231727       0.00910763       0.00584132 </v>
   <v>      -0.00143312       0.00949997       0.00078764 </v>
   <v>       0.00121047       0.00828710      -0.00216359 </v>
   <v>      -0.00186662      -0.00120824       0.00544294 </v>
   <v>      -0.01022428      -0.00763382      -0.00062031 </v>
   <v>       0.00597105      -0.00364943      -0.00246820 </v>
   <v>      -0.00003981      -0.00585913       0.00124305 </v>
   <v>       0.00538738      -0.00447308       0.00061421 </v>
   <v>      -0.00138931      -0.00327225       0.00209070 </v>
   <v>       0.00174839      -0.00696177       0.00228865 </v>
   <v>      -0.00158074       0.00086757      -0.00676160 </v>
   <v>      -0.00545820      -0.00100142      -0.00278109 </v>
   <v>      -0.00806358      -0.00907067       0.00239162 </v>
   <v>      -0.00045999      -0.00171357       0.00052077 </v>
   <v>       0.00715133      -0.00169820       0.00051601 </v>
   <v>      -0.00305209       0.00415332      -0.00407281 </v>
   <v>      -0.00327603       0.00172345      -0.00119447 </v>
   <v>      -0.00202834       0.00380535      -0.00248183 </v>
   <v>      -0.00135140      -0.00784335      -0.00420838 </v>
   <v>      -0.00401842      -0.00138365       0.00314855 </v>
   <v>      -0.00366474      -0.00152575      -0.00022960 </v>
   <v>      -0.00286178       0.00434458      -0.00039981 </v>
   <v>       0.00077514       0.00987541      -0.00675778 </v>
   <v>       0.00227753      -0.00580344       0.00548147 </v>
   <v>       0.00121709      -0.00553036      -0.00019886 </v>
   <v>       0.00547289      -0.00145614       0.00537904 </v>
   <v>       0.00518639       0.00129821       0.00621234 </v>
   <v>      -0.00673137       0.00869893      -0.00177595 </v>
   <v>       0.01027826      -0.00425810       0.01253825 </v>
   <v>      -0.00671972       0.00768462       0.00504703 </v>
   <v>       0.00656150      -0.00234372      -0.00549504 </v>
   <v>       0.00062387      -0.00025900      -0.00023506 </v>
   <v>       0.00159036      -0.00286091       0.01672734 </v>
   <v>      -0.00119126      -0.00455908      -0.00477947 </v>
   <v>       0.00129042      -0.00106649      -0.01685787 </v>
   <v>       0.00883000      -0.00785930       0.00064077 </v>
   <v>      -0.00320408      -0.00404471      -0.01182070 </v>
   <v>      -0.00035854      -0.00666334      -0.00090518 </v>
   <v>       0.00386574       0.00855916      -0.00802322 </v>
   <v>      -0.00254678      -0.01403210      -0.00051923 </v>
   <v>       0.00359605       0.00085997      -0.00517413 </v>
   <v>      -0.00704767      -0.00298286       0.00286723 </v>
   <v>      -0.00155058      -0.00908959      -0.00395923 </v>
   <v>      -0.00303625       0.00125129      -0.00101410 </v>
   <v>       0.00970334      -0.00514645       0.00379690 </v>
   <v>       0.00502874      -0.00372215       0.01186897 </v>
   <v>      -0.00443914      -0.00205313      -0.00209172 </v>
   <v>      -0.00345837      -0.00972152       0.00439056 </v>
   <v>      -0.00536861       0.00176244      -0.00533774 </v>
   <v>       0.00171582       0.00526944       0.00299500 </v>
   <v>       0.00139401       0.00780139       0.00840804 </v>
   <v>       0.01878050       0.00955869       0.00175472 </v>
   <v>      -0.00889744       0.00041004      -0.00302006 </v>
   <v>      -0.00904963      -0.00238720      -0.00232384 </v>
   <v>      -0.00642074       0.00683994       0.00101860 </v>
   <v>       0.00045072      -0.00346581       0.00192959 </v>
   <v>      -0.00532937      -0.00371744       0.00547631 </v>
   <v>       0.00831241       0.00076203       0.00313426 </v>
   <v>       0.01420176      -0.00247062       0.01438238 </v>
   <v>       0.00307517      -0.00506026      -0.00223781 </v>
   <v>       0.00325899       0.00708784       0.00489674 </v>
   <v>      -0.01107100       0.01678422       0.00822893 </v>
   <v>      -0.00395973      -0.01138939      -0.00395419 </v>
   <v>      -0.01590284      -0.00427952      -0.00461991 </v>
   <v>       0.01558882      -0.01740510      -0.01154131 </v>
   <v>      -0.00218477       0.00023147      -0.00885107 </v>
   <v>       0.01903693      -0.01502487      -0.01372726 </v>
   <v>      -0.00238834       0.00922204       0.00296513 </v>
   <v>      -0.00303879       0.00665455      -0.00018404 </v>
   <v>       0.00578478       0.01135489      -0.03017993 </v>
   <v>      -0.00664511       0.00823504      -0.00041952 </v>
   <v>      -0.00814531       0.00376871      -0.00231310 </v>
   <v>      -0.00623663      -0.00176444       0.00362212 </v>
   <v>       0.00951481      -0.00654756       0.01068919 </v>
   <v>       0.00209226       0.01268326       0.00182149 </v>
   <v>       0.00138684       0.00242041      -0.00490448 </v>
   <v>      -0.01240361       0.01344392       0.00427662 </v>
   <v>      -0.00132839      -0.00587123       0.00097716 </v>
   <v>      -0.00970965       0.00058779       0.01232720 </v>
   <v>      -0.01036533       0.00775601      -0.00696361 </v>
   <v>       0.00710700      -0.00894935      -0.00615186 </v>
   <v>       0.00494073       0.00443326      -0.00991310 </v>
   <v>       0.00731060       0.00087812      -0.00028339 </v>
   <v>       0.00251028       0.00206231      -0.00207785 </v>
   <v>       0.00201514       0.00219506      -0.00692984 </v>
   <v>       0.00514361      -0.00635781       0.00034046 </v>
   <v>       0.00196386       0.00071934       0.00756987 </v>
   <v>      -0.01212022       0.00324967      -0.00866017 </v>
   <v>      -0.01431867       0.00681308      -0.00205456 </v>
   <v>       0.00091362       0.00141704       0.00172393 </v>
   <v>       0.00407211       0.00494071       0.00906175 </v>
   <v>       0.00488321      -0.00486310       0.00158133 </v>
   <v>       0.00061343       0.00131022      -0.02002027 </v>
   <v>       0.00887978      -0.00272177       0.00064221 </v>
   <v>       0.01081819      -0.00590716      -0.00332453 </v>
   <v>      -0.00692210       0.00489767      -0.00398517 </v>
   <v>       0.00321398      -0.00576894       0.01508443 </v>
   <v>      -0.00747439      -0.00277168      -0.00106535 </v>
   <v>      -0.00557364      -0.00212988      -0.00290245 </v>
  </varray>
  <varray name="stress" >
   <v>      -0.03970127       0.08333079       0.00393136 </v>
   <v>       0.08333080      -0.01862721       0.03141949 </v>
   <v>       0.00393132       0.03142032      -0.18492399 </v>
  </varray>
  <energy>
   <i name="e_fr_energy">  -1118.82170386 </i>
   <i name="e_wo_entrp">  -1118.82170386 </i>
   <i name="e_0_energy">     -0.00000000 </i>
  </energy>
  <time name="totalsc"> 1944.33 1947.55</time>
 </calculation>
 <calculation>
  <scstep>
   <time name="dav">  571.77  571.84</time>
   <time name="total">  578.99  579.16</time>
   <energy>
    <i name="alphaZ">   5611.20022582 </i>
    <i name="ewald"> -60956.07890327 </i>
    <i name="hartreedc"> -16546.16524743 </i>
    <i name="XCdc">   2962.47395686 </i>
    <i name="pawpsdc"> 112515.85958083 </i>
    <i name="pawaedc">-111415.02391236 </i>
    <i name="eentropy">     -0.00000000 </i>
    <i name="bandstr">  -7074.53525088 </i>
    <i name="atom">  73783.44779670 </i>
    <i name="e_fr_energy">  -1118.82175373 </i>
    <i name="e_wo_entrp">  -1118.82175373 </i>
    <i name="e_0_energy">  -1118.82175373 </i>
   </energy>
  </scstep>
  <scstep>
   <time name="diag">   64.92   64.92</time>
   <time name="diis">  104.33  104.34</time>
   <time name="orth">   33.44   33.44</time>
   <time name="total">  209.85  209.89</time>
   <energy>
    <i name="e_fr_energy">  -1118.82222673 </i>
    <i name="e_wo_entrp">  -1118.82222673 </i>
    <i name="e_0_energy">  -1118.82222673 </i>
   </energy>
  </scstep>
  <scstep>
   <time name="diag">   64.92   64.92</time>
   <time name="diis">   77.44   77.44</time>
   <time name="orth">   33.40   33.39</time>
   <time name="total">  182.94  182.98</time>
   <energy>
    <i name="e_fr_energy">  -1118.82217005 </i>
    <i name="e_wo_entrp">  -1118.82217005 </i>
    <i name="e_0_energy">  -1118.82217005 </i>
   </energy>
  </scstep>
  <scstep>
   <time name="diag">   64.85   64.87</time>
   <time name="diis">   66.45   66.46</time>
   <time name="orth">   33.41   33.41</time>
   <time name="total">  171.89  171.98</time>
   <energy>
    <i name="e_fr_energy">  -1118.82213078 </i>
    <i name="e_wo_entrp">  -1118.82213078 </i>
    <i name="e_0_energy">  -1118.82213078 </i>
   </energy>
  </scstep>
  <scstep>
   <time name="diag">   64.86   64.87</time>
   <time name="diis">   63.36   63.37</time>
   <time name="orth">   33.41   33.41</time>
   <time name="total">  168.79  168.87</time>
   <energy>
    <i name="e_fr_energy">  -1118.82212240 </i>
    <i name="e_wo_entrp">  -1118.82212240 </i>
    <i name="e_0_energy">  -1118.82212240 </i>
   </energy>
  </scstep>
  <scstep>
   <time name="diag">   64.90   64.90</time>
   <time name="diis">   61.71   61.72</time>
   <time name="orth">   33.44   33.44</time>
   <time name="total">  167.21  167.26</time>
   <energy>
    <i name="e_fr_energy">  -1118.82212464 </i>
    <i name="e_wo_entrp">  -1118.82212464 </i>
    <i name="e_0_energy">  -1118.82212464 </i>
   </energy>
  </scstep>
  <scstep>
   <time name="diag">   64.80   64.83</time>
   <time name="diis">   58.78   58.78</time>
   <time name="orth">   33.41   33.41</time>
   <time name="total">  164.25  164.39</time>
   <energy>
    <i name="e_fr_energy">  -1118.82212560 </i>
    <i name="e_wo_entrp">  -1118.82212560 </i>
    <i name="e_0_energy">  -1118.82212560 </i>
   </energy>
  </scstep>
  <scstep>
   <time name="diag">   64.87   64.87</time>
   <time name="diis">   56.70   56.70</time>
   <time name="orth">   33.36   33.36</time>
   <time name="total">  155.97  156.06</time>
   <energy>
    <i name="alphaZ">   5611.20022582 </i>
    <i name="ewald"> -60956.07890327 </i>
    <i name="hartreedc"> -16544.76027497 </i>
    <i name="XCdc">   2962.38455761 </i>
    <i name="pawpsdc"> 112530.48636837 </i>
    <i name="pawaedc">-111429.66214521 </i>
    <i name="eentropy">     -0.00000000 </i>
    <i name="bandstr">  -7075.83975173 </i>
    <i name="atom">  73783.44779670 </i>
    <i name="e_fr_energy">  -1118.82212668 </i>
    <i name="e_wo_entrp">  -1118.82212668 </i>
    <i name="e_0_energy">  -1118.82212668 </i>
   </energy>
  </scstep>
  <structure>
   <crystal>
    <varray name="basis" >
     <v>      11.24688634       0.00304615       0.00375345 </v>
     <v>       0.00304464      11.23926307      -0.01286291 </v>
     <v>       0.00531935      -0.01841079      15.91072696 </v>
    </varray>
    <i name="volume">   2011.21968272 </i>
    <varray name="rec_basis" >
     <v>       0.08891351      -0.00002412      -0.00002975 </v>
     <v>      -0.00002413       0.08897393       0.00010296 </v>
     <v>      -0.00002099       0.00007194       0.06285077 </v>
    </varray>
   </crystal>
   <varray name="positions" >
    <v>       0.98785150       0.25206080       0.13463662 </v>
    <v>       0.99185600       0.26341846       0.62257677 </v>
    <v>       0.99795613       0.74783235       0.13262205 </v>
    <v>       0.99054279       0.73705572       0.62667589 </v>
    <v>       0.51587575       0.25126453       0.12816213 </v>
    <v>       0.50714960       0.24470044       0.62799920 </v>
    <v>       0.50293108       0.74731152       0.12657910 </v>
    <v>       0.50914632       0.75468208       0.62794967 </v>
    <v>       0.99575407       0.26274611       0.36911281 </v>
    <v>       0.98636656       0.25258373       0.87252208 </v>
    <v>       0.99060221       0.73882910       0.36862885 </v>
    <v>       0.00157043       0.74601470       0.87500672 </v>
    <v>       0.50179970       0.24923709       0.37245747 </v>
    <v>       0.51511996       0.24993488       0.87751661 </v>
    <v>       0.50936053       0.75139557       0.37048351 </v>
    <v>       0.50096892       0.74906273       0.87341305 </v>
    <v>       0.25588148       0.99349078       0.12731404 </v>
    <v>       0.26563967       0.00106900       0.62683081 </v>
    <v>       0.25344982       0.50396889       0.13158774 </v>
    <v>       0.24896709       0.50779469       0.62445709 </v>
    <v>       0.74553550       0.00315007       0.13326331 </v>
    <v>       0.73222930       0.99585953       0.62416704 </v>
    <v>       0.74634971       0.49331400       0.12779911 </v>
    <v>       0.74883808       0.50260830       0.62378308 </v>
    <v>       0.25716296       0.00377332       0.36939920 </v>
    <v>       0.26396863       0.99144760       0.87701661 </v>
    <v>       0.24707384       0.49704281       0.37348641 </v>
    <v>       0.25963314       0.51155738       0.87459838 </v>
    <v>       0.73788367       0.99832923       0.37498280 </v>
    <v>       0.74175859       0.00046028       0.87498763 </v>
    <v>       0.75330167       0.50091729       0.36699600 </v>
    <v>       0.73895441       0.49613715       0.87615911 </v>
    <v>       0.99820503       0.00057633       0.00976080 </v>
    <v>       0.99308750       0.01336840       0.49700289 </v>
    <v>       0.99495169       0.50794249       0.00021387 </v>
    <v>       0.99909883       0.50017830       0.49892136 </v>
    <v>       0.50611352       0.99680964       0.00008776 </v>
    <v>       0.50008466       0.49521024       0.50051764 </v>
    <v>       0.26022791       0.24223026       0.00289115 </v>
    <v>       0.25517462       0.74752753       0.00102660 </v>
    <v>       0.26092302       0.74632226       0.49968525 </v>
    <v>       0.74388916       0.25191257       0.49801085 </v>
    <v>       0.74708881       0.74979242       0.00068353 </v>
    <v>       0.74847978       0.74887952       0.49687209 </v>
    <v>       0.24791113       0.25122850       0.24813017 </v>
    <v>       0.24747831       0.25337025       0.76189972 </v>
    <v>       0.24733172       0.75026739       0.25196599 </v>
    <v>       0.24958663       0.75379307       0.75067054 </v>
    <v>       0.74959486       0.24784422       0.75023240 </v>
    <v>       0.74951298       0.75064326       0.75338277 </v>
    <v>       0.99968838       0.99896752       0.25677312 </v>
    <v>       0.00277514       0.99698851       0.73513124 </v>
    <v>       0.00108458       0.49847601       0.74998929 </v>
    <v>       0.50090099       0.00065715       0.25124418 </v>
    <v>       0.50116990       0.49987535       0.24858593 </v>
    <v>       0.49973291       0.49975399       0.74769468 </v>
    <v>       0.49482693       0.00473017       0.50178489 </v>
    <v>       0.50026046       0.49943392       0.00168268 </v>
    <v>       0.25113667       0.25016167       0.49052014 </v>
    <v>       0.75184811       0.24679561       0.00061510 </v>
    <v>       0.75104957       0.24982162       0.25134202 </v>
    <v>       0.75156689       0.74926191       0.24821796 </v>
    <v>       0.00028506       0.49887107       0.24769277 </v>
    <v>       0.49960321       0.00084420       0.75013559 </v>
    <v>       0.11344515       0.13472857       0.25424055 </v>
    <v>       0.11710905       0.13452366       0.74124995 </v>
    <v>       0.11623667       0.63671606       0.24819315 </v>
    <v>       0.11705075       0.63334226       0.75011170 </v>
    <v>       0.61459999       0.13276806       0.25001118 </v>
    <v>       0.62108450       0.13180317       0.74994359 </v>
    <v>       0.61383578       0.63336090       0.25003605 </v>
    <v>       0.61782036       0.63095998       0.75145424 </v>
    <v>       0.38235891       0.36333328       0.24357047 </v>
    <v>       0.37614855       0.36790961       0.73775143 </v>
    <v>       0.38281796       0.86519505       0.25311050 </v>
    <v>       0.37592128       0.87007347       0.74987135 </v>
    <v>       0.88458137       0.36581845       0.25070003 </v>
    <v>       0.88564917       0.36576478       0.75085722 </v>
    <v>       0.88899716       0.86721702       0.25229362 </v>
    <v>       0.88746337       0.86860716       0.75862178 </v>
    <v>       0.36252430       0.11581648       0.23940433 </v>
    <v>       0.36183953       0.12724180       0.74579513 </v>
    <v>       0.36238188       0.61725797       0.25932608 </v>
    <v>       0.36504040       0.62254014       0.74351147 </v>
    <v>       0.86951507       0.11160555       0.26507804 </v>
    <v>       0.87579640       0.11146214       0.75878201 </v>
    <v>       0.86813454       0.61528289       0.24145706 </v>
    <v>       0.87090557       0.61372155       0.75775693 </v>
    <v>       0.13723684       0.38341178       0.25552572 </v>
    <v>       0.13580669       0.37668006       0.72745867 </v>
    <v>       0.13583123       0.88708555       0.24039666 </v>
    <v>       0.12538592       0.89101609       0.77397187 </v>
    <v>       0.63116095       0.38443730       0.24607020 </v>
    <v>       0.63212299       0.38163018       0.74406690 </v>
    <v>       0.63208675       0.88539017       0.25408976 </v>
    <v>       0.63354996       0.87867490       0.75368901 </v>
    <v>       0.34340017       0.39043982       0.00186675 </v>
    <v>       0.35903844       0.39220235       0.50869431 </v>
    <v>       0.36295689       0.88872158       0.00056759 </v>
    <v>       0.34719897       0.89366031       0.49882671 </v>
    <v>       0.88622209       0.37401890       0.99705149 </v>
    <v>       0.86399639       0.38597470       0.50192664 </v>
    <v>       0.87334364       0.88276973       0.98595272 </v>
    <v>       0.87534556       0.88342713       0.49961254 </v>
    <v>       0.12814560       0.12062448       0.98378730 </v>
    <v>       0.13671571       0.11024168       0.51146949 </v>
    <v>       0.14077953       0.60943408       0.99829699 </v>
    <v>       0.13094817       0.62655868       0.50332353 </v>
    <v>       0.63448663       0.11092976       0.99919002 </v>
    <v>       0.63816172       0.11476226       0.50132141 </v>
    <v>       0.64087041       0.61348642       0.00152854 </v>
    <v>       0.63724501       0.61205415       0.49868853 </v>
    <v>       0.11698691       0.36477777       0.50777763 </v>
    <v>       0.11550046       0.87097920       0.99342631 </v>
    <v>       0.61435363       0.36423933       0.00260935 </v>
    <v>       0.61071419       0.36189630       0.50790285 </v>
    <v>       0.61365477       0.86188583       0.99433136 </v>
    <v>       0.61608602       0.86314829       0.49836573 </v>
    <v>       0.38740700       0.14010448       0.00203884 </v>
    <v>       0.38066645       0.14539806       0.51848054 </v>
    <v>       0.38975698       0.64098570       0.99708955 </v>
    <v>       0.38906797       0.64365649       0.50062331 </v>
    <v>       0.88618734       0.12187102       0.97930329 </v>
    <v>       0.88872745       0.13811896       0.49331795 </v>
    <v>       0.88832497       0.63279947       0.00034915 </v>
    <v>       0.88485496       0.63462644       0.50042855 </v>
    <v>       0.99151273       0.00950721       0.12576345 </v>
    <v>       0.01439491       0.97283945       0.62009652 </v>
    <v>       0.02029787       0.48314578       0.11779078 </v>
    <v>       0.99304286       0.50516422       0.62632302 </v>
    <v>       0.50226568       0.99401429       0.12395558 </v>
    <v>       0.50294058       0.99293709       0.62625966 </v>
    <v>       0.49314523       0.50622033       0.12631295 </v>
    <v>       0.50205007       0.50977502       0.62423377 </v>
    <v>       0.02680547       0.97956030       0.38173753 </v>
    <v>       0.00275630       0.50032245       0.37755601 </v>
    <v>       0.02588817       0.48084218       0.87642594 </v>
    <v>       0.49137211       0.01080947       0.37573315 </v>
    <v>       0.49392164       0.00483020       0.87581812 </v>
    <v>       0.49672885       0.49185173       0.37722993 </v>
    <v>       0.49509347       0.49375497       0.87081812 </v>
    <v>       0.25898851       0.24573792       0.37252107 </v>
    <v>       0.23337560       0.27084513       0.87744768 </v>
    <v>       0.22976613       0.76329327       0.37939949 </v>
    <v>       0.25461017       0.74692261       0.87450694 </v>
    <v>       0.74286454       0.25777198       0.37783997 </v>
    <v>       0.74556758       0.25627962       0.87250766 </v>
    <v>       0.75274122       0.74749351       0.37523599 </v>
    <v>       0.74975367       0.74312236       0.87580235 </v>
    <v>       0.22211452       0.25253405       0.11885172 </v>
    <v>       0.25315589       0.74882064       0.12459569 </v>
    <v>       0.22762466       0.77057139       0.62333179 </v>
    <v>       0.75968214       0.23832385       0.12420531 </v>
    <v>       0.76032369       0.24124942       0.62562010 </v>
    <v>       0.75344225       0.76299756       0.12124842 </v>
    <v>       0.75404232       0.74970712       0.62774983 </v>
   </varray>
  </structure>
  <varray name="forces" >
   <v>       0.00156968      -0.00118520      -0.00330693 </v>
   <v>       0.00943427      -0.00008292      -0.00464950 </v>
   <v>      -0.00214043      -0.00142781      -0.00537007 </v>
   <v>       0.00350348       0.00472760       0.00631675 </v>
   <v>       0.00029283      -0.00006649      -0.00562628 </v>
   <v>      -0.00294482      -0.00272009       0.00320142 </v>
   <v>      -0.00593766       0.00344406      -0.00364426 </v>
   <v>      -0.00080668      -0.00138865      -0.00143477 </v>
   <v>       0.00878992      -0.00621478       0.00169819 </v>
   <v>       0.00713281      -0.00253719       0.00404978 </v>
   <v>       0.00257655       0.00291824       0.00175080 </v>
   <v>       0.00406969       0.00174343      -0.00237447 </v>
   <v>      -0.00342025      -0.00318428       0.00761380 </v>
   <v>      -0.00784506      -0.00157032      -0.00786406 </v>
   <v>      -0.00445051       0.00230896       0.00721291 </v>
   <v>      -0.00080337       0.00247963      -0.00380808 </v>
   <v>      -0.00523236       0.00057251      -0.00307386 </v>
   <v>      -0.00699931      -0.00085806       0.00119324 </v>
   <v>       0.00169886       0.00327367      -0.00387745 </v>
   <v>       0.00381084      -0.00266315       0.00262681 </v>
   <v>      -0.00003519      -0.00068677      -0.00135313 </v>
   <v>       0.00261425       0.00206439       0.00151839 </v>
   <v>       0.00184842       0.00243421      -0.00376398 </v>
   <v>       0.00000828      -0.00471979       0.00042436 </v>
   <v>      -0.00177420      -0.00171536       0.00139150 </v>
   <v>      -0.01108226       0.00623151      -0.00327027 </v>
   <v>       0.00194429       0.00295888       0.00352221 </v>
   <v>      -0.00360346       0.00229413       0.00054179 </v>
   <v>       0.00072381      -0.00796662       0.00332119 </v>
   <v>       0.00519346       0.00424151       0.00117039 </v>
   <v>      -0.00484832      -0.00267703       0.00963324 </v>
   <v>       0.00032920       0.00362577      -0.00038995 </v>
   <v>      -0.00509996       0.01111338      -0.05672767 </v>
   <v>       0.03235858      -0.04022327       0.00085273 </v>
   <v>      -0.01012530       0.01212380      -0.01561109 </v>
   <v>       0.00163879       0.00990135       0.01393980 </v>
   <v>       0.01485418       0.00761798      -0.00180064 </v>
   <v>      -0.00202954       0.01107762       0.00750289 </v>
   <v>      -0.02317335       0.00169184      -0.01896361 </v>
   <v>      -0.01180723       0.00547330      -0.00738040 </v>
   <v>       0.02575576      -0.02832769       0.01187175 </v>
   <v>      -0.00673833      -0.00434735       0.02202170 </v>
   <v>       0.01187163      -0.00051227      -0.00735330 </v>
   <v>      -0.00663014       0.00780075       0.00478640 </v>
   <v>       0.00549136      -0.00426755       0.00209374 </v>
   <v>       0.00740275       0.00022369       0.00625582 </v>
   <v>       0.00945496       0.00306895      -0.00334909 </v>
   <v>      -0.00128195      -0.00244436      -0.00853420 </v>
   <v>      -0.00646863      -0.00392913      -0.00195640 </v>
   <v>       0.00091836       0.00283845      -0.00181057 </v>
   <v>       0.00334998      -0.00660691       0.00854248 </v>
   <v>       0.00053254       0.00052448       0.00080753 </v>
   <v>       0.00247468       0.00573145       0.00223705 </v>
   <v>      -0.00341675      -0.00266759       0.00423412 </v>
   <v>       0.00206285      -0.00322701       0.00721655 </v>
   <v>      -0.00085464      -0.00222629      -0.00856049 </v>
   <v>       0.00107908      -0.00762748       0.00186164 </v>
   <v>       0.00690761       0.00022570      -0.00213999 </v>
   <v>       0.00387407      -0.00188523       0.00103716 </v>
   <v>       0.00413691       0.00205527      -0.00439277 </v>
   <v>      -0.00357178      -0.00182768      -0.00930565 </v>
   <v>      -0.00976258      -0.00142619       0.00447588 </v>
   <v>      -0.00454040       0.00057844       0.00115674 </v>
   <v>       0.00434838       0.00001354      -0.00512374 </v>
   <v>      -0.00039770      -0.00070055      -0.00490852 </v>
   <v>      -0.00079907      -0.00099499       0.00148542 </v>
   <v>      -0.00101351      -0.01069893       0.00139710 </v>
   <v>       0.00175642      -0.00032643      -0.00613188 </v>
[...]
       <r>   -16.2820     0.0000    32.0000 </r>
       <r>   -16.1297     0.0000    32.0000 </r>
       <r>   -15.9774     0.0000    32.0000 </r>
       <r>   -15.8251     0.0000    32.0000 </r>
       <r>   -15.6727     0.0000    32.0000 </r>
       <r>   -15.5204     0.0000    32.0000 </r>
       <r>   -15.3681     0.0000    32.0000 </r>
       <r>   -15.2158     2.8090    32.4279 </r>
       <r>   -15.0635    24.1569    36.1075 </r>
       <r>   -14.9111    39.8317    42.1747 </r>
       <r>   -14.7588    42.2426    48.6091 </r>
       <r>   -14.6065    46.3458    55.6685 </r>
       <r>   -14.4542    38.9008    61.5939 </r>
       <r>   -14.3019    34.3202    66.8216 </r>
       <r>   -14.1495    60.0509    75.9686 </r>
       <r>   -13.9972   102.0528    91.5133 </r>
       <r>   -13.8449   109.7934   108.2371 </r>
       <r>   -13.6926    64.1533   118.0090 </r>
       <r>   -13.5403    22.9172   121.4997 </r>
       <r>   -13.3879    16.3218   123.9859 </r>
       <r>   -13.2356     0.0926   124.0000 </r>
       <r>   -13.0833     0.0000   124.0000 </r>
       <r>   -12.9310     0.0000   124.0000 </r>
       <r>   -12.7787     0.0543   124.0083 </r>
       <r>   -12.6263    30.3302   128.6282 </r>
       <r>   -12.4740   125.3933   147.7282 </r>
       <r>   -12.3217   159.0713   171.9580 </r>
       <r>   -12.1694   114.6167   189.4165 </r>
       <r>   -12.0171   112.9166   206.6160 </r>
       <r>   -11.8647    69.7455   217.2397 </r>
       <r>   -11.7124    18.0958   219.9961 </r>
       <r>   -11.5601     0.0256   220.0000 </r>
       <r>   -11.4078     0.0000   220.0000 </r>
       <r>   -11.2554     0.0000   220.0000 </r>
       <r>   -11.1031     0.0000   220.0000 </r>
       <r>   -10.9508     0.0000   220.0000 </r>
       <r>   -10.7985     0.0000   220.0000 </r>
       <r>   -10.6462     0.0000   220.0000 </r>
       <r>   -10.4938     0.0000   220.0000 </r>
       <r>   -10.3415     0.0000   220.0000 </r>
       <r>   -10.1892     0.0000   220.0000 </r>
       <r>   -10.0369     0.0000   220.0000 </r>
       <r>    -9.8846     0.0000   220.0000 </r>
       <r>    -9.7322     0.0000   220.0000 </r>
       <r>    -9.5799     0.0000   220.0000 </r>
       <r>    -9.4276     0.0000   220.0000 </r>
       <r>    -9.2753     0.0000   220.0000 </r>
       <r>    -9.1230     0.0000   220.0000 </r>
       <r>    -8.9706     0.0000   220.0000 </r>
       <r>    -8.8183     0.0000   220.0000 </r>
       <r>    -8.6660     0.0000   220.0000 </r>
       <r>    -8.5137     0.0000   220.0000 </r>
       <r>    -8.3614     0.0000   220.0000 </r>
       <r>    -8.2090     0.0000   220.0000 </r>
       <r>    -8.0567     0.0000   220.0000 </r>
       <r>    -7.9044     0.0000   220.0000 </r>
       <r>    -7.7521     0.0000   220.0000 </r>
       <r>    -7.5998     0.0000   220.0000 </r>
       <r>    -7.4474     0.0000   220.0000 </r>
       <r>    -7.2951     0.0000   220.0000 </r>
       <r>    -7.1428     0.0000   220.0000 </r>
       <r>    -6.9905     0.0000   220.0000 </r>
       <r>    -6.8381     0.0000   220.0000 </r>
       <r>    -6.6858     0.0000   220.0000 </r>
       <r>    -6.5335     0.0000   220.0000 </r>
       <r>    -6.3812     0.0000   220.0000 </r>
       <r>    -6.2289     0.0000   220.0000 </r>
       <r>    -6.0765     0.0000   220.0000 </r>
       <r>    -5.9242     0.0000   220.0000 </r>
       <r>    -5.7719     0.0000   220.0000 </r>
       <r>    -5.6196     0.0000   220.0000 </r>
       <r>    -5.4673     0.0000   220.0000 </r>
       <r>    -5.3149     0.0000   220.0000 </r>
       <r>    -5.1626     0.0000   220.0000 </r>
       <r>    -5.0103     0.0000   220.0000 </r>
       <r>    -4.8580     0.0000   220.0000 </r>
       <r>    -4.7057     0.0000   220.0000 </r>
       <r>    -4.5533     0.0000   220.0000 </r>
       <r>    -4.4010     0.0000   220.0000 </r>
       <r>    -4.2487     0.0000   220.0000 </r>
       <r>    -4.0964     0.0000   220.0000 </r>
       <r>    -3.9441     0.0000   220.0000 </r>
       <r>    -3.7917     0.0000   220.0000 </r>
       <r>    -3.6394     0.0000   220.0000 </r>
       <r>    -3.4871     0.0000   220.0000 </r>
       <r>    -3.3348     0.0000   220.0000 </r>
       <r>    -3.1825     0.0000   220.0000 </r>
       <r>    -3.0301     0.0000   220.0000 </r>
       <r>    -2.8778     0.0000   220.0000 </r>
       <r>    -2.7255     0.0000   220.0000 </r>
       <r>    -2.5732     0.0000   220.0000 </r>
       <r>    -2.4209     0.3203   220.0488 </r>
       <r>    -2.2685    10.6573   221.6721 </r>
       <r>    -2.1162    19.4236   224.6307 </r>
       <r>    -1.9639    34.3610   229.8646 </r>
       <r>    -1.8116    35.1784   235.2230 </r>
       <r>    -1.6592    50.5577   242.9240 </r>
       <r>    -1.5069    56.4288   251.5193 </r>
       <r>    -1.3546    60.2757   260.7005 </r>
       <r>    -1.2023    64.5688   270.5357 </r>
       <r>    -1.0500    71.4368   281.4170 </r>
       <r>    -0.8976    75.9832   292.9908 </r>
       <r>    -0.7453    80.8344   305.3035 </r>
       <r>    -0.5930    94.0868   319.6349 </r>
       <r>    -0.4407   111.3611   336.5975 </r>
       <r>    -0.2884    84.4679   349.4637 </r>
       <r>    -0.1360    53.6880   357.6415 </r>
       <r>     0.0163    47.2079   364.8322 </r>
       <r>     0.1686    47.6991   372.0978 </r>
       <r>     0.3209    54.0779   380.3350 </r>
       <r>     0.4732    50.8157   388.0752 </r>
       <r>     0.6256    52.2539   396.0346 </r>
       <r>     0.7779    49.5464   403.5815 </r>
       <r>     0.9302    50.1674   411.2231 </r>
       <r>     1.0825    64.6727   421.0740 </r>
       <r>     1.2348    71.5436   431.9716 </r>
       <r>     1.3872    82.7656   444.5785 </r>
       <r>     1.5395    83.2835   457.2643 </r>
       <r>     1.6918    78.4830   469.2189 </r>
       <r>     1.8441    62.2623   478.7027 </r>
       <r>     1.9964    50.8085   486.4419 </r>
       <r>     2.1488    37.7344   492.1896 </r>
       <r>     2.3011    18.1987   494.9617 </r>
       <r>     2.4534     6.8150   495.9997 </r>
       <r>     2.6057     0.0017   496.0000 </r>
       <r>     2.7581     0.0000   496.0000 </r>
       <r>     2.9104     0.0000   496.0000 </r>
       <r>     3.0627     0.0000   496.0000 </r>
       <r>     3.2150     0.0000   496.0000 </r>
       <r>     3.3673     0.0000   496.0000 </r>
       <r>     3.5197     0.0000   496.0000 </r>
       <r>     3.6720     0.0000   496.0000 </r>
       <r>     3.8243     0.0000   496.0000 </r>
       <r>     3.9766     0.0000   496.0000 </r>
       <r>     4.1289     0.0000   496.0000 </r>
       <r>     4.2813     0.0000   496.0000 </r>
       <r>     4.4336     0.0057   496.0009 </r>
       <r>     4.5859     9.8956   497.5082 </r>
       <r>     4.7382    39.8031   503.5710 </r>
       <r>     4.8905    35.4497   508.9707 </r>
       <r>     5.0429    40.7189   515.1731 </r>
       <r>     5.1952    55.5142   523.6290 </r>
       <r>     5.3475    68.3018   534.0328 </r>
       <r>     5.4998    68.1221   544.4092 </r>
       <r>     5.6521    63.5665   554.0917 </r>
       <r>     5.8045    71.8490   565.0358 </r>
       <r>     5.9568    89.2986   578.6378 </r>
       <r>     6.1091    81.1733   591.0022 </r>
       <r>     6.2614    77.2071   602.7624 </r>
       <r>     6.4137    59.8959   611.8858 </r>
       <r>     6.5661    26.5824   615.9348 </r>
       <r>     6.7184     9.1565   617.3296 </r>
       <r>     6.8707    18.3190   620.1199 </r>
       <r>     7.0230    18.8492   622.9910 </r>
       <r>     7.1753    19.4150   625.9483 </r>
       <r>     7.3277    15.4732   628.3052 </r>
       <r>     7.4800    17.6907   630.9999 </r>
       <r>     7.6323    17.3195   633.6380 </r>
       <r>     7.7846    16.2003   636.1056 </r>
       <r>     7.9370    19.9950   639.1513 </r>
       <r>     8.0893    21.6562   642.4500 </r>
       <r>     8.2416    29.2071   646.8988 </r>
       <r>     8.3939    23.0851   650.4152 </r>
       <r>     8.5462    23.6400   654.0160 </r>
       <r>     8.6986    23.6521   657.6187 </r>
       <r>     8.8509    32.6614   662.5937 </r>
       <r>     9.0032    39.5357   668.6158 </r>
       <r>     9.1555    36.2644   674.1397 </r>
       <r>     9.3078    41.3363   680.4360 </r>
       <r>     9.4602    41.9420   686.8247 </r>
       <r>     9.6125    43.8501   693.5040 </r>
       <r>     9.7648    49.7419   701.0807 </r>
       <r>     9.9171    66.6433   711.2318 </r>
       <r>    10.0694    68.5690   721.6763 </r>
       <r>    10.2218    61.5822   731.0565 </r>
       <r>    10.3741    54.7155   739.3908 </r>
       <r>    10.5264    57.6993   748.1796 </r>
       <r>    10.6787    59.0114   757.1683 </r>
       <r>    10.8310    51.1963   764.9665 </r>
       <r>    10.9834    19.9010   767.9979 </r>
       <r>    11.1357     0.0141   768.0000 </r>
       <r>    11.2880     0.0000   768.0000 </r>
       <r>    11.4403     0.0000   768.0000 </r>
       <r>    11.5926     0.0000   768.0000 </r>
       <r>    11.7450     0.0000   768.0000 </r>
       <r>    11.8973     0.0000   768.0000 </r>
       <r>    12.0496     0.0000   768.0000 </r>
       <r>    12.2019     0.0000   768.0000 </r>
       <r>    12.3543     0.0000   768.0000 </r>
       <r>    12.5066     0.0000   768.0000 </r>
       <r>    12.6589     0.0000   768.0000 </r>
       <r>    12.8112     0.0000   768.0000 </r>
       <r>    12.9635     0.0000   768.0000 </r>
      </set>
     </set>
    </array>
   </total>
  </dos>
 </calculation>
 <structure name="finalpos" >
  <crystal>
   <varray name="basis" >
    <v>      11.24693018       0.00327789       0.00361546 </v>
    <v>       0.00327632      11.23944737      -0.01278418 </v>
    <v>       0.00512378      -0.01829957      15.91064250 </v>
   </varray>
   <i name="volume">   2011.24984879 </i>
   <varray name="rec_basis" >
    <v>       0.08891317      -0.00002595      -0.00002866 </v>
    <v>      -0.00002596       0.08897247       0.00010234 </v>
    <v>      -0.00002023       0.00007150       0.06285110 </v>
   </varray>
  </crystal>
  <varray name="positions" >
   <v>       0.98786999       0.25205765       0.13463000 </v>
   <v>       0.99190993       0.26340851       0.62255110 </v>
   <v>       0.99795064       0.74782857       0.13261258 </v>
   <v>       0.99055792       0.73707674       0.62669789 </v>
   <v>       0.51586806       0.25126604       0.12814325 </v>
   <v>       0.50712692       0.24469373       0.62800120 </v>
   <v>       0.50289575       0.74732221       0.12655746 </v>
   <v>       0.50914712       0.75467912       0.62794736 </v>
   <v>       0.99579128       0.26271938       0.36912012 </v>
   <v>       0.98639743       0.25257267       0.87253250 </v>
   <v>       0.99062363       0.73883109       0.36862753 </v>
   <v>       0.00159586       0.74602522       0.87499545 </v>
   <v>       0.50179047       0.24922427       0.37248407 </v>
   <v>       0.51507551       0.24992571       0.87749766 </v>
   <v>       0.50933979       0.75141019       0.37050972 </v>
   <v>       0.50095333       0.74907573       0.87340991 </v>
   <v>       0.25584526       0.99349497       0.12729859 </v>
   <v>       0.26560323       0.00107913       0.62683450 </v>
   <v>       0.25344965       0.50397906       0.13157312 </v>
   <v>       0.24898095       0.50775897       0.62446366 </v>
   <v>       0.74554564       0.00314189       0.13326553 </v>
   <v>       0.73226045       0.99588038       0.62415997 </v>
   <v>       0.74635987       0.49332937       0.12779158 </v>
   <v>       0.74883977       0.50258324       0.62378006 </v>
   <v>       0.25715251       0.00375806       0.36940412 </v>
   <v>       0.26391916       0.99147597       0.87700866 </v>
   <v>       0.24706181       0.49705120       0.37349522 </v>
   <v>       0.25962346       0.51158041       0.87461154 </v>
   <v>       0.73789460       0.99830747       0.37499348 </v>
   <v>       0.74178162       0.00048444       0.87499247 </v>
   <v>       0.75328044       0.50088512       0.36702943 </v>
   <v>       0.73895035       0.49615046       0.87615967 </v>
   <v>       0.99821177       0.00061435       0.00970133 </v>
   <v>       0.99313344       0.01329913       0.49701021 </v>
   <v>       0.99493328       0.50794425       0.00022075 </v>
   <v>       0.99911103       0.50020707       0.49893247 </v>
   <v>       0.50615690       0.99682377       0.00009369 </v>
   <v>       0.50008471       0.49523299       0.50053208 </v>
   <v>       0.26019662       0.24222441       0.00288683 </v>
   <v>       0.25517223       0.74753453       0.00101236 </v>
   <v>       0.26095008       0.74629227       0.49968758 </v>
   <v>       0.74387911       0.25189871       0.49802019 </v>
   <v>       0.74712268       0.74979479       0.00068793 </v>
   <v>       0.74845323       0.74888073       0.49687643 </v>
   <v>       0.24792547       0.25125180       0.24813847 </v>
   <v>       0.24746760       0.25334028       0.76190876 </v>
   <v>       0.24734933       0.75027287       0.25194513 </v>
   <v>       0.24959747       0.75379448       0.75066059 </v>
   <v>       0.74961018       0.24783827       0.75023747 </v>
   <v>       0.74952297       0.75065114       0.75336691 </v>
   <v>       0.99967801       0.99895018       0.25676814 </v>
   <v>       0.00276486       0.99702932       0.73514555 </v>
   <v>       0.00108908       0.49850032       0.74999219 </v>
   <v>       0.50089135       0.00066469       0.25125015 </v>
   <v>       0.50120685       0.49986182       0.24858750 </v>
   <v>       0.49973503       0.49974204       0.74769398 </v>
   <v>       0.49482919       0.00469656       0.50178272 </v>
   <v>       0.50027566       0.49945629       0.00168858 </v>
   <v>       0.25114497       0.25017708       0.49052395 </v>
   <v>       0.75186336       0.24682147       0.00060280 </v>
   <v>       0.75103555       0.24981392       0.25133209 </v>
   <v>       0.75151573       0.74924032       0.24822656 </v>
   <v>       0.00028640       0.49886396       0.24769116 </v>
   <v>       0.49961601       0.00083045       0.75012760 </v>
   <v>       0.11345422       0.13471865       0.25423141 </v>
   <v>       0.11710358       0.13451347       0.74125671 </v>
   <v>       0.11623840       0.63666830       0.24819970 </v>
   <v>       0.11704730       0.63334452       0.75008722 </v>
   <v>       0.61461098       0.13277420       0.25000908 </v>
   <v>       0.62108337       0.13179013       0.74995752 </v>
   <v>       0.61383971       0.63334916       0.25002872 </v>
   <v>       0.61785639       0.63095209       0.75145978 </v>
   <v>       0.38234511       0.36335366       0.24355071 </v>
   <v>       0.37612835       0.36791028       0.73774960 </v>
   <v>       0.38279352       0.86520141       0.25310012 </v>
   <v>       0.37593117       0.87004643       0.74986100 </v>
   <v>       0.88457975       0.36582349       0.25071428 </v>
   <v>       0.88564242       0.36575497       0.75085671 </v>
   <v>       0.88898600       0.86725008       0.25227958 </v>
   <v>       0.88745408       0.86863746       0.75860158 </v>
   <v>       0.36251971       0.11581137       0.23941799 </v>
   <v>       0.36183153       0.12721753       0.74579503 </v>
   <v>       0.36240255       0.61725164       0.25934057 </v>
   <v>       0.36505780       0.62253207       0.74353583 </v>
   <v>       0.86949361       0.11163749       0.26507005 </v>
   <v>       0.87582694       0.11146307       0.75882930 </v>
   <v>       0.86812158       0.61530181       0.24147499 </v>
   <v>       0.87092485       0.61372292       0.75773653 </v>
   <v>       0.13722126       0.38342512       0.25552138 </v>
   <v>       0.13580292       0.37667318       0.72750277 </v>
   <v>       0.13580613       0.88706773       0.24037099 </v>
   <v>       0.12539378       0.89101918       0.77391378 </v>
   <v>       0.63119621       0.38441588       0.24607161 </v>
   <v>       0.63211050       0.38160972       0.74403054 </v>
   <v>       0.63208721       0.88536258       0.25408958 </v>
   <v>       0.63358038       0.87869492       0.75366462 </v>
   <v>       0.34341727       0.39041555       0.00187132 </v>
   <v>       0.35903778       0.39218092       0.50867637 </v>
   <v>       0.36294667       0.88872342       0.00057841 </v>
   <v>       0.34719923       0.89364391       0.49881563 </v>
   <v>       0.88621681       0.37403184       0.99705726 </v>
   <v>       0.86403933       0.38592982       0.50192967 </v>
   <v>       0.87335402       0.88274616       0.98600945 </v>
   <v>       0.87532242       0.88343210       0.49960659 </v>
   <v>       0.12814701       0.12058296       0.98380771 </v>
   <v>       0.13669525       0.11027189       0.51144945 </v>
   <v>       0.14078069       0.60943546       0.99831659 </v>
   <v>       0.13093359       0.62657779       0.50334566 </v>
   <v>       0.63452066       0.11093186       0.99920046 </v>
   <v>       0.63814731       0.11478890       0.50130088 </v>
   <v>       0.64081652       0.61347846       0.00152661 </v>
   <v>       0.63722081       0.61207541       0.49868878 </v>
   <v>       0.11699356       0.36476640       0.50777873 </v>
   <v>       0.11549138       0.87094901       0.99345740 </v>
   <v>       0.61437687       0.36426233       0.00262195 </v>
   <v>       0.61077907       0.36188769       0.50794777 </v>
   <v>       0.61363675       0.86188676       0.99432719 </v>
   <v>       0.61610001       0.86317236       0.49837627 </v>
   <v>       0.38744687       0.14009555       0.00207403 </v>
   <v>       0.38063122       0.14535650       0.51845735 </v>
   <v>       0.38971354       0.64095495       0.99707479 </v>
   <v>       0.38906176       0.64363965       0.50057257 </v>
   <v>       0.88618879       0.12186397       0.97928388 </v>
   <v>       0.88869891       0.13818625       0.49326403 </v>
   <v>       0.88835033       0.63279412       0.00037200 </v>
   <v>       0.88485835       0.63463321       0.50042567 </v>
   <v>       0.99153125       0.00956925       0.12580164 </v>
   <v>       0.01434832       0.97289490       0.62009842 </v>
   <v>       0.02026819       0.48315181       0.11782685 </v>
   <v>       0.99301829       0.50514809       0.62631003 </v>
   <v>       0.50231039       0.99398345       0.12396430 </v>
   <v>       0.50294511       0.99298597       0.62625894 </v>
   <v>       0.49314972       0.50623313       0.12629773 </v>
   <v>       0.50199223       0.50983463       0.62423944 </v>
   <v>       0.02678866       0.97954213       0.38172260 </v>
   <v>       0.00271990       0.50031131       0.37755907 </v>
   <v>       0.02583814       0.48088170       0.87642700 </v>
   <v>       0.49140761       0.01076696       0.37571720 </v>
   <v>       0.49392944       0.00484343       0.87582756 </v>
   <v>       0.49676300       0.49183672       0.37721349 </v>
   <v>       0.49510322       0.49376602       0.87083524 </v>
   <v>       0.25899491       0.24575809       0.37250101 </v>
   <v>       0.23340241       0.27080457       0.87745458 </v>
   <v>       0.22976488       0.76330099       0.37939175 </v>
   <v>       0.25455664       0.74694096       0.87450394 </v>
   <v>       0.74280022       0.25780326       0.37782070 </v>
   <v>       0.74557139       0.25629308       0.87251651 </v>
   <v>       0.75276013       0.74751335       0.37524158 </v>
   <v>       0.74977575       0.74310155       0.87580840 </v>
   <v>       0.22210917       0.25254891       0.11886160 </v>
   <v>       0.25319608       0.74880380       0.12460121 </v>
   <v>       0.22767293       0.77055392       0.62331691 </v>
   <v>       0.75965784       0.23835173       0.12420996 </v>
   <v>       0.76034970       0.24121040       0.62562864 </v>
   <v>       0.75340852       0.76298145       0.12126718 </v>
   <v>       0.75401939       0.74969342       0.62774118 </v>
  </varray>
 </structure>
</modeling>
