       N       E                     dE             d eps       ncg     rms          rms(c)
DAV:   1    -0.991599951629E+03   -0.99160E+03   -0.40241E-02 15272   0.490E-01    0.264E-01
RMM:   2    -0.991599962258E+03   -0.10628E-04   -0.55899E-04 10073   0.348E-02    0.499E-01
RMM:   3    -0.991599914217E+03    0.48040E-04   -0.89072E-05  7647   0.163E-02    0.120E-01
RMM:   4    -0.991599909053E+03    0.51643E-05   -0.35455E-05  7002   0.690E-03    0.578E-02
RMM:   5    -0.991599909316E+03   -0.26292E-06   -0.11124E-05  6464   0.523E-03    0.241E-02
RMM:   6    -0.991599910065E+03   -0.74939E-06   -0.70329E-06  5630   0.371E-03    0.246E-02
RMM:   7    -0.991599910797E+03   -0.73174E-06   -0.42469E-06  5026   0.317E-03    0.162E-02
RMM:   8    -0.991599911396E+03   -0.59907E-06   -0.29330E-06  4353   0.277E-03
   1 F= -.99159991E+03 E0= -.99159533E+03  d E =-.991600E+03  mag=   118.0000
       N       E                     dE             d eps       ncg     rms          rms(c)
DAV:   1    -0.991590909012E+03    0.90018E-02   -0.35207E+00 12872   0.222E+00    0.113E+00
RMM:   2    -0.991607327273E+03   -0.16418E-01   -0.10953E-01 12574   0.482E-01    0.831E-01
RMM:   3    -0.991609168612E+03   -0.18413E-02   -0.67027E-03 13112   0.131E-01    0.455E-01
RMM:   4    -0.991608709897E+03    0.45872E-03   -0.94009E-04 11833   0.408E-02    0.298E-01
RMM:   5    -0.991608455278E+03    0.25462E-03   -0.11730E-03 11690   0.394E-02    0.116E-01
RMM:   6    -0.991608462821E+03   -0.75431E-05   -0.84674E-05  7664   0.175E-02    0.520E-02
RMM:   7    -0.991608462995E+03   -0.17397E-06   -0.36088E-05  7427   0.816E-03    0.315E-02
RMM:   8    -0.991608464658E+03   -0.16632E-05   -0.18504E-05  7315   0.731E-03
   2 F= -.99160846E+03 E0= -.99160378E+03  d E =-.855326E-02  mag=   118.0000
       N       E                     dE             d eps       ncg     rms          rms(c)
DAV:   1    -0.991608446811E+03    0.16184E-04   -0.88556E-03 14008   0.112E-01    0.587E-02
RMM:   2    -0.991608483685E+03   -0.36874E-04   -0.23775E-04  8597   0.243E-02    0.470E-02
RMM:   3    -0.991608490763E+03   -0.70781E-05   -0.27085E-05  6754   0.108E-02    0.241E-02
RMM:   4    -0.991608490719E+03    0.43729E-07   -0.68432E-06  6191   0.447E-03    0.173E-02
RMM:   5    -0.991608490604E+03    0.11483E-06   -0.35755E-06  5822   0.349E-03    0.108E-02
RMM:   6    -0.991608490945E+03   -0.34101E-06   -0.73462E-07  2700   0.209E-03    0.457E-03
RMM:   7    -0.991608491093E+03   -0.14804E-06   -0.30879E-07  2166   0.191E-03    0.305E-03
RMM:   8    -0.991608491231E+03   -0.13747E-06   -0.20613E-07  1900   0.186E-03
   3 F= -.99160849E+03 E0= -.99160381E+03  d E =-.857983E-02  mag=   118.0000
       N       E                     dE             d eps       ncg     rms          rms(c)
DAV:   1    -0.991604186878E+03    0.43042E-02   -0.31626E+00 12608   0.216E+00    0.813E-01
RMM:   2    -0.991615710786E+03   -0.11524E-01   -0.88306E-02 12672   0.419E-01    0.506E-01
RMM:   3    -0.991616712719E+03   -0.10019E-02   -0.51322E-03 13214   0.119E-01    0.270E-01
RMM:   4    -0.991616477342E+03    0.23538E-03   -0.78813E-04 12552   0.351E-02    0.165E-01
RMM:   5    -0.991616387548E+03    0.89794E-04   -0.45856E-04 10376   0.235E-02    0.782E-02
RMM:   6    -0.991616390704E+03   -0.31557E-05   -0.58114E-05  7418   0.127E-02    0.312E-02
RMM:   7    -0.991616392528E+03   -0.18237E-05   -0.26629E-05  7267   0.749E-03    0.181E-02
RMM:   8    -0.991616392879E+03   -0.35124E-06   -0.15271E-05  7148   0.642E-03
   4 F= -.99161639E+03 E0= -.99161195E+03  d E =-.790165E-02  mag=   118.0000
       N       E                     dE             d eps       ncg     rms          rms(c)
DAV:   1    -0.991605521484E+03    0.10871E-01   -0.35539E+00 12592   0.229E+00    0.859E-01
RMM:   2    -0.991618538494E+03   -0.13017E-01   -0.99745E-02 12686   0.445E-01    0.535E-01
RMM:   3    -0.991619666170E+03   -0.11277E-02   -0.58592E-03 13339   0.126E-01    0.286E-01
RMM:   4    -0.991619405374E+03    0.26080E-03   -0.92083E-04 13267   0.372E-02    0.176E-01
RMM:   5    -0.991619305577E+03    0.99797E-04   -0.52898E-04 10727   0.245E-02    0.792E-02
RMM:   6    -0.991619308866E+03   -0.32895E-05   -0.65336E-05  7432   0.133E-02    0.328E-02
RMM:   7    -0.991619311031E+03   -0.21649E-05   -0.30688E-05  7308   0.803E-03    0.191E-02
RMM:   8    -0.991619311676E+03   -0.64478E-06   -0.18366E-05  7233   0.691E-03
   5 F= -.99161931E+03 E0= -.99161512E+03  d E =-.108204E-01  mag=   118.0000
       N       E                     dE             d eps       ncg     rms          rms(c)
DAV:   1    -0.991615113151E+03    0.41979E-02   -0.27068E+00 12600   0.199E+00    0.684E-01
RMM:   2    -0.991624427270E+03   -0.93141E-02   -0.76549E-02 12719   0.386E-01    0.422E-01
RMM:   3    -0.991625106105E+03   -0.67883E-03   -0.44039E-03 13207   0.109E-01    0.239E-01
RMM:   4    -0.991624921637E+03    0.18447E-03   -0.64293E-04 11961   0.317E-02    0.146E-01
RMM:   5    -0.991624855929E+03    0.65709E-04   -0.42476E-04  9979   0.224E-02    0.565E-02
RMM:   6    -0.991624860916E+03   -0.49872E-05   -0.51512E-05  7420   0.126E-02    0.309E-02
RMM:   7    -0.991624863820E+03   -0.29042E-05   -0.27460E-05  7268   0.695E-03    0.185E-02
RMM:   8    -0.991624865154E+03   -0.13344E-05   -0.15476E-05  7083   0.670E-03
   6 F= -.99162487E+03 E0= -.99162085E+03  d E =-.555348E-02  mag=   118.0000
       N       E                     dE             d eps       ncg     rms          rms(c)
DAV:   1    -0.991618976187E+03    0.58876E-02   -0.20858E+00 12584   0.175E+00    0.599E-01
RMM:   2    -0.991626154862E+03   -0.71787E-02   -0.59027E-02 12709   0.339E-01    0.369E-01
RMM:   3    -0.991626679424E+03   -0.52456E-03   -0.34136E-03 13026   0.956E-02    0.210E-01
RMM:   4    -0.991626536681E+03    0.14274E-03   -0.48901E-04 11083   0.281E-02    0.129E-01
RMM:   5    -0.991626485341E+03    0.51340E-04   -0.32484E-04  8996   0.203E-02    0.532E-02
RMM:   6    -0.991626490549E+03   -0.52083E-05   -0.49988E-05  7388   0.127E-02    0.358E-02
RMM:   7    -0.991626493520E+03   -0.29708E-05   -0.25873E-05  7254   0.693E-03    0.198E-02
RMM:   8    -0.991626494559E+03   -0.10391E-05   -0.14256E-05  7122   0.682E-03
   7 F= -.99162649E+03 E0= -.99162263E+03  d E =-.718288E-02  mag=   118.0000
       N       E                     dE             d eps       ncg     rms          rms(c)
DAV:   1    -0.991621916369E+03    0.45772E-02   -0.24865E+00 12608   0.188E+00    0.621E-01
RMM:   2    -0.991630494697E+03   -0.85783E-02   -0.67517E-02 12823   0.359E-01    0.381E-01
RMM:   3    -0.991631103889E+03   -0.60919E-03   -0.37022E-03 13117   0.979E-02    0.203E-01
RMM:   4    -0.991630951887E+03    0.15200E-03   -0.50080E-04 11320   0.280E-02    0.135E-01
RMM:   5    -0.991630884332E+03    0.67554E-04   -0.30744E-04  8693   0.196E-02    0.687E-02
RMM:   6    -0.991630890819E+03   -0.64870E-05   -0.63748E-05  7334   0.130E-02    0.300E-02
RMM:   7    -0.991630892880E+03   -0.20611E-05   -0.25672E-05  7220   0.787E-03    0.217E-02
RMM:   8    -0.991630893229E+03   -0.34843E-06   -0.14632E-05  7018   0.629E-03
   8 F= -.99163089E+03 E0= -.99162698E+03  d E =-.439867E-02  mag=   118.0000
       N       E                     dE             d eps       ncg     rms          rms(c)
DAV:   1    -0.991613305769E+03    0.17587E-01   -0.55179E+00 12576   0.281E+00    0.925E-01
RMM:   2    -0.991632349323E+03   -0.19044E-01   -0.14984E-01 12816   0.534E-01    0.568E-01
RMM:   3    -0.991633714648E+03   -0.13653E-02   -0.82601E-03 13634   0.146E-01    0.303E-01
RMM:   4    -0.991633382277E+03    0.33237E-03   -0.11368E-03 13302   0.404E-02    0.201E-01
RMM:   5    -0.991633233913E+03    0.14836E-03   -0.69662E-04 11491   0.271E-02    0.878E-02
RMM:   6    -0.991633245287E+03   -0.11375E-04   -0.10259E-04  7504   0.158E-02    0.346E-02
RMM:   7    -0.991633248383E+03   -0.30957E-05   -0.41789E-05  7325   0.963E-03    0.197E-02
RMM:   8    -0.991633248927E+03   -0.54424E-06   -0.24539E-05  7244   0.765E-03
   9 F= -.99163325E+03 E0= -.99162929E+03  d E =-.675437E-02  mag=   118.0000
       N       E                     dE             d eps       ncg     rms          rms(c)
DAV:   1    -0.991627049403E+03    0.61990E-02   -0.30511E+00 12672   0.207E+00    0.614E-01
RMM:   2    -0.991636638809E+03   -0.95894E-02   -0.81855E-02 12885   0.388E-01    0.366E-01
RMM:   3    -0.991637128013E+03   -0.48920E-03   -0.43514E-03 13259   0.106E-01    0.206E-01
RMM:   4    -0.991636961112E+03    0.16690E-03   -0.60885E-04 11970   0.300E-02    0.143E-01
RMM:   5    -0.991636891449E+03    0.69663E-04   -0.33856E-04  9198   0.203E-02    0.690E-02
RMM:   6    -0.991636901580E+03   -0.10132E-04   -0.73372E-05  7371   0.133E-02    0.298E-02
RMM:   7    -0.991636905527E+03   -0.39461E-05   -0.29294E-05  7244   0.838E-03    0.211E-02
RMM:   8    -0.991636907464E+03   -0.19378E-05   -0.17640E-05  7121   0.650E-03
  10 F= -.99163691E+03 E0= -.99163278E+03  d E =-.365854E-02  mag=   118.0000
       N       E                     dE             d eps       ncg     rms          rms(c)
DAV:   1    -0.991619908579E+03    0.16997E-01   -0.58387E+00 12640   0.286E+00    0.850E-01
RMM:   2    -0.991638219454E+03   -0.18311E-01   -0.15632E-01 12867   0.537E-01    0.506E-01
RMM:   3    -0.991639174082E+03   -0.95463E-03   -0.83634E-03 13674   0.147E-01    0.285E-01
RMM:   4    -0.991638854457E+03    0.31963E-03   -0.11652E-03 13145   0.402E-02    0.197E-01
RMM:   5    -0.991638720170E+03    0.13429E-03   -0.63360E-04 11436   0.265E-02    0.897E-02
RMM:   6    -0.991638737572E+03   -0.17401E-04   -0.11563E-04  7568   0.160E-02    0.354E-02
RMM:   7    -0.991638743467E+03   -0.58954E-05   -0.47451E-05  7335   0.101E-02    0.199E-02
RMM:   8    -0.991638746243E+03   -0.27764E-05   -0.27197E-05  7229   0.783E-03
  11 F= -.99163875E+03 E0= -.99163439E+03  d E =-.549732E-02  mag=   118.0000
       N       E                     dE             d eps       ncg     rms          rms(c)
DAV:   1    -0.991629836978E+03    0.89065E-02   -0.36862E+00 12512   0.226E+00    0.736E-01
RMM:   2    -0.991641942823E+03   -0.12106E-01   -0.98455E-02 12779   0.428E-01    0.440E-01
RMM:   3    -0.991642723554E+03   -0.78073E-03   -0.55072E-03 13306   0.120E-01    0.232E-01
RMM:   4    -0.991642488444E+03    0.23511E-03   -0.82853E-04 12502   0.350E-02    0.167E-01
RMM:   5    -0.991642394227E+03    0.94217E-04   -0.33481E-04  9445   0.211E-02    0.913E-02
RMM:   6    -0.991642396901E+03   -0.26744E-05   -0.12106E-04  7485   0.152E-02    0.402E-02
RMM:   7    -0.991642400375E+03   -0.34740E-05   -0.39153E-05  7283   0.105E-02    0.306E-02
RMM:   8    -0.991642401067E+03   -0.69170E-06   -0.23257E-05  7199   0.678E-03
  12 F= -.99164240E+03 E0= -.99163778E+03  d E =-.365482E-02  mag=   118.0000
       N       E                     dE             d eps       ncg     rms          rms(c)
DAV:   1    -0.991635580094E+03    0.68203E-02   -0.22534E+00 12608   0.177E+00    0.576E-01
RMM:   2    -0.991642996924E+03   -0.74168E-02   -0.60328E-02 12778   0.335E-01    0.345E-01
RMM:   3    -0.991643473917E+03   -0.47699E-03   -0.33736E-03 13102   0.943E-02    0.181E-01
RMM:   4    -0.991643330085E+03    0.14383E-03   -0.50266E-04 11376   0.277E-02    0.131E-01
RMM:   5    -0.991643272006E+03    0.58079E-04   -0.18943E-04  7738   0.172E-02    0.779E-02
RMM:   6    -0.991643274380E+03   -0.23740E-05   -0.87157E-05  7375   0.137E-02    0.396E-02
RMM:   7    -0.991643277053E+03   -0.26731E-05   -0.30429E-05  7239   0.912E-03    0.300E-02
RMM:   8    -0.991643277386E+03   -0.33322E-06   -0.17531E-05  7127   0.630E-03
  13 F= -.99164328E+03 E0= -.99163845E+03  d E =-.453114E-02  mag=   118.0000
       N       E                     dE             d eps       ncg     rms          rms(c)
DAV:   1    -0.991632938834E+03    0.10338E-01   -0.43878E+00 12352   0.245E+00    0.730E-01
RMM:   2    -0.991646221427E+03   -0.13283E-01   -0.11597E-01 12797   0.464E-01    0.448E-01
RMM:   3    -0.991646899799E+03   -0.67837E-03   -0.64955E-03 13377   0.128E-01    0.254E-01
RMM:   4    -0.991646624512E+03    0.27529E-03   -0.85791E-04 12403   0.354E-02    0.179E-01
RMM:   5    -0.991646505707E+03    0.11880E-03   -0.48050E-04 10441   0.235E-02    0.928E-02
RMM:   6    -0.991646515394E+03   -0.96871E-05   -0.10899E-04  7531   0.152E-02    0.331E-02
RMM:   7    -0.991646519291E+03   -0.38972E-05   -0.38510E-05  7285   0.939E-03    0.222E-02
RMM:   8    -0.991646520648E+03   -0.13571E-05   -0.21224E-05  7021   0.666E-03
  14 F= -.99164652E+03 E0= -.99164146E+03  d E =-.324326E-02  mag=   118.0000
       N       E                     dE             d eps       ncg     rms          rms(c)
DAV:   1    -0.991640403633E+03    0.61157E-02   -0.21883E+00 12400   0.173E+00    0.516E-01
RMM:   2    -0.991647066240E+03   -0.66626E-02   -0.58123E-02 12807   0.328E-01    0.317E-01
RMM:   3    -0.991647403110E+03   -0.33687E-03   -0.32456E-03 13045   0.906E-02    0.180E-01
RMM:   4    -0.991647268464E+03    0.13465E-03   -0.41946E-04 10737   0.256E-02    0.128E-01
RMM:   5    -0.991647210566E+03    0.57898E-04   -0.23716E-04  8147   0.176E-02    0.720E-02
RMM:   6    -0.991647217088E+03   -0.65224E-05   -0.73588E-05  7339   0.129E-02    0.327E-02
RMM:   7    -0.991647220080E+03   -0.29919E-05   -0.25852E-05  7173   0.832E-03    0.266E-02
RMM:   8    -0.991647221060E+03   -0.97991E-06   -0.15206E-05  6999   0.588E-03
  15 F= -.99164722E+03 E0= -.99164200E+03  d E =-.394367E-02  mag=   118.0000
       N       E                     dE             d eps       ncg     rms          rms(c)
DAV:   1    -0.991638482884E+03    0.87372E-02   -0.35761E+00 12544   0.220E+00    0.656E-01
RMM:   2    -0.991649701018E+03   -0.11218E-01   -0.93392E-02 12829   0.411E-01    0.393E-01
RMM:   3    -0.991650328585E+03   -0.62757E-03   -0.50947E-03 13206   0.113E-01    0.217E-01
RMM:   4    -0.991650133383E+03    0.19520E-03   -0.67473E-04 12122   0.312E-02    0.158E-01
RMM:   5    -0.991650044481E+03    0.88902E-04   -0.37026E-04  9795   0.207E-02    0.725E-02
RMM:   6    -0.991650054115E+03   -0.96348E-05   -0.97341E-05  7457   0.137E-02    0.285E-02
RMM:   7    -0.991650056670E+03   -0.25543E-05   -0.30537E-05  7244   0.887E-03    0.207E-02
RMM:   8    -0.991650057721E+03   -0.10516E-05   -0.19425E-05  6925   0.581E-03
  16 F= -.99165006E+03 E0= -.99164463E+03  d E =-.283666E-02  mag=   118.0000
       N       E                     dE             d eps       ncg     rms          rms(c)
DAV:   1    -0.991638615280E+03    0.11441E-01   -0.38478E+00 12544   0.228E+00    0.682E-01
RMM:   2    -0.991650705957E+03   -0.12091E-01   -0.10069E-01 12847   0.427E-01    0.409E-01
RMM:   3    -0.991651372665E+03   -0.66671E-03   -0.54480E-03 13292   0.117E-01    0.226E-01
RMM:   4    -0.991651166132E+03    0.20653E-03   -0.72645E-04 12217   0.323E-02    0.166E-01
RMM:   5    -0.991651070357E+03    0.95775E-04   -0.39356E-04 10114   0.213E-02    0.752E-02
RMM:   6    -0.991651080658E+03   -0.10301E-04   -0.10517E-04  7519   0.141E-02    0.300E-02
RMM:   7    -0.991651083494E+03   -0.28363E-05   -0.34055E-05  7265   0.907E-03    0.192E-02
RMM:   8    -0.991651084563E+03   -0.10685E-05   -0.20209E-05  6987   0.594E-03
  17 F= -.99165108E+03 E0= -.99164545E+03  d E =-.386350E-02  mag=   118.0000
       N       E                     dE             d eps       ncg     rms          rms(c)
DAV:   1    -0.991640076148E+03    0.11007E-01   -0.43313E+00 12704   0.242E+00    0.756E-01
RMM:   2    -0.991653514948E+03   -0.13439E-01   -0.11272E-01 12824   0.453E-01    0.451E-01
RMM:   3    -0.991654275268E+03   -0.76032E-03   -0.61953E-03 13456   0.123E-01    0.257E-01
RMM:   4    -0.991654031983E+03    0.24328E-03   -0.83255E-04 12457   0.344E-02    0.195E-01
RMM:   5    -0.991653912876E+03    0.11911E-03   -0.40589E-04 10271   0.223E-02    0.905E-02
RMM:   6    -0.991653915234E+03   -0.23585E-05   -0.14946E-04  7589   0.162E-02    0.408E-02
RMM:   7    -0.991653918708E+03   -0.34742E-05   -0.45933E-05  7285   0.111E-02    0.259E-02
RMM:   8    -0.991653918988E+03   -0.27978E-06   -0.26286E-05  7178   0.678E-03
  18 F= -.99165392E+03 E0= -.99164812E+03  d E =-.283443E-02  mag=   118.0000
       N       E                     dE             d eps       ncg     rms          rms(c)
DAV:   1    -0.991648564273E+03    0.53544E-02   -0.18483E+00 12704   0.158E+00    0.494E-01
RMM:   2    -0.991654333939E+03   -0.57697E-02   -0.48399E-02 12848   0.296E-01    0.294E-01
RMM:   3    -0.991654652511E+03   -0.31857E-03   -0.26308E-03 13018   0.806E-02    0.168E-01
RMM:   4    -0.991654549194E+03    0.10332E-03   -0.33771E-04 10041   0.230E-02    0.128E-01
RMM:   5    -0.991654497989E+03    0.51205E-04   -0.16478E-04  7643   0.162E-02    0.664E-02
RMM:   6    -0.991654500230E+03   -0.22406E-05   -0.79690E-05  7299   0.128E-02    0.384E-02
RMM:   7    -0.991654502670E+03   -0.24404E-05   -0.27485E-05  7206   0.883E-03    0.306E-02
RMM:   8    -0.991654502795E+03   -0.12455E-06   -0.15722E-05  7114   0.577E-03
  19 F= -.99165450E+03 E0= -.99164860E+03  d E =-.341823E-02  mag=   118.0000
       N       E                     dE             d eps       ncg     rms          rms(c)
DAV:   1    -0.991647617779E+03    0.68849E-02   -0.30272E+00 12768   0.202E+00    0.620E-01
RMM:   2    -0.991656559199E+03   -0.89414E-02   -0.80417E-02 12750   0.386E-01    0.382E-01
RMM:   3    -0.991656998070E+03   -0.43887E-03   -0.46442E-03 13100   0.106E-01    0.233E-01
RMM:   4    -0.991656804178E+03    0.19389E-03   -0.61865E-04 12042   0.302E-02    0.148E-01
RMM:   5    -0.991656724178E+03    0.80000E-04   -0.42960E-04  9891   0.224E-02    0.718E-02
RMM:   6    -0.991656732766E+03   -0.85876E-05   -0.79352E-05  7410   0.142E-02    0.436E-02
RMM:   7    -0.991656739461E+03   -0.66954E-05   -0.34080E-05  7248   0.858E-03    0.225E-02
RMM:   8    -0.991656743206E+03   -0.37448E-05   -0.21037E-05  7153   0.705E-03
  20 F= -.99165674E+03 E0= -.99165072E+03  d E =-.224041E-02  mag=   118.0000
       N       E                     dE             d eps       ncg     rms          rms(c)
DAV:   1    -0.991654562276E+03    0.21772E-02   -0.81877E-01 12752   0.105E+00    0.321E-01
RMM:   2    -0.991657012215E+03   -0.24499E-02   -0.21923E-02 12779   0.201E-01    0.198E-01
RMM:   3    -0.991657127105E+03   -0.11489E-03   -0.12440E-03 11979   0.556E-02    0.122E-01
RMM:   4    -0.991657075086E+03    0.52019E-04   -0.14032E-04  7643   0.162E-02    0.793E-02
RMM:   5    -0.991657055218E+03    0.19868E-04   -0.98951E-05  7316   0.126E-02    0.424E-02
RMM:   6    -0.991657061123E+03   -0.59049E-05   -0.32765E-05  7213   0.888E-03    0.216E-02
RMM:   7    -0.991657063409E+03   -0.22867E-05   -0.15522E-05  7169   0.593E-03    0.174E-02
RMM:   8    -0.991657065010E+03   -0.16011E-05   -0.85627E-06  6286   0.458E-03
  21 F= -.99165707E+03 E0= -.99165098E+03  d E =-.256222E-02  mag=   118.0000
       N       E                     dE             d eps       ncg     rms          rms(c)
DAV:   1    -0.991649088037E+03    0.79754E-02   -0.33376E+00 12544   0.213E+00    0.626E-01
RMM:   2    -0.991659029766E+03   -0.99417E-02   -0.86926E-02 12751   0.399E-01    0.386E-01
RMM:   3    -0.991659506184E+03   -0.47642E-03   -0.48176E-03 13233   0.111E-01    0.220E-01
RMM:   4    -0.991659290350E+03    0.21583E-03   -0.69700E-04 12124   0.317E-02    0.138E-01
RMM:   5    -0.991659209753E+03    0.80597E-04   -0.38372E-04  9808   0.210E-02    0.796E-02
RMM:   6    -0.991659214078E+03   -0.43254E-05   -0.66172E-05  7363   0.131E-02    0.329E-02
RMM:   7    -0.991659216706E+03   -0.26271E-05   -0.29779E-05  7253   0.779E-03    0.201E-02
RMM:   8    -0.991659216795E+03   -0.89509E-07   -0.16803E-05  7089   0.644E-03
  22 F= -.99165922E+03 E0= -.99165303E+03  d E =-.215178E-02  mag=   118.0000
