<?xml version="1.0" encoding="ISO-8859-1"?>
<modeling>
 <generator>
  <i name="program" type="string">vasp </i>
  <i name="version" type="string">5.4.1  </i>
  <i name="subversion" type="string">05Feb16 (build Jan 25 2017 20:16:33) complex                          parallel </i>
  <i name="platform" type="string">BWXE6 </i>
  <i name="date" type="string">2019 07 12 </i>
  <i name="time" type="string">12:20:19 </i>
 </generator>
 <incar>
  <i type="string" name="SYSTEM"> STF</i>
  <i type="string" name="PREC">normal</i>
  <i type="string" name="ALGO"> Fast</i>
  <i type="int" name="ISPIN">     2</i>
  <i type="int" name="NELM">    40</i>
  <i type="int" name="NELMIN">     8</i>
  <i type="int" name="IBRION">     2</i>
  <i name="EDIFF">      0.00010000</i>
  <i name="EDIFFG">     -0.03000000</i>
  <i type="int" name="NSW">    30</i>
  <i type="int" name="ISIF">     3</i>
  <i name="ENCUT">    520.00000000</i>
  <i type="int" name="NBANDS">   768</i>
  <v name="MAGMOM">      0.60000000      0.60000000      0.60000000      0.60000000      0.60000000      0.60000000      0.60000000      0.60000000      0.60000000      0.60000000      0.60000000      0.60000000      0.60000000      0.60000000      0.60000000      0.60000000      0.60000000      0.60000000      0.60000000      0.60000000
      0.60000000      0.60000000      0.60000000      0.60000000      0.60000000      0.60000000      0.60000000      0.60000000      0.60000000      0.60000000      0.60000000      0.60000000      0.60000000      0.60000000      0.60000000      0.60000000      0.60000000      0.60000000      0.60000000      0.60000000
      5.00000000      5.00000000      5.00000000      5.00000000      5.00000000      5.00000000      5.00000000      5.00000000      5.00000000      5.00000000      5.00000000      5.00000000      5.00000000      5.00000000      5.00000000      5.00000000      5.00000000      5.00000000      5.00000000      5.00000000
      5.00000000      5.00000000      5.00000000      5.00000000      0.60000000      0.60000000      0.60000000      0.60000000      0.60000000      0.60000000      0.60000000      0.60000000      0.60000000      0.60000000      0.60000000      0.60000000      0.60000000      0.60000000      0.60000000      0.60000000
      0.60000000      0.60000000      0.60000000      0.60000000      0.60000000      0.60000000      0.60000000      0.60000000      0.60000000      0.60000000      0.60000000      0.60000000      0.60000000      0.60000000      0.60000000      0.60000000      0.60000000      0.60000000      0.60000000      0.60000000
      0.60000000      0.60000000      0.60000000      0.60000000      0.60000000      0.60000000      0.60000000      0.60000000      0.60000000      0.60000000      0.60000000      0.60000000      0.60000000      0.60000000      0.60000000      0.60000000      0.60000000      0.60000000      0.60000000      0.60000000
      0.60000000      0.60000000      0.60000000      0.60000000      0.60000000      0.60000000      0.60000000      0.60000000      0.60000000      0.60000000      0.60000000      0.60000000      0.60000000      0.60000000      0.60000000      0.60000000      0.60000000      0.60000000      0.60000000      0.60000000
      0.60000000      0.60000000      0.60000000      0.60000000      0.60000000      0.60000000      0.60000000      0.60000000</v>
  <i type="string" name="LREAL"> Auto</i>
  <i type="int" name="ISMEAR">     0</i>
  <i name="SIGMA">      0.05000000</i>
  <i type="int" name="LMAXMIX">     4</i>
  <v type="int" name="KPOINT_BSE">    -1     0     0     0</v>
  <i type="int" name="NELM">    40</i>
  <i type="logical" name="LDAU"> T  </i>
  <v type="int" name="LDAUTYPE">     2</v>
  <v type="int" name="LDAUL">     0     2     2     0</v>
  <v name="LDAUU">      0.00000000      3.00000000      5.00000000      0.00000000</v>
  <v name="LDAUJ">      0.00000000      0.00000000      0.00000000      0.00000000</v>
  <i type="int" name="LDAUPRINT">     1</i>
 </incar>
 <kpoints>
  <generation param="Monkhorst-Pack">
   <v type="int" name="divisions">       2        2        2 </v>
   <v name="usershift">      0.00000000       0.00000000       0.00000000 </v>
   <v name="genvec1">      0.50000000       0.00000000      -0.00000000 </v>
   <v name="genvec2">      0.00000000       0.50000000       0.00000000 </v>
   <v name="genvec3">      0.00000000      -0.00000000       0.50000000 </v>
   <v name="shift">      0.50000000       0.50000000       0.50000000 </v>
  </generation>
  <varray name="kpointlist" >
   <v>       0.25000000       0.25000000       0.25000000 </v>
   <v>      -0.25000000       0.25000000       0.25000000 </v>
   <v>       0.25000000      -0.25000000       0.25000000 </v>
   <v>      -0.25000000      -0.25000000       0.25000000 </v>
  </varray>
  <varray name="weights" >
   <v>       0.25000000 </v>
   <v>       0.25000000 </v>
   <v>       0.25000000 </v>
   <v>       0.25000000 </v>
  </varray>
 </kpoints>
 <parameters>
  <separator name="general" >
   <i type="string" name="SYSTEM">STF</i>
   <i type="logical" name="LCOMPAT"> F  </i>
  </separator>
  <separator name="electronic" >
   <i type="string" name="PREC">normal</i>
   <i name="ENMAX">    520.00000000</i>
   <i name="ENAUG">    605.39200000</i>
   <i name="EDIFF">      0.00010000</i>
   <i type="int" name="IALGO">    68</i>
   <i type="int" name="IWAVPR">    11</i>
   <i type="int" name="NBANDS">   768</i>
   <i name="NELECT">   1048.00000000</i>
   <i type="int" name="TURBO">     0</i>
   <i type="int" name="IRESTART">     0</i>
   <i type="int" name="NREBOOT">     0</i>
   <i type="int" name="NMIN">     0</i>
   <i name="EREF">      0.00000000</i>
   <separator name="electronic smearing" >
    <i type="int" name="ISMEAR">     0</i>
    <i name="SIGMA">      0.05000000</i>
    <i name="KSPACING">      0.50000000</i>
    <i type="logical" name="KGAMMA"> T  </i>
   </separator>
   <separator name="electronic projectors" >
    <i type="logical" name="LREAL"> T  </i>
    <v name="ROPT">     -0.00050000     -0.00050000     -0.00050000     -0.00050000</v>
    <i type="int" name="LMAXPAW">  -100</i>
    <i type="int" name="LMAXMIX">     4</i>
    <i type="logical" name="NLSPLINE"> F  </i>
   </separator>
   <separator name="electronic startup" >
    <i type="int" name="ISTART">     1</i>
    <i type="int" name="ICHARG">     0</i>
    <i type="int" name="INIWAV">     1</i>
   </separator>
   <separator name="electronic spin" >
    <i type="int" name="ISPIN">     2</i>
    <i type="logical" name="LNONCOLLINEAR"> F  </i>
    <v name="MAGMOM">      0.60000000      0.60000000      0.60000000      0.60000000      0.60000000      0.60000000      0.60000000      0.60000000      0.60000000      0.60000000      0.60000000      0.60000000      0.60000000      0.60000000      0.60000000      0.60000000      0.60000000      0.60000000      0.60000000      0.60000000
      0.60000000      0.60000000      0.60000000      0.60000000      0.60000000      0.60000000      0.60000000      0.60000000      0.60000000      0.60000000      0.60000000      0.60000000      0.60000000      0.60000000      0.60000000      0.60000000      0.60000000      0.60000000      0.60000000      0.60000000
      5.00000000      5.00000000      5.00000000      5.00000000      5.00000000      5.00000000      5.00000000      5.00000000      5.00000000      5.00000000      5.00000000      5.00000000      5.00000000      5.00000000      5.00000000      5.00000000      5.00000000      5.00000000      5.00000000      5.00000000
      5.00000000      5.00000000      5.00000000      5.00000000      0.60000000      0.60000000      0.60000000      0.60000000      0.60000000      0.60000000      0.60000000      0.60000000      0.60000000      0.60000000      0.60000000      0.60000000      0.60000000      0.60000000      0.60000000      0.60000000
      0.60000000      0.60000000      0.60000000      0.60000000      0.60000000      0.60000000      0.60000000      0.60000000      0.60000000      0.60000000      0.60000000      0.60000000      0.60000000      0.60000000      0.60000000      0.60000000      0.60000000      0.60000000      0.60000000      0.60000000
      0.60000000      0.60000000      0.60000000      0.60000000      0.60000000      0.60000000      0.60000000      0.60000000      0.60000000      0.60000000      0.60000000      0.60000000      0.60000000      0.60000000      0.60000000      0.60000000      0.60000000      0.60000000      0.60000000      0.60000000
      0.60000000      0.60000000      0.60000000      0.60000000      0.60000000      0.60000000      0.60000000      0.60000000      0.60000000      0.60000000      0.60000000      0.60000000      0.60000000      0.60000000      0.60000000      0.60000000      0.60000000      0.60000000      0.60000000      0.60000000
      0.60000000      0.60000000      0.60000000      0.60000000      0.60000000      0.60000000      0.60000000      0.60000000</v>
    <i name="NUPDOWN">     -1.00000000</i>
    <i type="logical" name="LSORBIT"> F  </i>
    <v name="SAXIS">      0.00000000      0.00000000      1.00000000</v>
    <i type="logical" name="LSPIRAL"> F  </i>
    <v name="QSPIRAL">      0.00000000      0.00000000      0.00000000</v>
    <i type="logical" name="LZEROZ"> F  </i>
   </separator>
   <separator name="electronic exchange-correlation" >
    <i type="logical" name="LASPH"> F  </i>
    <i type="logical" name="LMETAGGA"> F  </i>
   </separator>
   <separator name="electronic convergence" >
    <i type="int" name="NELM">    40</i>
    <i type="int" name="NELMDL">     0</i>
    <i type="int" name="NELMIN">     8</i>
    <i name="ENINI">    520.00000000</i>
    <separator name="electronic convergence detail" >
     <i type="logical" name="LDIAG"> T  </i>
     <i type="logical" name="LSUBROT"> F  </i>
     <i name="WEIMIN">      0.00100000</i>
     <i name="EBREAK">      0.00000003</i>
     <i name="DEPER">      0.30000000</i>
     <i type="int" name="NRMM">     4</i>
     <i name="TIME">      0.40000000</i>
    </separator>
   </separator>
   <separator name="electronic mixer" >
    <i name="AMIX">      0.40000000</i>
    <i name="BMIX">      1.00000000</i>
    <i name="AMIN">      0.10000000</i>
    <i name="AMIX_MAG">      1.60000000</i>
    <i name="BMIX_MAG">      1.00000000</i>
    <separator name="electronic mixer details" >
     <i type="int" name="IMIX">     4</i>
     <i type="logical" name="MIXFIRST"> F  </i>
     <i type="int" name="MAXMIX">   -45</i>
     <i name="WC">    100.00000000</i>
     <i type="int" name="INIMIX">     1</i>
     <i type="int" name="MIXPRE">     1</i>
     <i type="int" name="MREMOVE">     5</i>
    </separator>
   </separator>
   <separator name="electronic dipolcorrection" >
    <i type="logical" name="LDIPOL"> F  </i>
    <i type="logical" name="LMONO"> F  </i>
    <i type="int" name="IDIPOL">     0</i>
    <i name="EPSILON">      1.00000000</i>
    <v name="DIPOL">   -100.00000000   -100.00000000   -100.00000000</v>
    <i name="EFIELD">      0.00000000</i>
   </separator>
  </separator>
  <separator name="grids" >
   <i type="int" name="NGX">    64</i>
   <i type="int" name="NGY">    64</i>
   <i type="int" name="NGZ">    90</i>
   <i type="int" name="NGXF">   128</i>
   <i type="int" name="NGYF">   128</i>
   <i type="int" name="NGZF">   180</i>
   <i type="logical" name="ADDGRID"> F  </i>
  </separator>
  <separator name="ionic" >
   <i type="int" name="NSW">    30</i>
   <i type="int" name="IBRION">     2</i>
   <i type="int" name="ISIF">     3</i>
   <i name="PSTRESS">      0.00000000</i>
   <i name="EDIFFG">     -0.03000000</i>
   <i type="int" name="NFREE">     1</i>
   <i name="POTIM">      0.50000000</i>
   <i name="SMASS">     -3.00000000</i>
   <i name="SCALEE">      1.00000000</i>
  </separator>
  <separator name="ionic md" >
   <i name="TEBEG">      0.00010000</i>
   <i name="TEEND">      0.00010000</i>
   <i type="int" name="NBLOCK">     1</i>
   <i type="int" name="KBLOCK">    30</i>
   <i type="int" name="NPACO">   256</i>
   <i name="APACO">     16.00000000</i>
  </separator>
  <separator name="symmetry" >
   <i type="int" name="ISYM">     2</i>
   <i name="SYMPREC">      0.00001000</i>
  </separator>
  <separator name="dos" >
   <i type="logical" name="LORBIT"> F  </i>
   <v name="RWIGS">     -1.00000000     -1.00000000     -1.00000000     -1.00000000</v>
   <i type="int" name="NEDOS">   301</i>
   <i name="EMIN">     10.00000000</i>
   <i name="EMAX">    -10.00000000</i>
   <i name="EFERMI">      0.00000000</i>
  </separator>
  <separator name="writing" >
   <i type="int" name="NWRITE">     2</i>
   <i type="logical" name="LWAVE"> T  </i>
   <i type="logical" name="LCHARG"> T  </i>
   <i type="logical" name="LPARD"> F  </i>
   <i type="logical" name="LVTOT"> F  </i>
   <i type="logical" name="LVHAR"> F  </i>
   <i type="logical" name="LELF"> F  </i>
   <i type="logical" name="LOPTICS"> F  </i>
   <v name="STM">      0.00000000      0.00000000      0.00000000      0.00000000      0.00000000      0.00000000      0.00000000</v>
  </separator>
  <separator name="performance" >
   <i type="int" name="NPAR">     2</i>
   <i type="int" name="NSIM">     4</i>
   <i type="int" name="NBLK">    -1</i>
   <i type="logical" name="LPLANE"> T  </i>
   <i type="logical" name="LSCALAPACK"> T  </i>
   <i type="logical" name="LSCAAWARE"> F  </i>
   <i type="logical" name="LSCALU"> F  </i>
   <i type="logical" name="LASYNC"> F  </i>
   <i type="logical" name="LORBITALREAL"> F  </i>
  </separator>
  <separator name="miscellaneous" >
   <i type="int" name="IDIOT">     3</i>
   <i type="logical" name="LMUSIC"> F  </i>
   <v name="POMASS">     87.62000000     47.88000000     55.84700000     16.00000000</v>
   <v name="DARWINR">      0.00000000      0.00000000      0.00000000      0.00000000</v>
   <v name="DARWINV">      1.00000000      1.00000000      1.00000000      1.00000000</v>
   <i type="logical" name="LCORR"> T  </i>
  </separator>
  <i type="logical" name="GGA_COMPAT"> T  </i>
  <i type="logical" name="LBERRY"> F  </i>
  <i type="int" name="ICORELEVEL">     0</i>
  <i type="logical" name="LDAU"> T  </i>
  <v type="int" name="LDAUTYPE">     2</v>
  <v type="int" name="LDAUL">     0</v>
  <v name="LDAUU">      0.00000000</v>
  <v name="LDAUJ">      0.00000000</v>
  <i type="int" name="LDAUPRINT">     1</i>
  <i type="int" name="I_CONSTRAINED_M">     0</i>
  <separator name="electronic exchange-correlation" >
   <i type="string" name="GGA">--</i>
   <i type="int" name="VOSKOWN">     0</i>
   <i type="logical" name="LHFCALC"> F  </i>
   <i type="string" name="PRECFOCK"></i>
   <i type="logical" name="LSYMGRAD"> F  </i>
   <i type="logical" name="LHFONE"> F  </i>
   <i type="logical" name="LRHFCALC"> F  </i>
   <i type="logical" name="LTHOMAS"> F  </i>
   <i type="logical" name="LMODELHF"> F  </i>
   <i name="ENCUT4O">     -1.00000000</i>
   <i type="int" name="EXXOEP">     0</i>
   <i type="int" name="FOURORBIT">     0</i>
   <i name="AEXX">      0.00000000</i>
   <i name="HFALPHA">      0.00000000</i>
   <i name="MCALPHA">      0.00000000</i>
   <i name="ALDAX">      1.00000000</i>
   <i name="AGGAX">      1.00000000</i>
   <i name="ALDAC">      1.00000000</i>
   <i name="AGGAC">      1.00000000</i>
   <i type="int" name="NKREDX">     1</i>
   <i type="int" name="NKREDY">     1</i>
   <i type="int" name="NKREDZ">     1</i>
   <i type="logical" name="SHIFTRED"> F  </i>
   <i type="logical" name="ODDONLY"> F  </i>
   <i type="logical" name="EVENONLY"> F  </i>
   <i type="int" name="LMAXFOCK">     0</i>
   <i type="int" name="NMAXFOCKAE">     0</i>
   <i type="logical" name="LFOCKAEDFT"> F  </i>
   <i name="HFSCREEN">      0.00000000</i>
   <i name="HFSCREENC">      0.00000000</i>
   <i type="int" name="NBANDSGWLOW">     0</i>
  </separator>
  <separator name="vdW DFT" >
   <i type="logical" name="LUSE_VDW"> F  </i>
   <i name="Zab_VDW">     -0.84910000</i>
   <i name="PARAM1">      0.12340000</i>
   <i name="PARAM2">      1.00000000</i>
   <i name="PARAM3">      0.00000000</i>
  </separator>
  <separator name="model GW" >
   <i type="int" name="MODEL_GW">     0</i>
   <i name="MODEL_EPS0">      8.04815864</i>
   <i name="MODEL_ALPHA">      1.00000000</i>
  </separator>
  <separator name="linear response parameters" >
   <i type="logical" name="LEPSILON"> F  </i>
   <i type="logical" name="LRPA"> F  </i>
   <i type="logical" name="LNABLA"> F  </i>
   <i type="logical" name="LVEL"> F  </i>
   <i type="int" name="KINTER">     0</i>
   <i name="CSHIFT">      0.10000000</i>
   <i name="OMEGAMAX">     -1.00000000</i>
   <i name="DEG_THRESHOLD">      0.00200000</i>
  </separator>
  <separator name="orbital magnetization" >
   <i type="logical" name="NUCIND"> F  </i>
   <v name="MAGPOS">      0.00000000      0.00000000      0.00000000</v>
   <i type="logical" name="LNICSALL"> T  </i>
   <i type="logical" name="ORBITALMAG"> F  </i>
   <i type="logical" name="LMAGBLOCH"> F  </i>
   <i type="logical" name="LCHIMAG"> F  </i>
   <i type="logical" name="LGAUGE"> T  </i>
   <i type="int" name="MAGATOM">     0</i>
   <v name="MAGDIPOL">      0.00000000      0.00000000      0.00000000</v>
   <v name="AVECCONST">      0.00000000      0.00000000      0.00000000</v>
  </separator>
  <separator name="response functions" >
   <i type="logical" name="LADDER"> F  </i>
   <i type="logical" name="LFXC"> F  </i>
   <i type="logical" name="LHARTREE"> T  </i>
   <i type="int" name="IBSE">     0</i>
   <v type="int" name="KPOINT">    -1     0     0     0</v>
   <i type="logical" name="LTCTE"> F  </i>
   <i type="logical" name="LTETE"> F  </i>
   <i type="logical" name="LTRIPLET"> F  </i>
   <i type="logical" name="LFXCEPS"> F  </i>
   <i type="logical" name="LFXHEG"> F  </i>
   <i type="int" name="NATURALO">     0</i>
   <i type="logical" name="L2ORDER"> F  </i>
   <i type="logical" name="LUSEW"> F  </i>
   <i name="ENCUTGW">     -2.00000000</i>
   <i name="ENCUTGWSOFT">     -2.00000000</i>
   <i name="ENCUTLF">     -1.00000000</i>
   <i type="int" name="LMAXMP2">    -1</i>
   <i name="SCISSOR">      0.00000000</i>
   <i type="int" name="NOMEGA">     0</i>
   <i type="int" name="NOMEGAR">     0</i>
   <i type="int" name="NBANDSGW">    -1</i>
   <i type="int" name="NBANDSO">    -1</i>
   <i type="int" name="NBANDSV">    -1</i>
   <i type="int" name="NELM">    40</i>
   <i type="int" name="NELMHF">     1</i>
   <i type="int" name="DIM">     3</i>
   <i type="int" name="ANTIRES">     0</i>
   <i name="OMEGAMAX">    -30.00000000</i>
   <i name="OMEGAMIN">    -30.00000000</i>
   <i name="OMEGATL">   -200.00000000</i>
   <i type="int" name="OMEGAGRID">     0</i>
   <i name="CSHIFT">     -0.10000000</i>
   <i type="logical" name="SELFENERGY"> F  </i>
   <i type="logical" name="LSPECTRAL"> F  </i>
   <i type="logical" name="LSPECTRALGW"> F  </i>
   <i type="logical" name="LSINGLES"> F  </i>
   <i type="logical" name="LFERMIGW"> F  </i>
   <i type="logical" name="ODDONLYGW"> F  </i>
   <i type="logical" name="EVENONLYGW"> F  </i>
   <i type="int" name="NKREDLFX">     1</i>
   <i type="int" name="NKREDLFY">     1</i>
   <i type="int" name="NKREDLFZ">     1</i>
   <i type="int" name="MAXMEM">  1800</i>
   <i type="int" name="TELESCOPE">     0</i>
   <i type="int" name="TAUPAR">     1</i>
   <i type="int" name="OMEGAPAR">    -1</i>
   <i name="LAMBDA">      1.00000000</i>
  </separator>
  <separator name="External order field" >
   <i name="OFIELD_KAPPA">      0.00000000</i>
   <v name="OFIELD_K">      0.00000000      0.00000000      0.00000000</v>
   <i name="OFIELD_Q6_NEAR">      0.00000000</i>
   <i name="OFIELD_Q6_FAR">      0.00000000</i>
   <i name="OFIELD_A">      0.00000000</i>
  </separator>
 </parameters>
 <atominfo>
  <atoms>     148 </atoms>
  <types>       4 </types>
  <array name="atoms" >
   <dimension dim="1">ion</dimension>
   <field type="string">element</field>
   <field type="int">atomtype</field>
   <set>
    <rc><c>Sr</c><c>   1</c></rc>
    <rc><c>Sr</c><c>   1</c></rc>
    <rc><c>Sr</c><c>   1</c></rc>
    <rc><c>Sr</c><c>   1</c></rc>
    <rc><c>Sr</c><c>   1</c></rc>
    <rc><c>Sr</c><c>   1</c></rc>
    <rc><c>Sr</c><c>   1</c></rc>
    <rc><c>Sr</c><c>   1</c></rc>
    <rc><c>Sr</c><c>   1</c></rc>
    <rc><c>Sr</c><c>   1</c></rc>
    <rc><c>Sr</c><c>   1</c></rc>
    <rc><c>Sr</c><c>   1</c></rc>
    <rc><c>Sr</c><c>   1</c></rc>
    <rc><c>Sr</c><c>   1</c></rc>
    <rc><c>Sr</c><c>   1</c></rc>
    <rc><c>Sr</c><c>   1</c></rc>
    <rc><c>Sr</c><c>   1</c></rc>
    <rc><c>Sr</c><c>   1</c></rc>
    <rc><c>Sr</c><c>   1</c></rc>
    <rc><c>Sr</c><c>   1</c></rc>
    <rc><c>Sr</c><c>   1</c></rc>
    <rc><c>Sr</c><c>   1</c></rc>
    <rc><c>Sr</c><c>   1</c></rc>
    <rc><c>Sr</c><c>   1</c></rc>
    <rc><c>Sr</c><c>   1</c></rc>
    <rc><c>Sr</c><c>   1</c></rc>
    <rc><c>Sr</c><c>   1</c></rc>
    <rc><c>Sr</c><c>   1</c></rc>
    <rc><c>Sr</c><c>   1</c></rc>
    <rc><c>Sr</c><c>   1</c></rc>
    <rc><c>Sr</c><c>   1</c></rc>
    <rc><c>Sr</c><c>   1</c></rc>
    <rc><c>Ti</c><c>   2</c></rc>
    <rc><c>Ti</c><c>   2</c></rc>
    <rc><c>Ti</c><c>   2</c></rc>
    <rc><c>Ti</c><c>   2</c></rc>
    <rc><c>Ti</c><c>   2</c></rc>
    <rc><c>Ti</c><c>   2</c></rc>
    <rc><c>Ti</c><c>   2</c></rc>
    <rc><c>Ti</c><c>   2</c></rc>
    <rc><c>Fe</c><c>   3</c></rc>
    <rc><c>Fe</c><c>   3</c></rc>
    <rc><c>Fe</c><c>   3</c></rc>
    <rc><c>Fe</c><c>   3</c></rc>
    <rc><c>Fe</c><c>   3</c></rc>
    <rc><c>Fe</c><c>   3</c></rc>
    <rc><c>Fe</c><c>   3</c></rc>
    <rc><c>Fe</c><c>   3</c></rc>
    <rc><c>Fe</c><c>   3</c></rc>
    <rc><c>Fe</c><c>   3</c></rc>
    <rc><c>Fe</c><c>   3</c></rc>
    <rc><c>Fe</c><c>   3</c></rc>
    <rc><c>Fe</c><c>   3</c></rc>
    <rc><c>Fe</c><c>   3</c></rc>
    <rc><c>Fe</c><c>   3</c></rc>
    <rc><c>Fe</c><c>   3</c></rc>
    <rc><c>Fe</c><c>   3</c></rc>
    <rc><c>Fe</c><c>   3</c></rc>
    <rc><c>Fe</c><c>   3</c></rc>
    <rc><c>Fe</c><c>   3</c></rc>
    <rc><c>Fe</c><c>   3</c></rc>
    <rc><c>Fe</c><c>   3</c></rc>
    <rc><c>Fe</c><c>   3</c></rc>
    <rc><c>Fe</c><c>   3</c></rc>
    <rc><c>O </c><c>   4</c></rc>
    <rc><c>O </c><c>   4</c></rc>
    <rc><c>O </c><c>   4</c></rc>
    <rc><c>O </c><c>   4</c></rc>
    <rc><c>O </c><c>   4</c></rc>
    <rc><c>O </c><c>   4</c></rc>
    <rc><c>O </c><c>   4</c></rc>
    <rc><c>O </c><c>   4</c></rc>
    <rc><c>O </c><c>   4</c></rc>
    <rc><c>O </c><c>   4</c></rc>
    <rc><c>O </c><c>   4</c></rc>
    <rc><c>O </c><c>   4</c></rc>
    <rc><c>O </c><c>   4</c></rc>
    <rc><c>O </c><c>   4</c></rc>
    <rc><c>O </c><c>   4</c></rc>
    <rc><c>O </c><c>   4</c></rc>
    <rc><c>O </c><c>   4</c></rc>
    <rc><c>O </c><c>   4</c></rc>
    <rc><c>O </c><c>   4</c></rc>
    <rc><c>O </c><c>   4</c></rc>
    <rc><c>O </c><c>   4</c></rc>
    <rc><c>O </c><c>   4</c></rc>
    <rc><c>O </c><c>   4</c></rc>
    <rc><c>O </c><c>   4</c></rc>
    <rc><c>O </c><c>   4</c></rc>
    <rc><c>O </c><c>   4</c></rc>
    <rc><c>O </c><c>   4</c></rc>
    <rc><c>O </c><c>   4</c></rc>
    <rc><c>O </c><c>   4</c></rc>
    <rc><c>O </c><c>   4</c></rc>
    <rc><c>O </c><c>   4</c></rc>
    <rc><c>O </c><c>   4</c></rc>
    <rc><c>O </c><c>   4</c></rc>
    <rc><c>O </c><c>   4</c></rc>
    <rc><c>O </c><c>   4</c></rc>
    <rc><c>O </c><c>   4</c></rc>
    <rc><c>O </c><c>   4</c></rc>
    <rc><c>O </c><c>   4</c></rc>
    <rc><c>O </c><c>   4</c></rc>
    <rc><c>O </c><c>   4</c></rc>
    <rc><c>O </c><c>   4</c></rc>
    <rc><c>O </c><c>   4</c></rc>
    <rc><c>O </c><c>   4</c></rc>
    <rc><c>O </c><c>   4</c></rc>
    <rc><c>O </c><c>   4</c></rc>
    <rc><c>O </c><c>   4</c></rc>
    <rc><c>O </c><c>   4</c></rc>
    <rc><c>O </c><c>   4</c></rc>
    <rc><c>O </c><c>   4</c></rc>
    <rc><c>O </c><c>   4</c></rc>
    <rc><c>O </c><c>   4</c></rc>
    <rc><c>O </c><c>   4</c></rc>
    <rc><c>O </c><c>   4</c></rc>
    <rc><c>O </c><c>   4</c></rc>
    <rc><c>O </c><c>   4</c></rc>
    <rc><c>O </c><c>   4</c></rc>
    <rc><c>O </c><c>   4</c></rc>
    <rc><c>O </c><c>   4</c></rc>
    <rc><c>O </c><c>   4</c></rc>
    <rc><c>O </c><c>   4</c></rc>
    <rc><c>O </c><c>   4</c></rc>
    <rc><c>O </c><c>   4</c></rc>
    <rc><c>O </c><c>   4</c></rc>
    <rc><c>O </c><c>   4</c></rc>
    <rc><c>O </c><c>   4</c></rc>
    <rc><c>O </c><c>   4</c></rc>
    <rc><c>O </c><c>   4</c></rc>
    <rc><c>O </c><c>   4</c></rc>
    <rc><c>O </c><c>   4</c></rc>
    <rc><c>O </c><c>   4</c></rc>
    <rc><c>O </c><c>   4</c></rc>
    <rc><c>O </c><c>   4</c></rc>
    <rc><c>O </c><c>   4</c></rc>
    <rc><c>O </c><c>   4</c></rc>
    <rc><c>O </c><c>   4</c></rc>
    <rc><c>O </c><c>   4</c></rc>
    <rc><c>O </c><c>   4</c></rc>
    <rc><c>O </c><c>   4</c></rc>
    <rc><c>O </c><c>   4</c></rc>
    <rc><c>O </c><c>   4</c></rc>
    <rc><c>O </c><c>   4</c></rc>
    <rc><c>O </c><c>   4</c></rc>
    <rc><c>O </c><c>   4</c></rc>
    <rc><c>O </c><c>   4</c></rc>
   </set>
  </array>
  <array name="atomtypes" >
   <dimension dim="1">type</dimension>
   <field type="int">atomspertype</field>
   <field type="string">element</field>
   <field>mass</field>
   <field>valence</field>
   <field type="string">pseudopotential</field>
   <set>
    <rc><c>  32</c><c>Sr</c><c>     87.62000000</c><c>     10.00000000</c><c>  PAW_PBE Sr_sv 07Sep2000               </c></rc>
    <rc><c>   8</c><c>Ti</c><c>     47.88000000</c><c>      4.00000000</c><c>  PAW_PBE Ti 08Apr2002                  </c></rc>
    <rc><c>  24</c><c>Fe</c><c>     55.84700000</c><c>      8.00000000</c><c>  PAW_PBE Fe 06Sep2000                  </c></rc>
    <rc><c>  84</c><c>O </c><c>     16.00000000</c><c>      6.00000000</c><c>  PAW_PBE O 08Apr2002                   </c></rc>
   </set>
  </array>
 </atominfo>
 <structure name="initialpos" >
  <crystal>
   <varray name="basis" >
    <v>      11.19863345       0.03958739      -0.00420492 </v>
    <v>       0.03947529      11.22712208       0.00071175 </v>
    <v>      -0.00604535       0.00096163      15.78988550 </v>
   </varray>
   <i name="volume">   1985.21246343 </i>
   <varray name="rec_basis" >
    <v>       0.08929773      -0.00031398       0.00003421 </v>
    <v>      -0.00031487       0.08907113      -0.00000555 </v>
    <v>       0.00002379      -0.00000410       0.06333169 </v>
   </varray>
  </crystal>
  <varray name="positions" >
   <v>       0.00758635       0.25909258       0.12249237 </v>
   <v>       0.00360013       0.24596512       0.62137768 </v>
   <v>       0.00035680       0.73982848       0.11487621 </v>
   <v>       0.00023765       0.75682472       0.62462087 </v>
   <v>       0.49516166       0.23821962       0.11182555 </v>
   <v>       0.49477797       0.24805263       0.62248589 </v>
   <v>       0.49994519       0.75518055       0.12457420 </v>
   <v>       0.50083454       0.74824419       0.62342121 </v>
   <v>       0.02032269       0.25333178       0.37598411 </v>
   <v>       0.99636535       0.25100942       0.87635486 </v>
   <v>       0.00769330       0.75329422       0.38858453 </v>
   <v>       0.98914672       0.74519939       0.87103574 </v>
   <v>       0.49100363       0.24261677       0.38622920 </v>
   <v>       0.49875070       0.25299160       0.87701598 </v>
   <v>       0.49291667       0.75650413       0.38632260 </v>
   <v>       0.50399024       0.74423725       0.87273986 </v>
   <v>       0.24769671       0.01237914       0.12950242 </v>
   <v>       0.24398386       0.00859885       0.62115920 </v>
   <v>       0.25366033       0.48954176       0.11858756 </v>
   <v>       0.24913385       0.49239959       0.62277739 </v>
   <v>       0.76100217       0.00021926       0.11989636 </v>
   <v>       0.75376551       0.00311363       0.62396881 </v>
   <v>       0.74496544       0.49113160       0.12257298 </v>
   <v>       0.74820033       0.49211231       0.62889723 </v>
   <v>       0.24919542       0.00261103       0.38531768 </v>
   <v>       0.25112797       0.01507118       0.86650081 </v>
   <v>       0.25033599       0.49816693       0.38473618 </v>
   <v>       0.24221207       0.49307655       0.87517512 </v>
   <v>       0.75746280       0.00594826       0.37915206 </v>
   <v>       0.74825835       0.99101074       0.87551593 </v>
   <v>       0.74592179       0.50159489       0.37682994 </v>
   <v>       0.75122681       0.49914206       0.87863026 </v>
   <v>       0.74692383       0.25031674       0.99895420 </v>
   <v>       0.00094873       0.50222913       0.74839636 </v>
   <v>       0.74859725       0.74553829       0.00513907 </v>
   <v>       0.50077984       0.49809029       0.50188527 </v>
   <v>       0.49960144       0.99714111       0.50425292 </v>
   <v>       0.99521573       0.99644498       0.74930859 </v>
   <v>       0.25026429       0.24783020       0.99740569 </v>
   <v>       0.24350514       0.75697829       0.24766678 </v>
   <v>       0.99096169       0.00848843       0.00137243 </v>
   <v>       0.01001018       0.51348749       0.50360111 </v>
   <v>       0.51061936       0.00320555       0.99833606 </v>
   <v>       0.02009700       0.49758800       0.25117693 </v>
   <v>       0.50147298       0.49531396       0.99691611 </v>
   <v>       0.50999695       0.51194718       0.74814946 </v>
   <v>       0.25030282       0.24997586       0.50042378 </v>
   <v>       0.49043901       0.99073585       0.24975384 </v>
   <v>       0.25192149       0.75231134       0.49274838 </v>
   <v>       0.99951924       0.00246779       0.49919233 </v>
   <v>       0.73789049       0.23904461       0.50062016 </v>
   <v>       0.01497751       0.00900298       0.25038094 </v>
   <v>       0.75351622       0.75023939       0.48595533 </v>
   <v>       0.25378919       0.24510261       0.25049645 </v>
   <v>       0.23847283       0.24266137       0.74871247 </v>
   <v>       0.48812118       0.98430413       0.74751672 </v>
   <v>       0.78075822       0.24948658       0.24860789 </v>
   <v>       0.75914100       0.25709333       0.75044919 </v>
   <v>       0.25339978       0.72553553       0.00211982 </v>
   <v>       0.74968304       0.75054858       0.75895381 </v>
   <v>       0.72529172       0.76399582       0.24880235 </v>
   <v>       0.99495775       0.49715626       0.00042259 </v>
   <v>       0.24646749       0.75218280       0.76533300 </v>
   <v>       0.49324668       0.52402003       0.25113182 </v>
   <v>       0.12054268       0.14183986       0.24803664 </v>
   <v>       0.09327395       0.65694770       0.24930805 </v>
   <v>       0.11541791       0.63919311       0.74511211 </v>
   <v>       0.12997722       0.61739237       0.99852596 </v>
   <v>       0.38805221       0.13879671       0.75355676 </v>
   <v>       0.64189986       0.38300151       0.49908028 </v>
   <v>       0.62551479       0.63372309       0.73087921 </v>
   <v>       0.88385354       0.15809995       0.48242333 </v>
   <v>       0.39078796       0.85393080       0.25195471 </v>
   <v>       0.88236903       0.38345970       0.25492939 </v>
   <v>       0.88339505       0.36809845       0.75619471 </v>
   <v>       0.88218434       0.63223851       0.99673903 </v>
   <v>       0.88222083       0.86141317       0.74419405 </v>
   <v>       0.40757685       0.15034074       0.24880209 </v>
   <v>       0.63886672       0.88554181       0.73964853 </v>
   <v>       0.35230736       0.61677944       0.23489598 </v>
   <v>       0.35825998       0.61256603       0.74788619 </v>
   <v>       0.86777136       0.10546977       0.24643287 </v>
   <v>       0.85256747       0.10683164       0.75698515 </v>
   <v>       0.49962432       0.98229681       0.87226799 </v>
   <v>       0.86681351       0.61908001       0.74065963 </v>
   <v>       0.16139314       0.40044407       0.25206155 </v>
   <v>       0.14525445       0.39259217       0.74874406 </v>
   <v>       0.14782586       0.89771818       0.25766018 </v>
   <v>       0.13288534       0.88117692       0.73562856 </v>
   <v>       0.99253234       0.50434812       0.12977437 </v>
   <v>       0.65132813       0.92888754       0.24876086 </v>
   <v>       0.86704056       0.87477752       0.51502624 </v>
   <v>       0.77027032       0.75570692       0.13011081 </v>
   <v>       0.11415885       0.37427936       0.49461451 </v>
   <v>       0.37193958       0.87357803       0.51718527 </v>
   <v>       0.86003352       0.38179438       0.00034444 </v>
   <v>       0.49481651       0.45022958       0.14653158 </v>
   <v>       0.37318497       0.86186141       0.73088296 </v>
   <v>       0.13873059       0.10394060       0.00120981 </v>
   <v>       0.12882467       0.12232709       0.49339741 </v>
   <v>       0.36495144       0.38190053       0.99668239 </v>
   <v>       0.63973257       0.10997987       0.00349705 </v>
   <v>       0.62793446       0.11604703       0.49336144 </v>
   <v>       0.63621245       0.60861861       0.01255078 </v>
   <v>       0.62691789       0.62521596       0.49649352 </v>
   <v>       0.11161216       0.35896326       0.00103283 </v>
   <v>       0.63954476       0.60642559       0.25010572 </v>
   <v>       0.37746863       0.37612675       0.50067235 </v>
   <v>       0.12713267       0.87178830       0.50978620 </v>
   <v>       0.61411681       0.36187271       0.99771746 </v>
   <v>       0.60685524       0.85464122       0.00327612 </v>
   <v>       0.62273986       0.86447740       0.50568532 </v>
   <v>       0.37912693       0.12332266       0.99140507 </v>
   <v>       0.37733469       0.12405721       0.50323954 </v>
   <v>       0.39468986       0.63811757       0.01095961 </v>
   <v>       0.38012726       0.62901219       0.50429418 </v>
   <v>       0.88725783       0.14102511       0.01042395 </v>
   <v>       0.13440459       0.62814179       0.51890177 </v>
   <v>       0.11214271       0.13224268       0.75356652 </v>
   <v>       0.87019524       0.62137754       0.51239205 </v>
   <v>       0.00251066       0.97047793       0.12602798 </v>
   <v>       0.99265438       0.01650507       0.62475623 </v>
   <v>       0.48882190       0.48319229       0.36799598 </v>
   <v>       0.98665688       0.47644991       0.62139848 </v>
   <v>       0.47684395       0.98718985       0.11989121 </v>
   <v>       0.51677254       0.01972899       0.62863156 </v>
   <v>       0.75410117       0.24475000       0.62465698 </v>
   <v>       0.49182882       0.48829126       0.62572209 </v>
   <v>       0.98691892       0.97779974       0.37188282 </v>
   <v>       0.00989065       0.98478023       0.87652857 </v>
   <v>       0.98951293       0.50981310       0.37908957 </v>
   <v>       0.99978045       0.50229020       0.87206775 </v>
   <v>       0.70736736       0.25687654       0.35330320 </v>
   <v>       0.49895526       0.50372869       0.87103855 </v>
   <v>       0.26196005       0.25694123       0.37202693 </v>
   <v>       0.25311618       0.26076613       0.87171920 </v>
   <v>       0.25272773       0.74359861       0.37334951 </v>
   <v>       0.25392478       0.78791225       0.88915108 </v>
   <v>       0.74020473       0.23687885       0.87562041 </v>
   <v>       0.77941273       0.75304078       0.36667072 </v>
   <v>       0.73960744       0.74042339       0.87725512 </v>
   <v>       0.25890435       0.25411973       0.12502703 </v>
   <v>       0.25450979       0.25709246       0.62721669 </v>
   <v>       0.23841577       0.78730187       0.11294043 </v>
   <v>       0.60752821       0.35586213       0.74902657 </v>
   <v>       0.72574979       0.25328369       0.13500207 </v>
   <v>       0.48880048       0.99018837       0.37861502 </v>
   <v>       0.86879922       0.87948496       0.99355648 </v>
  </varray>
 </structure>
 <calculation>
  <scstep>
   <time name="dav">  336.79  336.84</time>
   <time name="total">  340.52  340.70</time>
   <energy>
    <i name="alphaZ">   5660.56141667 </i>
    <i name="ewald"> -63651.27387798 </i>
    <i name="hartreedc"> -18138.93076536 </i>
    <i name="XCdc">   3407.68063403 </i>
    <i name="pawpsdc"> 115799.45708009 </i>
    <i name="pawaedc">-115305.84254662 </i>
    <i name="eentropy">     -0.00966014 </i>
    <i name="bandstr">  -7080.14668836 </i>
    <i name="atom">  78316.90445604 </i>
    <i name="e_fr_energy">   -991.59995163 </i>
    <i name="e_wo_entrp">   -991.59029149 </i>
    <i name="e_0_energy">   -991.59512156 </i>
   </energy>
  </scstep>
  <scstep>
   <time name="diag">   32.95   32.97</time>
   <time name="diis">   42.69   42.74</time>
   <time name="orth">   18.74   18.74</time>
   <time name="total">   98.18   98.30</time>
   <energy>
    <i name="e_fr_energy">   -991.59996226 </i>
    <i name="e_wo_entrp">   -991.59119404 </i>
    <i name="e_0_energy">   -991.59557815 </i>
   </energy>
  </scstep>
  <scstep>
   <time name="diag">   33.01   33.03</time>
   <time name="diis">   33.38   33.38</time>
   <time name="orth">   18.76   18.76</time>
   <time name="total">   88.94   89.01</time>
   <energy>
    <i name="e_fr_energy">   -991.59991422 </i>
    <i name="e_wo_entrp">   -991.59089709 </i>
    <i name="e_0_energy">   -991.59540566 </i>
   </energy>
  </scstep>
  <scstep>
   <time name="diag">   32.99   33.00</time>
   <time name="diis">   30.89   30.91</time>
   <time name="orth">   18.74   18.74</time>
   <time name="total">   86.40   86.47</time>
   <energy>
    <i name="e_fr_energy">   -991.59990905 </i>
    <i name="e_wo_entrp">   -991.59076699 </i>
    <i name="e_0_energy">   -991.59533802 </i>
   </energy>
  </scstep>
  <scstep>
   <time name="diag">   33.00   33.01</time>
   <time name="diis">   29.91   29.91</time>
   <time name="orth">   18.75   18.76</time>
   <time name="total">   85.45   85.53</time>
   <energy>
    <i name="e_fr_energy">   -991.59990932 </i>
    <i name="e_wo_entrp">   -991.59075016 </i>
    <i name="e_0_energy">   -991.59532974 </i>
   </energy>
  </scstep>
  <scstep>
   <time name="diag">   32.99   32.99</time>
   <time name="diis">   28.35   28.38</time>
   <time name="orth">   18.75   18.75</time>
   <time name="total">   83.89   83.94</time>
   <energy>
    <i name="e_fr_energy">   -991.59991007 </i>
    <i name="e_wo_entrp">   -991.59075353 </i>
    <i name="e_0_energy">   -991.59533180 </i>
   </energy>
  </scstep>
  <scstep>
   <time name="diag">   32.98   33.01</time>
   <time name="diis">   27.33   27.35</time>
   <time name="orth">   18.74   18.75</time>
   <time name="total">   82.79   82.92</time>
   <energy>
    <i name="e_fr_energy">   -991.59991080 </i>
    <i name="e_wo_entrp">   -991.59075801 </i>
    <i name="e_0_energy">   -991.59533441 </i>
   </energy>
  </scstep>
  <scstep>
   <time name="diag">   32.94   32.97</time>
   <time name="diis">   26.29   26.31</time>
   <time name="orth">   18.76   18.77</time>
   <time name="total">   78.58   78.66</time>
   <energy>
    <i name="alphaZ">   5660.56141667 </i>
    <i name="ewald"> -63651.27387798 </i>
    <i name="hartreedc"> -18138.87454137 </i>
    <i name="XCdc">   3407.67459922 </i>
    <i name="pawpsdc"> 115797.06572468 </i>
    <i name="pawaedc">-115303.47946818 </i>
    <i name="eentropy">     -0.00916506 </i>
    <i name="bandstr">  -7080.16905542 </i>
    <i name="atom">  78316.90445604 </i>
    <i name="e_fr_energy">   -991.59991140 </i>
    <i name="e_wo_entrp">   -991.59074633 </i>
    <i name="e_0_energy">   -991.59532886 </i>
   </energy>
  </scstep>
  <structure>
   <crystal>
    <varray name="basis" >
     <v>      11.19863345       0.03958739      -0.00420492 </v>
     <v>       0.03947529      11.22712208       0.00071175 </v>
     <v>      -0.00604535       0.00096163      15.78988550 </v>
    </varray>
    <i name="volume">   1985.21246343 </i>
    <varray name="rec_basis" >
     <v>       0.08929773      -0.00031398       0.00003421 </v>
     <v>      -0.00031487       0.08907113      -0.00000555 </v>
     <v>       0.00002379      -0.00000410       0.06333169 </v>
    </varray>
   </crystal>
   <varray name="positions" >
    <v>       0.00758635       0.25909258       0.12249237 </v>
    <v>       0.00360013       0.24596512       0.62137768 </v>
    <v>       0.00035680       0.73982848       0.11487621 </v>
    <v>       0.00023765       0.75682472       0.62462087 </v>
    <v>       0.49516166       0.23821962       0.11182555 </v>
    <v>       0.49477797       0.24805263       0.62248589 </v>
    <v>       0.49994519       0.75518055       0.12457420 </v>
    <v>       0.50083454       0.74824419       0.62342121 </v>
    <v>       0.02032269       0.25333178       0.37598411 </v>
    <v>       0.99636535       0.25100942       0.87635486 </v>
    <v>       0.00769330       0.75329422       0.38858453 </v>
    <v>       0.98914672       0.74519939       0.87103574 </v>
    <v>       0.49100363       0.24261677       0.38622920 </v>
    <v>       0.49875070       0.25299160       0.87701598 </v>
    <v>       0.49291667       0.75650413       0.38632260 </v>
    <v>       0.50399024       0.74423725       0.87273986 </v>
    <v>       0.24769671       0.01237914       0.12950242 </v>
    <v>       0.24398386       0.00859885       0.62115920 </v>
    <v>       0.25366033       0.48954176       0.11858756 </v>
    <v>       0.24913385       0.49239959       0.62277739 </v>
    <v>       0.76100217       0.00021926       0.11989636 </v>
    <v>       0.75376551       0.00311363       0.62396881 </v>
    <v>       0.74496544       0.49113160       0.12257298 </v>
    <v>       0.74820033       0.49211231       0.62889723 </v>
    <v>       0.24919542       0.00261103       0.38531768 </v>
    <v>       0.25112797       0.01507118       0.86650081 </v>
    <v>       0.25033599       0.49816693       0.38473618 </v>
    <v>       0.24221207       0.49307655       0.87517512 </v>
    <v>       0.75746280       0.00594826       0.37915206 </v>
    <v>       0.74825835       0.99101074       0.87551593 </v>
    <v>       0.74592179       0.50159489       0.37682994 </v>
    <v>       0.75122681       0.49914206       0.87863026 </v>
    <v>       0.74692383       0.25031674       0.99895420 </v>
    <v>       0.00094873       0.50222913       0.74839636 </v>
    <v>       0.74859725       0.74553829       0.00513907 </v>
    <v>       0.50077984       0.49809029       0.50188527 </v>
    <v>       0.49960144       0.99714111       0.50425292 </v>
    <v>       0.99521573       0.99644498       0.74930859 </v>
    <v>       0.25026429       0.24783020       0.99740569 </v>
    <v>       0.24350514       0.75697829       0.24766678 </v>
    <v>       0.99096169       0.00848843       0.00137243 </v>
    <v>       0.01001018       0.51348749       0.50360111 </v>
    <v>       0.51061936       0.00320555       0.99833606 </v>
    <v>       0.02009700       0.49758800       0.25117693 </v>
    <v>       0.50147298       0.49531396       0.99691611 </v>
    <v>       0.50999695       0.51194718       0.74814946 </v>
    <v>       0.25030282       0.24997586       0.50042378 </v>
    <v>       0.49043901       0.99073585       0.24975384 </v>
    <v>       0.25192149       0.75231134       0.49274838 </v>
    <v>       0.99951924       0.00246779       0.49919233 </v>
    <v>       0.73789049       0.23904461       0.50062016 </v>
    <v>       0.01497751       0.00900298       0.25038094 </v>
    <v>       0.75351622       0.75023939       0.48595533 </v>
    <v>       0.25378919       0.24510261       0.25049645 </v>
    <v>       0.23847283       0.24266137       0.74871247 </v>
    <v>       0.48812118       0.98430413       0.74751672 </v>
    <v>       0.78075822       0.24948658       0.24860789 </v>
    <v>       0.75914100       0.25709333       0.75044919 </v>
    <v>       0.25339978       0.72553553       0.00211982 </v>
    <v>       0.74968304       0.75054858       0.75895381 </v>
    <v>       0.72529172       0.76399582       0.24880235 </v>
    <v>       0.99495775       0.49715626       0.00042259 </v>
    <v>       0.24646749       0.75218280       0.76533300 </v>
    <v>       0.49324668       0.52402003       0.25113182 </v>
    <v>       0.12054268       0.14183986       0.24803664 </v>
    <v>       0.09327395       0.65694770       0.24930805 </v>
    <v>       0.11541791       0.63919311       0.74511211 </v>
    <v>       0.12997722       0.61739237       0.99852596 </v>
    <v>       0.38805221       0.13879671       0.75355676 </v>
    <v>       0.64189986       0.38300151       0.49908028 </v>
    <v>       0.62551479       0.63372309       0.73087921 </v>
    <v>       0.88385354       0.15809995       0.48242333 </v>
    <v>       0.39078796       0.85393080       0.25195471 </v>
    <v>       0.88236903       0.38345970       0.25492939 </v>
    <v>       0.88339505       0.36809845       0.75619471 </v>
    <v>       0.88218434       0.63223851       0.99673903 </v>
    <v>       0.88222083       0.86141317       0.74419405 </v>
    <v>       0.40757685       0.15034074       0.24880209 </v>
    <v>       0.63886672       0.88554181       0.73964853 </v>
    <v>       0.35230736       0.61677944       0.23489598 </v>
    <v>       0.35825998       0.61256603       0.74788619 </v>
    <v>       0.86777136       0.10546977       0.24643287 </v>
    <v>       0.85256747       0.10683164       0.75698515 </v>
    <v>       0.49962432       0.98229681       0.87226799 </v>
    <v>       0.86681351       0.61908001       0.74065963 </v>
    <v>       0.16139314       0.40044407       0.25206155 </v>
    <v>       0.14525445       0.39259217       0.74874406 </v>
    <v>       0.14782586       0.89771818       0.25766018 </v>
    <v>       0.13288534       0.88117692       0.73562856 </v>
    <v>       0.99253234       0.50434812       0.12977437 </v>
    <v>       0.65132813       0.92888754       0.24876086 </v>
    <v>       0.86704056       0.87477752       0.51502624 </v>
    <v>       0.77027032       0.75570692       0.13011081 </v>
    <v>       0.11415885       0.37427936       0.49461451 </v>
    <v>       0.37193958       0.87357803       0.51718527 </v>
    <v>       0.86003352       0.38179438       0.00034444 </v>
    <v>       0.49481651       0.45022958       0.14653158 </v>
    <v>       0.37318497       0.86186141       0.73088296 </v>
    <v>       0.13873059       0.10394060       0.00120981 </v>
    <v>       0.12882467       0.12232709       0.49339741 </v>
    <v>       0.36495144       0.38190053       0.99668239 </v>
    <v>       0.63973257       0.10997987       0.00349705 </v>
    <v>       0.62793446       0.11604703       0.49336144 </v>
    <v>       0.63621245       0.60861861       0.01255078 </v>
    <v>       0.62691789       0.62521596       0.49649352 </v>
    <v>       0.11161216       0.35896326       0.00103283 </v>
    <v>       0.63954476       0.60642559       0.25010572 </v>
    <v>       0.37746863       0.37612675       0.50067235 </v>
    <v>       0.12713267       0.87178830       0.50978620 </v>
    <v>       0.61411681       0.36187271       0.99771746 </v>
    <v>       0.60685524       0.85464122       0.00327612 </v>
    <v>       0.62273986       0.86447740       0.50568532 </v>
    <v>       0.37912693       0.12332266       0.99140507 </v>
    <v>       0.37733469       0.12405721       0.50323954 </v>
    <v>       0.39468986       0.63811757       0.01095961 </v>
    <v>       0.38012726       0.62901219       0.50429418 </v>
    <v>       0.88725783       0.14102511       0.01042395 </v>
    <v>       0.13440459       0.62814179       0.51890177 </v>
    <v>       0.11214271       0.13224268       0.75356652 </v>
    <v>       0.87019524       0.62137754       0.51239205 </v>
    <v>       0.00251066       0.97047793       0.12602798 </v>
    <v>       0.99265438       0.01650507       0.62475623 </v>
    <v>       0.48882190       0.48319229       0.36799598 </v>
    <v>       0.98665688       0.47644991       0.62139848 </v>
    <v>       0.47684395       0.98718985       0.11989121 </v>
    <v>       0.51677254       0.01972899       0.62863156 </v>
    <v>       0.75410117       0.24475000       0.62465698 </v>
    <v>       0.49182882       0.48829126       0.62572209 </v>
    <v>       0.98691892       0.97779974       0.37188282 </v>
    <v>       0.00989065       0.98478023       0.87652857 </v>
    <v>       0.98951293       0.50981310       0.37908957 </v>
    <v>       0.99978045       0.50229020       0.87206775 </v>
    <v>       0.70736736       0.25687654       0.35330320 </v>
    <v>       0.49895526       0.50372869       0.87103855 </v>
    <v>       0.26196005       0.25694123       0.37202693 </v>
    <v>       0.25311618       0.26076613       0.87171920 </v>
    <v>       0.25272773       0.74359861       0.37334951 </v>
    <v>       0.25392478       0.78791225       0.88915108 </v>
    <v>       0.74020473       0.23687885       0.87562041 </v>
    <v>       0.77941273       0.75304078       0.36667072 </v>
    <v>       0.73960744       0.74042339       0.87725512 </v>
    <v>       0.25890435       0.25411973       0.12502703 </v>
    <v>       0.25450979       0.25709246       0.62721669 </v>
    <v>       0.23841577       0.78730187       0.11294043 </v>
    <v>       0.60752821       0.35586213       0.74902657 </v>
    <v>       0.72574979       0.25328369       0.13500207 </v>
    <v>       0.48880048       0.99018837       0.37861502 </v>
    <v>       0.86879922       0.87948496       0.99355648 </v>
   </varray>
  </structure>
  <varray name="forces" >
   <v>      -0.01348492       0.00075547      -0.00769878 </v>
   <v>      -0.00370730      -0.01642670      -0.01119824 </v>
   <v>       0.00988608       0.02081233       0.01944080 </v>
   <v>       0.00638405       0.00354177       0.05037926 </v>
   <v>       0.00847247      -0.02351032       0.02856298 </v>
   <v>      -0.00338513      -0.02885838       0.04605463 </v>
   <v>      -0.02198968      -0.02599274       0.00562372 </v>
   <v>      -0.02088702       0.00027970      -0.02198477 </v>
   <v>       0.02486128      -0.03717485      -0.00616104 </v>
   <v>       0.02176384       0.02130958       0.00246005 </v>
   <v>      -0.01478015       0.02435570      -0.06118753 </v>
   <v>      -0.02824631      -0.02733584       0.00125114 </v>
   <v>      -0.01660142      -0.03358589       0.00348466 </v>
   <v>       0.00173695      -0.00581728      -0.01867483 </v>
   <v>      -0.01015205       0.00913583       0.00979075 </v>
   <v>       0.01853561       0.02501429       0.03507082 </v>
   <v>       0.00638798       0.01269207       0.01136384 </v>
   <v>       0.00075190      -0.00291481       0.01783959 </v>
   <v>       0.00115106      -0.02452243      -0.03184384 </v>
   <v>       0.00753433       0.02858618       0.04452349 </v>
   <v>       0.00402583       0.02610091      -0.01252899 </v>
   <v>      -0.03052440      -0.00380186       0.01262100 </v>
   <v>       0.07012353       0.02182207      -0.04529256 </v>
   <v>      -0.00475476      -0.00132834      -0.02355900 </v>
   <v>       0.01818014       0.01403170       0.01178762 </v>
   <v>      -0.06653210       0.02179344      -0.00600829 </v>
   <v>       0.04064367       0.00038360      -0.01844552 </v>
   <v>      -0.00801502      -0.01231997       0.01701994 </v>
   <v>       0.01559012       0.03434466       0.01238161 </v>
   <v>       0.01732962      -0.00258320       0.00454830 </v>
   <v>       0.01482447       0.03972345       0.00502268 </v>
   <v>      -0.00141509      -0.01402238       0.01512756 </v>
   <v>       0.00632981       0.07221493       0.00732345 </v>
   <v>       0.06608646       0.01054028       0.00886710 </v>
   <v>       0.09077351      -0.06645989       0.03074071 </v>
   <v>       0.06872832       0.07526477       0.00823783 </v>
   <v>       0.02147676      -0.00821914       0.07278716 </v>
   <v>       0.02714350      -0.00711164       0.05790622 </v>
   <v>      -0.02746528       0.04563853      -0.00981107 </v>
   <v>      -0.04228402       0.01633849      -0.01398742 </v>
   <v>       0.00274490      -0.00702081      -0.03739069 </v>
   <v>      -0.00865399       0.02914956       0.04378585 </v>
   <v>       0.03801453       0.06497838       0.00511448 </v>
   <v>       0.06459365      -0.07064268      -0.02110178 </v>
   <v>       0.00577866      -0.05448547      -0.01874923 </v>
   <v>      -0.00892815       0.00241784      -0.01565873 </v>
   <v>       0.00562521       0.00119775      -0.00552220 </v>
   <v>       0.00441585      -0.03066092       0.03047028 </v>
   <v>      -0.02334029       0.00279965       0.06887272 </v>
   <v>       0.00957445       0.00918942       0.00239158 </v>
   <v>      -0.04799796       0.06577048       0.01467758 </v>
   <v>      -0.03738711      -0.00282962      -0.01589151 </v>
   <v>      -0.03059485      -0.01743515      -0.04150486 </v>
   <v>       0.02125684       0.04189183       0.02589515 </v>
   <v>      -0.03005382      -0.00361650      -0.00967468 </v>
   <v>      -0.01952827      -0.02601971      -0.05935513 </v>
   <v>       0.02885774      -0.02518579       0.00470100 </v>
   <v>      -0.00778494      -0.00408042      -0.00384570 </v>
   <v>       0.00586256      -0.05658056      -0.01793157 </v>
   <v>      -0.02348192      -0.00211618      -0.07408127 </v>
   <v>      -0.00711645      -0.00274322       0.06953190 </v>
   <v>      -0.00284878      -0.03502576      -0.01832976 </v>
   <v>      -0.00542167      -0.01251672      -0.00929585 </v>
   <v>       0.03455155       0.03806089      -0.05572918 </v>
   <v>      -0.05615558      -0.01887594      -0.00659275 </v>
   <v>       0.00479386       0.01464357      -0.01211622 </v>
   <v>       0.00967939      -0.02269793      -0.01258998 </v>
   <v>       0.06512244       0.07949869      -0.02057812 </v>
   <v>       0.00190774      -0.02552929      -0.01496595 </v>
   <v>       0.04066633       0.03358185      -0.02962552 </v>
   <v>       0.02997935      -0.00689765       0.01453275 </v>
   <v>       0.03034185      -0.00679126       0.01655021 </v>
   <v>      -0.01941864      -0.00021128      -0.00117925 </v>
   <v>       0.00944837       0.00784946      -0.00860966 </v>
   <v>      -0.03376400      -0.02996194       0.03258035 </v>
   <v>      -0.10708358       0.03831768      -0.01109798 </v>
   <v>      -0.01533612      -0.01721498      -0.02805200 </v>
   <v>       0.00735188      -0.05762390       0.03321040 </v>
   <v>      -0.00133740      -0.04744423       0.03306434 </v>
   <v>      -0.00950189      -0.03091368       0.02474618 </v>
   <v>       0.01977664       0.00758717       0.00577085 </v>
   <v>      -0.00222132      -0.04902207      -0.02438780 </v>
   <v>       0.00820615      -0.03298505       0.01937027 </v>
   <v>       0.00952963       0.02575590       0.02087607 </v>
   <v>       0.00314435       0.03471710      -0.00670201 </v>
   <v>      -0.02825126      -0.01411635       0.00174711 </v>
   <v>      -0.02296210      -0.01135013      -0.00712596 </v>
   <v>       0.01985719      -0.06210453      -0.01391606 </v>
   <v>      -0.03594933       0.01378776       0.00288007 </v>
   <v>       0.01757694      -0.00196055       0.00050322 </v>
   <v>       0.00071320       0.04055879      -0.03340197 </v>
   <v>       0.01888106       0.04000618      -0.00569011 </v>
   <v>      -0.02191500       0.02855271      -0.05059964 </v>
   <v>       0.02677230       0.04133893       0.02513158 </v>
   <v>      -0.00821084      -0.03932739      -0.02207810 </v>
   <v>      -0.01088933      -0.03779179      -0.04659036 </v>
   <v>       0.00212306       0.02543592       0.05424669 </v>
   <v>       0.03402608       0.00953750      -0.00218647 </v>
   <v>       0.06539819       0.01242154       0.02073097 </v>
   <v>       0.00571756       0.02039180       0.01242971 </v>
   <v>       0.00790499      -0.04049505      -0.00740500 </v>
   <v>      -0.05196667      -0.07302167       0.00742720 </v>
   <v>      -0.00134591       0.04574888       0.00102416 </v>
   <v>       0.00783701       0.06463733       0.03099900 </v>
   <v>      -0.00765602      -0.02594611       0.02004976 </v>
   <v>       0.05883814       0.03791121      -0.03373340 </v>
   <v>      -0.01159101       0.00069235      -0.01488866 </v>
   <v>      -0.01737367      -0.05380726      -0.03212498 </v>
   <v>      -0.01110571       0.00094754      -0.00238547 </v>
   <v>      -0.03138442       0.01992517      -0.02962371 </v>
   <v>       0.00074900       0.01222080      -0.01903538 </v>
   <v>      -0.00663647       0.01963360       0.02668104 </v>
   <v>       0.02796451      -0.01031853      -0.01491264 </v>
   <v>      -0.00688719       0.04699653      -0.02007668 </v>
   <v>      -0.07557650       0.03481075      -0.01089592 </v>
   <v>      -0.05991265       0.00567809       0.02447819 </v>
   <v>      -0.05091720      -0.00790907      -0.04843166 </v>
   <v>      -0.01390570       0.02815149       0.00413144 </v>
   <v>      -0.01868533       0.01709375      -0.00185448 </v>
   <v>       0.02950590      -0.04909543       0.01649491 </v>
   <v>      -0.00941204       0.01721646      -0.00964166 </v>
   <v>      -0.02651207      -0.01300673      -0.02630344 </v>
   <v>      -0.01303604      -0.03112368       0.00096131 </v>
   <v>      -0.02928549      -0.02162559      -0.03713218 </v>
   <v>       0.02085618      -0.02889165      -0.02860532 </v>
   <v>      -0.01039126       0.00182498      -0.00956215 </v>
   <v>      -0.00171172      -0.00397091       0.03654393 </v>
   <v>       0.02107579      -0.03556305      -0.00689280 </v>
   <v>      -0.00903029       0.04258172       0.03267162 </v>
   <v>       0.01146050      -0.00829211      -0.02455581 </v>
   <v>       0.01211778       0.02799511       0.05079348 </v>
   <v>       0.00972038      -0.00964235       0.00450440 </v>
   <v>       0.00068260       0.01395754      -0.01242009 </v>
   <v>      -0.00645061      -0.00910936      -0.00311370 </v>
   <v>      -0.04784844      -0.00446614       0.02435630 </v>
   <v>      -0.01432243      -0.02472362       0.04276381 </v>
   <v>       0.02467503      -0.01377883      -0.01481320 </v>
   <v>       0.03267266       0.00434123       0.00250243 </v>
   <v>      -0.00468716      -0.00775941      -0.01762737 </v>
   <v>      -0.02497567       0.01209427      -0.01853917 </v>
   <v>      -0.01676741       0.01418811       0.05900625 </v>
   <v>      -0.00592753      -0.00136730       0.00611596 </v>
   <v>       0.00684156       0.01047765      -0.03093265 </v>
   <v>       0.04898415       0.01109192      -0.00033830 </v>
   <v>       0.00358336      -0.05980840       0.04345791 </v>
   <v>      -0.01606078       0.02578111       0.01422747 </v>
   <v>       0.03852229       0.01082410      -0.03685557 </v>
   <v>      -0.04328004      -0.04145240      -0.00998746 </v>
  </varray>
  <varray name="stress" >
   <v>      -0.16870907      -0.07594199      -0.08010561 </v>
   <v>      -0.07594225      -0.14493036       0.16949007 </v>
   <v>      -0.08010557       0.16948990      -0.09174966 </v>
  </varray>
  <energy>
   <i name="e_fr_energy">   -991.59991140 </i>
   <i name="e_wo_entrp">   -991.59532886 </i>
   <i name="e_0_energy">     -0.00916506 </i>
  </energy>
  <time name="totalsc"> 1095.92 1098.51</time>
 </calculation>
 <calculation>
  <scstep>
   <time name="dav">  292.22  292.26</time>
   <time name="total">  295.98  296.11</time>
   <energy>
    <i name="alphaZ">   5661.48838146 </i>
    <i name="ewald"> -63653.56585190 </i>
    <i name="hartreedc"> -18140.87533580 </i>
    <i name="XCdc">   3407.91289163 </i>
    <i name="pawpsdc"> 115797.01910581 </i>
    <i name="pawaedc">-115303.43344967 </i>
    <i name="eentropy">     -0.00888537 </i>
    <i name="bandstr">  -7077.03222121 </i>
    <i name="atom">  78316.90445604 </i>
    <i name="e_fr_energy">   -991.59090901 </i>
    <i name="e_wo_entrp">   -991.58202364 </i>
    <i name="e_0_energy">   -991.58646633 </i>
   </energy>
  </scstep>
  <scstep>
   <time name="diag">   33.04   33.07</time>
   <time name="diis">   52.32   52.35</time>
   <time name="orth">   18.85   18.86</time>
   <time name="total">  108.02  108.10</time>
   <energy>
    <i name="e_fr_energy">   -991.60732727 </i>
    <i name="e_wo_entrp">   -991.59815721 </i>
    <i name="e_0_energy">   -991.60274224 </i>
   </energy>
  </scstep>
  <scstep>
   <time name="diag">   33.03   33.03</time>
   <time name="diis">   54.65   54.68</time>
   <time name="orth">   18.81   18.83</time>
   <time name="total">  110.28  110.39</time>
   <energy>
    <i name="e_fr_energy">   -991.60916861 </i>
    <i name="e_wo_entrp">   -991.59983390 </i>
    <i name="e_0_energy">   -991.60450126 </i>
   </energy>
  </scstep>
  <scstep>
   <time name="diag">   33.07   33.08</time>
   <time name="diis">   49.50   49.53</time>
   <time name="orth">   18.81   18.82</time>
   <time name="total">  105.19  105.28</time>
   <energy>
    <i name="e_fr_energy">   -991.60870990 </i>
    <i name="e_wo_entrp">   -991.59943647 </i>
    <i name="e_0_energy">   -991.60407318 </i>
   </energy>
  </scstep>
  <scstep>
   <time name="diag">   33.01   33.04</time>
   <time name="diis">   48.95   48.97</time>
   <time name="orth">   18.84   18.84</time>
   <time name="total">  104.61  104.68</time>
   <energy>
    <i name="e_fr_energy">   -991.60845528 </i>
    <i name="e_wo_entrp">   -991.59908362 </i>
    <i name="e_0_energy">   -991.60376945 </i>
   </energy>
  </scstep>
  <scstep>
   <time name="diag">   33.03   33.04</time>
   <time name="diis">   33.51   33.50</time>
   <time name="orth">   18.83   18.83</time>
   <time name="total">   89.16   89.20</time>
   <energy>
    <i name="e_fr_energy">   -991.60846282 </i>
    <i name="e_wo_entrp">   -991.59906534 </i>
    <i name="e_0_energy">   -991.60376408 </i>
   </energy>
  </scstep>
  <scstep>
   <time name="diag">   32.91   32.92</time>
   <time name="diis">   32.60   32.60</time>
   <time name="orth">   18.83   18.83</time>
   <time name="total">   88.11   88.16</time>
   <energy>
    <i name="e_fr_energy">   -991.60846299 </i>
    <i name="e_wo_entrp">   -991.59908253 </i>
    <i name="e_0_energy">   -991.60377276 </i>
   </energy>
  </scstep>
  <scstep>
   <time name="diag">   32.91   32.92</time>
   <time name="diis">   32.23   32.26</time>
   <time name="orth">   18.79   18.81</time>
   <time name="total">   84.54   84.67</time>
   <energy>
    <i name="alphaZ">   5661.48838146 </i>
    <i name="ewald"> -63653.56585190 </i>
    <i name="hartreedc"> -18138.38498038 </i>
    <i name="XCdc">   3407.74402785 </i>
    <i name="pawpsdc"> 115827.32368341 </i>
    <i name="pawaedc">-115333.79870126 </i>
    <i name="eentropy">     -0.00937620 </i>
    <i name="bandstr">  -7079.31010369 </i>
    <i name="atom">  78316.90445604 </i>
    <i name="e_fr_energy">   -991.60846466 </i>
    <i name="e_wo_entrp">   -991.59908846 </i>
    <i name="e_0_energy">   -991.60377656 </i>
   </energy>
  </scstep>
  <structure>
   <crystal>
    <varray name="basis" >
     <v>      11.19786929       0.03924130      -0.00456437 </v>
     <v>       0.03912821      11.22646372       0.00147901 </v>
     <v>      -0.00655583       0.00204267      15.78930064 </v>
    </varray>
    <i name="volume">   1984.88742133 </i>
    <varray name="rec_basis" >
     <v>       0.08930381      -0.00031126       0.00003712 </v>
     <v>      -0.00031216       0.08907633      -0.00001165 </v>
     <v>       0.00002585      -0.00000843       0.06333404 </v>
    </varray>
   </crystal>
   <varray name="positions" >
    <v>       0.00752824       0.25909603       0.12246883 </v>
    <v>       0.00358439       0.24589460       0.62134347 </v>
    <v>       0.00039910       0.73991775       0.11493562 </v>
    <v>       0.00026518       0.75683983       0.62477480 </v>
    <v>       0.49519856       0.23811846       0.11191283 </v>
    <v>       0.49476390       0.24792866       0.62262660 </v>
    <v>       0.49985086       0.75506919       0.12459136 </v>
    <v>       0.50074452       0.74824572       0.62335401 </v>
    <v>       0.02043035       0.25317167       0.37596533 </v>
    <v>       0.99645879       0.25110066       0.87636240 </v>
    <v>       0.00762915       0.75339912       0.38839757 </v>
    <v>       0.98902545       0.74508236       0.87103954 </v>
    <v>       0.49093262       0.24247270       0.38623984 </v>
    <v>       0.49875824       0.25296658       0.87695893 </v>
    <v>       0.49287281       0.75654354       0.38635250 </v>
    <v>       0.50406977       0.74434445       0.87284703 </v>
    <v>       0.24772405       0.01243358       0.12953714 </v>
    <v>       0.24398717       0.00858631       0.62121370 </v>
    <v>       0.25366561       0.48943638       0.11849027 </v>
    <v>       0.24916595       0.49252230       0.62291343 </v>
    <v>       0.76101910       0.00033136       0.11985808 </v>
    <v>       0.75363409       0.00309775       0.62400733 </v>
    <v>       0.74526712       0.49122431       0.12243467 </v>
    <v>       0.74817983       0.49210668       0.62882524 </v>
    <v>       0.24927354       0.00267105       0.38535372 </v>
    <v>       0.25084102       0.01516584       0.86648237 </v>
    <v>       0.25051104       0.49816796       0.38467987 </v>
    <v>       0.24217776       0.49302373       0.87522711 </v>
    <v>       0.75752947       0.00609560       0.37918990 </v>
    <v>       0.74833305       0.99099937       0.87552985 </v>
    <v>       0.74598506       0.50176536       0.37684530 </v>
    <v>       0.75122095       0.49908182       0.87867648 </v>
    <v>       0.74695002       0.25062695       0.99897657 </v>
    <v>       0.00123328       0.50227342       0.74842353 </v>
    <v>       0.74898936       0.74525132       0.00523311 </v>
    <v>       0.50107480       0.49841266       0.50191051 </v>
    <v>       0.49969421       0.99710544       0.50447533 </v>
    <v>       0.99533286       0.99641399       0.74948554 </v>
    <v>       0.25014527       0.24802673       0.99737567 </v>
    <v>       0.24332272       0.75704914       0.24762399 </v>
    <v>       0.99097356       0.00845823       0.00125820 </v>
    <v>       0.00997253       0.51361287       0.50373488 </v>
    <v>       0.51078215       0.00348419       0.99835171 </v>
    <v>       0.02037630       0.49728347       0.25111255 </v>
    <v>       0.50149867       0.49507975       0.99685884 </v>
    <v>       0.50995842       0.51195771       0.74810161 </v>
    <v>       0.25032702       0.24998093       0.50040692 </v>
    <v>       0.49045854       0.99060403       0.24984694 </v>
    <v>       0.25182101       0.75232371       0.49295878 </v>
    <v>       0.99956035       0.00250713       0.49919965 </v>
    <v>       0.73768274       0.23932795       0.50066494 </v>
    <v>       0.01481646       0.00899139       0.25033235 </v>
    <v>       0.75338461       0.75016495       0.48582849 </v>
    <v>       0.25388018       0.24528229       0.25057558 </v>
    <v>       0.23834339       0.24264629       0.74868288 </v>
    <v>       0.48803735       0.98419263       0.74733535 </v>
    <v>       0.78088292       0.24937792       0.24862229 </v>
    <v>       0.75910752       0.25707592       0.75043744 </v>
    <v>       0.25342587       0.72529232       0.00206505 </v>
    <v>       0.74958180       0.75053986       0.75872744 </v>
    <v>       0.72526122       0.76398412       0.24901478 </v>
    <v>       0.99494598       0.49700580       0.00036659 </v>
    <v>       0.24644431       0.75212910       0.76530460 </v>
    <v>       0.49339486       0.52418307       0.25096158 </v>
    <v>       0.12030104       0.14175960       0.24801643 </v>
    <v>       0.09329436       0.65701055       0.24927103 </v>
    <v>       0.11545993       0.63909544       0.74507366 </v>
    <v>       0.13025652       0.61773300       0.99846314 </v>
    <v>       0.38806079       0.13868699       0.75351105 </v>
    <v>       0.64207449       0.38314521       0.49898981 </v>
    <v>       0.62564407       0.63369299       0.73092365 </v>
    <v>       0.88398439       0.15807030       0.48247393 </v>
    <v>       0.39070431       0.85393018       0.25195108 </v>
    <v>       0.88240960       0.38349328       0.25490309 </v>
    <v>       0.88325011       0.36797021       0.75629422 </v>
    <v>       0.88172243       0.63240479       0.99670499 </v>
    <v>       0.88215497       0.86133944       0.74410833 </v>
    <v>       0.40760945       0.15009301       0.24890358 </v>
    <v>       0.63886173       0.88533796       0.73974956 </v>
    <v>       0.35226694       0.61664674       0.23497159 </v>
    <v>       0.35834507       0.61259833       0.74790385 </v>
    <v>       0.86776250       0.10525917       0.24635837 </v>
    <v>       0.85260335       0.10668977       0.75704435 </v>
    <v>       0.49966502       0.98240733       0.87233178 </v>
    <v>       0.86682652       0.61922914       0.74063915 </v>
    <v>       0.16127165       0.40038384       0.25206686 </v>
    <v>       0.14515569       0.39254375       0.74872227 </v>
    <v>       0.14791232       0.89745102       0.25761770 </v>
    <v>       0.13273027       0.88123671       0.73563732 </v>
    <v>       0.99260809       0.50433943       0.12977593 </v>
    <v>       0.65133053       0.92906182       0.24865880 </v>
    <v>       0.86712129       0.87494915       0.51500886 </v>
    <v>       0.77017539       0.75582996       0.12995618 </v>
    <v>       0.11427360       0.37445658       0.49469131 </v>
    <v>       0.37190477       0.87340917       0.51711781 </v>
    <v>       0.85998710       0.38163217       0.00020209 </v>
    <v>       0.49482536       0.45033883       0.14669731 </v>
    <v>       0.37333140       0.86190188       0.73087632 </v>
    <v>       0.13901217       0.10399298       0.00127322 </v>
    <v>       0.12884901       0.12241462       0.49343539 </v>
    <v>       0.36498610       0.38172641       0.99665978 </v>
    <v>       0.63950981       0.10966688       0.00351970 </v>
    <v>       0.62792797       0.11624363       0.49336456 </v>
    <v>       0.63624528       0.60889623       0.01264549 </v>
    <v>       0.62688533       0.62510458       0.49655477 </v>
    <v>       0.11186500       0.35912528       0.00092983 </v>
    <v>       0.63949480       0.60642874       0.25006021 </v>
    <v>       0.37739455       0.37589581       0.50057419 </v>
    <v>       0.12708481       0.87179254       0.50977890 </v>
    <v>       0.61398126       0.36195881       0.99762691 </v>
    <v>       0.60685825       0.85469372       0.00321796 </v>
    <v>       0.62271102       0.86456186       0.50576683 </v>
    <v>       0.37924754       0.12327790       0.99135954 </v>
    <v>       0.37730428       0.12425926       0.50317818 </v>
    <v>       0.39436373       0.63826830       0.01092623 </v>
    <v>       0.37986911       0.62903749       0.50436890 </v>
    <v>       0.88703852       0.14099191       0.01027592 </v>
    <v>       0.13434427       0.62826296       0.51891437 </v>
    <v>       0.11206195       0.13231642       0.75356083 </v>
    <v>       0.87032312       0.62116613       0.51244249 </v>
    <v>       0.00246983       0.97055205       0.12599851 </v>
    <v>       0.99254032       0.01644959       0.62467584 </v>
    <v>       0.48876622       0.48305875       0.36799891 </v>
    <v>       0.98653098       0.47635744       0.62128500 </v>
    <v>       0.47693419       0.98706540       0.11980384 </v>
    <v>       0.51672773       0.01973699       0.62860234 </v>
    <v>       0.75409391       0.24473295       0.62476864 </v>
    <v>       0.49192014       0.48813813       0.62570106 </v>
    <v>       0.98687943       0.97798284       0.37198263 </v>
    <v>       0.00994011       0.98474443       0.87645356 </v>
    <v>       0.98956479       0.50993320       0.37924477 </v>
    <v>       0.99982248       0.50224861       0.87208153 </v>
    <v>       0.70737007       0.25693651       0.35326525 </v>
    <v>       0.49892760       0.50368965       0.87102903 </v>
    <v>       0.26175403       0.25692276       0.37210129 </v>
    <v>       0.25305492       0.26066010       0.87184985 </v>
    <v>       0.25283422       0.74353903       0.37330428 </v>
    <v>       0.25406547       0.78793041       0.88915876 </v>
    <v>       0.74018462       0.23684559       0.87556655 </v>
    <v>       0.77930492       0.75309313       0.36661405 </v>
    <v>       0.73953509       0.74048460       0.87743538 </v>
    <v>       0.25887885       0.25411394       0.12504571 </v>
    <v>       0.25453905       0.25713738       0.62712219 </v>
    <v>       0.23862662       0.78734879       0.11293945 </v>
    <v>       0.60754463       0.35560506       0.74915936 </v>
    <v>       0.72568023       0.25339471       0.13504551 </v>
    <v>       0.48896621       0.99023430       0.37850245 </v>
    <v>       0.86861338       0.87930749       0.99352592 </v>
   </varray>
  </structure>
  <varray name="forces" >
   <v>      -0.00344366      -0.01537029       0.00153079 </v>
   <v>      -0.01020955      -0.02304556      -0.01959071 </v>
   <v>       0.01560646       0.02408119       0.01823173 </v>
   <v>      -0.00645348       0.01825620       0.02898974 </v>
   <v>      -0.00149526      -0.02800030       0.02825782 </v>
   <v>      -0.01422261      -0.00712770       0.03145904 </v>
   <v>      -0.01310334       0.00135762      -0.01896448 </v>
   <v>      -0.01586793      -0.00549415      -0.00519034 </v>
   <v>       0.01599129      -0.02985552       0.00943576 </v>
   <v>       0.00639763       0.01283772      -0.01360341 </v>
   <v>       0.00651420       0.01642915      -0.04012682 </v>
   <v>      -0.04001887      -0.01384098      -0.00096044 </v>
   <v>      -0.01432139      -0.02020057       0.00534996 </v>
   <v>      -0.00038269      -0.02834497      -0.01173139 </v>
   <v>      -0.04136701       0.01691621      -0.01007718 </v>
   <v>       0.03732058       0.04103618       0.05537446 </v>
   <v>       0.02652760       0.00600389       0.00813675 </v>
   <v>      -0.01245476       0.00460402       0.00345424 </v>
   <v>       0.01358738      -0.00702584      -0.01257630 </v>
   <v>       0.01534078       0.01318445       0.00902355 </v>
   <v>      -0.01852995       0.00459330      -0.02549173 </v>
   <v>       0.00522780      -0.00363687       0.00948601 </v>
   <v>       0.05023136       0.03364612      -0.01213341 </v>
   <v>       0.01272792      -0.00475775      -0.00358942 </v>
   <v>       0.02065056       0.00594154       0.00655399 </v>
   <v>      -0.02021587       0.00903384       0.01130250 </v>
   <v>       0.04390911       0.01205129      -0.00409768 </v>
   <v>       0.00934982      -0.00579417       0.01837092 </v>
   <v>       0.00878833       0.03977917       0.01314382 </v>
   <v>      -0.00811313      -0.01597915       0.01879239 </v>
   <v>       0.02239753       0.01954739      -0.00952402 </v>
   <v>      -0.01898644       0.00721765      -0.01570632 </v>
   <v>      -0.05918297      -0.07153211      -0.03296016 </v>
   <v>      -0.03488968      -0.02032910      -0.02743735 </v>
   <v>      -0.07988679       0.06664576      -0.00050714 </v>
   <v>      -0.04471443      -0.03244362      -0.03131754 </v>
   <v>      -0.01552052       0.01779667      -0.03978892 </v>
   <v>      -0.04225243      -0.00768805      -0.04141203 </v>
   <v>       0.06856251      -0.05710776       0.00524589 </v>
   <v>       0.03510053      -0.04464908      -0.01549726 </v>
   <v>      -0.01274708      -0.00185648      -0.00796191 </v>
   <v>       0.01030784       0.00461389      -0.00003546 </v>
   <v>      -0.00902784      -0.04117470      -0.00222619 </v>
   <v>       0.01912487      -0.01415518       0.01474040 </v>
   <v>      -0.00204193       0.02852167      -0.00637157 </v>
   <v>       0.01151594      -0.00019548       0.00477229 </v>
   <v>       0.01181857       0.02761329       0.00372758 </v>
   <v>       0.00318256      -0.02693737       0.00533558 </v>
   <v>      -0.03855624      -0.00134434      -0.00495374 </v>
   <v>      -0.00735184       0.01173287       0.01623807 </v>
   <v>       0.03473613       0.00777322       0.00894998 </v>
   <v>      -0.00581728      -0.02090738       0.00061925 </v>
   <v>       0.02936779       0.02188743      -0.00663426 </v>
   <v>      -0.00649158      -0.01809460       0.01723325 </v>
   <v>       0.00253349      -0.00881682      -0.01681313 </v>
   <v>       0.00891660      -0.00276105       0.04634165 </v>
   <v>       0.01616040      -0.00722992       0.01681997 </v>
   <v>      -0.00829905      -0.02341514       0.01174729 </v>
   <v>       0.03279356       0.07637045       0.01248433 </v>
   <v>      -0.00227756      -0.00329286       0.03295675 </v>
   <v>      -0.02084313       0.01797753      -0.02679956 </v>
   <v>       0.01641386       0.02085522      -0.00016435 </v>
   <v>       0.02113203       0.01633042       0.02295614 </v>
   <v>      -0.01456874       0.02904613       0.03473274 </v>
   <v>      -0.01200773       0.01794582      -0.00580517 </v>
   <v>      -0.02244365      -0.01895407      -0.01213330 </v>
   <v>       0.01827560      -0.01326332      -0.01206251 </v>
   <v>      -0.07897139      -0.03148069      -0.02195849 </v>
   <v>      -0.01530971      -0.01540246      -0.02025424 </v>
   <v>       0.03237347       0.04754007      -0.01655475 </v>
   <v>      -0.00010471      -0.03391263      -0.00265898 </v>
   <v>      -0.02514280       0.03135874       0.02179456 </v>
   <v>      -0.00847934      -0.00342351       0.00416525 </v>
   <v>       0.01456936       0.00000004      -0.00923701 </v>
   <v>       0.01513156       0.02558806       0.02756112 </v>
   <v>       0.04392996      -0.09138245      -0.00252132 </v>
   <v>      -0.00081146      -0.00122221      -0.01479900 </v>
   <v>      -0.02098369      -0.01693130       0.01998132 </v>
   <v>      -0.02312902      -0.02280207       0.00356463 </v>
   <v>      -0.01725018      -0.02714298       0.01553460 </v>
   <v>       0.00815198       0.00659134      -0.00202742 </v>
   <v>      -0.01686848      -0.02792480      -0.02358474 </v>
   <v>       0.01051290      -0.02570224       0.01761229 </v>
   <v>       0.00522507       0.02536519      -0.04971726 </v>
   <v>       0.03630457      -0.00272550      -0.00630434 </v>
   <v>       0.00726384      -0.03387771      -0.00067033 </v>
   <v>      -0.01759564      -0.00184711       0.00170694 </v>
   <v>      -0.05047864       0.01921580      -0.00380501 </v>
   <v>      -0.00011327      -0.01328108       0.00864037 </v>
   <v>       0.01243427      -0.00589937      -0.05720804 </v>
   <v>       0.02950244       0.01484220      -0.01945567 </v>
   <v>      -0.02528152      -0.00443347      -0.01822392 </v>
   <v>      -0.00795848       0.01915964       0.05272123 </v>
   <v>       0.01394949       0.03781919       0.01873827 </v>
   <v>       0.01798147       0.00181678      -0.00726335 </v>
   <v>       0.03476255       0.01541797      -0.03292741 </v>
   <v>       0.00018251      -0.01851947      -0.02354423 </v>
   <v>      -0.01305982      -0.02632426      -0.01804015 </v>
   <v>       0.00516028      -0.00165048       0.00777358 </v>
   <v>       0.00398457       0.01493946       0.01450824 </v>
   <v>       0.01678375      -0.00660716      -0.00332811 </v>
   <v>       0.06858312       0.07319645       0.01056750 </v>
   <v>      -0.02147131       0.01902419       0.01155616 </v>
   <v>      -0.04596829      -0.01513390       0.02887035 </v>
   <v>       0.00218810       0.00284119       0.01936332 </v>
   <v>       0.00104253       0.06323032      -0.02236416 </v>
   <v>       0.03207263       0.02543178      -0.01152180 </v>
   <v>       0.04004782       0.01071674      -0.01364513 </v>
   <v>      -0.00075408       0.00580489       0.00110849 </v>
[...]
       <r>   -17.7762     0.0000    32.0000 </r>
       <r>   -17.6215     0.0000    32.0000 </r>
       <r>   -17.4668     0.0000    32.0000 </r>
       <r>   -17.3121     0.0000    32.0000 </r>
       <r>   -17.1574     0.0000    32.0000 </r>
       <r>   -17.0027     0.0000    32.0000 </r>
       <r>   -16.8480     0.0000    32.0000 </r>
       <r>   -16.6933     0.0000    32.0000 </r>
       <r>   -16.5386     0.0000    32.0000 </r>
       <r>   -16.3839     0.0000    32.0000 </r>
       <r>   -16.2292     0.0000    32.0000 </r>
       <r>   -16.0744     0.0000    32.0000 </r>
       <r>   -15.9197     0.0000    32.0000 </r>
       <r>   -15.7650     0.0000    32.0000 </r>
       <r>   -15.6103     0.0000    32.0000 </r>
       <r>   -15.4556     0.0000    32.0000 </r>
       <r>   -15.3009     0.0000    32.0000 </r>
       <r>   -15.1462     0.0002    32.0000 </r>
       <r>   -14.9915     7.8528    33.2149 </r>
       <r>   -14.8368    39.2880    39.2929 </r>
       <r>   -14.6821    41.6798    45.7410 </r>
       <r>   -14.5274    41.5997    52.1767 </r>
       <r>   -14.3727    36.3124    57.7944 </r>
       <r>   -14.2180    42.0994    64.3073 </r>
       <r>   -14.0633    72.2754    75.4887 </r>
       <r>   -13.9086    78.8287    87.6839 </r>
       <r>   -13.7539    67.8531    98.1811 </r>
       <r>   -13.5992    52.0694   106.2364 </r>
       <r>   -13.4445    49.4611   113.8883 </r>
       <r>   -13.2898    13.6007   115.9924 </r>
       <r>   -13.1351     0.0491   116.0000 </r>
       <r>   -12.9804     0.0001   116.0000 </r>
       <r>   -12.8256     3.8163   116.5904 </r>
       <r>   -12.6709    41.2080   122.9655 </r>
       <r>   -12.5162    93.3698   137.4102 </r>
       <r>   -12.3615   113.0218   154.8952 </r>
       <r>   -12.2068   114.0473   172.5389 </r>
       <r>   -12.0521    95.6715   187.3397 </r>
       <r>   -11.8974    89.4343   201.1756 </r>
       <r>   -11.7427    46.7988   208.4156 </r>
       <r>   -11.5880    18.7934   211.3231 </r>
       <r>   -11.4333     4.3756   212.0000 </r>
       <r>   -11.2786     0.0000   212.0000 </r>
       <r>   -11.1239     0.0000   212.0000 </r>
       <r>   -10.9692     0.0000   212.0000 </r>
       <r>   -10.8145     0.0000   212.0000 </r>
       <r>   -10.6598     0.0000   212.0000 </r>
       <r>   -10.5051     0.0000   212.0000 </r>
       <r>   -10.3504     0.0000   212.0000 </r>
       <r>   -10.1957     0.0000   212.0000 </r>
       <r>   -10.0410     0.0000   212.0000 </r>
       <r>    -9.8863     0.0000   212.0000 </r>
       <r>    -9.7316     0.0000   212.0000 </r>
       <r>    -9.5769     0.0000   212.0000 </r>
       <r>    -9.4221     0.0000   212.0000 </r>
       <r>    -9.2674     0.0000   212.0000 </r>
       <r>    -9.1127     0.0000   212.0000 </r>
       <r>    -8.9580     0.0000   212.0000 </r>
       <r>    -8.8033     0.0000   212.0000 </r>
       <r>    -8.6486     0.0000   212.0000 </r>
       <r>    -8.4939     0.0000   212.0000 </r>
       <r>    -8.3392     0.0000   212.0000 </r>
       <r>    -8.1845     0.0000   212.0000 </r>
       <r>    -8.0298     0.0000   212.0000 </r>
       <r>    -7.8751     0.0000   212.0000 </r>
       <r>    -7.7204     0.0000   212.0000 </r>
       <r>    -7.5657     0.0000   212.0000 </r>
       <r>    -7.4110     0.0000   212.0000 </r>
       <r>    -7.2563     0.0000   212.0000 </r>
       <r>    -7.1016     0.0000   212.0000 </r>
       <r>    -6.9469     0.0000   212.0000 </r>
       <r>    -6.7922     0.0000   212.0000 </r>
       <r>    -6.6375     0.0000   212.0000 </r>
       <r>    -6.4828     0.0000   212.0000 </r>
       <r>    -6.3281     0.0000   212.0000 </r>
       <r>    -6.1733     0.0000   212.0000 </r>
       <r>    -6.0186     0.0000   212.0000 </r>
       <r>    -5.8639     0.0000   212.0000 </r>
       <r>    -5.7092     0.0000   212.0000 </r>
       <r>    -5.5545     0.0000   212.0000 </r>
       <r>    -5.3998     0.0000   212.0000 </r>
       <r>    -5.2451     0.0000   212.0000 </r>
       <r>    -5.0904     0.0000   212.0000 </r>
       <r>    -4.9357     0.0000   212.0000 </r>
       <r>    -4.7810     0.0000   212.0000 </r>
       <r>    -4.6263     0.0000   212.0000 </r>
       <r>    -4.4716     0.0000   212.0000 </r>
       <r>    -4.3169     0.0000   212.0000 </r>
       <r>    -4.1622     0.0000   212.0000 </r>
       <r>    -4.0075     0.0000   212.0000 </r>
       <r>    -3.8528     0.0000   212.0000 </r>
       <r>    -3.6981     0.0000   212.0000 </r>
       <r>    -3.5434     0.0000   212.0000 </r>
       <r>    -3.3887     0.0000   212.0000 </r>
       <r>    -3.2340     0.0000   212.0000 </r>
       <r>    -3.0793     0.0000   212.0000 </r>
       <r>    -2.9245     0.0000   212.0000 </r>
       <r>    -2.7698     0.0000   212.0000 </r>
       <r>    -2.6151     0.0039   212.0006 </r>
       <r>    -2.4604     5.5468   212.8587 </r>
       <r>    -2.3057     9.4365   214.3186 </r>
       <r>    -2.1510    18.9977   217.2576 </r>
       <r>    -1.9963    23.8986   220.9549 </r>
       <r>    -1.8416    26.8169   225.1036 </r>
       <r>    -1.6869    26.4918   229.2020 </r>
       <r>    -1.5322    27.7281   233.4916 </r>
       <r>    -1.3775    28.3058   237.8707 </r>
       <r>    -1.2228    47.7809   245.2626 </r>
       <r>    -1.0681    56.4921   254.0022 </r>
       <r>    -0.9134    74.4988   265.5275 </r>
       <r>    -0.7587    83.5729   278.4566 </r>
       <r>    -0.6040    94.7324   293.1122 </r>
       <r>    -0.4493    92.3099   307.3930 </r>
       <r>    -0.2946    73.9333   318.8308 </r>
       <r>    -0.1399    59.1548   327.9823 </r>
       <r>     0.0148    54.3594   336.3920 </r>
       <r>     0.1695    56.1110   345.0726 </r>
       <r>     0.3243    59.6969   354.3080 </r>
       <r>     0.4790    61.8889   363.8825 </r>
       <r>     0.6337    57.7551   372.8175 </r>
       <r>     0.7884    54.7876   381.2934 </r>
       <r>     0.9431    56.2798   390.0002 </r>
       <r>     1.0978    47.9825   397.4233 </r>
       <r>     1.2525    54.1795   405.8051 </r>
       <r>     1.4072    64.3412   415.7590 </r>
       <r>     1.5619    70.4793   426.6625 </r>
       <r>     1.7166    68.8983   437.3214 </r>
       <r>     1.8713    64.0381   447.2284 </r>
       <r>     2.0260    46.8680   454.4791 </r>
       <r>     2.1807    30.7030   459.2290 </r>
       <r>     2.3354    19.3447   462.2217 </r>
       <r>     2.4901    13.1727   464.2596 </r>
       <r>     2.6448     4.7856   464.9999 </r>
       <r>     2.7995     0.0005   465.0000 </r>
       <r>     2.9542     0.0000   465.0000 </r>
       <r>     3.1089     0.0000   465.0000 </r>
       <r>     3.2636     0.0000   465.0000 </r>
       <r>     3.4183     0.0000   465.0000 </r>
       <r>     3.5731     0.0000   465.0000 </r>
       <r>     3.7278     0.0000   465.0000 </r>
       <r>     3.8825     0.0000   465.0000 </r>
       <r>     4.0372     0.0000   465.0000 </r>
       <r>     4.1919     0.4469   465.0691 </r>
       <r>     4.3466    16.4567   467.6151 </r>
       <r>     4.5013    36.1818   473.2126 </r>
       <r>     4.6560    61.3647   482.7060 </r>
       <r>     4.8107    63.2838   492.4963 </r>
       <r>     4.9654    69.0788   503.1831 </r>
       <r>     5.1201    68.2416   513.7404 </r>
       <r>     5.2748    77.4659   525.7247 </r>
       <r>     5.4295    92.4739   540.0309 </r>
       <r>     5.5842    89.1934   553.8295 </r>
       <r>     5.7389    59.6989   563.0652 </r>
       <r>     5.8936    45.4736   570.1002 </r>
       <r>     6.0483    70.6360   581.0279 </r>
       <r>     6.2030    74.7148   592.5867 </r>
       <r>     6.3577    29.4481   597.1424 </r>
       <r>     6.5124    18.8150   600.0532 </r>
       <r>     6.6671    20.8828   603.2839 </r>
       <r>     6.8219     7.0136   604.3689 </r>
       <r>     6.9766     8.8814   605.7429 </r>
       <r>     7.1313    16.0671   608.2286 </r>
       <r>     7.2860    16.9837   610.8560 </r>
       <r>     7.4407    17.2840   613.5299 </r>
       <r>     7.5954    17.9654   616.3092 </r>
       <r>     7.7501    15.7509   618.7460 </r>
       <r>     7.9048    21.1343   622.0155 </r>
       <r>     8.0595    23.4875   625.6492 </r>
       <r>     8.2142    24.0160   629.3646 </r>
       <r>     8.3689    29.8551   633.9833 </r>
       <r>     8.5236    26.1463   638.0282 </r>
       <r>     8.6783    22.6137   641.5267 </r>
       <r>     8.8330    25.0745   645.4058 </r>
       <r>     8.9877    30.5599   650.1336 </r>
       <r>     9.1424    32.3508   655.1384 </r>
       <r>     9.2971    34.8887   660.5358 </r>
       <r>     9.4518    42.3161   667.0823 </r>
       <r>     9.6065    44.4906   673.9653 </r>
       <r>     9.7612    50.5343   681.7832 </r>
       <r>     9.9159    55.2412   690.3292 </r>
       <r>    10.0707    56.3160   699.0416 </r>
       <r>    10.2254    55.7875   707.6722 </r>
       <r>    10.3801    51.5391   715.6455 </r>
       <r>    10.5348    53.7251   723.9571 </r>
       <r>    10.6895    58.2786   732.9730 </r>
       <r>    10.8442    46.2240   740.1241 </r>
       <r>    10.9989    51.9384   748.1592 </r>
       <r>    11.1536    54.1717   756.5399 </r>
       <r>    11.3083    53.8025   764.8633 </r>
       <r>    11.4630    20.2616   767.9979 </r>
       <r>    11.6177     0.0135   768.0000 </r>
       <r>    11.7724     0.0000   768.0000 </r>
       <r>    11.9271     0.0000   768.0000 </r>
       <r>    12.0818     0.0000   768.0000 </r>
       <r>    12.2365     0.0000   768.0000 </r>
       <r>    12.3912     0.0000   768.0000 </r>
       <r>    12.5459     0.0000   768.0000 </r>
       <r>    12.7006     0.0000   768.0000 </r>
       <r>    12.8553     0.0000   768.0000 </r>
       <r>    13.0100     0.0000   768.0000 </r>
       <r>    13.1647     0.0000   768.0000 </r>
       <r>    13.3194     0.0000   768.0000 </r>
       <r>    13.4742     0.0000   768.0000 </r>
      </set>
     </set>
    </array>
   </total>
  </dos>
 </calculation>
 <structure name="finalpos" >
  <crystal>
   <varray name="basis" >
    <v>      11.20266729       0.03652265      -0.00768942 </v>
    <v>       0.03640684      11.23019095       0.00244598 </v>
    <v>      -0.01097259       0.00342129      15.78449497 </v>
   </varray>
   <i name="volume">   1985.79517710 </i>
   <varray name="rec_basis" >
    <v>       0.08926544      -0.00028940       0.00006212 </v>
    <v>      -0.00029032       0.08904663      -0.00001950 </v>
    <v>       0.00004353      -0.00001394       0.06335334 </v>
   </varray>
  </crystal>
  <varray name="positions" >
   <v>       0.00792706       0.25823295       0.12107209 </v>
   <v>       0.00354209       0.24509408       0.62093648 </v>
   <v>       0.00074883       0.74059611       0.11445117 </v>
   <v>      -0.00034986       0.75847134       0.62526595 </v>
   <v>       0.49616346       0.23778297       0.11272020 </v>
   <v>       0.49378951       0.24713371       0.62343054 </v>
   <v>       0.49806096       0.75377368       0.12346119 </v>
   <v>       0.50082965       0.74722462       0.62394489 </v>
   <v>       0.02161034       0.25340679       0.37663826 </v>
   <v>       0.99664062       0.25255472       0.87614518 </v>
   <v>       0.00796003       0.75571894       0.38679163 </v>
   <v>       0.98749836       0.74334091       0.87115516 </v>
   <v>       0.49112663       0.24170284       0.38585151 </v>
   <v>       0.49835455       0.25071829       0.87724753 </v>
   <v>       0.49154921       0.75654226       0.38805248 </v>
   <v>       0.50424154       0.74397930       0.87289244 </v>
   <v>       0.24835621       0.01238971       0.13017577 </v>
   <v>       0.24395935       0.00852711       0.62165321 </v>
   <v>       0.25461222       0.48886239       0.11797238 </v>
   <v>       0.24987165       0.49346268       0.62330177 </v>
   <v>       0.76186787      -0.00033089       0.11913932 </v>
   <v>       0.75253233       0.00222559       0.62470336 </v>
   <v>       0.74874381       0.49282312       0.12106443 </v>
   <v>       0.74961923       0.49258030       0.62834956 </v>
   <v>       0.24950557       0.00361804       0.38606526 </v>
   <v>       0.24904870       0.01531530       0.86627094 </v>
   <v>       0.25200623       0.49806727       0.38458760 </v>
   <v>       0.24249788       0.49267423       0.87544394 </v>
   <v>       0.75671970       0.01023380       0.37912245 </v>
   <v>       0.74737645       0.99077841       0.87613827 </v>
   <v>       0.74807552       0.50469883       0.37646562 </v>
   <v>       0.75057354       0.49844088       0.87843770 </v>
   <v>       0.74690350       0.25040032       0.99884330 </v>
   <v>       0.00100522       0.50200626       0.74794415 </v>
   <v>       0.74809258       0.74517397       0.00556155 </v>
   <v>       0.50211755       0.49838734       0.50189191 </v>
   <v>       0.50012392       0.99734488       0.50471719 </v>
   <v>       0.99421204       0.99592909       0.74973562 </v>
   <v>       0.25111068       0.24742003       0.99747582 </v>
   <v>       0.24338793       0.75583760       0.24785865 </v>
   <v>       0.99127727       0.00769057       0.00066224 </v>
   <v>       0.01053443       0.51514565       0.50413538 </v>
   <v>       0.51062595       0.00339436       0.99873531 </v>
   <v>       0.02224569       0.49653487       0.25090568 </v>
   <v>       0.50171655       0.49481208       0.99661045 </v>
   <v>       0.51058818       0.51036708       0.74810930 </v>
   <v>       0.25098399       0.25094584       0.50087084 </v>
   <v>       0.49067345       0.98895502       0.25005849 </v>
   <v>       0.25092552       0.75198953       0.49351487 </v>
   <v>       0.99945973       0.00325460       0.49950841 </v>
   <v>       0.73757864       0.24110667       0.50308801 </v>
   <v>       0.01438898       0.00927636       0.24995055 </v>
   <v>       0.75365183       0.75167783       0.48585351 </v>
   <v>       0.25345532       0.24462547       0.25054904 </v>
   <v>       0.23716219       0.24210937       0.74851848 </v>
   <v>       0.48683051       0.98357906       0.74736116 </v>
   <v>       0.78248277       0.24979469       0.24755850 </v>
   <v>       0.75757864       0.25650530       0.75176861 </v>
   <v>       0.25333405       0.72668465       0.00141555 </v>
   <v>       0.74912083       0.74930559       0.75889784 </v>
   <v>       0.72328667       0.76612985       0.24886795 </v>
   <v>       0.99588045       0.49730773      -0.00012872 </v>
   <v>       0.24680611       0.75169871       0.76483345 </v>
   <v>       0.49443822       0.52484417       0.25088081 </v>
   <v>       0.11913028       0.14236724       0.24674515 </v>
   <v>       0.09419455       0.65629112       0.24757555 </v>
   <v>       0.11737450       0.63735853       0.74373138 </v>
   <v>       0.12604679       0.62378970       0.99663339 </v>
   <v>       0.38388957       0.13596524       0.75269064 </v>
   <v>       0.64735010       0.38702189       0.49766081 </v>
   <v>       0.62797540       0.63017358       0.73071791 </v>
   <v>       0.88363042       0.16144736       0.48360603 </v>
   <v>       0.39046827       0.85294733       0.25350780 </v>
   <v>       0.88551875       0.38273355       0.25561288 </v>
   <v>       0.87961833       0.36999099       0.75919002 </v>
   <v>       0.87776963       0.62847239       0.99842847 </v>
   <v>       0.87976849       0.86214781       0.74465835 </v>
   <v>       0.40482349       0.14651009       0.24922561 </v>
   <v>       0.63583668       0.88132597       0.73993832 </v>
   <v>       0.35194169       0.61581573       0.23523621 </v>
   <v>       0.36018808       0.61274780       0.74705511 </v>
   <v>       0.86734731       0.10426698       0.24439089 </v>
   <v>       0.85242998       0.10637692       0.75797400 </v>
   <v>       0.50166306       0.98612740       0.87153944 </v>
   <v>       0.86929104       0.62108330       0.73992779 </v>
   <v>       0.16326987       0.40012078       0.25232745 </v>
   <v>       0.14350759       0.39129743       0.74896932 </v>
   <v>       0.14575308       0.89567467       0.25867611 </v>
   <v>       0.13138816       0.88001528       0.73588728 </v>
   <v>       0.99432697       0.50292755       0.12886174 </v>
   <v>       0.65245613       0.93155311       0.24825934 </v>
   <v>       0.86767440       0.87650266       0.51417656 </v>
   <v>       0.77050122       0.75866168       0.13001557 </v>
   <v>       0.11764723       0.37722890       0.49490286 </v>
   <v>       0.37317170       0.87202290       0.51612504 </v>
   <v>       0.86288002       0.37906206      -0.00238337 </v>
   <v>       0.49313960       0.44900431       0.14736594 </v>
   <v>       0.37174374       0.86209894       0.72915434 </v>
   <v>       0.13844245       0.10542926       0.00182004 </v>
   <v>       0.12820301       0.12405627       0.49521352 </v>
   <v>       0.36739157       0.37940243       0.99594020 </v>
   <v>       0.63819341       0.11086293       0.00589541 </v>
   <v>       0.62609855       0.11965175       0.49425415 </v>
   <v>       0.63259157       0.61126008       0.01518154 </v>
   <v>       0.62498005       0.62783158       0.49667282 </v>
   <v>       0.11515944       0.36213336       0.00047154 </v>
   <v>       0.64061652       0.60709372       0.24821749 </v>
   <v>       0.38125611       0.37349250       0.49965467 </v>
   <v>       0.12781120       0.87357564       0.50889032 </v>
   <v>       0.61590159       0.36387017       0.99695342 </v>
   <v>       0.60703121       0.85570716       0.00177437 </v>
   <v>       0.62426498       0.86681724       0.50805625 </v>
   <v>       0.37876581       0.12211286       0.99186846 </v>
   <v>       0.37642090       0.12280385       0.50312098 </v>
   <v>       0.39120432       0.63508907       0.01057892 </v>
   <v>       0.37793704       0.62662690       0.50595428 </v>
   <v>       0.88557343       0.13864051       0.00843685 </v>
   <v>       0.13251986       0.63093664       0.52235227 </v>
   <v>       0.11033971       0.13243133       0.75285520 </v>
   <v>       0.86880974       0.62136217       0.51261270 </v>
   <v>       0.00331536       0.97033857       0.12506297 </v>
   <v>       0.99121951       0.01523985       0.62500673 </v>
   <v>       0.48963130       0.48462440       0.36808901 </v>
   <v>       0.98373497       0.47315916       0.62144028 </v>
   <v>       0.47649796       0.98477673       0.11987813 </v>
   <v>       0.51683616       0.02026082       0.62931615 </v>
   <v>       0.75237993       0.24469479       0.62649443 </v>
   <v>       0.49370030       0.48607393       0.62550635 </v>
   <v>       0.98703457       0.98248776       0.37232537 </v>
   <v>       0.01221511       0.98335362       0.87658460 </v>
   <v>       0.99170571       0.51299822       0.37924337 </v>
   <v>       0.00093000       0.50376157       0.87187116 </v>
   <v>       0.70531287       0.25496099       0.35020213 </v>
   <v>       0.49958620       0.50525842       0.87116098 </v>
   <v>       0.26058430       0.25488202       0.37235883 </v>
   <v>       0.25235601       0.25944649       0.87160878 </v>
   <v>       0.25179423       0.74035048       0.37390127 </v>
   <v>       0.25894966       0.78834508       0.88826683 </v>
   <v>       0.73685844       0.23351939       0.87574812 </v>
   <v>       0.77804487       0.75406147       0.36652002 </v>
   <v>       0.73919377       0.73772268       0.87755817 </v>
   <v>       0.25970791       0.25437801       0.12503465 </v>
   <v>       0.25523938       0.25866526       0.62734995 </v>
   <v>       0.24119398       0.78765950       0.11291432 </v>
   <v>       0.60379043       0.35229508       0.75067913 </v>
   <v>       0.72818007       0.25640659       0.13375874 </v>
   <v>       0.49203882       0.98997007       0.37902170 </v>
   <v>       0.86970100       0.87711564       0.99243633 </v>
  </varray>
 </structure>
</modeling>
