       N       E                     dE             d eps       ncg     rms          rms(c)
DAV:   1    -0.108934959523E+04   -0.10893E+04   -0.12677E-01 13576   0.820E-01    0.213E-02
RMM:   2    -0.108934960118E+04   -0.59534E-05   -0.63005E-05  7246   0.141E-02    0.236E-02
RMM:   3    -0.108934960379E+04   -0.26076E-05   -0.27630E-05  7052   0.863E-03    0.122E-02
RMM:   4    -0.108934960670E+04   -0.29120E-05   -0.19148E-05  6459   0.590E-03    0.140E-02
RMM:   5    -0.108934960825E+04   -0.15493E-05   -0.11694E-05  5898   0.485E-03    0.616E-03
RMM:   6    -0.108934960925E+04   -0.99842E-06   -0.78831E-06  5182   0.382E-03    0.507E-03
RMM:   7    -0.108934960974E+04   -0.49049E-06   -0.53537E-06  4510   0.335E-03    0.371E-03
RMM:   8    -0.108934960998E+04   -0.23888E-06   -0.32198E-06  3684   0.287E-03
   1 F= -.10893496E+04 E0= -.10893496E+04  d E =-.108935E+04  mag=    60.0000
       N       E                     dE             d eps       ncg     rms          rms(c)
DAV:   1    -0.108935090989E+04   -0.13001E-02   -0.30574E+00 12416   0.208E+00    0.871E-01
RMM:   2    -0.108935869448E+04   -0.77846E-02   -0.93374E-02 12357   0.426E-01    0.622E-01
RMM:   3    -0.108935884040E+04   -0.14592E-03   -0.58092E-03 13198   0.131E-01    0.356E-01
RMM:   4    -0.108935800148E+04    0.83892E-03   -0.19758E-03 12919   0.522E-02    0.191E-01
RMM:   5    -0.108935780458E+04    0.19690E-03   -0.61634E-04 10692   0.305E-02    0.811E-02
RMM:   6    -0.108935780017E+04    0.44166E-05   -0.83949E-05  7832   0.125E-02    0.611E-02
RMM:   7    -0.108935779969E+04    0.47174E-06   -0.31669E-05  7341   0.889E-03    0.339E-02
RMM:   8    -0.108935779817E+04    0.15232E-05   -0.21860E-05  7248   0.621E-03
   2 F= -.10893578E+04 E0= -.10893578E+04  d E =-.818819E-02  mag=    60.0000
       N       E                     dE             d eps       ncg     rms          rms(c)
DAV:   1    -0.108935781174E+04   -0.12048E-04   -0.16110E-02 13928   0.151E-01    0.670E-02
RMM:   2    -0.108935785057E+04   -0.38827E-04   -0.47546E-04 10607   0.316E-02    0.489E-02
RMM:   3    -0.108935785185E+04   -0.12836E-05   -0.29344E-05  7019   0.109E-02    0.269E-02
RMM:   4    -0.108935784815E+04    0.37051E-05   -0.11340E-05  6861   0.509E-03    0.150E-02
RMM:   5    -0.108935784750E+04    0.64436E-06   -0.47972E-06  5889   0.345E-03    0.836E-03
RMM:   6    -0.108935784765E+04   -0.14776E-06   -0.79390E-07  3273   0.225E-03    0.352E-03
RMM:   7    -0.108935784772E+04   -0.71042E-07   -0.77841E-08  1815   0.184E-03    0.196E-03
RMM:   8    -0.108935784779E+04   -0.72032E-07   -0.41069E-08  1685   0.188E-03
   3 F= -.10893578E+04 E0= -.10893578E+04  d E =-.823782E-02  mag=    60.0000
       N       E                     dE             d eps       ncg     rms          rms(c)
DAV:   1    -0.108935892627E+04   -0.10785E-02   -0.26936E+00 12336   0.196E+00    0.565E-01
RMM:   2    -0.108936575601E+04   -0.68297E-02   -0.72668E-02 12398   0.369E-01    0.383E-01
RMM:   3    -0.108936593613E+04   -0.18011E-03   -0.43328E-03 12982   0.116E-01    0.237E-01
RMM:   4    -0.108936566453E+04    0.27160E-03   -0.89460E-04 13170   0.352E-02    0.129E-01
RMM:   5    -0.108936558806E+04    0.76465E-04   -0.38262E-04  9535   0.219E-02    0.416E-02
RMM:   6    -0.108936559253E+04   -0.44676E-05   -0.52132E-05  7292   0.124E-02    0.378E-02
RMM:   7    -0.108936559565E+04   -0.31248E-05   -0.27980E-05  7204   0.714E-03    0.176E-02
RMM:   8    -0.108936559737E+04   -0.17180E-05   -0.15673E-05  7050   0.661E-03
   4 F= -.10893656E+04 E0= -.10893656E+04  d E =-.774958E-02  mag=    60.0000
       N       E                     dE             d eps       ncg     rms          rms(c)
DAV:   1    -0.108935913872E+04    0.64569E-02   -0.39293E+00 12288   0.237E+00    0.681E-01
RMM:   2    -0.108936916069E+04   -0.10022E-01   -0.10655E-01 12404   0.447E-01    0.462E-01
RMM:   3    -0.108936942702E+04   -0.26633E-03   -0.64409E-03 13235   0.140E-01    0.287E-01
RMM:   4    -0.108936903518E+04    0.39184E-03   -0.13865E-03 14469   0.423E-02    0.156E-01
RMM:   5    -0.108936892691E+04    0.10827E-03   -0.59899E-04 11342   0.250E-02    0.476E-02
RMM:   6    -0.108936892921E+04   -0.22988E-05   -0.61176E-05  7339   0.126E-02    0.398E-02
RMM:   7    -0.108936893279E+04   -0.35785E-05   -0.32179E-05  7250   0.789E-03    0.207E-02
RMM:   8    -0.108936893532E+04   -0.25358E-05   -0.21820E-05  7184   0.733E-03
   5 F= -.10893689E+04 E0= -.10893689E+04  d E =-.110875E-01  mag=    60.0000
       N       E                     dE             d eps       ncg     rms          rms(c)
DAV:   1    -0.108936671678E+04    0.22160E-02   -0.32850E+00 12512   0.215E+00    0.570E-01
RMM:   2    -0.108937537543E+04   -0.86586E-02   -0.86790E-02 12468   0.397E-01    0.387E-01
RMM:   3    -0.108937569207E+04   -0.31665E-03   -0.50769E-03 13109   0.125E-01    0.233E-01
RMM:   4    -0.108937546224E+04    0.22983E-03   -0.97725E-04 13575   0.365E-02    0.136E-01
RMM:   5    -0.108937538753E+04    0.74710E-04   -0.47948E-04 10654   0.223E-02    0.384E-02
RMM:   6    -0.108937539047E+04   -0.29342E-05   -0.54232E-05  7306   0.121E-02    0.274E-02
RMM:   7    -0.108937539317E+04   -0.27015E-05   -0.31111E-05  7174   0.717E-03    0.171E-02
RMM:   8    -0.108937539431E+04   -0.11367E-05   -0.18692E-05  7044   0.661E-03
   6 F= -.10893754E+04 E0= -.10893754E+04  d E =-.645898E-02  mag=    60.0000
       N       E                     dE             d eps       ncg     rms          rms(c)
DAV:   1    -0.108937041076E+04    0.49824E-02   -0.25715E+00 12544   0.190E+00    0.502E-01
RMM:   2    -0.108937720354E+04   -0.67928E-02   -0.68029E-02 12461   0.351E-01    0.341E-01
RMM:   3    -0.108937745593E+04   -0.25239E-03   -0.40185E-03 13056   0.110E-01    0.206E-01
RMM:   4    -0.108937727276E+04    0.18317E-03   -0.73729E-04 12505   0.322E-02    0.120E-01
RMM:   5    -0.108937721411E+04    0.58655E-04   -0.37579E-04  9710   0.208E-02    0.366E-02
RMM:   6    -0.108937721758E+04   -0.34731E-05   -0.51001E-05  7286   0.120E-02    0.290E-02
RMM:   7    -0.108937722024E+04   -0.26655E-05   -0.29187E-05  7140   0.701E-03    0.153E-02
RMM:   8    -0.108937722127E+04   -0.10248E-05   -0.16711E-05  6992   0.640E-03
   7 F= -.10893772E+04 E0= -.10893772E+04  d E =-.828595E-02  mag=    60.0000
       N       E                     dE             d eps       ncg     rms          rms(c)
DAV:   1    -0.108937163482E+04    0.55854E-02   -0.43846E+00 12288   0.246E+00    0.670E-01
RMM:   2    -0.108938317113E+04   -0.11536E-01   -0.11375E-01 12555   0.448E-01    0.436E-01
RMM:   3    -0.108938351953E+04   -0.34840E-03   -0.63252E-03 13033   0.141E-01    0.245E-01
RMM:   4    -0.108938320300E+04    0.31653E-03   -0.13512E-03 14193   0.425E-02    0.140E-01
RMM:   5    -0.108938310260E+04    0.10040E-03   -0.52593E-04 11199   0.240E-02    0.497E-02
RMM:   6    -0.108938311039E+04   -0.77855E-05   -0.64973E-05  7319   0.125E-02    0.338E-02
RMM:   7    -0.108938311534E+04   -0.49514E-05   -0.36607E-05  7222   0.786E-03    0.190E-02
RMM:   8    -0.108938311916E+04   -0.38258E-05   -0.23034E-05  7151   0.740E-03
   8 F= -.10893831E+04 E0= -.10893831E+04  d E =-.589789E-02  mag=    60.0000
       N       E                     dE             d eps       ncg     rms          rms(c)
DAV:   1    -0.108937562898E+04    0.74864E-02   -0.35639E+00 12288   0.222E+00    0.604E-01
RMM:   2    -0.108938501780E+04   -0.93888E-02   -0.92551E-02 12557   0.404E-01    0.395E-01
RMM:   3    -0.108938530102E+04   -0.28322E-03   -0.51728E-03 12995   0.127E-01    0.222E-01
RMM:   4    -0.108938504331E+04    0.25771E-03   -0.10804E-03 13749   0.383E-02    0.128E-01
RMM:   5    -0.108938496141E+04    0.81906E-04   -0.43173E-04 10340   0.226E-02    0.461E-02
RMM:   6    -0.108938496939E+04   -0.79843E-05   -0.62376E-05  7303   0.123E-02    0.337E-02
RMM:   7    -0.108938497406E+04   -0.46664E-05   -0.35280E-05  7214   0.780E-03    0.181E-02
RMM:   8    -0.108938497754E+04   -0.34829E-05   -0.21250E-05  7118   0.714E-03
   9 F= -.10893850E+04 E0= -.10893850E+04  d E =-.775627E-02  mag=    60.0000
       N       E                     dE             d eps       ncg     rms          rms(c)
DAV:   1    -0.108937892950E+04    0.60446E-02   -0.46563E+00 12384   0.251E+00    0.616E-01
RMM:   2    -0.108939084247E+04   -0.11913E-01   -0.11807E-01 12715   0.448E-01    0.382E-01
RMM:   3    -0.108939108485E+04   -0.24238E-03   -0.61432E-03 13254   0.138E-01    0.217E-01
RMM:   4    -0.108939080823E+04    0.27662E-03   -0.13456E-03 13825   0.421E-02    0.120E-01
RMM:   5    -0.108939074090E+04    0.67330E-04   -0.43584E-04 10866   0.221E-02    0.416E-02
RMM:   6    -0.108939074469E+04   -0.37886E-05   -0.67643E-05  7310   0.123E-02    0.263E-02
RMM:   7    -0.108939074762E+04   -0.29383E-05   -0.38154E-05  7216   0.790E-03    0.198E-02
RMM:   8    -0.108939074777E+04   -0.14676E-06   -0.22977E-05  7037   0.700E-03
  10 F= -.10893907E+04 E0= -.10893907E+04  d E =-.577023E-02  mag=    60.0000
       N       E                     dE             d eps       ncg     rms          rms(c)
DAV:   1    -0.108937542017E+04    0.15327E-01   -0.71731E+00 12416   0.312E+00    0.762E-01
RMM:   2    -0.108939376402E+04   -0.18344E-01   -0.18165E-01 12701   0.556E-01    0.472E-01
RMM:   3    -0.108939415209E+04   -0.38806E-03   -0.95163E-03 13301   0.172E-01    0.270E-01
RMM:   4    -0.108939373304E+04    0.41905E-03   -0.21207E-03 14715   0.520E-02    0.150E-01
RMM:   5    -0.108939362640E+04    0.10663E-03   -0.67228E-04 12006   0.259E-02    0.501E-02
RMM:   6    -0.108939363130E+04   -0.49004E-05   -0.96077E-05  7435   0.130E-02    0.304E-02
RMM:   7    -0.108939363477E+04   -0.34637E-05   -0.47383E-05  7261   0.875E-03    0.225E-02
RMM:   8    -0.108939363532E+04   -0.55577E-06   -0.32478E-05  7178   0.756E-03
  11 F= -.10893936E+04 E0= -.10893936E+04  d E =-.865778E-02  mag=    60.0000
       N       E                     dE             d eps       ncg     rms          rms(c)
DAV:   1    -0.108938353463E+04    0.10100E-01   -0.63690E+00 12496   0.289E+00    0.642E-01
RMM:   2    -0.108939956108E+04   -0.16026E-01   -0.15918E-01 12730   0.513E-01    0.409E-01
RMM:   3    -0.108939977258E+04   -0.21150E-03   -0.81222E-03 13267   0.155E-01    0.242E-01
RMM:   4    -0.108939941673E+04    0.35586E-03   -0.16800E-03 13937   0.462E-02    0.136E-01
RMM:   5    -0.108939933254E+04    0.84190E-04   -0.61376E-04 11699   0.248E-02    0.389E-02
RMM:   6    -0.108939933911E+04   -0.65699E-05   -0.83525E-05  7380   0.130E-02    0.285E-02
RMM:   7    -0.108939934298E+04   -0.38746E-05   -0.44969E-05  7222   0.815E-03    0.202E-02
RMM:   8    -0.108939934391E+04   -0.92968E-06   -0.29175E-05  7099   0.766E-03
  12 F= -.10893993E+04 E0= -.10893993E+04  d E =-.570859E-02  mag=    60.0000
       N       E                     dE             d eps       ncg     rms          rms(c)
DAV:   1    -0.108938715783E+04    0.12185E-01   -0.56761E+00 12496   0.273E+00    0.605E-01
RMM:   2    -0.108940146100E+04   -0.14303E-01   -0.14204E-01 12735   0.485E-01    0.386E-01
RMM:   3    -0.108940164858E+04   -0.18758E-03   -0.72667E-03 13269   0.147E-01    0.229E-01
RMM:   4    -0.108940132841E+04    0.32017E-03   -0.14874E-03 13736   0.436E-02    0.129E-01
RMM:   5    -0.108940125376E+04    0.74658E-04   -0.54704E-04 11442   0.237E-02    0.371E-02
RMM:   6    -0.108940125992E+04   -0.61672E-05   -0.76320E-05  7349   0.126E-02    0.274E-02
RMM:   7    -0.108940126357E+04   -0.36448E-05   -0.41467E-05  7206   0.800E-03    0.191E-02
RMM:   8    -0.108940126450E+04   -0.93190E-06   -0.27308E-05  7079   0.740E-03
  13 F= -.10894013E+04 E0= -.10894013E+04  d E =-.762918E-02  mag=    60.0000
       N       E                     dE             d eps       ncg     rms          rms(c)
DAV:   1    -0.108938559818E+04    0.15665E-01   -0.84184E+00 12288   0.331E+00    0.785E-01
RMM:   2    -0.108940698737E+04   -0.21389E-01   -0.21064E-01 12767   0.588E-01    0.517E-01
RMM:   3    -0.108940731023E+04   -0.32285E-03   -0.10588E-02 13418   0.177E-01    0.292E-01
RMM:   4    -0.108940684720E+04    0.46302E-03   -0.21391E-03 14594   0.529E-02    0.171E-01
RMM:   5    -0.108940671370E+04    0.13351E-03   -0.84255E-04 12288   0.286E-02    0.570E-02
RMM:   6    -0.108940672774E+04   -0.14047E-04   -0.10052E-04  7462   0.143E-02    0.378E-02
RMM:   7    -0.108940673446E+04   -0.67196E-05   -0.50917E-05  7252   0.840E-03    0.237E-02
RMM:   8    -0.108940673959E+04   -0.51276E-05   -0.35073E-05  7206   0.842E-03
  14 F= -.10894067E+04 E0= -.10894067E+04  d E =-.547509E-02  mag=    60.0000
       N       E                     dE             d eps       ncg     rms          rms(c)
DAV:   1    -0.108939558183E+04    0.11153E-01   -0.50060E+00 12368   0.255E+00    0.606E-01
RMM:   2    -0.108940833513E+04   -0.12753E-01   -0.12549E-01 12775   0.453E-01    0.401E-01
RMM:   3    -0.108940852340E+04   -0.18827E-03   -0.63335E-03 13278   0.136E-01    0.227E-01
RMM:   4    -0.108940825127E+04    0.27213E-03   -0.12610E-03 13669   0.406E-02    0.133E-01
RMM:   5    -0.108940817031E+04    0.80958E-04   -0.51534E-04 11091   0.234E-02    0.451E-02
RMM:   6    -0.108940818063E+04   -0.10317E-04   -0.67556E-05  7306   0.123E-02    0.321E-02
RMM:   7    -0.108940818563E+04   -0.49945E-05   -0.37239E-05  7180   0.756E-03    0.192E-02
RMM:   8    -0.108940818967E+04   -0.40391E-05   -0.24455E-05  7143   0.727E-03
  15 F= -.10894082E+04 E0= -.10894082E+04  d E =-.692517E-02  mag=    60.0000
       N       E                     dE             d eps       ncg     rms          rms(c)
DAV:   1    -0.108939392655E+04    0.14259E-01   -0.75415E+00 12296   0.313E+00    0.733E-01
RMM:   2    -0.108941328431E+04   -0.19358E-01   -0.18860E-01 12700   0.558E-01    0.468E-01
RMM:   3    -0.108941365794E+04   -0.37363E-03   -0.98432E-03 13292   0.170E-01    0.271E-01
RMM:   4    -0.108941322674E+04    0.43120E-03   -0.19449E-03 14063   0.501E-02    0.154E-01
RMM:   5    -0.108941311937E+04    0.10737E-03   -0.72642E-04 12016   0.269E-02    0.470E-02
RMM:   6    -0.108941312618E+04   -0.68073E-05   -0.92406E-05  7436   0.135E-02    0.312E-02
RMM:   7    -0.108941312961E+04   -0.34368E-05   -0.47677E-05  7244   0.811E-03    0.212E-02
RMM:   8    -0.108941312953E+04    0.85696E-07   -0.33681E-05  7118   0.812E-03
  16 F= -.10894131E+04 E0= -.10894131E+04  d E =-.493986E-02  mag=    60.0000
       N       E                     dE             d eps       ncg     rms          rms(c)
DAV:   1    -0.108940882425E+04    0.43054E-02   -0.19832E+00 12624   0.161E+00    0.375E-01
RMM:   2    -0.108941395775E+04   -0.51335E-02   -0.50080E-02 12766   0.287E-01    0.240E-01
RMM:   3    -0.108941403861E+04   -0.80860E-04   -0.26092E-03 12690   0.857E-02    0.139E-01
RMM:   4    -0.108941391815E+04    0.12046E-03   -0.48680E-04 10949   0.260E-02    0.782E-02
RMM:   5    -0.108941389041E+04    0.27744E-04   -0.18365E-04  7734   0.165E-02    0.269E-02
RMM:   6    -0.108941389408E+04   -0.36714E-05   -0.42825E-05  7193   0.105E-02    0.271E-02
RMM:   7    -0.108941389600E+04   -0.19244E-05   -0.23225E-05  6905   0.625E-03    0.129E-02
RMM:   8    -0.108941389599E+04    0.15163E-07   -0.14106E-05  6745   0.588E-03
  17 F= -.10894139E+04 E0= -.10894139E+04  d E =-.570632E-02  mag=    60.0000
       N       E                     dE             d eps       ncg     rms          rms(c)
DAV:   1    -0.108939795821E+04    0.15938E-01   -0.79215E+00 12480   0.322E+00    0.724E-01
RMM:   2    -0.108941810074E+04   -0.20143E-01   -0.19933E-01 12717   0.575E-01    0.463E-01
RMM:   3    -0.108941842643E+04   -0.32570E-03   -0.10496E-02 13300   0.174E-01    0.281E-01
RMM:   4    -0.108941798071E+04    0.44572E-03   -0.19801E-03 14103   0.505E-02    0.163E-01
RMM:   5    -0.108941785678E+04    0.12393E-03   -0.80319E-04 12107   0.278E-02    0.479E-02
RMM:   6    -0.108941786852E+04   -0.11734E-04   -0.10271E-04  7469   0.144E-02    0.320E-02
RMM:   7    -0.108941787353E+04   -0.50177E-05   -0.51516E-05  7244   0.871E-03    0.242E-02
RMM:   8    -0.108941787589E+04   -0.23548E-05   -0.34178E-05  7154   0.844E-03
  18 F= -.10894179E+04 E0= -.10894179E+04  d E =-.397990E-02  mag=    60.0000
       N       E                     dE             d eps       ncg     rms          rms(c)
DAV:   1    -0.108941696513E+04    0.90841E-03   -0.43791E-01 12992   0.757E-01    0.169E-01
RMM:   2    -0.108941811171E+04   -0.11466E-02   -0.11326E-02 12787   0.136E-01    0.108E-01
RMM:   3    -0.108941811685E+04   -0.51380E-05   -0.55070E-04  9912   0.405E-02    0.662E-02
RMM:   4    -0.108941809231E+04    0.24545E-04   -0.10057E-04  7215   0.139E-02    0.394E-02
RMM:   5    -0.108941808865E+04    0.36558E-05   -0.54600E-05  7099   0.979E-03    0.224E-02
RMM:   6    -0.108941809123E+04   -0.25740E-05   -0.19583E-05  6901   0.630E-03    0.873E-03
RMM:   7    -0.108941809235E+04   -0.11201E-05   -0.11040E-05  6437   0.461E-03    0.105E-02
RMM:   8    -0.108941809301E+04   -0.66555E-06   -0.64609E-06  5290   0.368E-03
  19 F= -.10894181E+04 E0= -.10894181E+04  d E =-.419702E-02  mag=    60.0000
       N       E                     dE             d eps       ncg     rms          rms(c)
DAV:   1    -0.108940028617E+04    0.17806E-01   -0.83831E+00 12352   0.333E+00    0.766E-01
RMM:   2    -0.108942203285E+04   -0.21747E-01   -0.21095E-01 12712   0.592E-01    0.479E-01
RMM:   3    -0.108942247868E+04   -0.44583E-03   -0.10843E-02 13206   0.181E-01    0.278E-01
RMM:   4    -0.108942201504E+04    0.46364E-03   -0.22663E-03 14402   0.539E-02    0.152E-01
RMM:   5    -0.108942192286E+04    0.92182E-04   -0.76384E-04 12351   0.272E-02    0.461E-02
RMM:   6    -0.108942193392E+04   -0.11063E-04   -0.10340E-04  7495   0.137E-02    0.279E-02
RMM:   7    -0.108942193886E+04   -0.49372E-05   -0.51090E-05  7245   0.843E-03    0.217E-02
RMM:   8    -0.108942194214E+04   -0.32799E-05   -0.37318E-05  7150   0.802E-03
  20 F= -.10894219E+04 E0= -.10894219E+04  d E =-.384913E-02  mag=    60.0000
       N       E                     dE             d eps       ncg     rms          rms(c)
DAV:   1    -0.108942045197E+04    0.14869E-02   -0.67017E-01 12512   0.941E-01    0.216E-01
RMM:   2    -0.108942223032E+04   -0.17783E-02   -0.17239E-02 12816   0.168E-01    0.135E-01
RMM:   3    -0.108942224984E+04   -0.19523E-04   -0.85279E-04 11040   0.500E-02    0.791E-02
RMM:   4    -0.108942221010E+04    0.39739E-04   -0.15475E-04  7474   0.166E-02    0.443E-02
RMM:   5    -0.108942220590E+04    0.42018E-05   -0.73882E-05  7177   0.113E-02    0.193E-02
RMM:   6    -0.108942220902E+04   -0.31147E-05   -0.23341E-05  6973   0.715E-03    0.977E-03
RMM:   7    -0.108942221050E+04   -0.14801E-05   -0.13950E-05  6554   0.474E-03    0.800E-03
RMM:   8    -0.108942221138E+04   -0.87825E-06   -0.80890E-06  5628   0.423E-03
  21 F= -.10894222E+04 E0= -.10894222E+04  d E =-.411836E-02  mag=    60.0000
       N       E                     dE             d eps       ncg     rms          rms(c)
DAV:   1    -0.108941198611E+04    0.10224E-01   -0.49941E+00 12544   0.259E+00    0.623E-01
RMM:   2    -0.108942502397E+04   -0.13038E-01   -0.12719E-01 12804   0.461E-01    0.418E-01
RMM:   3    -0.108942526170E+04   -0.23773E-03   -0.62526E-03 13283   0.138E-01    0.251E-01
RMM:   4    -0.108942498985E+04    0.27184E-03   -0.12397E-03 13610   0.412E-02    0.149E-01
RMM:   5    -0.108942488820E+04    0.10165E-03   -0.58111E-04 11180   0.245E-02    0.423E-02
RMM:   6    -0.108942489464E+04   -0.64372E-05   -0.70446E-05  7313   0.130E-02    0.299E-02
RMM:   7    -0.108942489784E+04   -0.32070E-05   -0.38460E-05  7195   0.768E-03    0.202E-02
RMM:   8    -0.108942489805E+04   -0.20798E-06   -0.23209E-05  7110   0.733E-03
  22 F= -.10894249E+04 E0= -.10894249E+04  d E =-.268668E-02  mag=    60.0000
       N       E                     dE             d eps       ncg     rms          rms(c)
DAV:   1    -0.108942474595E+04    0.15189E-03   -0.78770E-02 13232   0.325E-01    0.775E-02
RMM:   2    -0.108942496462E+04   -0.21866E-03   -0.21342E-03 12674   0.587E-02    0.520E-02
RMM:   3    -0.108942496293E+04    0.16853E-05   -0.82360E-05  7193   0.174E-02    0.323E-02
RMM:   4    -0.108942496027E+04    0.26603E-05   -0.25057E-05  7016   0.704E-03    0.194E-02
RMM:   5    -0.108942495888E+04    0.13868E-05   -0.12957E-05  6455   0.486E-03    0.900E-03
RMM:   6    -0.108942495936E+04   -0.47564E-06   -0.52679E-06  5133   0.344E-03    0.416E-03
RMM:   7    -0.108942495957E+04   -0.21406E-06   -0.25854E-06  4346   0.277E-03    0.253E-03
RMM:   8    -0.108942495963E+04   -0.60245E-07   -0.13228E-06  3389   0.229E-03
  23 F= -.10894250E+04 E0= -.10894250E+04  d E =-.274826E-02  mag=    60.0000
       N       E                     dE             d eps       ncg     rms          rms(c)
DAV:   1    -0.108941696296E+04    0.79966E-02   -0.44547E+00 12480   0.245E+00    0.526E-01
RMM:   2    -0.108942792104E+04   -0.10958E-01   -0.11311E-01 12873   0.432E-01    0.338E-01
RMM:   3    -0.108942790727E+04    0.13770E-04   -0.54002E-03 13305   0.130E-01    0.208E-01
RMM:   4    -0.108942766114E+04    0.24613E-03   -0.11773E-03 13360   0.398E-02    0.114E-01
RMM:   5    -0.108942761430E+04    0.46839E-04   -0.35217E-04  9932   0.206E-02    0.335E-02
RMM:   6    -0.108942762262E+04   -0.83200E-05   -0.66555E-05  7293   0.122E-02    0.257E-02
RMM:   7    -0.108942762628E+04   -0.36612E-05   -0.36306E-05  7192   0.807E-03    0.198E-02
RMM:   8    -0.108942762842E+04   -0.21364E-05   -0.21744E-05  7001   0.657E-03
  24 F= -.10894276E+04 E0= -.10894276E+04  d E =-.266879E-02  mag=    60.0000
       N       E                     dE             d eps       ncg     rms          rms(c)
DAV:   1    -0.108942593652E+04    0.16898E-02   -0.81101E-01 12608   0.105E+00    0.224E-01
RMM:   2    -0.108942796198E+04   -0.20255E-02   -0.20873E-02 12903   0.185E-01    0.144E-01
RMM:   3    -0.108942795017E+04    0.11805E-04   -0.98693E-04 11271   0.551E-02    0.888E-02
RMM:   4    -0.108942790154E+04    0.48628E-04   -0.18375E-04  7681   0.182E-02    0.508E-02
RMM:   5    -0.108942789675E+04    0.47939E-05   -0.79292E-05  7209   0.119E-02    0.206E-02
RMM:   6    -0.108942790033E+04   -0.35791E-05   -0.25995E-05  7035   0.760E-03    0.102E-02
RMM:   7    -0.108942790191E+04   -0.15819E-05   -0.14640E-05  6721   0.498E-03    0.949E-03
RMM:   8    -0.108942790284E+04   -0.92472E-06   -0.83822E-06  6009   0.450E-03
  25 F= -.10894279E+04 E0= -.10894279E+04  d E =-.294320E-02  mag=    60.0000
       N       E                     dE             d eps       ncg     rms          rms(c)
DAV:   1    -0.108942201283E+04    0.58891E-02   -0.32821E+00 12544   0.209E+00    0.441E-01
RMM:   2    -0.108943006275E+04   -0.80499E-02   -0.82508E-02 12955   0.365E-01    0.284E-01
RMM:   3    -0.108943001083E+04    0.51927E-04   -0.38244E-03 13152   0.107E-01    0.173E-01
RMM:   4    -0.108942981802E+04    0.19281E-03   -0.86047E-04 12679   0.340E-02    0.918E-02
RMM:   5    -0.108942979028E+04    0.27744E-04   -0.23883E-04  8599   0.179E-02    0.276E-02
RMM:   6    -0.108942979572E+04   -0.54391E-05   -0.51882E-05  7232   0.110E-02    0.182E-02
RMM:   7    -0.108942979834E+04   -0.26278E-05   -0.30076E-05  7123   0.717E-03    0.159E-02
RMM:   8    -0.108942979903E+04   -0.68254E-06   -0.17524E-05  6690   0.605E-03
  26 F= -.10894298E+04 E0= -.10894298E+04  d E =-.189619E-02  mag=    60.0000
       N       E                     dE             d eps       ncg     rms          rms(c)
DAV:   1    -0.108942807814E+04    0.17202E-02   -0.84401E-01 12720   0.106E+00    0.223E-01
RMM:   2    -0.108943017032E+04   -0.20922E-02   -0.21452E-02 12956   0.186E-01    0.144E-01
RMM:   3    -0.108943015064E+04    0.19672E-04   -0.98879E-04 11228   0.545E-02    0.877E-02
RMM:   4    -0.108943009711E+04    0.53530E-04   -0.18733E-04  7698   0.184E-02    0.492E-02
RMM:   5    -0.108943009249E+04    0.46195E-05   -0.79396E-05  7199   0.120E-02    0.220E-02
RMM:   6    -0.108943009551E+04   -0.30165E-05   -0.25582E-05  7010   0.765E-03    0.112E-02
RMM:   7    -0.108943009671E+04   -0.11988E-05   -0.14435E-05  6622   0.498E-03    0.964E-03
RMM:   8    -0.108943009712E+04   -0.41336E-06   -0.82524E-06  6010   0.451E-03
  27 F= -.10894301E+04 E0= -.10894301E+04  d E =-.219429E-02  mag=    60.0000
       N       E                     dE             d eps       ncg     rms          rms(c)
DAV:   1    -0.108942772105E+04    0.23757E-02   -0.15740E+00 12680   0.145E+00    0.324E-01
RMM:   2    -0.108943161075E+04   -0.38897E-02   -0.40190E-02 12696   0.259E-01    0.221E-01
RMM:   3    -0.108943162715E+04   -0.16400E-04   -0.20338E-03 12496   0.794E-02    0.134E-01
RMM:   4    -0.108943152554E+04    0.10161E-03   -0.42873E-04 10243   0.247E-02    0.765E-02
RMM:   5    -0.108943150286E+04    0.22684E-04   -0.13883E-04  7344   0.160E-02    0.307E-02
RMM:   6    -0.108943150874E+04   -0.58816E-05   -0.38912E-05  7165   0.103E-02    0.257E-02
RMM:   7    -0.108943151135E+04   -0.26117E-05   -0.21111E-05  7062   0.621E-03    0.135E-02
RMM:   8    -0.108943151329E+04   -0.19357E-05   -0.12341E-05  6891   0.576E-03
  28 F= -.10894315E+04 E0= -.10894315E+04  d E =-.141617E-02  mag=    60.0000
       N       E                     dE             d eps       ncg     rms          rms(c)
DAV:   1    -0.108943064969E+04    0.86166E-03   -0.44068E-01 12728   0.765E-01    0.171E-01
RMM:   2    -0.108943175453E+04   -0.11048E-02   -0.11390E-02 12737   0.138E-01    0.117E-01
RMM:   3    -0.108943175301E+04    0.15205E-05   -0.53925E-04  9865   0.417E-02    0.718E-02
RMM:   4    -0.108943172568E+04    0.27328E-04   -0.10756E-04  7220   0.144E-02    0.427E-02
RMM:   5    -0.108943172248E+04    0.31940E-05   -0.50701E-05  7130   0.977E-03    0.195E-02
RMM:   6    -0.108943172516E+04   -0.26791E-05   -0.17832E-05  6867   0.621E-03    0.958E-03
RMM:   7    -0.108943172638E+04   -0.12158E-05   -0.95860E-06  6296   0.443E-03    0.872E-03
RMM:   8    -0.108943172723E+04   -0.85404E-06   -0.54197E-06  5182   0.358E-03
  29 F= -.10894317E+04 E0= -.10894317E+04  d E =-.163011E-02  mag=    60.0000
       N       E                     dE             d eps       ncg     rms          rms(c)
DAV:   1    -0.108942859610E+04    0.31303E-02   -0.18446E+00 12512   0.157E+00    0.349E-01
RMM:   2    -0.108943319392E+04   -0.45978E-02   -0.46679E-02 12695   0.279E-01    0.224E-01
RMM:   3    -0.108943324396E+04   -0.50035E-04   -0.23703E-03 12677   0.857E-02    0.137E-01
RMM:   4    -0.108943313416E+04    0.10980E-03   -0.48342E-04 10674   0.262E-02    0.745E-02
RMM:   5    -0.108943310978E+04    0.24374E-04   -0.16528E-04  7459   0.168E-02    0.266E-02
RMM:   6    -0.108943311435E+04   -0.45708E-05   -0.42322E-05  7175   0.107E-02    0.259E-02
RMM:   7    -0.108943311645E+04   -0.20980E-05   -0.23124E-05  7031   0.637E-03    0.119E-02
RMM:   8    -0.108943311697E+04   -0.52180E-06   -0.13483E-05  6801   0.592E-03
  30 F= -.10894331E+04 E0= -.10894331E+04  d E =-.138974E-02  mag=    60.0000
