       N       E                     dE             d eps       ncg     rms          rms(c)
DAV:   1    -0.112128888130E+04   -0.11213E+04   -0.64642E-02  6624   0.587E-01    0.560E-02
RMM:   2    -0.112128887626E+04    0.50388E-05   -0.79116E-05  3696   0.141E-02    0.998E-02
RMM:   3    -0.112128887590E+04    0.35531E-06   -0.16405E-05  3365   0.774E-03    0.102E-02
RMM:   4    -0.112128887572E+04    0.18085E-06   -0.43250E-06  2252   0.288E-03    0.461E-03
RMM:   5    -0.112128887582E+04   -0.10162E-06   -0.27974E-06  2140   0.292E-03    0.724E-03
RMM:   6    -0.112128887576E+04    0.66066E-07   -0.11126E-06  1498   0.224E-03    0.215E-03
RMM:   7    -0.112128887564E+04    0.12192E-06   -0.56550E-07  1106   0.208E-03    0.118E-03
RMM:   8    -0.112128887561E+04    0.30428E-07   -0.27183E-07   931   0.195E-03
   1 F= -.11212889E+04 E0= -.11212889E+04  d E =-.112129E+04  mag=    40.0000
       N       E                     dE             d eps       ncg     rms          rms(c)
DAV:   1    -0.112128871215E+04    0.16348E-03   -0.46301E-01  6208   0.778E-01    0.365E-01
RMM:   2    -0.112129021175E+04   -0.14996E-02   -0.13444E-02  6146   0.155E-01    0.259E-01
RMM:   3    -0.112129027872E+04   -0.66971E-04   -0.73690E-04  5738   0.506E-02    0.136E-01
RMM:   4    -0.112129018043E+04    0.98288E-04   -0.32497E-04  4893   0.217E-02    0.797E-02
RMM:   5    -0.112129015854E+04    0.21889E-04   -0.74335E-05  3662   0.133E-02    0.652E-02
RMM:   6    -0.112129015829E+04    0.25205E-06   -0.22304E-05  3549   0.724E-03    0.215E-02
RMM:   7    -0.112129015694E+04    0.13484E-05   -0.83719E-06  3412   0.463E-03    0.158E-02
RMM:   8    -0.112129015610E+04    0.84766E-06   -0.46808E-06  3080   0.326E-03
   2 F= -.11212902E+04 E0= -.11212902E+04  d E =-.128049E-02  mag=    40.0000
       N       E                     dE             d eps       ncg     rms          rms(c)
DAV:   1    -0.112129015374E+04    0.31993E-05   -0.60704E-04  6168   0.284E-02    0.129E-02
RMM:   2    -0.112129015574E+04   -0.19968E-05   -0.17788E-05  3244   0.695E-03    0.111E-02
RMM:   3    -0.112129015600E+04   -0.25787E-06   -0.25426E-06  2487   0.311E-03    0.579E-03
RMM:   4    -0.112129015572E+04    0.27879E-06   -0.22818E-07  1114   0.204E-03    0.428E-03
RMM:   5    -0.112129015548E+04    0.24321E-06   -0.43230E-07  1068   0.201E-03    0.119E-03
RMM:   6    -0.112129015547E+04    0.78871E-08   -0.16721E-07   727   0.182E-03    0.884E-04
RMM:   7    -0.112129015547E+04    0.37544E-08   -0.11749E-08   533   0.174E-03    0.556E-04
RMM:   8    -0.112129015547E+04   -0.34343E-08   -0.15836E-09   477   0.174E-03
   3 F= -.11212902E+04 E0= -.11212902E+04  d E =-.127986E-02  mag=    40.0000
       N       E                     dE             d eps       ncg     rms          rms(c)
DAV:   1    -0.112128965423E+04    0.50123E-03   -0.48898E-01  6344   0.813E-01    0.257E-01
RMM:   2    -0.112129114312E+04   -0.14889E-02   -0.12260E-02  6165   0.148E-01    0.165E-01
RMM:   3    -0.112129125040E+04   -0.10728E-03   -0.67040E-04  5372   0.477E-02    0.819E-02
RMM:   4    -0.112129120695E+04    0.43450E-04   -0.13296E-04  3696   0.153E-02    0.467E-02
RMM:   5    -0.112129119629E+04    0.10657E-04   -0.63236E-05  3552   0.107E-02    0.440E-02
RMM:   6    -0.112129119815E+04   -0.18594E-05   -0.23815E-05  3469   0.791E-03    0.185E-02
RMM:   7    -0.112129119921E+04   -0.10594E-05   -0.10471E-05  3271   0.466E-03    0.128E-02
RMM:   8    -0.112129119975E+04   -0.54146E-06   -0.58974E-06  2845   0.410E-03
   4 F= -.11212912E+04 E0= -.11212912E+04  d E =-.104429E-02  mag=    40.0000
