<?xml version="1.0" encoding="ISO-8859-1"?>
<modeling>
 <generator>
  <i name="program" type="string">vasp </i>
  <i name="version" type="string">5.4.1  </i>
  <i name="subversion" type="string">05Feb16 (build Jan 25 2017 20:16:33) complex                          parallel </i>
  <i name="platform" type="string">BWXE6 </i>
  <i name="date" type="string">2019 08 12 </i>
  <i name="time" type="string">20:39:07 </i>
 </generator>
 <incar>
  <i type="string" name="SYSTEM"> STF</i>
  <i type="string" name="PREC">normal</i>
  <i type="string" name="ALGO"> Fast</i>
  <i type="int" name="ISPIN">     2</i>
  <i type="int" name="NELM">    40</i>
  <i type="int" name="NELMIN">     8</i>
  <i type="int" name="IBRION">     2</i>
  <i name="EDIFF">      0.00010000</i>
  <i name="EDIFFG">     -0.03000000</i>
  <i type="int" name="NSW">    30</i>
  <i type="int" name="ISIF">     3</i>
  <i name="ENCUT">    520.00000000</i>
  <i type="int" name="NBANDS">   768</i>
  <v name="MAGMOM">      0.60000000      0.60000000      0.60000000      0.60000000      0.60000000      0.60000000      0.60000000      0.60000000      0.60000000      0.60000000      0.60000000      0.60000000      0.60000000      0.60000000      0.60000000      0.60000000      0.60000000      0.60000000      0.60000000      0.60000000
      0.60000000      0.60000000      0.60000000      0.60000000      0.60000000      0.60000000      0.60000000      0.60000000      0.60000000      0.60000000      0.60000000      0.60000000      0.60000000      0.60000000      0.60000000      0.60000000      0.60000000      0.60000000      0.60000000      0.60000000
      0.60000000      0.60000000      0.60000000      0.60000000      0.60000000      0.60000000      0.60000000      0.60000000      0.60000000      0.60000000      0.60000000      0.60000000      5.00000000      5.00000000      5.00000000      5.00000000      5.00000000      5.00000000      5.00000000      5.00000000
      5.00000000      5.00000000      5.00000000      5.00000000      0.60000000      0.60000000      0.60000000      0.60000000      0.60000000      0.60000000      0.60000000      0.60000000      0.60000000      0.60000000      0.60000000      0.60000000      0.60000000      0.60000000      0.60000000      0.60000000
      0.60000000      0.60000000      0.60000000      0.60000000      0.60000000      0.60000000      0.60000000      0.60000000      0.60000000      0.60000000      0.60000000      0.60000000      0.60000000      0.60000000      0.60000000      0.60000000      0.60000000      0.60000000      0.60000000      0.60000000
      0.60000000      0.60000000      0.60000000      0.60000000      0.60000000      0.60000000      0.60000000      0.60000000      0.60000000      0.60000000      0.60000000      0.60000000      0.60000000      0.60000000      0.60000000      0.60000000      0.60000000      0.60000000      0.60000000      0.60000000
      0.60000000      0.60000000      0.60000000      0.60000000      0.60000000      0.60000000      0.60000000      0.60000000      0.60000000      0.60000000      0.60000000      0.60000000      0.60000000      0.60000000      0.60000000      0.60000000      0.60000000      0.60000000      0.60000000      0.60000000
      0.60000000      0.60000000      0.60000000      0.60000000      0.60000000      0.60000000      0.60000000      0.60000000      0.60000000      0.60000000      0.60000000      0.60000000      0.60000000      0.60000000</v>
  <i type="string" name="LREAL"> Auto</i>
  <i type="int" name="ISMEAR">     0</i>
  <i name="SIGMA">      0.05000000</i>
  <i type="int" name="LMAXMIX">     4</i>
  <v type="int" name="KPOINT_BSE">    -1     0     0     0</v>
  <i type="int" name="NELM">    40</i>
  <i type="logical" name="LDAU"> T  </i>
  <v type="int" name="LDAUTYPE">     2</v>
  <v type="int" name="LDAUL">     0     2     2     0</v>
  <v name="LDAUU">      0.00000000      3.00000000      5.00000000      0.00000000</v>
  <v name="LDAUJ">      0.00000000      0.00000000      0.00000000      0.00000000</v>
  <i type="int" name="LDAUPRINT">     1</i>
 </incar>
 <kpoints>
  <generation param="Monkhorst-Pack">
   <v type="int" name="divisions">       2        2        2 </v>
   <v name="usershift">      0.00000000       0.00000000       0.00000000 </v>
   <v name="genvec1">      0.50000000      -0.00000000      -0.00000000 </v>
   <v name="genvec2">      0.00000000       0.50000000       0.00000000 </v>
   <v name="genvec3">     -0.00000000       0.00000000       0.50000000 </v>
   <v name="shift">      0.50000000       0.50000000       0.50000000 </v>
  </generation>
  <varray name="kpointlist" >
   <v>       0.25000000       0.25000000       0.25000000 </v>
   <v>      -0.25000000       0.25000000       0.25000000 </v>
   <v>       0.25000000      -0.25000000       0.25000000 </v>
   <v>      -0.25000000      -0.25000000       0.25000000 </v>
  </varray>
  <varray name="weights" >
   <v>       0.25000000 </v>
   <v>       0.25000000 </v>
   <v>       0.25000000 </v>
   <v>       0.25000000 </v>
  </varray>
 </kpoints>
 <parameters>
  <separator name="general" >
   <i type="string" name="SYSTEM">STF</i>
   <i type="logical" name="LCOMPAT"> F  </i>
  </separator>
  <separator name="electronic" >
   <i type="string" name="PREC">normal</i>
   <i name="ENMAX">    520.00000000</i>
   <i name="ENAUG">    605.39200000</i>
   <i name="EDIFF">      0.00010000</i>
   <i type="int" name="IALGO">    68</i>
   <i type="int" name="IWAVPR">    11</i>
   <i type="int" name="NBANDS">   768</i>
   <i name="NELECT">   1036.00000000</i>
   <i type="int" name="TURBO">     0</i>
   <i type="int" name="IRESTART">     0</i>
   <i type="int" name="NREBOOT">     0</i>
   <i type="int" name="NMIN">     0</i>
   <i name="EREF">      0.00000000</i>
   <separator name="electronic smearing" >
    <i type="int" name="ISMEAR">     0</i>
    <i name="SIGMA">      0.05000000</i>
    <i name="KSPACING">      0.50000000</i>
    <i type="logical" name="KGAMMA"> T  </i>
   </separator>
   <separator name="electronic projectors" >
    <i type="logical" name="LREAL"> T  </i>
    <v name="ROPT">     -0.00050000     -0.00050000     -0.00050000     -0.00050000</v>
    <i type="int" name="LMAXPAW">  -100</i>
    <i type="int" name="LMAXMIX">     4</i>
    <i type="logical" name="NLSPLINE"> F  </i>
   </separator>
   <separator name="electronic startup" >
    <i type="int" name="ISTART">     1</i>
    <i type="int" name="ICHARG">     0</i>
    <i type="int" name="INIWAV">     1</i>
   </separator>
   <separator name="electronic spin" >
    <i type="int" name="ISPIN">     2</i>
    <i type="logical" name="LNONCOLLINEAR"> F  </i>
    <v name="MAGMOM">      0.60000000      0.60000000      0.60000000      0.60000000      0.60000000      0.60000000      0.60000000      0.60000000      0.60000000      0.60000000      0.60000000      0.60000000      0.60000000      0.60000000      0.60000000      0.60000000      0.60000000      0.60000000      0.60000000      0.60000000
      0.60000000      0.60000000      0.60000000      0.60000000      0.60000000      0.60000000      0.60000000      0.60000000      0.60000000      0.60000000      0.60000000      0.60000000      0.60000000      0.60000000      0.60000000      0.60000000      0.60000000      0.60000000      0.60000000      0.60000000
      0.60000000      0.60000000      0.60000000      0.60000000      0.60000000      0.60000000      0.60000000      0.60000000      0.60000000      0.60000000      0.60000000      0.60000000      5.00000000      5.00000000      5.00000000      5.00000000      5.00000000      5.00000000      5.00000000      5.00000000
      5.00000000      5.00000000      5.00000000      5.00000000      0.60000000      0.60000000      0.60000000      0.60000000      0.60000000      0.60000000      0.60000000      0.60000000      0.60000000      0.60000000      0.60000000      0.60000000      0.60000000      0.60000000      0.60000000      0.60000000
      0.60000000      0.60000000      0.60000000      0.60000000      0.60000000      0.60000000      0.60000000      0.60000000      0.60000000      0.60000000      0.60000000      0.60000000      0.60000000      0.60000000      0.60000000      0.60000000      0.60000000      0.60000000      0.60000000      0.60000000
      0.60000000      0.60000000      0.60000000      0.60000000      0.60000000      0.60000000      0.60000000      0.60000000      0.60000000      0.60000000      0.60000000      0.60000000      0.60000000      0.60000000      0.60000000      0.60000000      0.60000000      0.60000000      0.60000000      0.60000000
      0.60000000      0.60000000      0.60000000      0.60000000      0.60000000      0.60000000      0.60000000      0.60000000      0.60000000      0.60000000      0.60000000      0.60000000      0.60000000      0.60000000      0.60000000      0.60000000      0.60000000      0.60000000      0.60000000      0.60000000
      0.60000000      0.60000000      0.60000000      0.60000000      0.60000000      0.60000000      0.60000000      0.60000000      0.60000000      0.60000000      0.60000000      0.60000000      0.60000000      0.60000000</v>
    <i name="NUPDOWN">     -1.00000000</i>
    <i type="logical" name="LSORBIT"> F  </i>
    <v name="SAXIS">      0.00000000      0.00000000      1.00000000</v>
    <i type="logical" name="LSPIRAL"> F  </i>
    <v name="QSPIRAL">      0.00000000      0.00000000      0.00000000</v>
    <i type="logical" name="LZEROZ"> F  </i>
   </separator>
   <separator name="electronic exchange-correlation" >
    <i type="logical" name="LASPH"> F  </i>
    <i type="logical" name="LMETAGGA"> F  </i>
   </separator>
   <separator name="electronic convergence" >
    <i type="int" name="NELM">    40</i>
    <i type="int" name="NELMDL">     0</i>
    <i type="int" name="NELMIN">     8</i>
    <i name="ENINI">    520.00000000</i>
    <separator name="electronic convergence detail" >
     <i type="logical" name="LDIAG"> T  </i>
     <i type="logical" name="LSUBROT"> F  </i>
     <i name="WEIMIN">      0.00100000</i>
     <i name="EBREAK">      0.00000003</i>
     <i name="DEPER">      0.30000000</i>
     <i type="int" name="NRMM">     4</i>
     <i name="TIME">      0.40000000</i>
    </separator>
   </separator>
   <separator name="electronic mixer" >
    <i name="AMIX">      0.40000000</i>
    <i name="BMIX">      1.00000000</i>
    <i name="AMIN">      0.10000000</i>
    <i name="AMIX_MAG">      1.60000000</i>
    <i name="BMIX_MAG">      1.00000000</i>
    <separator name="electronic mixer details" >
     <i type="int" name="IMIX">     4</i>
     <i type="logical" name="MIXFIRST"> F  </i>
     <i type="int" name="MAXMIX">   -45</i>
     <i name="WC">    100.00000000</i>
     <i type="int" name="INIMIX">     1</i>
     <i type="int" name="MIXPRE">     1</i>
     <i type="int" name="MREMOVE">     5</i>
    </separator>
   </separator>
   <separator name="electronic dipolcorrection" >
    <i type="logical" name="LDIPOL"> F  </i>
    <i type="logical" name="LMONO"> F  </i>
    <i type="int" name="IDIPOL">     0</i>
    <i name="EPSILON">      1.00000000</i>
    <v name="DIPOL">   -100.00000000   -100.00000000   -100.00000000</v>
    <i name="EFIELD">      0.00000000</i>
   </separator>
  </separator>
  <separator name="grids" >
   <i type="int" name="NGX">    64</i>
   <i type="int" name="NGY">    64</i>
   <i type="int" name="NGZ">    90</i>
   <i type="int" name="NGXF">   128</i>
   <i type="int" name="NGYF">   128</i>
   <i type="int" name="NGZF">   180</i>
   <i type="logical" name="ADDGRID"> F  </i>
  </separator>
  <separator name="ionic" >
   <i type="int" name="NSW">    30</i>
   <i type="int" name="IBRION">     2</i>
   <i type="int" name="ISIF">     3</i>
   <i name="PSTRESS">      0.00000000</i>
   <i name="EDIFFG">     -0.03000000</i>
   <i type="int" name="NFREE">     1</i>
   <i name="POTIM">      0.50000000</i>
   <i name="SMASS">     -3.00000000</i>
   <i name="SCALEE">      1.00000000</i>
  </separator>
  <separator name="ionic md" >
   <i name="TEBEG">      0.00010000</i>
   <i name="TEEND">      0.00010000</i>
   <i type="int" name="NBLOCK">     1</i>
   <i type="int" name="KBLOCK">    30</i>
   <i type="int" name="NPACO">   256</i>
   <i name="APACO">     16.00000000</i>
  </separator>
  <separator name="symmetry" >
   <i type="int" name="ISYM">     2</i>
   <i name="SYMPREC">      0.00001000</i>
  </separator>
  <separator name="dos" >
   <i type="logical" name="LORBIT"> F  </i>
   <v name="RWIGS">     -1.00000000     -1.00000000     -1.00000000     -1.00000000</v>
   <i type="int" name="NEDOS">   301</i>
   <i name="EMIN">     10.00000000</i>
   <i name="EMAX">    -10.00000000</i>
   <i name="EFERMI">      0.00000000</i>
  </separator>
  <separator name="writing" >
   <i type="int" name="NWRITE">     2</i>
   <i type="logical" name="LWAVE"> T  </i>
   <i type="logical" name="LCHARG"> T  </i>
   <i type="logical" name="LPARD"> F  </i>
   <i type="logical" name="LVTOT"> F  </i>
   <i type="logical" name="LVHAR"> F  </i>
   <i type="logical" name="LELF"> F  </i>
   <i type="logical" name="LOPTICS"> F  </i>
   <v name="STM">      0.00000000      0.00000000      0.00000000      0.00000000      0.00000000      0.00000000      0.00000000</v>
  </separator>
  <separator name="performance" >
   <i type="int" name="NPAR">     2</i>
   <i type="int" name="NSIM">     4</i>
   <i type="int" name="NBLK">    -1</i>
   <i type="logical" name="LPLANE"> T  </i>
   <i type="logical" name="LSCALAPACK"> T  </i>
   <i type="logical" name="LSCAAWARE"> F  </i>
   <i type="logical" name="LSCALU"> F  </i>
   <i type="logical" name="LASYNC"> F  </i>
   <i type="logical" name="LORBITALREAL"> F  </i>
  </separator>
  <separator name="miscellaneous" >
   <i type="int" name="IDIOT">     3</i>
   <i type="logical" name="LMUSIC"> F  </i>
   <v name="POMASS">     87.62000000     47.88000000     55.84700000     16.00000000</v>
   <v name="DARWINR">      0.00000000      0.00000000      0.00000000      0.00000000</v>
   <v name="DARWINV">      1.00000000      1.00000000      1.00000000      1.00000000</v>
   <i type="logical" name="LCORR"> T  </i>
  </separator>
  <i type="logical" name="GGA_COMPAT"> T  </i>
  <i type="logical" name="LBERRY"> F  </i>
  <i type="int" name="ICORELEVEL">     0</i>
  <i type="logical" name="LDAU"> T  </i>
  <v type="int" name="LDAUTYPE">     2</v>
  <v type="int" name="LDAUL">     0</v>
  <v name="LDAUU">      0.00000000</v>
  <v name="LDAUJ">      0.00000000</v>
  <i type="int" name="LDAUPRINT">     1</i>
  <i type="int" name="I_CONSTRAINED_M">     0</i>
  <separator name="electronic exchange-correlation" >
   <i type="string" name="GGA">--</i>
   <i type="int" name="VOSKOWN">     0</i>
   <i type="logical" name="LHFCALC"> F  </i>
   <i type="string" name="PRECFOCK"></i>
   <i type="logical" name="LSYMGRAD"> F  </i>
   <i type="logical" name="LHFONE"> F  </i>
   <i type="logical" name="LRHFCALC"> F  </i>
   <i type="logical" name="LTHOMAS"> F  </i>
   <i type="logical" name="LMODELHF"> F  </i>
   <i name="ENCUT4O">     -1.00000000</i>
   <i type="int" name="EXXOEP">     0</i>
   <i type="int" name="FOURORBIT">     0</i>
   <i name="AEXX">      0.00000000</i>
   <i name="HFALPHA">      0.00000000</i>
   <i name="MCALPHA">      0.00000000</i>
   <i name="ALDAX">      1.00000000</i>
   <i name="AGGAX">      1.00000000</i>
   <i name="ALDAC">      1.00000000</i>
   <i name="AGGAC">      1.00000000</i>
   <i type="int" name="NKREDX">     1</i>
   <i type="int" name="NKREDY">     1</i>
   <i type="int" name="NKREDZ">     1</i>
   <i type="logical" name="SHIFTRED"> F  </i>
   <i type="logical" name="ODDONLY"> F  </i>
   <i type="logical" name="EVENONLY"> F  </i>
   <i type="int" name="LMAXFOCK">     0</i>
   <i type="int" name="NMAXFOCKAE">     0</i>
   <i type="logical" name="LFOCKAEDFT"> F  </i>
   <i name="HFSCREEN">      0.00000000</i>
   <i name="HFSCREENC">      0.00000000</i>
   <i type="int" name="NBANDSGWLOW">     0</i>
  </separator>
  <separator name="vdW DFT" >
   <i type="logical" name="LUSE_VDW"> F  </i>
   <i name="Zab_VDW">     -0.84910000</i>
   <i name="PARAM1">      0.12340000</i>
   <i name="PARAM2">      1.00000000</i>
   <i name="PARAM3">      0.00000000</i>
  </separator>
  <separator name="model GW" >
   <i type="int" name="MODEL_GW">     0</i>
   <i name="MODEL_EPS0">      7.81318163</i>
   <i name="MODEL_ALPHA">      1.00000000</i>
  </separator>
  <separator name="linear response parameters" >
   <i type="logical" name="LEPSILON"> F  </i>
   <i type="logical" name="LRPA"> F  </i>
   <i type="logical" name="LNABLA"> F  </i>
   <i type="logical" name="LVEL"> F  </i>
   <i type="int" name="KINTER">     0</i>
   <i name="CSHIFT">      0.10000000</i>
   <i name="OMEGAMAX">     -1.00000000</i>
   <i name="DEG_THRESHOLD">      0.00200000</i>
  </separator>
  <separator name="orbital magnetization" >
   <i type="logical" name="NUCIND"> F  </i>
   <v name="MAGPOS">      0.00000000      0.00000000      0.00000000</v>
   <i type="logical" name="LNICSALL"> T  </i>
   <i type="logical" name="ORBITALMAG"> F  </i>
   <i type="logical" name="LMAGBLOCH"> F  </i>
   <i type="logical" name="LCHIMAG"> F  </i>
   <i type="logical" name="LGAUGE"> T  </i>
   <i type="int" name="MAGATOM">     0</i>
   <v name="MAGDIPOL">      0.00000000      0.00000000      0.00000000</v>
   <v name="AVECCONST">      0.00000000      0.00000000      0.00000000</v>
  </separator>
  <separator name="response functions" >
   <i type="logical" name="LADDER"> F  </i>
   <i type="logical" name="LFXC"> F  </i>
   <i type="logical" name="LHARTREE"> T  </i>
   <i type="int" name="IBSE">     0</i>
   <v type="int" name="KPOINT">    -1     0     0     0</v>
   <i type="logical" name="LTCTE"> F  </i>
   <i type="logical" name="LTETE"> F  </i>
   <i type="logical" name="LTRIPLET"> F  </i>
   <i type="logical" name="LFXCEPS"> F  </i>
   <i type="logical" name="LFXHEG"> F  </i>
   <i type="int" name="NATURALO">     0</i>
   <i type="logical" name="L2ORDER"> F  </i>
   <i type="logical" name="LUSEW"> F  </i>
   <i name="ENCUTGW">     -2.00000000</i>
   <i name="ENCUTGWSOFT">     -2.00000000</i>
   <i name="ENCUTLF">     -1.00000000</i>
   <i type="int" name="LMAXMP2">    -1</i>
   <i name="SCISSOR">      0.00000000</i>
   <i type="int" name="NOMEGA">     0</i>
   <i type="int" name="NOMEGAR">     0</i>
   <i type="int" name="NBANDSGW">    -1</i>
   <i type="int" name="NBANDSO">    -1</i>
   <i type="int" name="NBANDSV">    -1</i>
   <i type="int" name="NELM">    40</i>
   <i type="int" name="NELMHF">     1</i>
   <i type="int" name="DIM">     3</i>
   <i type="int" name="ANTIRES">     0</i>
   <i name="OMEGAMAX">    -30.00000000</i>
   <i name="OMEGAMIN">    -30.00000000</i>
   <i name="OMEGATL">   -200.00000000</i>
   <i type="int" name="OMEGAGRID">     0</i>
   <i name="CSHIFT">     -0.10000000</i>
   <i type="logical" name="SELFENERGY"> F  </i>
   <i type="logical" name="LSPECTRAL"> F  </i>
   <i type="logical" name="LSPECTRALGW"> F  </i>
   <i type="logical" name="LSINGLES"> F  </i>
   <i type="logical" name="LFERMIGW"> F  </i>
   <i type="logical" name="ODDONLYGW"> F  </i>
   <i type="logical" name="EVENONLYGW"> F  </i>
   <i type="int" name="NKREDLFX">     1</i>
   <i type="int" name="NKREDLFY">     1</i>
   <i type="int" name="NKREDLFZ">     1</i>
   <i type="int" name="MAXMEM">  1800</i>
   <i type="int" name="TELESCOPE">     0</i>
   <i type="int" name="TAUPAR">     1</i>
   <i type="int" name="OMEGAPAR">    -1</i>
   <i name="LAMBDA">      1.00000000</i>
  </separator>
  <separator name="External order field" >
   <i name="OFIELD_KAPPA">      0.00000000</i>
   <v name="OFIELD_K">      0.00000000      0.00000000      0.00000000</v>
   <i name="OFIELD_Q6_NEAR">      0.00000000</i>
   <i name="OFIELD_Q6_FAR">      0.00000000</i>
   <i name="OFIELD_A">      0.00000000</i>
  </separator>
 </parameters>
 <atominfo>
  <atoms>     154 </atoms>
  <types>       4 </types>
  <array name="atoms" >
   <dimension dim="1">ion</dimension>
   <field type="string">element</field>
   <field type="int">atomtype</field>
   <set>
    <rc><c>Sr</c><c>   1</c></rc>
    <rc><c>Sr</c><c>   1</c></rc>
    <rc><c>Sr</c><c>   1</c></rc>
    <rc><c>Sr</c><c>   1</c></rc>
    <rc><c>Sr</c><c>   1</c></rc>
    <rc><c>Sr</c><c>   1</c></rc>
    <rc><c>Sr</c><c>   1</c></rc>
    <rc><c>Sr</c><c>   1</c></rc>
    <rc><c>Sr</c><c>   1</c></rc>
    <rc><c>Sr</c><c>   1</c></rc>
    <rc><c>Sr</c><c>   1</c></rc>
    <rc><c>Sr</c><c>   1</c></rc>
    <rc><c>Sr</c><c>   1</c></rc>
    <rc><c>Sr</c><c>   1</c></rc>
    <rc><c>Sr</c><c>   1</c></rc>
    <rc><c>Sr</c><c>   1</c></rc>
    <rc><c>Sr</c><c>   1</c></rc>
    <rc><c>Sr</c><c>   1</c></rc>
    <rc><c>Sr</c><c>   1</c></rc>
    <rc><c>Sr</c><c>   1</c></rc>
    <rc><c>Sr</c><c>   1</c></rc>
    <rc><c>Sr</c><c>   1</c></rc>
    <rc><c>Sr</c><c>   1</c></rc>
    <rc><c>Sr</c><c>   1</c></rc>
    <rc><c>Sr</c><c>   1</c></rc>
    <rc><c>Sr</c><c>   1</c></rc>
    <rc><c>Sr</c><c>   1</c></rc>
    <rc><c>Sr</c><c>   1</c></rc>
    <rc><c>Sr</c><c>   1</c></rc>
    <rc><c>Sr</c><c>   1</c></rc>
    <rc><c>Sr</c><c>   1</c></rc>
    <rc><c>Sr</c><c>   1</c></rc>
    <rc><c>Ti</c><c>   2</c></rc>
    <rc><c>Ti</c><c>   2</c></rc>
    <rc><c>Ti</c><c>   2</c></rc>
    <rc><c>Ti</c><c>   2</c></rc>
    <rc><c>Ti</c><c>   2</c></rc>
    <rc><c>Ti</c><c>   2</c></rc>
    <rc><c>Ti</c><c>   2</c></rc>
    <rc><c>Ti</c><c>   2</c></rc>
    <rc><c>Ti</c><c>   2</c></rc>
    <rc><c>Ti</c><c>   2</c></rc>
    <rc><c>Ti</c><c>   2</c></rc>
    <rc><c>Ti</c><c>   2</c></rc>
    <rc><c>Ti</c><c>   2</c></rc>
    <rc><c>Ti</c><c>   2</c></rc>
    <rc><c>Ti</c><c>   2</c></rc>
    <rc><c>Ti</c><c>   2</c></rc>
    <rc><c>Ti</c><c>   2</c></rc>
    <rc><c>Ti</c><c>   2</c></rc>
    <rc><c>Ti</c><c>   2</c></rc>
    <rc><c>Ti</c><c>   2</c></rc>
    <rc><c>Fe</c><c>   3</c></rc>
    <rc><c>Fe</c><c>   3</c></rc>
    <rc><c>Fe</c><c>   3</c></rc>
    <rc><c>Fe</c><c>   3</c></rc>
    <rc><c>Fe</c><c>   3</c></rc>
    <rc><c>Fe</c><c>   3</c></rc>
    <rc><c>Fe</c><c>   3</c></rc>
    <rc><c>Fe</c><c>   3</c></rc>
    <rc><c>Fe</c><c>   3</c></rc>
    <rc><c>Fe</c><c>   3</c></rc>
    <rc><c>Fe</c><c>   3</c></rc>
    <rc><c>Fe</c><c>   3</c></rc>
    <rc><c>O </c><c>   4</c></rc>
    <rc><c>O </c><c>   4</c></rc>
    <rc><c>O </c><c>   4</c></rc>
    <rc><c>O </c><c>   4</c></rc>
    <rc><c>O </c><c>   4</c></rc>
    <rc><c>O </c><c>   4</c></rc>
    <rc><c>O </c><c>   4</c></rc>
    <rc><c>O </c><c>   4</c></rc>
    <rc><c>O </c><c>   4</c></rc>
    <rc><c>O </c><c>   4</c></rc>
    <rc><c>O </c><c>   4</c></rc>
    <rc><c>O </c><c>   4</c></rc>
    <rc><c>O </c><c>   4</c></rc>
    <rc><c>O </c><c>   4</c></rc>
    <rc><c>O </c><c>   4</c></rc>
    <rc><c>O </c><c>   4</c></rc>
    <rc><c>O </c><c>   4</c></rc>
    <rc><c>O </c><c>   4</c></rc>
    <rc><c>O </c><c>   4</c></rc>
    <rc><c>O </c><c>   4</c></rc>
    <rc><c>O </c><c>   4</c></rc>
    <rc><c>O </c><c>   4</c></rc>
    <rc><c>O </c><c>   4</c></rc>
    <rc><c>O </c><c>   4</c></rc>
    <rc><c>O </c><c>   4</c></rc>
    <rc><c>O </c><c>   4</c></rc>
    <rc><c>O </c><c>   4</c></rc>
    <rc><c>O </c><c>   4</c></rc>
    <rc><c>O </c><c>   4</c></rc>
    <rc><c>O </c><c>   4</c></rc>
    <rc><c>O </c><c>   4</c></rc>
    <rc><c>O </c><c>   4</c></rc>
    <rc><c>O </c><c>   4</c></rc>
    <rc><c>O </c><c>   4</c></rc>
    <rc><c>O </c><c>   4</c></rc>
    <rc><c>O </c><c>   4</c></rc>
    <rc><c>O </c><c>   4</c></rc>
    <rc><c>O </c><c>   4</c></rc>
    <rc><c>O </c><c>   4</c></rc>
    <rc><c>O </c><c>   4</c></rc>
    <rc><c>O </c><c>   4</c></rc>
    <rc><c>O </c><c>   4</c></rc>
    <rc><c>O </c><c>   4</c></rc>
    <rc><c>O </c><c>   4</c></rc>
    <rc><c>O </c><c>   4</c></rc>
    <rc><c>O </c><c>   4</c></rc>
    <rc><c>O </c><c>   4</c></rc>
    <rc><c>O </c><c>   4</c></rc>
    <rc><c>O </c><c>   4</c></rc>
    <rc><c>O </c><c>   4</c></rc>
    <rc><c>O </c><c>   4</c></rc>
    <rc><c>O </c><c>   4</c></rc>
    <rc><c>O </c><c>   4</c></rc>
    <rc><c>O </c><c>   4</c></rc>
    <rc><c>O </c><c>   4</c></rc>
    <rc><c>O </c><c>   4</c></rc>
    <rc><c>O </c><c>   4</c></rc>
    <rc><c>O </c><c>   4</c></rc>
    <rc><c>O </c><c>   4</c></rc>
    <rc><c>O </c><c>   4</c></rc>
    <rc><c>O </c><c>   4</c></rc>
    <rc><c>O </c><c>   4</c></rc>
    <rc><c>O </c><c>   4</c></rc>
    <rc><c>O </c><c>   4</c></rc>
    <rc><c>O </c><c>   4</c></rc>
    <rc><c>O </c><c>   4</c></rc>
    <rc><c>O </c><c>   4</c></rc>
    <rc><c>O </c><c>   4</c></rc>
    <rc><c>O </c><c>   4</c></rc>
    <rc><c>O </c><c>   4</c></rc>
    <rc><c>O </c><c>   4</c></rc>
    <rc><c>O </c><c>   4</c></rc>
    <rc><c>O </c><c>   4</c></rc>
    <rc><c>O </c><c>   4</c></rc>
    <rc><c>O </c><c>   4</c></rc>
    <rc><c>O </c><c>   4</c></rc>
    <rc><c>O </c><c>   4</c></rc>
    <rc><c>O </c><c>   4</c></rc>
    <rc><c>O </c><c>   4</c></rc>
    <rc><c>O </c><c>   4</c></rc>
    <rc><c>O </c><c>   4</c></rc>
    <rc><c>O </c><c>   4</c></rc>
    <rc><c>O </c><c>   4</c></rc>
    <rc><c>O </c><c>   4</c></rc>
    <rc><c>O </c><c>   4</c></rc>
    <rc><c>O </c><c>   4</c></rc>
    <rc><c>O </c><c>   4</c></rc>
    <rc><c>O </c><c>   4</c></rc>
    <rc><c>O </c><c>   4</c></rc>
    <rc><c>O </c><c>   4</c></rc>
   </set>
  </array>
  <array name="atomtypes" >
   <dimension dim="1">type</dimension>
   <field type="int">atomspertype</field>
   <field type="string">element</field>
   <field>mass</field>
   <field>valence</field>
   <field type="string">pseudopotential</field>
   <set>
    <rc><c>  32</c><c>Sr</c><c>     87.62000000</c><c>     10.00000000</c><c>  PAW_PBE Sr_sv 07Sep2000               </c></rc>
    <rc><c>  20</c><c>Ti</c><c>     47.88000000</c><c>      4.00000000</c><c>  PAW_PBE Ti 08Apr2002                  </c></rc>
    <rc><c>  12</c><c>Fe</c><c>     55.84700000</c><c>      8.00000000</c><c>  PAW_PBE Fe 06Sep2000                  </c></rc>
    <rc><c>  90</c><c>O </c><c>     16.00000000</c><c>      6.00000000</c><c>  PAW_PBE O 08Apr2002                   </c></rc>
   </set>
  </array>
 </atominfo>
 <structure name="initialpos" >
  <crystal>
   <varray name="basis" >
    <v>      11.20963804      -0.01510306      -0.00368551 </v>
    <v>      -0.01509859      11.20452693       0.01658679 </v>
    <v>      -0.00529059       0.02342243      15.96665917 </v>
   </varray>
   <i name="volume">   2005.38328445 </i>
   <varray name="rec_basis" >
    <v>       0.08920912       0.00012017       0.00002938 </v>
    <v>       0.00012021       0.08925000      -0.00013089 </v>
    <v>       0.00002047      -0.00009269       0.06263065 </v>
   </varray>
  </crystal>
  <varray name="positions" >
   <v>       0.99436572       0.24756681       0.13101703 </v>
   <v>       0.99384010       0.25397912       0.62276309 </v>
   <v>       0.99598215       0.75242383       0.12726348 </v>
   <v>       0.00371618       0.74816875       0.62507912 </v>
   <v>       0.50260994       0.23846723       0.12840141 </v>
   <v>       0.49987672       0.26051773       0.62186431 </v>
   <v>       0.50452146       0.75974172       0.12517599 </v>
   <v>       0.49373820       0.73725224       0.62777209 </v>
   <v>       0.99904087       0.24924043       0.37535903 </v>
   <v>       0.99606332       0.25035531       0.87140082 </v>
   <v>       0.00302495       0.75149935       0.37653092 </v>
   <v>       0.99597217       0.75067503       0.87252501 </v>
   <v>       0.49867035       0.25388203       0.36878203 </v>
   <v>       0.51489113       0.25036178       0.87530320 </v>
   <v>       0.49694123       0.74861545       0.36992029 </v>
   <v>       0.50991994       0.74889153       0.87554359 </v>
   <v>       0.25003281       0.99360530       0.13128845 </v>
   <v>       0.24095192       0.98976330       0.61915582 </v>
   <v>       0.23946741       0.50583104       0.13249455 </v>
   <v>       0.24379620       0.50895417       0.62093927 </v>
   <v>       0.74964423       0.99817642       0.12499814 </v>
   <v>       0.76867013       0.00066194       0.63011004 </v>
   <v>       0.75991457       0.50400530       0.12459396 </v>
   <v>       0.74927119       0.49799806       0.62409586 </v>
   <v>       0.24789678       0.99959022       0.37117011 </v>
   <v>       0.24322360       0.98475198       0.87967181 </v>
   <v>       0.24911599       0.50249900       0.37663248 </v>
   <v>       0.24049378       0.51145549       0.86645726 </v>
   <v>       0.75104386       0.99794444       0.36986278 </v>
   <v>       0.76049587       0.99560460       0.87903348 </v>
   <v>       0.74958331       0.49995409       0.37558489 </v>
   <v>       0.75948402       0.50606618       0.86931310 </v>
   <v>       0.74772193       0.24640029       0.50034473 </v>
   <v>       0.75094745       0.25071367       0.74910392 </v>
   <v>       0.49986527       0.00125868       0.99995062 </v>
   <v>       0.75361867       0.75138230       0.74744237 </v>
   <v>       0.74556770       0.25075152       0.24961586 </v>
   <v>       0.24981843       0.74655866       0.00321237 </v>
   <v>       0.75043832       0.25016488       0.00153644 </v>
   <v>       0.25293301       0.75074299       0.25177112 </v>
   <v>       0.00075234       0.49955389       0.50054828 </v>
   <v>       0.24990150       0.25031957       0.49832403 </v>
   <v>       0.25235077       0.25281743       0.25039437 </v>
   <v>       0.00092861       0.99997864       0.50016756 </v>
   <v>       0.74525150       0.75075377       0.24841977 </v>
   <v>       0.00125229       0.50291508       0.99550589 </v>
   <v>       0.99813834       0.99711887       0.99925676 </v>
   <v>       0.49831763       0.50109546       0.50098239 </v>
   <v>       0.99932404       0.49930567       0.25261146 </v>
   <v>       0.24829858       0.75199423       0.74767444 </v>
   <v>       0.99902482       0.99953187       0.25093777 </v>
   <v>       0.49856129       0.49705350       0.75157858 </v>
   <v>       0.23649185       0.23625522       0.01060316 </v>
   <v>       0.75560138       0.75140429       0.99998320 </v>
   <v>       0.49443323       0.01317633       0.48697688 </v>
   <v>       0.51491105       0.51113422       0.99014035 </v>
   <v>       0.25216220       0.74783904       0.49986535 </v>
   <v>       0.99705693       0.50287524       0.74735780 </v>
   <v>       0.75976445       0.74160960       0.50088303 </v>
   <v>       0.23841706       0.26287296       0.73798179 </v>
   <v>       0.49903622       0.50027422       0.25940261 </v>
   <v>       0.51115559       0.99045287       0.76285982 </v>
   <v>       0.50018774       0.99979228       0.24820007 </v>
   <v>       0.00479925       0.99975712       0.75254891 </v>
   <v>       0.11402640       0.13874760       0.25428972 </v>
   <v>       0.15099374       0.13218227       0.77839673 </v>
   <v>       0.11227302       0.63672677       0.25502224 </v>
   <v>       0.11743044       0.63888988       0.75652856 </v>
   <v>       0.63293388       0.61370174       0.50096625 </v>
   <v>       0.59331481       0.13333767       0.73676625 </v>
   <v>       0.60939317       0.63364562       0.24196302 </v>
   <v>       0.11105990       0.35957471       0.50072950 </v>
   <v>       0.38953853       0.36905306       0.23372609 </v>
   <v>       0.75202416       0.74984262       0.12536872 </v>
   <v>       0.38398537       0.86413481       0.24094347 </v>
   <v>       0.38298988       0.89052314       0.73012839 </v>
   <v>       0.88614568       0.36173070       0.24957428 </v>
   <v>       0.87920336       0.36523926       0.74880791 </v>
   <v>       0.88669387       0.86218386       0.25179046 </v>
   <v>       0.88632074       0.86472694       0.74075023 </v>
   <v>       0.36234303       0.11707795       0.25158710 </v>
   <v>       0.50808689       0.98235826       0.37294595 </v>
   <v>       0.36383645       0.61400823       0.24570416 </v>
   <v>       0.99419231       0.99931424       0.37517899 </v>
   <v>       0.86362357       0.11353182       0.24774811 </v>
   <v>       0.86609914       0.11916739       0.75261527 </v>
   <v>       0.86225518       0.61239399       0.25120996 </v>
   <v>       0.86111360       0.61719276       0.73640429 </v>
   <v>       0.40414062       0.88300238       0.52416393 </v>
   <v>       0.13166472       0.38734596       0.75298396 </v>
   <v>       0.13629448       0.88792100       0.25406518 </v>
   <v>       0.13651891       0.88256401       0.75557169 </v>
   <v>       0.63621276       0.38888029       0.24346188 </v>
   <v>       0.63234888       0.38396879       0.75471417 </v>
   <v>       0.63676803       0.88607320       0.24168333 </v>
   <v>       0.63675347       0.88428455       0.76118525 </v>
   <v>       0.36639637       0.61481407       0.74281567 </v>
   <v>       0.61376182       0.13797494       0.25049336 </v>
   <v>       0.36375157       0.88352106       0.00743730 </v>
   <v>       0.35850116       0.38911360       0.50812993 </v>
   <v>       0.86520689       0.38500254       0.99865343 </v>
   <v>       0.85804740       0.38574544       0.50198751 </v>
   <v>       0.86350351       0.88873797       0.50392331 </v>
   <v>       0.13740227       0.10485967       0.99459354 </v>
   <v>       0.13932945       0.11475105       0.48845108 </v>
   <v>       0.14114012       0.61074403       0.99379695 </v>
   <v>       0.13568370       0.61233706       0.49327882 </v>
   <v>       0.63581659       0.11568468       0.99660042 </v>
   <v>       0.64210738       0.09074950       0.51199801 </v>
   <v>       0.64145515       0.61613391       0.99918362 </v>
   <v>       0.38474646       0.34399205       0.76003841 </v>
   <v>       0.01253898       0.01467180       0.62643675 </v>
   <v>       0.13664118       0.38901613       0.25631191 </v>
   <v>       0.11447879       0.85675698       0.99360179 </v>
   <v>       0.12158564       0.87030362       0.50010125 </v>
   <v>       0.59750605       0.36619600       0.01340650 </v>
   <v>       0.60849137       0.35524236       0.49883628 </v>
   <v>       0.61091219       0.87046639       0.99288995 </v>
   <v>       0.86284651       0.88942981       0.00448756 </v>
   <v>       0.38659047       0.60771149       0.02722675 </v>
   <v>       0.38634784       0.63284186       0.50289598 </v>
   <v>       0.88705031       0.13879533       0.00047466 </v>
   <v>       0.88856168       0.13989248       0.50156468 </v>
   <v>       0.89489280       0.63595187       0.00489810 </v>
   <v>       0.61237858       0.63063719       0.75666581 </v>
   <v>       0.00635238       0.99866156       0.12541614 </v>
   <v>       0.00899158       0.49077022       0.12326901 </v>
   <v>       0.00651360       0.49990384       0.62276651 </v>
   <v>       0.49600622       0.01067180       0.12048573 </v>
   <v>       0.39095443       0.14207666       0.49835265 </v>
   <v>       0.74495612       0.24655237       0.37588821 </v>
   <v>       0.50265674       0.49185272       0.62807686 </v>
   <v>       0.88895941       0.63613462       0.50238306 </v>
   <v>       0.99070090       0.99450428       0.87652795 </v>
   <v>       0.99228509       0.49580445       0.37587786 </v>
   <v>       0.98854365       0.50609724       0.87370825 </v>
   <v>       0.47461672       0.01235254       0.87580188 </v>
   <v>       0.49489185       0.49327906       0.37760424 </v>
   <v>       0.47899330       0.49515904       0.87631623 </v>
   <v>       0.26240624       0.26281985       0.37411723 </v>
   <v>       0.38550816       0.16571018       0.99074550 </v>
   <v>       0.26296041       0.75894348       0.37563312 </v>
   <v>       0.27691392       0.74716685       0.87626844 </v>
   <v>       0.74266942       0.25018801       0.87560157 </v>
   <v>       0.73389856       0.75894395       0.37791818 </v>
   <v>       0.76315405       0.74681035       0.87231340 </v>
   <v>       0.23911381       0.25871287       0.12616850 </v>
   <v>       0.25163536       0.22879527       0.62359325 </v>
   <v>       0.23497185       0.74956316       0.12525302 </v>
   <v>       0.24025231       0.74608649       0.62559627 </v>
   <v>       0.75115732       0.24734595       0.12400344 </v>
   <v>       0.74727651       0.25168405       0.62564996 </v>
   <v>       0.14137649       0.36518477       0.97416716 </v>
   <v>       0.72274281       0.76746975       0.62105687 </v>
  </varray>
 </structure>
 <calculation>
  <scstep>
   <time name="dav">  306.70  306.69</time>
   <time name="total">  310.45  310.50</time>
   <energy>
    <i name="alphaZ">   5621.87273584 </i>
    <i name="ewald"> -61787.98255216 </i>
    <i name="hartreedc"> -16772.76742781 </i>
    <i name="XCdc">   3074.62561619 </i>
    <i name="pawpsdc"> 113517.07430541 </i>
    <i name="pawaedc">-112569.73220446 </i>
    <i name="eentropy">     -0.00000000 </i>
    <i name="bandstr">  -7088.90988499 </i>
    <i name="atom">  74916.81196153 </i>
    <i name="e_fr_energy">  -1089.00745044 </i>
    <i name="e_wo_entrp">  -1089.00745044 </i>
    <i name="e_0_energy">  -1089.00745044 </i>
   </energy>
  </scstep>
  <scstep>
   <time name="diag">   33.35   33.35</time>
   <time name="diis">   29.58   29.58</time>
   <time name="orth">   18.95   18.94</time>
   <time name="total">   85.57   85.63</time>
   <energy>
    <i name="e_fr_energy">  -1089.00745119 </i>
    <i name="e_wo_entrp">  -1089.00745119 </i>
    <i name="e_0_energy">  -1089.00745119 </i>
   </energy>
  </scstep>
  <scstep>
   <time name="diag">   33.37   33.36</time>
   <time name="diis">   27.19   27.18</time>
   <time name="orth">   18.94   18.94</time>
   <time name="total">   83.20   83.27</time>
   <energy>
    <i name="e_fr_energy">  -1089.00745147 </i>
    <i name="e_wo_entrp">  -1089.00745147 </i>
    <i name="e_0_energy">  -1089.00745147 </i>
   </energy>
  </scstep>
  <scstep>
   <time name="diag">   33.31   33.32</time>
   <time name="diis">   24.36   24.36</time>
   <time name="orth">   18.93   18.93</time>
   <time name="total">   80.32   80.40</time>
   <energy>
    <i name="e_fr_energy">  -1089.00745164 </i>
    <i name="e_wo_entrp">  -1089.00745164 </i>
    <i name="e_0_energy">  -1089.00745164 </i>
   </energy>
  </scstep>
  <scstep>
   <time name="diag">   33.32   33.32</time>
   <time name="diis">   23.95   23.95</time>
   <time name="orth">   18.93   18.93</time>
   <time name="total">   79.91   80.06</time>
   <energy>
    <i name="e_fr_energy">  -1089.00745171 </i>
    <i name="e_wo_entrp">  -1089.00745171 </i>
    <i name="e_0_energy">  -1089.00745171 </i>
   </energy>
  </scstep>
  <scstep>
   <time name="diag">   33.33   33.33</time>
   <time name="diis">   22.90   22.90</time>
   <time name="orth">   18.92   18.92</time>
   <time name="total">   78.86   78.93</time>
   <energy>
    <i name="e_fr_energy">  -1089.00745176 </i>
    <i name="e_wo_entrp">  -1089.00745176 </i>
    <i name="e_0_energy">  -1089.00745176 </i>
   </energy>
  </scstep>
  <scstep>
   <time name="diag">   33.37   33.37</time>
   <time name="diis">   22.85   22.85</time>
   <time name="orth">   18.91   18.91</time>
   <time name="total">   78.85   78.90</time>
   <energy>
    <i name="e_fr_energy">  -1089.00745179 </i>
    <i name="e_wo_entrp">  -1089.00745179 </i>
    <i name="e_0_energy">  -1089.00745179 </i>
   </energy>
  </scstep>
  <scstep>
   <time name="diag">   33.32   33.32</time>
   <time name="diis">   22.13   22.12</time>
   <time name="orth">   18.89   18.89</time>
   <time name="total">   74.92   74.99</time>
   <energy>
    <i name="alphaZ">   5621.87273584 </i>
    <i name="ewald"> -61787.98255216 </i>
    <i name="hartreedc"> -16772.76259843 </i>
    <i name="XCdc">   3074.62507628 </i>
    <i name="pawpsdc"> 113516.86402084 </i>
    <i name="pawaedc">-112569.52047590 </i>
    <i name="eentropy">     -0.00000000 </i>
    <i name="bandstr">  -7088.91561981 </i>
    <i name="atom">  74916.81196153 </i>
    <i name="e_fr_energy">  -1089.00745180 </i>
    <i name="e_wo_entrp">  -1089.00745180 </i>
    <i name="e_0_energy">  -1089.00745180 </i>
   </energy>
  </scstep>
  <structure>
   <crystal>
    <varray name="basis" >
     <v>      11.20963804      -0.01510306      -0.00368551 </v>
     <v>      -0.01509859      11.20452693       0.01658679 </v>
     <v>      -0.00529059       0.02342243      15.96665917 </v>
    </varray>
    <i name="volume">   2005.38328445 </i>
    <varray name="rec_basis" >
     <v>       0.08920912       0.00012017       0.00002938 </v>
     <v>       0.00012021       0.08925000      -0.00013089 </v>
     <v>       0.00002047      -0.00009269       0.06263065 </v>
    </varray>
   </crystal>
   <varray name="positions" >
    <v>       0.99436572       0.24756681       0.13101703 </v>
    <v>       0.99384010       0.25397912       0.62276309 </v>
    <v>       0.99598215       0.75242383       0.12726348 </v>
    <v>       0.00371618       0.74816875       0.62507912 </v>
    <v>       0.50260994       0.23846723       0.12840141 </v>
    <v>       0.49987672       0.26051773       0.62186431 </v>
    <v>       0.50452146       0.75974172       0.12517599 </v>
    <v>       0.49373820       0.73725224       0.62777209 </v>
    <v>       0.99904087       0.24924043       0.37535903 </v>
    <v>       0.99606332       0.25035531       0.87140082 </v>
    <v>       0.00302495       0.75149935       0.37653092 </v>
    <v>       0.99597217       0.75067503       0.87252501 </v>
    <v>       0.49867035       0.25388203       0.36878203 </v>
    <v>       0.51489113       0.25036178       0.87530320 </v>
    <v>       0.49694123       0.74861545       0.36992029 </v>
    <v>       0.50991994       0.74889153       0.87554359 </v>
    <v>       0.25003281       0.99360530       0.13128845 </v>
    <v>       0.24095192       0.98976330       0.61915582 </v>
    <v>       0.23946741       0.50583104       0.13249455 </v>
    <v>       0.24379620       0.50895417       0.62093927 </v>
    <v>       0.74964423       0.99817642       0.12499814 </v>
    <v>       0.76867013       0.00066194       0.63011004 </v>
    <v>       0.75991457       0.50400530       0.12459396 </v>
    <v>       0.74927119       0.49799806       0.62409586 </v>
    <v>       0.24789678       0.99959022       0.37117011 </v>
    <v>       0.24322360       0.98475198       0.87967181 </v>
    <v>       0.24911599       0.50249900       0.37663248 </v>
    <v>       0.24049378       0.51145549       0.86645726 </v>
    <v>       0.75104386       0.99794444       0.36986278 </v>
    <v>       0.76049587       0.99560460       0.87903348 </v>
    <v>       0.74958331       0.49995409       0.37558489 </v>
    <v>       0.75948402       0.50606618       0.86931310 </v>
    <v>       0.74772193       0.24640029       0.50034473 </v>
    <v>       0.75094745       0.25071367       0.74910392 </v>
    <v>       0.49986527       0.00125868       0.99995062 </v>
    <v>       0.75361867       0.75138230       0.74744237 </v>
    <v>       0.74556770       0.25075152       0.24961586 </v>
    <v>       0.24981843       0.74655866       0.00321237 </v>
    <v>       0.75043832       0.25016488       0.00153644 </v>
    <v>       0.25293301       0.75074299       0.25177112 </v>
    <v>       0.00075234       0.49955389       0.50054828 </v>
    <v>       0.24990150       0.25031957       0.49832403 </v>
    <v>       0.25235077       0.25281743       0.25039437 </v>
    <v>       0.00092861       0.99997864       0.50016756 </v>
    <v>       0.74525150       0.75075377       0.24841977 </v>
    <v>       0.00125229       0.50291508       0.99550589 </v>
    <v>       0.99813834       0.99711887       0.99925676 </v>
    <v>       0.49831763       0.50109546       0.50098239 </v>
    <v>       0.99932404       0.49930567       0.25261146 </v>
    <v>       0.24829858       0.75199423       0.74767444 </v>
    <v>       0.99902482       0.99953187       0.25093777 </v>
    <v>       0.49856129       0.49705350       0.75157858 </v>
    <v>       0.23649185       0.23625522       0.01060316 </v>
    <v>       0.75560138       0.75140429       0.99998320 </v>
    <v>       0.49443323       0.01317633       0.48697688 </v>
    <v>       0.51491105       0.51113422       0.99014035 </v>
    <v>       0.25216220       0.74783904       0.49986535 </v>
    <v>       0.99705693       0.50287524       0.74735780 </v>
    <v>       0.75976445       0.74160960       0.50088303 </v>
    <v>       0.23841706       0.26287296       0.73798179 </v>
    <v>       0.49903622       0.50027422       0.25940261 </v>
    <v>       0.51115559       0.99045287       0.76285982 </v>
    <v>       0.50018774       0.99979228       0.24820007 </v>
    <v>       0.00479925       0.99975712       0.75254891 </v>
    <v>       0.11402640       0.13874760       0.25428972 </v>
    <v>       0.15099374       0.13218227       0.77839673 </v>
    <v>       0.11227302       0.63672677       0.25502224 </v>
    <v>       0.11743044       0.63888988       0.75652856 </v>
    <v>       0.63293388       0.61370174       0.50096625 </v>
    <v>       0.59331481       0.13333767       0.73676625 </v>
    <v>       0.60939317       0.63364562       0.24196302 </v>
    <v>       0.11105990       0.35957471       0.50072950 </v>
    <v>       0.38953853       0.36905306       0.23372609 </v>
    <v>       0.75202416       0.74984262       0.12536872 </v>
    <v>       0.38398537       0.86413481       0.24094347 </v>
    <v>       0.38298988       0.89052314       0.73012839 </v>
    <v>       0.88614568       0.36173070       0.24957428 </v>
    <v>       0.87920336       0.36523926       0.74880791 </v>
    <v>       0.88669387       0.86218386       0.25179046 </v>
    <v>       0.88632074       0.86472694       0.74075023 </v>
    <v>       0.36234303       0.11707795       0.25158710 </v>
    <v>       0.50808689       0.98235826       0.37294595 </v>
    <v>       0.36383645       0.61400823       0.24570416 </v>
    <v>       0.99419231       0.99931424       0.37517899 </v>
    <v>       0.86362357       0.11353182       0.24774811 </v>
    <v>       0.86609914       0.11916739       0.75261527 </v>
    <v>       0.86225518       0.61239399       0.25120996 </v>
    <v>       0.86111360       0.61719276       0.73640429 </v>
    <v>       0.40414062       0.88300238       0.52416393 </v>
    <v>       0.13166472       0.38734596       0.75298396 </v>
    <v>       0.13629448       0.88792100       0.25406518 </v>
    <v>       0.13651891       0.88256401       0.75557169 </v>
    <v>       0.63621276       0.38888029       0.24346188 </v>
    <v>       0.63234888       0.38396879       0.75471417 </v>
    <v>       0.63676803       0.88607320       0.24168333 </v>
    <v>       0.63675347       0.88428455       0.76118525 </v>
    <v>       0.36639637       0.61481407       0.74281567 </v>
    <v>       0.61376182       0.13797494       0.25049336 </v>
    <v>       0.36375157       0.88352106       0.00743730 </v>
    <v>       0.35850116       0.38911360       0.50812993 </v>
    <v>       0.86520689       0.38500254       0.99865343 </v>
    <v>       0.85804740       0.38574544       0.50198751 </v>
    <v>       0.86350351       0.88873797       0.50392331 </v>
    <v>       0.13740227       0.10485967       0.99459354 </v>
    <v>       0.13932945       0.11475105       0.48845108 </v>
    <v>       0.14114012       0.61074403       0.99379695 </v>
    <v>       0.13568370       0.61233706       0.49327882 </v>
    <v>       0.63581659       0.11568468       0.99660042 </v>
    <v>       0.64210738       0.09074950       0.51199801 </v>
    <v>       0.64145515       0.61613391       0.99918362 </v>
    <v>       0.38474646       0.34399205       0.76003841 </v>
    <v>       0.01253898       0.01467180       0.62643675 </v>
    <v>       0.13664118       0.38901613       0.25631191 </v>
    <v>       0.11447879       0.85675698       0.99360179 </v>
    <v>       0.12158564       0.87030362       0.50010125 </v>
    <v>       0.59750605       0.36619600       0.01340650 </v>
    <v>       0.60849137       0.35524236       0.49883628 </v>
    <v>       0.61091219       0.87046639       0.99288995 </v>
    <v>       0.86284651       0.88942981       0.00448756 </v>
    <v>       0.38659047       0.60771149       0.02722675 </v>
    <v>       0.38634784       0.63284186       0.50289598 </v>
    <v>       0.88705031       0.13879533       0.00047466 </v>
    <v>       0.88856168       0.13989248       0.50156468 </v>
    <v>       0.89489280       0.63595187       0.00489810 </v>
    <v>       0.61237858       0.63063719       0.75666581 </v>
    <v>       0.00635238       0.99866156       0.12541614 </v>
    <v>       0.00899158       0.49077022       0.12326901 </v>
    <v>       0.00651360       0.49990384       0.62276651 </v>
    <v>       0.49600622       0.01067180       0.12048573 </v>
    <v>       0.39095443       0.14207666       0.49835265 </v>
    <v>       0.74495612       0.24655237       0.37588821 </v>
    <v>       0.50265674       0.49185272       0.62807686 </v>
    <v>       0.88895941       0.63613462       0.50238306 </v>
    <v>       0.99070090       0.99450428       0.87652795 </v>
    <v>       0.99228509       0.49580445       0.37587786 </v>
    <v>       0.98854365       0.50609724       0.87370825 </v>
    <v>       0.47461672       0.01235254       0.87580188 </v>
    <v>       0.49489185       0.49327906       0.37760424 </v>
    <v>       0.47899330       0.49515904       0.87631623 </v>
    <v>       0.26240624       0.26281985       0.37411723 </v>
    <v>       0.38550816       0.16571018       0.99074550 </v>
    <v>       0.26296041       0.75894348       0.37563312 </v>
    <v>       0.27691392       0.74716685       0.87626844 </v>
    <v>       0.74266942       0.25018801       0.87560157 </v>
    <v>       0.73389856       0.75894395       0.37791818 </v>
    <v>       0.76315405       0.74681035       0.87231340 </v>
    <v>       0.23911381       0.25871287       0.12616850 </v>
    <v>       0.25163536       0.22879527       0.62359325 </v>
    <v>       0.23497185       0.74956316       0.12525302 </v>
    <v>       0.24025231       0.74608649       0.62559627 </v>
    <v>       0.75115732       0.24734595       0.12400344 </v>
    <v>       0.74727651       0.25168405       0.62564996 </v>
    <v>       0.14137649       0.36518477       0.97416716 </v>
    <v>       0.72274281       0.76746975       0.62105687 </v>
   </varray>
  </structure>
  <varray name="forces" >
   <v>       0.00587892      -0.00264302      -0.01230486 </v>
   <v>       0.00910135       0.00640468       0.01227212 </v>
   <v>       0.02301729      -0.01035819      -0.00642306 </v>
   <v>       0.00575694       0.00382112       0.01297141 </v>
   <v>      -0.00149827      -0.00360187      -0.00000259 </v>
   <v>      -0.00372040       0.00597717      -0.00088783 </v>
   <v>      -0.00260529      -0.00479542      -0.00146196 </v>
   <v>      -0.00154473      -0.00350004       0.00567371 </v>
   <v>      -0.00209281      -0.00471245       0.00120077 </v>
   <v>       0.00214110       0.00572411       0.00100290 </v>
   <v>      -0.00855505       0.00748799       0.00130976 </v>
   <v>       0.00890609       0.00286210      -0.00600818 </v>
   <v>      -0.00351978      -0.00389414       0.00106377 </v>
   <v>       0.00107455      -0.00431879       0.01018900 </v>
   <v>      -0.00742367      -0.00394468       0.00627078 </v>
   <v>       0.01096784       0.00293036       0.00663885 </v>
   <v>      -0.00177451       0.00784548      -0.00303399 </v>
   <v>      -0.00048644       0.00223745       0.00279013 </v>
   <v>      -0.01017664      -0.00606582       0.00335612 </v>
   <v>      -0.00517803       0.00453694       0.00102752 </v>
   <v>      -0.00397774       0.01184237       0.00149551 </v>
   <v>      -0.00354442      -0.00562177       0.01601561 </v>
   <v>      -0.00253800       0.01037665      -0.00969450 </v>
   <v>      -0.00260450      -0.00251787       0.00041038 </v>
   <v>      -0.00144477       0.00131597      -0.01014199 </v>
   <v>      -0.00177143       0.00014035       0.00364408 </v>
   <v>       0.01624314       0.00061394       0.01398657 </v>
   <v>       0.00298453       0.00405597      -0.00572603 </v>
   <v>       0.00850631       0.00441336      -0.00334914 </v>
   <v>      -0.01693989      -0.00246976      -0.00953091 </v>
   <v>       0.00093552      -0.00513383      -0.00374782 </v>
   <v>      -0.00056046       0.00924822      -0.00604348 </v>
   <v>       0.01379756      -0.00310509       0.02062442 </v>
   <v>       0.02378737       0.01695306      -0.01740346 </v>
   <v>       0.00750389       0.00585506      -0.01182478 </v>
   <v>      -0.00027878       0.01610565       0.00584241 </v>
   <v>       0.01435747      -0.01422811      -0.00386467 </v>
   <v>       0.00355561       0.01388742      -0.01406793 </v>
   <v>       0.00838858      -0.00829050       0.00297887 </v>
   <v>       0.00715187      -0.00167159      -0.00511158 </v>
   <v>       0.00691716      -0.00324525       0.01220070 </v>
   <v>      -0.00605855       0.01621603       0.00375719 </v>
   <v>      -0.00656502       0.00155518       0.00136585 </v>
   <v>      -0.01784622      -0.01712522      -0.02785436 </v>
   <v>      -0.00297981      -0.01005709       0.00191521 </v>
   <v>      -0.01429672       0.01757661       0.00977505 </v>
   <v>       0.01205222       0.01297153      -0.00132266 </v>
   <v>      -0.01484413       0.00677282       0.00489133 </v>
   <v>      -0.00105142       0.01146797      -0.03089715 </v>
   <v>      -0.03027148      -0.00010890       0.00717350 </v>
   <v>      -0.00204296       0.00076029       0.00583630 </v>
   <v>       0.02395473      -0.00150875      -0.00822596 </v>
   <v>      -0.00093635      -0.01020302       0.02971025 </v>
   <v>      -0.00598411      -0.01408736      -0.00633593 </v>
   <v>       0.00889562       0.01390669      -0.00685181 </v>
   <v>      -0.00886888       0.00267996      -0.01256690 </v>
   <v>      -0.00048805      -0.00097066       0.02091277 </v>
   <v>       0.00511021      -0.00716864       0.01488848 </v>
   <v>      -0.02132786       0.00595001      -0.00520999 </v>
   <v>       0.00102222       0.00601028      -0.00362917 </v>
   <v>      -0.00058237       0.00306453       0.00699909 </v>
   <v>       0.00754424       0.00013439      -0.00328878 </v>
   <v>      -0.00922183      -0.00450613       0.00036011 </v>
   <v>      -0.00986226      -0.00527754       0.00796187 </v>
   <v>      -0.00523961      -0.00984861       0.01355808 </v>
   <v>      -0.01127058       0.01493346      -0.00436404 </v>
   <v>      -0.00159387      -0.00347102       0.00411184 </v>
   <v>      -0.00361834      -0.00714625      -0.01213912 </v>
   <v>       0.01018923       0.00537304      -0.01898884 </v>
   <v>      -0.00982222      -0.00822830       0.00093896 </v>
   <v>       0.00484393       0.01437156      -0.00207856 </v>
   <v>      -0.00026671       0.00369895      -0.01385438 </v>
   <v>       0.00813799       0.00166421      -0.01848932 </v>
   <v>      -0.02026893       0.00956440       0.01142372 </v>
   <v>      -0.00979221      -0.00118909       0.01548064 </v>
   <v>      -0.00035888      -0.00069466       0.03321443 </v>
   <v>      -0.00235623       0.01315985       0.00522121 </v>
   <v>       0.00073684       0.00768507      -0.00859372 </v>
   <v>       0.00532946       0.01127930      -0.02434937 </v>
   <v>      -0.02000750      -0.01056258       0.00287021 </v>
   <v>       0.00219556       0.01285980       0.00473592 </v>
   <v>      -0.01597562       0.00812900       0.00832864 </v>
   <v>      -0.00863173       0.00079379      -0.00404365 </v>
   <v>      -0.00768973      -0.01355770       0.01239682 </v>
   <v>       0.00749860      -0.01077919      -0.00532553 </v>
   <v>       0.00561068      -0.01887005      -0.00182055 </v>
   <v>       0.00776469      -0.00927691      -0.00251635 </v>
   <v>       0.00598226      -0.00171574       0.01820606 </v>
   <v>      -0.01054409       0.00092226      -0.00631037 </v>
   <v>       0.01284876       0.00259662       0.01306264 </v>
   <v>      -0.00648558       0.00175228      -0.00764083 </v>
   <v>       0.02083581      -0.00780583      -0.00933347 </v>
   <v>      -0.00308388      -0.00227890      -0.00568698 </v>
   <v>      -0.01248975      -0.00205611      -0.00433283 </v>
   <v>       0.00716441      -0.00833113       0.01577045 </v>
   <v>       0.00057326      -0.02208794      -0.00920852 </v>
   <v>      -0.00229238       0.00239259       0.00814732 </v>
   <v>       0.00761747       0.00139875       0.01234384 </v>
   <v>       0.01117813      -0.00085895      -0.00202987 </v>
   <v>      -0.00432474      -0.01798418      -0.00681311 </v>
   <v>      -0.00483181      -0.00373163       0.00795766 </v>
   <v>       0.00449215       0.01069032      -0.01065143 </v>
   <v>      -0.00148796      -0.00788295       0.01905715 </v>
   <v>      -0.00205819       0.01291486      -0.01383840 </v>
   <v>       0.00123921      -0.00118175       0.00181465 </v>
   <v>       0.00155615      -0.00636476      -0.00703376 </v>
   <v>       0.00435713       0.01031559       0.01313694 </v>
   <v>       0.00432525      -0.00005355      -0.00044379 </v>
   <v>      -0.00988318       0.00582206      -0.00937572 </v>
   <v>      -0.00612728       0.00039118      -0.01039250 </v>
   <v>      -0.01356331      -0.01273234      -0.02138999 </v>
   <v>      -0.00103398       0.00656161      -0.02840826 </v>
   <v>      -0.00224979      -0.00180312       0.00000894 </v>
   <v>      -0.00388170       0.01688808       0.00288165 </v>
   <v>       0.00215113       0.00396726      -0.00321846 </v>
   <v>      -0.00264494       0.01281672      -0.01157837 </v>
   <v>       0.00568708      -0.00570729      -0.00676350 </v>
   <v>      -0.00861991      -0.00148602       0.00319610 </v>
   <v>       0.00757859      -0.00715260       0.00325666 </v>
   <v>       0.01315079      -0.00479140      -0.01389912 </v>
   <v>      -0.01721717       0.01123643       0.00008573 </v>
   <v>      -0.00516735       0.00171663      -0.00055456 </v>
   <v>       0.00058134      -0.01174273      -0.00528301 </v>
   <v>      -0.00167841      -0.01153124       0.00350519 </v>
   <v>      -0.00757330      -0.00410643       0.00313765 </v>
   <v>       0.01810056       0.00897054       0.01197306 </v>
   <v>      -0.00042545      -0.00052522       0.00602848 </v>
   <v>       0.01811820       0.00241467      -0.00622453 </v>
   <v>       0.02269840       0.00165988       0.00389758 </v>
   <v>      -0.00255464      -0.00610761       0.02925321 </v>
   <v>       0.00477795       0.00251306       0.01115051 </v>
   <v>      -0.00161406      -0.00299555       0.00100684 </v>
   <v>       0.01154488      -0.01448757       0.00737450 </v>
   <v>       0.00740117       0.00551004       0.01011757 </v>
   <v>      -0.00544349       0.00776867      -0.00109955 </v>
   <v>       0.01223333      -0.00337309      -0.01019255 </v>
   <v>       0.00654933       0.00263675       0.01226623 </v>
   <v>       0.00497529      -0.00750565      -0.01569737 </v>
   <v>      -0.00806615      -0.01181361       0.01092227 </v>
   <v>       0.02357234      -0.00486328       0.00008571 </v>
   <v>       0.00175875       0.00601091       0.01871097 </v>
   <v>       0.00646573      -0.00483639      -0.00718880 </v>
   <v>      -0.01165536       0.00792453       0.00743209 </v>
   <v>      -0.00938915       0.00392242       0.01181240 </v>
   <v>       0.02088889      -0.01139531       0.00196264 </v>
   <v>      -0.00240135      -0.00290525      -0.00520880 </v>
   <v>      -0.01245228      -0.01942967      -0.01710330 </v>
   <v>      -0.01235143       0.00719445      -0.00408927 </v>
   <v>       0.00459276      -0.00829517       0.00461426 </v>
   <v>       0.01186309       0.00885770      -0.01500328 </v>
   <v>       0.00109210       0.00340200       0.00485399 </v>
   <v>      -0.00888309      -0.00758040      -0.02277552 </v>
   <v>      -0.00428142       0.00656855       0.00179870 </v>
   <v>      -0.02069860      -0.01669529       0.00052221 </v>
  </varray>
  <varray name="stress" >
   <v>       0.18381091       0.07237304      -0.02703403 </v>
   <v>       0.07237269       0.27313517       0.07205652 </v>
   <v>      -0.02703413       0.07205667      -0.06850667 </v>
  </varray>
  <energy>
   <i name="e_fr_energy">  -1089.00745180 </i>
   <i name="e_wo_entrp">  -1089.00745180 </i>
   <i name="e_0_energy">     -0.00000000 </i>
  </energy>
  <time name="totalsc"> 1024.28 1026.51</time>
 </calculation>
 <calculation>
  <scstep>
   <time name="dav">  287.11  287.10</time>
   <time name="total">  290.85  290.92</time>
   <energy>
    <i name="alphaZ">   5621.01660758 </i>
    <i name="ewald"> -61784.40206345 </i>
    <i name="hartreedc"> -16772.23322680 </i>
    <i name="XCdc">   3074.42606781 </i>
    <i name="pawpsdc"> 113516.86494225 </i>
    <i name="pawaedc">-112569.52139901 </i>
    <i name="eentropy">     -0.00000000 </i>
    <i name="bandstr">  -7091.97053189 </i>
    <i name="atom">  74916.81196153 </i>
    <i name="e_fr_energy">  -1089.00764199 </i>
    <i name="e_wo_entrp">  -1089.00764199 </i>
    <i name="e_0_energy">  -1089.00764199 </i>
   </energy>
  </scstep>
  <scstep>
   <time name="diag">   33.35   33.35</time>
   <time name="diis">   52.16   52.16</time>
   <time name="orth">   18.94   18.94</time>
   <time name="total">  108.14  108.15</time>
   <energy>
    <i name="e_fr_energy">  -1089.00881180 </i>
    <i name="e_wo_entrp">  -1089.00881180 </i>
    <i name="e_0_energy">  -1089.00881180 </i>
   </energy>
  </scstep>
  <scstep>
   <time name="diag">   33.35   33.35</time>
   <time name="diis">   46.27   46.27</time>
   <time name="orth">   18.91   18.91</time>
   <time name="total">  102.23  102.33</time>
   <energy>
    <i name="e_fr_energy">  -1089.00885297 </i>
    <i name="e_wo_entrp">  -1089.00885297 </i>
    <i name="e_0_energy">  -1089.00885297 </i>
   </energy>
  </scstep>
  <scstep>
   <time name="diag">   33.31   33.31</time>
   <time name="diis">   33.34   33.34</time>
   <time name="orth">   18.94   18.94</time>
   <time name="total">   89.30   89.36</time>
   <energy>
    <i name="e_fr_energy">  -1089.00878800 </i>
    <i name="e_wo_entrp">  -1089.00878800 </i>
    <i name="e_0_energy">  -1089.00878800 </i>
   </energy>
  </scstep>
  <scstep>
   <time name="diag">   33.33   33.32</time>
   <time name="diis">   32.20   32.20</time>
   <time name="orth">   18.94   18.94</time>
   <time name="total">   88.17   88.23</time>
   <energy>
    <i name="e_fr_energy">  -1089.00877323 </i>
    <i name="e_wo_entrp">  -1089.00877323 </i>
    <i name="e_0_energy">  -1089.00877323 </i>
   </energy>
  </scstep>
  <scstep>
   <time name="diag">   33.33   33.33</time>
   <time name="diis">   31.79   31.79</time>
   <time name="orth">   18.94   18.93</time>
   <time name="total">   87.75   87.80</time>
   <energy>
    <i name="e_fr_energy">  -1089.00877399 </i>
    <i name="e_wo_entrp">  -1089.00877399 </i>
    <i name="e_0_energy">  -1089.00877399 </i>
   </energy>
  </scstep>
  <scstep>
   <time name="diag">   33.40   33.40</time>
   <time name="diis">   30.46   30.46</time>
   <time name="orth">   18.96   18.96</time>
   <time name="total">   86.57   86.63</time>
   <energy>
    <i name="e_fr_energy">  -1089.00877391 </i>
    <i name="e_wo_entrp">  -1089.00877391 </i>
    <i name="e_0_energy">  -1089.00877391 </i>
   </energy>
  </scstep>
  <scstep>
   <time name="diag">   33.41   33.41</time>
   <time name="diis">   29.42   29.42</time>
   <time name="orth">   18.96   18.96</time>
   <time name="total">   82.37   82.46</time>
   <energy>
    <i name="alphaZ">   5621.01660758 </i>
    <i name="ewald"> -61784.40206345 </i>
    <i name="hartreedc"> -16774.36435329 </i>
    <i name="XCdc">   3074.57756753 </i>
    <i name="pawpsdc"> 113484.02839155 </i>
    <i name="pawaedc">-112536.67618947 </i>
    <i name="eentropy">     -0.00000000 </i>
    <i name="bandstr">  -7090.00069539 </i>
    <i name="atom">  74916.81196153 </i>
    <i name="e_fr_energy">  -1089.00877341 </i>
    <i name="e_wo_entrp">  -1089.00877341 </i>
    <i name="e_0_energy">  -1089.00877341 </i>
   </energy>
  </scstep>
  <structure>
   <crystal>
    <varray name="basis" >
     <v>      11.21044556      -0.01478668      -0.00380466 </v>
     <v>      -0.01478190      11.20572693       0.01690307 </v>
     <v>      -0.00545955       0.02387590      15.96623100 </v>
    </varray>
    <i name="volume">   2005.68872125 </i>
    <varray name="rec_basis" >
     <v>       0.08920269       0.00011762       0.00003033 </v>
     <v>       0.00011766       0.08924044      -0.00013341 </v>
     <v>       0.00002113      -0.00009445       0.06263234 </v>
    </varray>
   </crystal>
   <varray name="positions" >
    <v>       0.99439099       0.24755554       0.13097987 </v>
    <v>       0.99387932       0.25400667       0.62280015 </v>
    <v>       0.99608114       0.75237941       0.12724415 </v>
    <v>       0.00374099       0.74818515       0.62511830 </v>
    <v>       0.50260347       0.23845172       0.12840142 </v>
    <v>       0.49986075       0.26054345       0.62186160 </v>
    <v>       0.50451021       0.75972107       0.12517159 </v>
    <v>       0.49373154       0.73723712       0.62778924 </v>
    <v>       0.99903183       0.24922012       0.37536268 </v>
    <v>       0.99607257       0.25037997       0.87140383 </v>
    <v>       0.00298818       0.75153153       0.37653484 </v>
    <v>       0.99601051       0.75068745       0.87250685 </v>
    <v>       0.49865518       0.25386524       0.36878526 </v>
    <v>       0.51489574       0.25034312       0.87533401 </v>
    <v>       0.49690926       0.74859838       0.36993925 </v>
    <v>       0.50996717       0.74890417       0.87556364 </v>
    <v>       0.25002522       0.99363909       0.13127925 </v>
    <v>       0.24094985       0.98977291       0.61916424 </v>
    <v>       0.23942358       0.50580484       0.13250471 </v>
    <v>       0.24377394       0.50897367       0.62094235 </v>
    <v>       0.74962718       0.99822738       0.12500261 </v>
    <v>       0.76865487       0.00063761       0.63015845 </v>
    <v>       0.75990370       0.50405002       0.12456462 </v>
    <v>       0.74925997       0.49798720       0.62409711 </v>
    <v>       0.24789056       0.99959594       0.37113946 </v>
    <v>       0.24321598       0.98475256       0.87968282 </v>
    <v>       0.24918592       0.50250165       0.37667475 </v>
    <v>       0.24050664       0.51147301       0.86643994 </v>
    <v>       0.75108049       0.99796352       0.36985265 </v>
    <v>       0.76042294       0.99559393       0.87900468 </v>
    <v>       0.74958730       0.49993201       0.37557359 </v>
    <v>       0.75948166       0.50610603       0.86929480 </v>
    <v>       0.74778132       0.24638687       0.50040707 </v>
    <v>       0.75104990       0.25078691       0.74905128 </v>
    <v>       0.49989758       0.00128401       0.99991488 </v>
    <v>       0.75361757       0.75145161       0.74745995 </v>
    <v>       0.74562940       0.25069037       0.24960426 </v>
    <v>       0.24983379       0.74661857       0.00316981 </v>
    <v>       0.75047438       0.25012921       0.00154549 </v>
    <v>       0.25296377       0.75073586       0.25175569 </v>
    <v>       0.00078211       0.49953988       0.50058516 </v>
    <v>       0.24987553       0.25038933       0.49833531 </v>
    <v>       0.25232253       0.25282408       0.25039849 </v>
    <v>       0.00085166       0.99990498       0.50008346 </v>
    <v>       0.74523862       0.75071044       0.24842560 </v>
    <v>       0.00119088       0.50299061       0.99553533 </v>
    <v>       0.99819028       0.99717480       0.99925272 </v>
    <v>       0.49825379       0.50112451       0.50099712 </v>
    <v>       0.99931954       0.49935524       0.25251806 </v>
    <v>       0.24816831       0.75199354       0.74769609 </v>
    <v>       0.99901604       0.99953509       0.25095539 </v>
    <v>       0.49866437       0.49704719       0.75155376 </v>
    <v>       0.23648781       0.23621110       0.01069298 </v>
    <v>       0.75557553       0.75134364       0.99996411 </v>
    <v>       0.49447158       0.01323630       0.48695612 </v>
    <v>       0.51487288       0.51114579       0.99010236 </v>
    <v>       0.25216013       0.74783473       0.49992854 </v>
    <v>       0.99707891       0.50284431       0.74740282 </v>
    <v>       0.75967269       0.74163513       0.50086724 </v>
    <v>       0.23842149       0.26289886       0.73797080 </v>
    <v>       0.49903375       0.50028736       0.25942375 </v>
    <v>       0.51118806       0.99045351       0.76284989 </v>
    <v>       0.50014803       0.99977282       0.24820116 </v>
    <v>       0.00475679       0.99973429       0.75257298 </v>
    <v>       0.11400381       0.13870508       0.25433073 </v>
    <v>       0.15094531       0.13224653       0.77838346 </v>
    <v>       0.11226614       0.63671179       0.25503468 </v>
    <v>       0.11741481       0.63885916       0.75649191 </v>
    <v>       0.63297774       0.61372505       0.50090886 </v>
    <v>       0.59327249       0.13330218       0.73676912 </v>
    <v>       0.60941410       0.63370754       0.24195668 </v>
    <v>       0.11105875       0.35959072       0.50068763 </v>
    <v>       0.38957353       0.36906039       0.23367023 </v>
    <v>       0.75193700       0.74988361       0.12540317 </v>
    <v>       0.38394324       0.86412954       0.24099024 </v>
    <v>       0.38298838       0.89051994       0.73022875 </v>
    <v>       0.88613563       0.36178732       0.24959000 </v>
    <v>       0.87920657       0.36527241       0.74878192 </v>
    <v>       0.88671684       0.86223261       0.25171685 </v>
    <v>       0.88623457       0.86468133       0.74075893 </v>
    <v>       0.36235257       0.11713331       0.25160135 </v>
    <v>       0.50801820       0.98239312       0.37297106 </v>
    <v>       0.36379930       0.61401162       0.24569193 </v>
    <v>       0.99415915       0.99925574       0.37521650 </v>
    <v>       0.86365577       0.11348549       0.24773208 </v>
    <v>       0.86612318       0.11908619       0.75260986 </v>
    <v>       0.86228854       0.61235411       0.25120241 </v>
    <v>       0.86113936       0.61718529       0.73645931 </v>
    <v>       0.40409524       0.88300633       0.52414485 </v>
    <v>       0.13172005       0.38735713       0.75302343 </v>
    <v>       0.13626657       0.88792856       0.25404207 </v>
    <v>       0.13660852       0.88253058       0.75554355 </v>
    <v>       0.63619947       0.38887049       0.24344471 </v>
    <v>       0.63229511       0.38395989       0.75470107 </v>
    <v>       0.63679884       0.88603728       0.24173102 </v>
    <v>       0.63675580       0.88418951       0.76115753 </v>
    <v>       0.36638653       0.61482431       0.74284027 </v>
    <v>       0.61379463       0.13798093       0.25053066 </v>
    <v>       0.36379966       0.88351744       0.00743118 </v>
    <v>       0.35848243       0.38903618       0.50810942 </v>
    <v>       0.86518608       0.38498639       0.99867749 </v>
    <v>       0.85806678       0.38579156       0.50195528 </v>
    <v>       0.86349709       0.88870390       0.50398093 </v>
    <v>       0.13739347       0.10491535       0.99455166 </v>
    <v>       0.13933478       0.11474596       0.48845657 </v>
    <v>       0.14114677       0.61071668       0.99377573 </v>
    <v>       0.13570253       0.61238142       0.49331847 </v>
    <v>       0.63583520       0.11568447       0.99659909 </v>
    <v>       0.64206486       0.09077457       0.51196965 </v>
    <v>       0.64142877       0.61613563       0.99915221 </v>
    <v>       0.38468798       0.34393729       0.75997382 </v>
    <v>       0.01253453       0.01470023       0.62635089 </v>
    <v>       0.13663149       0.38900835       0.25631194 </v>
    <v>       0.11446219       0.85682965       0.99361042 </v>
    <v>       0.12159491       0.87032073       0.50009151 </v>
    <v>       0.59749472       0.36625124       0.01337146 </v>
    <v>       0.60851580       0.35521786       0.49881588 </v>
    <v>       0.61087509       0.87045992       0.99289961 </v>
    <v>       0.86287909       0.88939904       0.00449744 </v>
    <v>       0.38664702       0.60769102       0.02718479 </v>
    <v>       0.38627381       0.63289014       0.50289617 </v>
    <v>       0.88702808       0.13880269       0.00047297 </v>
    <v>       0.88856411       0.13984195       0.50154877 </v>
    <v>       0.89488551       0.63590218       0.00490874 </v>
    <v>       0.61234597       0.63061945       0.75667530 </v>
    <v>       0.00643035       0.99870022       0.12545229 </v>
    <v>       0.00898976       0.49076792       0.12328723 </v>
    <v>       0.00659158       0.49991438       0.62274771 </v>
    <v>       0.49610392       0.01067906       0.12049752 </v>
    <v>       0.39094344       0.14205017       0.49844106 </v>
    <v>       0.74497671       0.24656314       0.37592190 </v>
    <v>       0.50264978       0.49183981       0.62807991 </v>
    <v>       0.88900902       0.63607227       0.50240541 </v>
    <v>       0.99073280       0.99452799       0.87655850 </v>
    <v>       0.99226171       0.49583787       0.37587449 </v>
    <v>       0.98859626       0.50608285       0.87367748 </v>
    <v>       0.47464494       0.01236385       0.87583894 </v>
    <v>       0.49491319       0.49324687       0.37755685 </v>
    <v>       0.47895854       0.49510806       0.87634928 </v>
    <v>       0.26250766       0.26279905       0.37411753 </v>
    <v>       0.38551579       0.16573595       0.99080201 </v>
    <v>       0.26298820       0.75892274       0.37561142 </v>
    <v>       0.27686382       0.74720086       0.87629085 </v>
    <v>       0.74262905       0.25020476       0.87563723 </v>
    <v>       0.73398839       0.75889499       0.37792418 </v>
    <v>       0.76314369       0.74679786       0.87229768 </v>
    <v>       0.23906008       0.25862925       0.12611690 </v>
    <v>       0.25158224       0.22882620       0.62358085 </v>
    <v>       0.23499157       0.74952744       0.12526701 </v>
    <v>       0.24030340       0.74612479       0.62555091 </v>
    <v>       0.75116205       0.24736058       0.12401809 </v>
    <v>       0.74723820       0.25165150       0.62558117 </v>
    <v>       0.14135811       0.36521302       0.97417256 </v>
    <v>       0.72265364       0.76739774       0.62105850 </v>
   </varray>
  </structure>
  <varray name="forces" >
   <v>       0.00357442      -0.00037980      -0.00792720 </v>
   <v>       0.01721006      -0.00087181      -0.00103758 </v>
   <v>       0.01785949      -0.00130110       0.00127900 </v>
   <v>       0.00081051       0.00113084      -0.00104101 </v>
   <v>       0.00165770       0.00125733       0.00279854 </v>
   <v>      -0.00638346      -0.00015554      -0.00499696 </v>
   <v>      -0.00179070      -0.00173380      -0.00126896 </v>
   <v>      -0.00779265       0.00178468       0.00661668 </v>
   <v>      -0.00325559       0.00335549       0.00190952 </v>
   <v>       0.00823256       0.00700768       0.00698256 </v>
   <v>      -0.00602016      -0.00069889       0.00163902 </v>
   <v>       0.00417166       0.00150431      -0.00031177 </v>
   <v>       0.00225160      -0.00388067       0.00110999 </v>
   <v>      -0.00217544       0.00072831       0.00580459 </v>
   <v>      -0.00923997       0.00115100       0.00660073 </v>
   <v>       0.00412912       0.00033962       0.00472563 </v>
   <v>      -0.00247537       0.00622160       0.00043915 </v>
   <v>      -0.00176496       0.00640245      -0.00714379 </v>
   <v>      -0.00307278      -0.00368730       0.00088589 </v>
   <v>      -0.00465063       0.00616286       0.00382362 </v>
   <v>      -0.00227978       0.00217525       0.00520323 </v>
   <v>      -0.00377328      -0.00745642       0.00525914 </v>
   <v>      -0.00932718       0.00646795      -0.00546061 </v>
   <v>       0.00264513       0.00912208      -0.00862196 </v>
   <v>      -0.00106487      -0.00115485      -0.00384601 </v>
   <v>       0.00122299       0.00542178       0.00047488 </v>
   <v>       0.00283144       0.00272381       0.00738986 </v>
   <v>       0.00442781      -0.00158129      -0.00002092 </v>
   <v>       0.00292352       0.00574905      -0.00414271 </v>
   <v>      -0.01328507      -0.00069873      -0.00201633 </v>
   <v>       0.00658682      -0.01029738      -0.00363104 </v>
   <v>      -0.00084259       0.00695351      -0.00198633 </v>
   <v>       0.00866111      -0.00089587      -0.01551484 </v>
   <v>       0.00318236      -0.00299390       0.00112781 </v>
   <v>       0.00798464       0.00232447       0.00822405 </v>
   <v>      -0.00185584      -0.00771577      -0.00458270 </v>
   <v>      -0.00067072       0.00652681       0.02932716 </v>
   <v>       0.00072744       0.00309401       0.00744031 </v>
   <v>       0.00096065       0.00269314       0.00391735 </v>
   <v>      -0.00549947      -0.00030529       0.00656054 </v>
   <v>      -0.00554643       0.01359292      -0.01829003 </v>
   <v>      -0.00783020      -0.02300319      -0.00129569 </v>
   <v>      -0.00488182       0.00876639       0.00657025 </v>
   <v>       0.00885996      -0.01077319       0.00497101 </v>
   <v>       0.00114235      -0.00250802       0.00094954 </v>
   <v>      -0.00184964      -0.01797964      -0.00270814 </v>
   <v>      -0.00865923       0.00756786       0.01853151 </v>
   <v>       0.00745733      -0.00603475      -0.00775330 </v>
   <v>       0.01150978      -0.00450648       0.02506287 </v>
   <v>       0.01243786      -0.02348216      -0.01951440 </v>
   <v>       0.01332574      -0.00069936      -0.00455359 </v>
   <v>      -0.00189255       0.01061659       0.00605240 </v>
   <v>      -0.00626738       0.00706921      -0.01055437 </v>
   <v>      -0.00469659       0.00118723       0.00614185 </v>
   <v>      -0.01064997      -0.00013946       0.00862351 </v>
   <v>       0.00010466       0.00136143       0.00126335 </v>
   <v>      -0.00868692       0.01165084       0.00380066 </v>
   <v>       0.00834959       0.00026556       0.00403939 </v>
   <v>       0.00478233      -0.01392533      -0.00351516 </v>
   <v>       0.00123870      -0.00010947      -0.00539467 </v>
   <v>       0.00306837      -0.00116687      -0.01030637 </v>
   <v>      -0.00404599      -0.00551365       0.00191448 </v>
   <v>      -0.00028171      -0.00269928       0.00328891 </v>
   <v>      -0.00139076       0.00216982      -0.00739598 </v>
   <v>       0.00098149      -0.00114720       0.01217518 </v>
   <v>      -0.01633956       0.00706557      -0.00334349 </v>
   <v>       0.00006436      -0.00060536      -0.00225473 </v>
   <v>      -0.00482066      -0.00076701      -0.00936306 </v>
   <v>      -0.00870352      -0.00470607      -0.01596311 </v>
   <v>      -0.00038238      -0.00440307      -0.00010474 </v>
   <v>      -0.00071121       0.00264939       0.00142855 </v>
   <v>       0.00272774       0.00123417      -0.01123236 </v>
   <v>      -0.00078431      -0.00033571      -0.01831061 </v>
   <v>      -0.01131721       0.00230192      -0.00997157 </v>
   <v>       0.00087622       0.00707314       0.00678859 </v>
   <v>       0.00337600       0.00194575       0.02656037 </v>
   <v>      -0.00322333       0.00324667      -0.00166616 </v>
   <v>      -0.00269073      -0.00058684      -0.01011235 </v>
[...]
       <r>   -16.6430     0.0000    32.0000 </r>
       <r>   -16.4899     0.0000    32.0000 </r>
       <r>   -16.3368     0.0000    32.0000 </r>
       <r>   -16.1836     0.0000    32.0000 </r>
       <r>   -16.0305     0.0000    32.0000 </r>
       <r>   -15.8774     0.0000    32.0000 </r>
       <r>   -15.7242     0.0000    32.0000 </r>
       <r>   -15.5711     0.0000    32.0000 </r>
       <r>   -15.4180     0.0000    32.0000 </r>
       <r>   -15.2648     0.0000    32.0000 </r>
       <r>   -15.1117     0.5601    32.0858 </r>
       <r>   -14.9586    33.1597    37.1637 </r>
       <r>   -14.8054    53.8216    45.4057 </r>
       <r>   -14.6523    41.4862    51.7587 </r>
       <r>   -14.4991    29.9837    56.3503 </r>
       <r>   -14.3460    33.1230    61.4226 </r>
       <r>   -14.1929    54.7280    69.8034 </r>
       <r>   -14.0397   110.1616    86.6730 </r>
       <r>   -13.8866   112.1973   103.8544 </r>
       <r>   -13.7335    81.5066   116.3359 </r>
       <r>   -13.5803    36.3551   121.9032 </r>
       <r>   -13.4272     0.6321   122.0000 </r>
       <r>   -13.2741     0.0000   122.0000 </r>
       <r>   -13.1209     0.0000   122.0000 </r>
       <r>   -12.9678     0.0002   122.0000 </r>
       <r>   -12.8147     4.0438   122.6193 </r>
       <r>   -12.6615    15.9296   125.0587 </r>
       <r>   -12.5084   100.8053   140.4955 </r>
       <r>   -12.3553   158.9134   164.8308 </r>
       <r>   -12.2021   123.0900   183.6802 </r>
       <r>   -12.0490   117.7557   201.7128 </r>
       <r>   -11.8958    80.5190   214.0431 </r>
       <r>   -11.7427    25.6502   217.9710 </r>
       <r>   -11.5896     0.1891   218.0000 </r>
       <r>   -11.4364     0.0000   218.0000 </r>
       <r>   -11.2833     0.0000   218.0000 </r>
       <r>   -11.1302     0.0000   218.0000 </r>
       <r>   -10.9770     0.0000   218.0000 </r>
       <r>   -10.8239     0.0000   218.0000 </r>
       <r>   -10.6708     0.0000   218.0000 </r>
       <r>   -10.5176     0.0000   218.0000 </r>
       <r>   -10.3645     0.0000   218.0000 </r>
       <r>   -10.2114     0.0000   218.0000 </r>
       <r>   -10.0582     0.0000   218.0000 </r>
       <r>    -9.9051     0.0000   218.0000 </r>
       <r>    -9.7519     0.0000   218.0000 </r>
       <r>    -9.5988     0.0000   218.0000 </r>
       <r>    -9.4457     0.0000   218.0000 </r>
       <r>    -9.2925     0.0000   218.0000 </r>
       <r>    -9.1394     0.0000   218.0000 </r>
       <r>    -8.9863     0.0000   218.0000 </r>
       <r>    -8.8331     0.0000   218.0000 </r>
       <r>    -8.6800     0.0000   218.0000 </r>
       <r>    -8.5269     0.0000   218.0000 </r>
       <r>    -8.3737     0.0000   218.0000 </r>
       <r>    -8.2206     0.0000   218.0000 </r>
       <r>    -8.0675     0.0000   218.0000 </r>
       <r>    -7.9143     0.0000   218.0000 </r>
       <r>    -7.7612     0.0000   218.0000 </r>
       <r>    -7.6081     0.0000   218.0000 </r>
       <r>    -7.4549     0.0000   218.0000 </r>
       <r>    -7.3018     0.0000   218.0000 </r>
       <r>    -7.1486     0.0000   218.0000 </r>
       <r>    -6.9955     0.0000   218.0000 </r>
       <r>    -6.8424     0.0000   218.0000 </r>
       <r>    -6.6892     0.0000   218.0000 </r>
       <r>    -6.5361     0.0000   218.0000 </r>
       <r>    -6.3830     0.0000   218.0000 </r>
       <r>    -6.2298     0.0000   218.0000 </r>
       <r>    -6.0767     0.0000   218.0000 </r>
       <r>    -5.9236     0.0000   218.0000 </r>
       <r>    -5.7704     0.0000   218.0000 </r>
       <r>    -5.6173     0.0000   218.0000 </r>
       <r>    -5.4642     0.0000   218.0000 </r>
       <r>    -5.3110     0.0000   218.0000 </r>
       <r>    -5.1579     0.0000   218.0000 </r>
       <r>    -5.0048     0.0000   218.0000 </r>
       <r>    -4.8516     0.0000   218.0000 </r>
       <r>    -4.6985     0.0000   218.0000 </r>
       <r>    -4.5453     0.0000   218.0000 </r>
       <r>    -4.3922     0.0000   218.0000 </r>
       <r>    -4.2391     0.0000   218.0000 </r>
       <r>    -4.0859     0.0000   218.0000 </r>
       <r>    -3.9328     0.0000   218.0000 </r>
       <r>    -3.7797     0.0000   218.0000 </r>
       <r>    -3.6265     0.0000   218.0000 </r>
       <r>    -3.4734     0.0000   218.0000 </r>
       <r>    -3.3203     0.0000   218.0000 </r>
       <r>    -3.1671     0.0000   218.0000 </r>
       <r>    -3.0140     0.0000   218.0000 </r>
       <r>    -2.8609     0.0000   218.0000 </r>
       <r>    -2.7077     0.0000   218.0000 </r>
       <r>    -2.5546     0.0000   218.0000 </r>
       <r>    -2.4015     1.2414   218.1901 </r>
       <r>    -2.2483    16.7579   220.7563 </r>
       <r>    -2.0952    21.8535   224.1029 </r>
       <r>    -1.9420    25.4183   227.9953 </r>
       <r>    -1.7889    33.5551   233.1338 </r>
       <r>    -1.6358    40.8564   239.3904 </r>
       <r>    -1.4826    49.8222   247.0199 </r>
       <r>    -1.3295    58.6900   256.0074 </r>
       <r>    -1.1764    60.5407   265.2783 </r>
       <r>    -1.0232    76.2959   276.9619 </r>
       <r>    -0.8701    78.2376   288.9429 </r>
       <r>    -0.7170    85.2198   301.9931 </r>
       <r>    -0.5638    97.8647   316.9796 </r>
       <r>    -0.4107    97.0188   331.8366 </r>
       <r>    -0.2576    75.2549   343.3608 </r>
       <r>    -0.1044    56.1076   351.9529 </r>
       <r>     0.0487    47.3532   359.2043 </r>
       <r>     0.2019    51.8684   367.1472 </r>
       <r>     0.3550    56.6394   375.8207 </r>
       <r>     0.5081    58.9923   384.8545 </r>
       <r>     0.6613    53.9203   393.1116 </r>
       <r>     0.8144    50.3720   400.8254 </r>
       <r>     0.9675    51.1203   408.6537 </r>
       <r>     1.1207    59.2116   417.7211 </r>
       <r>     1.2738    77.6981   429.6194 </r>
       <r>     1.4269    83.4407   442.3971 </r>
       <r>     1.5801    86.8882   455.7028 </r>
       <r>     1.7332    77.6838   467.5989 </r>
       <r>     1.8863    54.6200   475.9632 </r>
       <r>     2.0395    42.6507   482.4945 </r>
       <r>     2.1926    31.8831   487.3770 </r>
       <r>     2.3457     4.0685   488.0000 </r>
       <r>     2.4989     0.0000   488.0000 </r>
       <r>     2.6520     0.0000   488.0000 </r>
       <r>     2.8052     0.0000   488.0000 </r>
       <r>     2.9583     0.0000   488.0000 </r>
       <r>     3.1114     0.0000   488.0000 </r>
       <r>     3.2646     0.0000   488.0000 </r>
       <r>     3.4177     0.0000   488.0000 </r>
       <r>     3.5708     0.0000   488.0000 </r>
       <r>     3.7240     0.0000   488.0000 </r>
       <r>     3.8771     0.0000   488.0000 </r>
       <r>     4.0302     0.0000   488.0000 </r>
       <r>     4.1834     0.0000   488.0000 </r>
       <r>     4.3365     0.0027   488.0004 </r>
       <r>     4.4896    10.7675   489.6493 </r>
       <r>     4.6428    50.3880   497.3655 </r>
       <r>     4.7959    40.3175   503.5395 </r>
       <r>     4.9490    45.0727   510.4418 </r>
       <r>     5.1022    55.7749   518.9829 </r>
       <r>     5.2553    62.6705   528.5799 </r>
       <r>     5.4085    74.0475   539.9192 </r>
       <r>     5.5616    67.3363   550.2308 </r>
       <r>     5.7147    64.3725   560.0885 </r>
       <r>     5.8679    68.8017   570.6245 </r>
       <r>     6.0210   100.9099   586.0774 </r>
       <r>     6.1741    75.7982   597.6847 </r>
       <r>     6.3273    54.2124   605.9866 </r>
       <r>     6.4804    26.0834   609.9809 </r>
       <r>     6.6335     6.9474   611.0448 </r>
       <r>     6.7867    24.6883   614.8254 </r>
       <r>     6.9398    18.2386   617.6184 </r>
       <r>     7.0929    19.0859   620.5411 </r>
       <r>     7.2461    18.7803   623.4170 </r>
       <r>     7.3992    11.6594   625.2025 </r>
       <r>     7.5523    12.0476   627.0474 </r>
       <r>     7.7055    20.5639   630.1965 </r>
       <r>     7.8586    22.8261   633.6920 </r>
       <r>     8.0118    25.7768   637.6393 </r>
       <r>     8.1649    25.2359   641.5038 </r>
       <r>     8.3180    23.5540   645.1108 </r>
       <r>     8.4712    21.8978   648.4641 </r>
       <r>     8.6243    24.6576   652.2400 </r>
       <r>     8.7774    27.1027   656.3904 </r>
       <r>     8.9306    30.9805   661.1346 </r>
       <r>     9.0837    38.6472   667.0529 </r>
       <r>     9.2368    36.9588   672.7126 </r>
       <r>     9.3900    36.8705   678.3588 </r>
       <r>     9.5431    40.1967   684.5143 </r>
       <r>     9.6962    45.7786   691.5246 </r>
       <r>     9.8494    56.1787   700.1276 </r>
       <r>    10.0025    65.4666   710.1528 </r>
       <r>    10.1557    64.9864   720.1046 </r>
       <r>    10.3088    56.0150   728.6824 </r>
       <r>    10.4619    50.5163   736.4183 </r>
       <r>    10.6151    59.5235   745.5334 </r>
       <r>    10.7682    58.7439   754.5292 </r>
       <r>    10.9213    60.7100   763.8260 </r>
       <r>    11.0745    27.2357   767.9968 </r>
       <r>    11.2276     0.0209   768.0000 </r>
       <r>    11.3807     0.0000   768.0000 </r>
       <r>    11.5339     0.0000   768.0000 </r>
       <r>    11.6870     0.0000   768.0000 </r>
       <r>    11.8401     0.0000   768.0000 </r>
       <r>    11.9933     0.0000   768.0000 </r>
       <r>    12.1464     0.0000   768.0000 </r>
       <r>    12.2995     0.0000   768.0000 </r>
       <r>    12.4527     0.0000   768.0000 </r>
       <r>    12.6058     0.0000   768.0000 </r>
       <r>    12.7590     0.0000   768.0000 </r>
       <r>    12.9121     0.0000   768.0000 </r>
       <r>    13.0652     0.0000   768.0000 </r>
      </set>
     </set>
    </array>
   </total>
  </dos>
 </calculation>
 <structure name="finalpos" >
  <crystal>
   <varray name="basis" >
    <v>      11.21048296      -0.01534697      -0.00396532 </v>
    <v>      -0.01534247      11.20536643       0.01742739 </v>
    <v>      -0.00568870       0.02462284      15.96579107 </v>
   </varray>
   <i name="volume">   2005.57504876 </i>
   <varray name="rec_basis" >
    <v>       0.08920240       0.00012209       0.00003160 </v>
    <v>       0.00012212       0.08924334      -0.00013759 </v>
    <v>       0.00002202      -0.00009738       0.06263407 </v>
   </varray>
  </crystal>
  <varray name="positions" >
   <v>       0.99442768       0.24749815       0.13086594 </v>
   <v>       0.99475416       0.25374908       0.62270967 </v>
   <v>       0.99678087       0.75228660       0.12708123 </v>
   <v>       0.00393403       0.74831866       0.62526901 </v>
   <v>       0.50307586       0.23848732       0.12862449 </v>
   <v>       0.49991218       0.26063721       0.62190482 </v>
   <v>       0.50430594       0.75973351       0.12525444 </v>
   <v>       0.49307933       0.73718385       0.62802622 </v>
   <v>       0.99885495       0.24930865       0.37547259 </v>
   <v>       0.99637205       0.25050508       0.87162126 </v>
   <v>       0.00239193       0.75151448       0.37651050 </v>
   <v>       0.99629592       0.75091665       0.87259673 </v>
   <v>       0.49892131       0.25351376       0.36897185 </v>
   <v>       0.51498453       0.25037039       0.87540282 </v>
   <v>       0.49677978       0.74859820       0.37022819 </v>
   <v>       0.50997875       0.74902977       0.87577018 </v>
   <v>       0.25005061       0.99404371       0.13132723 </v>
   <v>       0.24088855       0.99002227       0.61910586 </v>
   <v>       0.23940113       0.50566559       0.13246700 </v>
   <v>       0.24383140       0.50916416       0.62110071 </v>
   <v>       0.74954567       0.99825537       0.12526608 </v>
   <v>       0.76813437       0.00031463       0.63030596 </v>
   <v>       0.75964421       0.50443666       0.12426469 </v>
   <v>       0.74934228       0.49831555       0.62379712 </v>
   <v>       0.24782030       0.99946143       0.37082671 </v>
   <v>       0.24319973       0.98490427       0.87945029 </v>
   <v>       0.24945495       0.50251978       0.37718979 </v>
   <v>       0.24069415       0.51167206       0.86663702 </v>
   <v>       0.75121576       0.99821154       0.36979413 </v>
   <v>       0.76005948       0.99548434       0.87894558 </v>
   <v>       0.74970344       0.49934275       0.37524032 </v>
   <v>       0.75955981       0.50650474       0.86921338 </v>
   <v>       0.74805419       0.24631624       0.50051887 </v>
   <v>       0.75132022       0.25094616       0.74897220 </v>
   <v>       0.50025237       0.00137896       0.00009585 </v>
   <v>       0.75351557       0.75120793       0.74747280 </v>
   <v>       0.74581949       0.25075421       0.24967937 </v>
   <v>       0.25004145       0.74678978       0.00320468 </v>
   <v>       0.75053818       0.25027546       0.00152479 </v>
   <v>       0.25303135       0.75049006       0.25182699 </v>
   <v>       0.00086193       0.49966061       0.50064424 </v>
   <v>       0.24977310       0.25029934       0.49820480 </v>
   <v>       0.25240462       0.25290676       0.25043503 </v>
   <v>       0.00070274       0.99952048       0.50006710 </v>
   <v>       0.74523450       0.75063746       0.24831439 </v>
   <v>       0.00119262       0.50298358       0.99564904 </v>
   <v>       0.99830185       0.99749000       0.99924229 </v>
   <v>       0.49830547       0.50103615       0.50082710 </v>
   <v>       0.99937732       0.49947562       0.25253074 </v>
   <v>       0.24823819       0.75218007       0.74772530 </v>
   <v>       0.99913398       0.99952882       0.25081376 </v>
   <v>       0.49859243       0.49684330       0.75140526 </v>
   <v>       0.23644815       0.23620875       0.01079009 </v>
   <v>       0.75553514       0.75145736      -0.00001957 </v>
   <v>       0.49421691       0.01338552       0.48721746 </v>
   <v>       0.51471312       0.51107585       0.98975238 </v>
   <v>       0.25222217       0.74806838       0.50000833 </v>
   <v>       0.99734270       0.50285682       0.74747966 </v>
   <v>       0.75960515       0.74122772       0.50089326 </v>
   <v>       0.23824603       0.26305564       0.73795265 </v>
   <v>       0.49903740       0.50024366       0.25923059 </v>
   <v>       0.51105309       0.99036716       0.76303237 </v>
   <v>       0.50022563       0.99978932       0.24833307 </v>
   <v>       0.00462025       0.99992259       0.75252197 </v>
   <v>       0.11416436       0.13853527       0.25538595 </v>
   <v>       0.15012818       0.13253401       0.77805401 </v>
   <v>       0.11228976       0.63671364       0.25494217 </v>
   <v>       0.11739376       0.63907862       0.75620387 </v>
   <v>       0.63282218       0.61378145       0.50001493 </v>
   <v>       0.59323505       0.13289142       0.73660598 </v>
   <v>       0.60932588       0.63371682       0.24202214 </v>
   <v>       0.11120883       0.35974586       0.49994370 </v>
   <v>       0.38937968       0.36921838       0.23263882 </v>
   <v>       0.75069922       0.74997130       0.12517575 </v>
   <v>       0.38370084       0.86435231       0.24113685 </v>
   <v>       0.38260754       0.89042166       0.73089490 </v>
   <v>       0.88616139       0.36201600       0.24970796 </v>
   <v>       0.87939240       0.36523751       0.74829490 </v>
   <v>       0.88661951       0.86239691       0.25057620 </v>
   <v>       0.88577830       0.86469473       0.74066381 </v>
   <v>       0.36270673       0.11746502       0.25136321 </v>
   <v>       0.50689197       0.98310974       0.37315819 </v>
   <v>       0.36381400       0.61395344       0.24561600 </v>
   <v>       0.99323807       0.99788352       0.37515773 </v>
   <v>       0.86388642       0.11354081       0.24756375 </v>
   <v>       0.86586616       0.11891998       0.75252780 </v>
   <v>       0.86232282       0.61246419       0.25063922 </v>
   <v>       0.86120239       0.61703386       0.73672044 </v>
   <v>       0.40392115       0.88286870       0.52408834 </v>
   <v>       0.13212975       0.38773480       0.75375543 </v>
   <v>       0.13613945       0.88768287       0.25377969 </v>
   <v>       0.13641886       0.88273218       0.75541735 </v>
   <v>       0.63608676       0.38871530       0.24331394 </v>
   <v>       0.63209297       0.38358629       0.75439063 </v>
   <v>       0.63675003       0.88601475       0.24267075 </v>
   <v>       0.63615611       0.88364699       0.76086663 </v>
   <v>       0.36645312       0.61487548       0.74305254 </v>
   <v>       0.61420474       0.13780509       0.25103806 </v>
   <v>       0.36420479       0.88362919       0.00748176 </v>
   <v>       0.35860854       0.38896406       0.50806096 </v>
   <v>       0.86526948       0.38498090       0.99894249 </v>
   <v>       0.85834114       0.38579427       0.50203396 </v>
   <v>       0.86343321       0.88810566       0.50476438 </v>
   <v>       0.13725110       0.10542227       0.99367096 </v>
   <v>       0.13900561       0.11475948       0.48807484 </v>
   <v>       0.14086366       0.61114982       0.99375641 </v>
   <v>       0.13570640       0.61270361       0.49364246 </v>
   <v>       0.63609217       0.11567717       0.99651561 </v>
   <v>       0.64191471       0.09107064       0.51162995 </v>
   <v>       0.64120528       0.61619189       0.99834794 </v>
   <v>       0.38488570       0.34347525       0.75918164 </v>
   <v>       0.01254614       0.01462773       0.62631885 </v>
   <v>       0.13678867       0.38892201       0.25655973 </v>
   <v>       0.11487560       0.85735016       0.99383438 </v>
   <v>       0.12163690       0.87032724       0.50000110 </v>
   <v>       0.59757942       0.36634011       0.01335187 </v>
   <v>       0.60878561       0.35540182       0.49869169 </v>
   <v>       0.61101986       0.87051422       0.99275549 </v>
   <v>       0.86340765       0.88919953       0.00466630 </v>
   <v>       0.38659086       0.60802528       0.02666550 </v>
   <v>       0.38617460       0.63268563       0.50289266 </v>
   <v>       0.88695656       0.13880343       0.00049820 </v>
   <v>       0.88853091       0.13946821       0.50144236 </v>
   <v>       0.89458746       0.63573564       0.00504299 </v>
   <v>       0.61231897       0.63002520       0.75704595 </v>
   <v>       0.00752158       0.99988074       0.12531503 </v>
   <v>       0.00928097       0.49081180       0.12332070 </v>
   <v>       0.00746243       0.49961599       0.62288455 </v>
   <v>       0.49729521       0.01052853       0.12075396 </v>
   <v>       0.39062713       0.14182757       0.49988137 </v>
   <v>       0.74575439       0.24678803       0.37592391 </v>
   <v>       0.50272337       0.49217613       0.62791521 </v>
   <v>       0.88889594       0.63578791       0.50324501 </v>
   <v>       0.99067261       0.99456563       0.87646766 </v>
   <v>       0.99212558       0.49658372       0.37581486 </v>
   <v>       0.98860627       0.50591946       0.87378784 </v>
   <v>       0.47499556       0.01282479       0.87601840 </v>
   <v>       0.49461999       0.49292914       0.37736786 </v>
   <v>       0.47825045       0.49379240       0.87623434 </v>
   <v>       0.26392817       0.26264215       0.37414260 </v>
   <v>       0.38572964       0.16586959       0.99142220 </v>
   <v>       0.26307042       0.75856831       0.37563832 </v>
   <v>       0.27610799       0.74743324       0.87631607 </v>
   <v>       0.74278709       0.25047399       0.87558386 </v>
   <v>       0.73540250       0.75854460       0.37776398 </v>
   <v>       0.76301148       0.74704805       0.87227989 </v>
   <v>       0.23757063       0.25712474       0.12636033 </v>
   <v>       0.24972247       0.22983163       0.62345828 </v>
   <v>       0.23530900       0.74931032       0.12522833 </v>
   <v>       0.24098609       0.74675584       0.62563027 </v>
   <v>       0.75109052       0.24728276       0.12404513 </v>
   <v>       0.74724033       0.25138888       0.62549646 </v>
   <v>       0.14132771       0.36549452       0.97466565 </v>
   <v>       0.72176272       0.76616024       0.62119720 </v>
  </varray>
 </structure>
</modeling>
