       N       E                     dE             d eps       ncg     rms          rms(c)
DAV:   1    -0.994532995040E+03   -0.99453E+03   -0.25726E-01 13064   0.119E+00    0.698E-02
RMM:   2    -0.994532997019E+03   -0.19782E-05   -0.13141E-04  7748   0.229E-02    0.111E-01
RMM:   3    -0.994532997831E+03   -0.81271E-06   -0.30778E-05  7238   0.117E-02    0.207E-02
RMM:   4    -0.994533005711E+03   -0.78796E-05   -0.15068E-05  7075   0.551E-03    0.172E-02
RMM:   5    -0.994533009651E+03   -0.39404E-05   -0.58119E-06  6834   0.422E-03    0.160E-02
RMM:   6    -0.994533010566E+03   -0.91484E-06   -0.36741E-06  6005   0.313E-03    0.449E-03
RMM:   7    -0.994533010752E+03   -0.18555E-06   -0.18050E-06  4544   0.257E-03    0.315E-03
RMM:   8    -0.994533010862E+03   -0.11014E-06   -0.93642E-07  3686   0.209E-03
   1 F= -.99453301E+03 E0= -.99453301E+03  d E =-.994533E+03  mag=   120.0000
       N       E                     dE             d eps       ncg     rms          rms(c)
DAV:   1    -0.994525302058E+03    0.77087E-02   -0.36783E+00 12480   0.226E+00    0.112E+00
RMM:   2    -0.994541275098E+03   -0.15973E-01   -0.11080E-01 12612   0.491E-01    0.812E-01
RMM:   3    -0.994543085471E+03   -0.18104E-02   -0.70389E-03 13154   0.130E-01    0.481E-01
RMM:   4    -0.994542619459E+03    0.46601E-03   -0.86532E-04 11944   0.392E-02    0.322E-01
RMM:   5    -0.994542327203E+03    0.29226E-03   -0.15147E-03 11674   0.431E-02    0.675E-02
RMM:   6    -0.994542322082E+03    0.51215E-05   -0.87995E-05  7558   0.184E-02    0.548E-02
RMM:   7    -0.994542324137E+03   -0.20556E-05   -0.35533E-05  7406   0.721E-03    0.354E-02
RMM:   8    -0.994542322425E+03    0.17119E-05   -0.17968E-05  7225   0.649E-03
   2 F= -.99454232E+03 E0= -.99454232E+03  d E =-.931156E-02  mag=   120.0000
       N       E                     dE             d eps       ncg     rms          rms(c)
DAV:   1    -0.994542320736E+03    0.34011E-05   -0.22217E-03 13480   0.575E-02    0.270E-02
RMM:   2    -0.994542330468E+03   -0.97315E-05   -0.71037E-05  6865   0.130E-02    0.264E-02
RMM:   3    -0.994542332585E+03   -0.21174E-05   -0.11050E-05  6542   0.638E-03    0.135E-02
RMM:   4    -0.994542332644E+03   -0.58586E-07   -0.32305E-06  4762   0.302E-03    0.995E-03
RMM:   5    -0.994542332467E+03    0.17670E-06   -0.17547E-06  4335   0.274E-03    0.641E-03
RMM:   6    -0.994542332514E+03   -0.47396E-07   -0.93069E-07  2800   0.209E-03    0.158E-03
RMM:   7    -0.994542332535E+03   -0.20664E-07   -0.24222E-07  2220   0.194E-03    0.109E-03
RMM:   8    -0.994542332536E+03   -0.11059E-08   -0.28477E-08  1899   0.184E-03
   3 F= -.99454233E+03 E0= -.99454233E+03  d E =-.932167E-02  mag=   120.0000
       N       E                     dE             d eps       ncg     rms          rms(c)
DAV:   1    -0.994537237158E+03    0.50954E-02   -0.37610E+00 12632   0.231E+00    0.804E-01
RMM:   2    -0.994549923746E+03   -0.12687E-01   -0.10077E-01 12604   0.444E-01    0.488E-01
RMM:   3    -0.994550944053E+03   -0.10203E-02   -0.59786E-03 13222   0.126E-01    0.274E-01
RMM:   4    -0.994550655152E+03    0.28890E-03   -0.88347E-04 12728   0.363E-02    0.164E-01
RMM:   5    -0.994550552894E+03    0.10226E-03   -0.58506E-04 10801   0.257E-02    0.455E-02
RMM:   6    -0.994550556266E+03   -0.33719E-05   -0.54867E-05  7422   0.126E-02    0.327E-02
RMM:   7    -0.994550559098E+03   -0.28318E-05   -0.28424E-05  7292   0.704E-03    0.227E-02
RMM:   8    -0.994550560278E+03   -0.11801E-05   -0.16234E-05  7182   0.681E-03
   4 F= -.99455056E+03 E0= -.99455056E+03  d E =-.822774E-02  mag=   120.0000
       N       E                     dE             d eps       ncg     rms          rms(c)
DAV:   1    -0.994542488014E+03    0.80711E-02   -0.29512E+00 12560   0.205E+00    0.711E-01
RMM:   2    -0.994552480626E+03   -0.99926E-02   -0.79357E-02 12599   0.394E-01    0.431E-01
RMM:   3    -0.994553284942E+03   -0.80432E-03   -0.47724E-03 13150   0.112E-01    0.244E-01
RMM:   4    -0.994553056752E+03    0.22819E-03   -0.69989E-04 12253   0.325E-02    0.145E-01
RMM:   5    -0.994552979070E+03    0.77682E-04   -0.47535E-04 10309   0.231E-02    0.414E-02
RMM:   6    -0.994552982296E+03   -0.32261E-05   -0.49332E-05  7419   0.119E-02    0.291E-02
RMM:   7    -0.994552984772E+03   -0.24761E-05   -0.25856E-05  7280   0.669E-03    0.206E-02
RMM:   8    -0.994552986016E+03   -0.12438E-05   -0.14758E-05  7116   0.631E-03
   5 F= -.99455299E+03 E0= -.99455299E+03  d E =-.106535E-01  mag=   120.0000
       N       E                     dE             d eps       ncg     rms          rms(c)
DAV:   1    -0.994549144869E+03    0.38399E-02   -0.28010E+00 12528   0.199E+00    0.676E-01
RMM:   2    -0.994558538942E+03   -0.93941E-02   -0.74342E-02 12618   0.382E-01    0.417E-01
RMM:   3    -0.994559316260E+03   -0.77732E-03   -0.45322E-03 13048   0.106E-01    0.226E-01
RMM:   4    -0.994559122243E+03    0.19402E-03   -0.55610E-04 11780   0.295E-02    0.143E-01
RMM:   5    -0.994559025504E+03    0.96739E-04   -0.51170E-04 10235   0.232E-02    0.421E-02
RMM:   6    -0.994559026891E+03   -0.13871E-05   -0.51076E-05  7344   0.126E-02    0.339E-02
RMM:   7    -0.994559028852E+03   -0.19606E-05   -0.25041E-05  7238   0.646E-03    0.188E-02
RMM:   8    -0.994559028645E+03    0.20691E-06   -0.14240E-05  7115   0.626E-03
   6 F= -.99455903E+03 E0= -.99455903E+03  d E =-.604263E-02  mag=   120.0000
       N       E                     dE             d eps       ncg     rms          rms(c)
DAV:   1    -0.994543058922E+03    0.15970E-01   -0.54596E+00 12480   0.278E+00    0.941E-01
RMM:   2    -0.994561372262E+03   -0.18313E-01   -0.14478E-01 12617   0.533E-01    0.577E-01
RMM:   3    -0.994562888082E+03   -0.15158E-02   -0.88091E-03 13341   0.148E-01    0.316E-01
RMM:   4    -0.994562517737E+03    0.37035E-03   -0.11250E-03 13638   0.404E-02    0.200E-01
RMM:   5    -0.994562326653E+03    0.19108E-03   -0.98218E-04 11604   0.309E-02    0.540E-02
RMM:   6    -0.994562327654E+03   -0.10010E-05   -0.84720E-05  7450   0.158E-02    0.437E-02
RMM:   7    -0.994562330571E+03   -0.29171E-05   -0.39018E-05  7326   0.827E-03    0.264E-02
RMM:   8    -0.994562329816E+03    0.75545E-06   -0.22760E-05  7227   0.765E-03
   7 F= -.99456233E+03 E0= -.99456233E+03  d E =-.934380E-02  mag=   120.0000
       N       E                     dE             d eps       ncg     rms          rms(c)
DAV:   1    -0.994554864276E+03    0.74663E-02   -0.31030E+00 12400   0.210E+00    0.777E-01
RMM:   2    -0.994566514285E+03   -0.11650E-01   -0.81488E-02 12626   0.399E-01    0.468E-01
RMM:   3    -0.994567667923E+03   -0.11536E-02   -0.48950E-03 13088   0.111E-01    0.232E-01
RMM:   4    -0.994567439378E+03    0.22854E-03   -0.64387E-04 12126   0.316E-02    0.145E-01
RMM:   5    -0.994567336853E+03    0.10253E-03   -0.54685E-04 10668   0.241E-02    0.417E-02
RMM:   6    -0.994567338372E+03   -0.15189E-05   -0.51793E-05  7386   0.127E-02    0.331E-02
RMM:   7    -0.994567340114E+03   -0.17423E-05   -0.25995E-05  7253   0.651E-03    0.191E-02
RMM:   8    -0.994567340435E+03   -0.32033E-06   -0.15035E-05  7134   0.645E-03
   8 F= -.99456734E+03 E0= -.99456734E+03  d E =-.501062E-02  mag=   120.0000
       N       E                     dE             d eps       ncg     rms          rms(c)
DAV:   1    -0.994559384343E+03    0.79558E-02   -0.23186E+00 12448   0.181E+00    0.670E-01
RMM:   2    -0.994568090985E+03   -0.87066E-02   -0.60944E-02 12626   0.345E-01    0.402E-01
RMM:   3    -0.994568949834E+03   -0.85885E-03   -0.36620E-03 12905   0.963E-02    0.201E-01
RMM:   4    -0.994568778351E+03    0.17148E-03   -0.47476E-04 11039   0.274E-02    0.126E-01
RMM:   5    -0.994568701750E+03    0.76602E-04   -0.41091E-04  9912   0.215E-02    0.368E-02
RMM:   6    -0.994568703554E+03   -0.18039E-05   -0.43217E-05  7348   0.116E-02    0.305E-02
RMM:   7    -0.994568705043E+03   -0.14895E-05   -0.21255E-05  7217   0.610E-03    0.167E-02
RMM:   8    -0.994568705377E+03   -0.33397E-06   -0.12288E-05  7017   0.591E-03
   9 F= -.99456871E+03 E0= -.99456871E+03  d E =-.637556E-02  mag=   120.0000
       N       E                     dE             d eps       ncg     rms          rms(c)
DAV:   1    -0.994557574094E+03    0.11131E-01   -0.37105E+00 12352   0.229E+00    0.862E-01
RMM:   2    -0.994571706409E+03   -0.14132E-01   -0.95153E-02 12706   0.427E-01    0.490E-01
RMM:   3    -0.994573143811E+03   -0.14374E-02   -0.54705E-03 13214   0.119E-01    0.242E-01
RMM:   4    -0.994572887670E+03    0.25614E-03   -0.79367E-04 12574   0.343E-02    0.145E-01
RMM:   5    -0.994572795470E+03    0.92199E-04   -0.50991E-04 10695   0.238E-02    0.457E-02
RMM:   6    -0.994572797119E+03   -0.16486E-05   -0.54118E-05  7403   0.124E-02    0.293E-02
RMM:   7    -0.994572798609E+03   -0.14897E-05   -0.27355E-05  7257   0.693E-03    0.199E-02
RMM:   8    -0.994572798566E+03    0.42579E-07   -0.16224E-05  7097   0.658E-03
  10 F= -.99457280E+03 E0= -.99457280E+03  d E =-.409319E-02  mag=   120.0000
       N       E                     dE             d eps       ncg     rms          rms(c)
DAV:   1    -0.994564834506E+03    0.79641E-02   -0.21606E+00 12416   0.174E+00    0.657E-01
RMM:   2    -0.994573071579E+03   -0.82371E-02   -0.55483E-02 12688   0.326E-01    0.373E-01
RMM:   3    -0.994573913955E+03   -0.84238E-03   -0.32395E-03 12915   0.913E-02    0.185E-01
RMM:   4    -0.994573764530E+03    0.14942E-03   -0.45911E-04 10757   0.265E-02    0.111E-01
RMM:   5    -0.994573709089E+03    0.55441E-04   -0.29074E-04  8422   0.194E-02    0.377E-02
RMM:   6    -0.994573712086E+03   -0.29968E-05   -0.48306E-05  7317   0.121E-02    0.348E-02
RMM:   7    -0.994573713712E+03   -0.16263E-05   -0.22499E-05  7168   0.679E-03    0.165E-02
RMM:   8    -0.994573713677E+03    0.35172E-07   -0.13400E-05  7036   0.635E-03
  11 F= -.99457371E+03 E0= -.99457371E+03  d E =-.500830E-02  mag=   120.0000
       N       E                     dE             d eps       ncg     rms          rms(c)
DAV:   1    -0.994564672453E+03    0.90413E-02   -0.30449E+00 12432   0.207E+00    0.743E-01
RMM:   2    -0.994575586898E+03   -0.10914E-01   -0.80483E-02 12604   0.398E-01    0.445E-01
RMM:   3    -0.994576587812E+03   -0.10009E-02   -0.49344E-03 13063   0.110E-01    0.232E-01
RMM:   4    -0.994576363126E+03    0.22469E-03   -0.61533E-04 11775   0.308E-02    0.142E-01
RMM:   5    -0.994576270152E+03    0.92974E-04   -0.51037E-04 10359   0.233E-02    0.400E-02
RMM:   6    -0.994576272294E+03   -0.21418E-05   -0.45969E-05  7332   0.121E-02    0.309E-02
RMM:   7    -0.994576273997E+03   -0.17029E-05   -0.23322E-05  7212   0.600E-03    0.170E-02
RMM:   8    -0.994576274252E+03   -0.25534E-06   -0.13517E-05  7110   0.612E-03
  12 F= -.99457627E+03 E0= -.99457627E+03  d E =-.256058E-02  mag=   120.0000
       N       E                     dE             d eps       ncg     rms          rms(c)
DAV:   1    -0.994575837578E+03    0.43642E-03   -0.13682E-01 13136   0.439E-01    0.157E-01
RMM:   2    -0.994576333990E+03   -0.49641E-03   -0.36734E-03 12396   0.845E-02    0.932E-02
RMM:   3    -0.994576372965E+03   -0.38975E-04   -0.17389E-04  7937   0.251E-02    0.515E-02
RMM:   4    -0.994576368216E+03    0.47488E-05   -0.42075E-05  7173   0.107E-02    0.312E-02
RMM:   5    -0.994576364833E+03    0.33831E-05   -0.27143E-05  7048   0.648E-03    0.171E-02
RMM:   6    -0.994576365594E+03   -0.76104E-06   -0.89678E-06  6430   0.501E-03    0.135E-02
RMM:   7    -0.994576366070E+03   -0.47576E-06   -0.42589E-06  5189   0.294E-03    0.429E-03
RMM:   8    -0.994576366231E+03   -0.16121E-06   -0.20498E-06  4290   0.278E-03
  13 F= -.99457637E+03 E0= -.99457637E+03  d E =-.265255E-02  mag=   120.0000
       N       E                     dE             d eps       ncg     rms          rms(c)
DAV:   1    -0.994572275063E+03    0.40910E-02   -0.14132E+00 12688   0.141E+00    0.533E-01
RMM:   2    -0.994577642221E+03   -0.53672E-02   -0.37642E-02 12601   0.272E-01    0.308E-01
RMM:   3    -0.994578173900E+03   -0.53168E-03   -0.22654E-03 12835   0.760E-02    0.161E-01
RMM:   4    -0.994578062569E+03    0.11133E-03   -0.27743E-04  8896   0.221E-02    0.966E-02
RMM:   5    -0.994578024321E+03    0.38247E-04   -0.18816E-04  7516   0.170E-02    0.396E-02
RMM:   6    -0.994578029297E+03   -0.49754E-05   -0.39732E-05  7237   0.116E-02    0.402E-02
RMM:   7    -0.994578031253E+03   -0.19565E-05   -0.17742E-05  7179   0.613E-03    0.150E-02
RMM:   8    -0.994578032541E+03   -0.12879E-05   -0.96753E-06  7066   0.567E-03
  14 F= -.99457803E+03 E0= -.99457803E+03  d E =-.166631E-02  mag=   120.0000
       N       E                     dE             d eps       ncg     rms          rms(c)
DAV:   1    -0.994577073120E+03    0.95813E-03   -0.28091E-01 12672   0.630E-01    0.237E-01
RMM:   2    -0.994578147075E+03   -0.10740E-02   -0.75483E-03 12616   0.122E-01    0.138E-01
RMM:   3    -0.994578244720E+03   -0.97645E-04   -0.38682E-04  9659   0.339E-02    0.737E-02
RMM:   4    -0.994578228713E+03    0.16006E-04   -0.65171E-05  7246   0.121E-02    0.454E-02
RMM:   5    -0.994578222259E+03    0.64546E-05   -0.43543E-05  7198   0.882E-03    0.235E-02
RMM:   6    -0.994578224413E+03   -0.21541E-05   -0.14334E-05  7040   0.568E-03    0.104E-02
RMM:   7    -0.994578225108E+03   -0.69500E-06   -0.63867E-06  6330   0.400E-03    0.910E-03
RMM:   8    -0.994578225609E+03   -0.50155E-06   -0.30746E-06  4654   0.284E-03
  15 F= -.99457823E+03 E0= -.99457823E+03  d E =-.185938E-02  mag=   120.0000
       N       E                     dE             d eps       ncg     rms          rms(c)
DAV:   1    -0.994573044313E+03    0.51808E-02   -0.15013E+00 12568   0.145E+00    0.588E-01
RMM:   2    -0.994579117711E+03   -0.60734E-02   -0.39845E-02 12590   0.281E-01    0.343E-01
RMM:   3    -0.994579784320E+03   -0.66661E-03   -0.23904E-03 12819   0.789E-02    0.164E-01
RMM:   4    -0.994579666627E+03    0.11769E-03   -0.30593E-04  9027   0.234E-02    0.101E-01
RMM:   5    -0.994579619440E+03    0.47187E-04   -0.22644E-04  7883   0.185E-02    0.480E-02
RMM:   6    -0.994579621338E+03   -0.18975E-05   -0.46221E-05  7274   0.128E-02    0.460E-02
RMM:   7    -0.994579622613E+03   -0.12754E-05   -0.20197E-05  7166   0.637E-03    0.144E-02
RMM:   8    -0.994579622122E+03    0.49175E-06   -0.10858E-05  7021   0.612E-03
  16 F= -.99457962E+03 E0= -.99457962E+03  d E =-.139651E-02  mag=   120.0000
