<?xml version="1.0" encoding="ISO-8859-1"?>
<modeling>
 <generator>
  <i name="program" type="string">vasp </i>
  <i name="version" type="string">5.4.1  </i>
  <i name="subversion" type="string">05Feb16 (build Jan 25 2017 20:16:33) complex                          parallel </i>
  <i name="platform" type="string">BWXE6 </i>
  <i name="date" type="string">2019 08 06 </i>
  <i name="time" type="string">15:41:02 </i>
 </generator>
 <incar>
  <i type="string" name="SYSTEM"> STF</i>
  <i type="string" name="PREC">normal</i>
  <i type="string" name="ALGO"> Fast</i>
  <i type="int" name="ISPIN">     2</i>
  <i type="int" name="NELM">    40</i>
  <i type="int" name="NELMIN">     8</i>
  <i type="int" name="IBRION">     2</i>
  <i name="EDIFF">      0.00010000</i>
  <i name="EDIFFG">     -0.03000000</i>
  <i type="int" name="NSW">    30</i>
  <i type="int" name="ISIF">     3</i>
  <i name="ENCUT">    520.00000000</i>
  <i type="int" name="NBANDS">   768</i>
  <v name="MAGMOM">      0.60000000      0.60000000      0.60000000      0.60000000      0.60000000      0.60000000      0.60000000      0.60000000      0.60000000      0.60000000      0.60000000      0.60000000      0.60000000      0.60000000      0.60000000      0.60000000      0.60000000      0.60000000      0.60000000      0.60000000
      0.60000000      0.60000000      0.60000000      0.60000000      0.60000000      0.60000000      0.60000000      0.60000000      0.60000000      0.60000000      0.60000000      0.60000000      0.60000000      0.60000000      0.60000000      0.60000000      0.60000000      0.60000000      0.60000000      0.60000000
      5.00000000      5.00000000      5.00000000      5.00000000      5.00000000      5.00000000      5.00000000      5.00000000      5.00000000      5.00000000      5.00000000      5.00000000      5.00000000      5.00000000      5.00000000      5.00000000      5.00000000      5.00000000      5.00000000      5.00000000
      5.00000000      5.00000000      5.00000000      5.00000000      0.60000000      0.60000000      0.60000000      0.60000000      0.60000000      0.60000000      0.60000000      0.60000000      0.60000000      0.60000000      0.60000000      0.60000000      0.60000000      0.60000000      0.60000000      0.60000000
      0.60000000      0.60000000      0.60000000      0.60000000      0.60000000      0.60000000      0.60000000      0.60000000      0.60000000      0.60000000      0.60000000      0.60000000      0.60000000      0.60000000      0.60000000      0.60000000      0.60000000      0.60000000      0.60000000      0.60000000
      0.60000000      0.60000000      0.60000000      0.60000000      0.60000000      0.60000000      0.60000000      0.60000000      0.60000000      0.60000000      0.60000000      0.60000000      0.60000000      0.60000000      0.60000000      0.60000000      0.60000000      0.60000000      0.60000000      0.60000000
      0.60000000      0.60000000      0.60000000      0.60000000      0.60000000      0.60000000      0.60000000      0.60000000      0.60000000      0.60000000      0.60000000      0.60000000      0.60000000      0.60000000      0.60000000      0.60000000      0.60000000      0.60000000      0.60000000      0.60000000
      0.60000000      0.60000000      0.60000000      0.60000000      0.60000000      0.60000000      0.60000000      0.60000000</v>
  <i type="string" name="LREAL"> Auto</i>
  <i type="int" name="ISMEAR">     0</i>
  <i name="SIGMA">      0.05000000</i>
  <i type="int" name="LMAXMIX">     4</i>
  <v type="int" name="KPOINT_BSE">    -1     0     0     0</v>
  <i type="int" name="NELM">    40</i>
  <i type="logical" name="LDAU"> T  </i>
  <v type="int" name="LDAUTYPE">     2</v>
  <v type="int" name="LDAUL">     0     2     2     0</v>
  <v name="LDAUU">      0.00000000      3.00000000      5.00000000      0.00000000</v>
  <v name="LDAUJ">      0.00000000      0.00000000      0.00000000      0.00000000</v>
  <i type="int" name="LDAUPRINT">     1</i>
 </incar>
 <kpoints>
  <generation param="Monkhorst-Pack">
   <v type="int" name="divisions">       2        2        2 </v>
   <v name="usershift">      0.00000000       0.00000000       0.00000000 </v>
   <v name="genvec1">      0.50000000      -0.00000000       0.00000000 </v>
   <v name="genvec2">      0.00000000       0.50000000       0.00000000 </v>
   <v name="genvec3">     -0.00000000      -0.00000000       0.50000000 </v>
   <v name="shift">      0.50000000       0.50000000       0.50000000 </v>
  </generation>
  <varray name="kpointlist" >
   <v>       0.25000000       0.25000000       0.25000000 </v>
   <v>      -0.25000000       0.25000000       0.25000000 </v>
   <v>       0.25000000      -0.25000000       0.25000000 </v>
   <v>      -0.25000000      -0.25000000       0.25000000 </v>
  </varray>
  <varray name="weights" >
   <v>       0.25000000 </v>
   <v>       0.25000000 </v>
   <v>       0.25000000 </v>
   <v>       0.25000000 </v>
  </varray>
 </kpoints>
 <parameters>
  <separator name="general" >
   <i type="string" name="SYSTEM">STF</i>
   <i type="logical" name="LCOMPAT"> F  </i>
  </separator>
  <separator name="electronic" >
   <i type="string" name="PREC">normal</i>
   <i name="ENMAX">    520.00000000</i>
   <i name="ENAUG">    605.39200000</i>
   <i name="EDIFF">      0.00010000</i>
   <i type="int" name="IALGO">    68</i>
   <i type="int" name="IWAVPR">    11</i>
   <i type="int" name="NBANDS">   768</i>
   <i name="NELECT">   1048.00000000</i>
   <i type="int" name="TURBO">     0</i>
   <i type="int" name="IRESTART">     0</i>
   <i type="int" name="NREBOOT">     0</i>
   <i type="int" name="NMIN">     0</i>
   <i name="EREF">      0.00000000</i>
   <separator name="electronic smearing" >
    <i type="int" name="ISMEAR">     0</i>
    <i name="SIGMA">      0.05000000</i>
    <i name="KSPACING">      0.50000000</i>
    <i type="logical" name="KGAMMA"> T  </i>
   </separator>
   <separator name="electronic projectors" >
    <i type="logical" name="LREAL"> T  </i>
    <v name="ROPT">     -0.00050000     -0.00050000     -0.00050000     -0.00050000</v>
    <i type="int" name="LMAXPAW">  -100</i>
    <i type="int" name="LMAXMIX">     4</i>
    <i type="logical" name="NLSPLINE"> F  </i>
   </separator>
   <separator name="electronic startup" >
    <i type="int" name="ISTART">     1</i>
    <i type="int" name="ICHARG">     0</i>
    <i type="int" name="INIWAV">     1</i>
   </separator>
   <separator name="electronic spin" >
    <i type="int" name="ISPIN">     2</i>
    <i type="logical" name="LNONCOLLINEAR"> F  </i>
    <v name="MAGMOM">      0.60000000      0.60000000      0.60000000      0.60000000      0.60000000      0.60000000      0.60000000      0.60000000      0.60000000      0.60000000      0.60000000      0.60000000      0.60000000      0.60000000      0.60000000      0.60000000      0.60000000      0.60000000      0.60000000      0.60000000
      0.60000000      0.60000000      0.60000000      0.60000000      0.60000000      0.60000000      0.60000000      0.60000000      0.60000000      0.60000000      0.60000000      0.60000000      0.60000000      0.60000000      0.60000000      0.60000000      0.60000000      0.60000000      0.60000000      0.60000000
      5.00000000      5.00000000      5.00000000      5.00000000      5.00000000      5.00000000      5.00000000      5.00000000      5.00000000      5.00000000      5.00000000      5.00000000      5.00000000      5.00000000      5.00000000      5.00000000      5.00000000      5.00000000      5.00000000      5.00000000
      5.00000000      5.00000000      5.00000000      5.00000000      0.60000000      0.60000000      0.60000000      0.60000000      0.60000000      0.60000000      0.60000000      0.60000000      0.60000000      0.60000000      0.60000000      0.60000000      0.60000000      0.60000000      0.60000000      0.60000000
      0.60000000      0.60000000      0.60000000      0.60000000      0.60000000      0.60000000      0.60000000      0.60000000      0.60000000      0.60000000      0.60000000      0.60000000      0.60000000      0.60000000      0.60000000      0.60000000      0.60000000      0.60000000      0.60000000      0.60000000
      0.60000000      0.60000000      0.60000000      0.60000000      0.60000000      0.60000000      0.60000000      0.60000000      0.60000000      0.60000000      0.60000000      0.60000000      0.60000000      0.60000000      0.60000000      0.60000000      0.60000000      0.60000000      0.60000000      0.60000000
      0.60000000      0.60000000      0.60000000      0.60000000      0.60000000      0.60000000      0.60000000      0.60000000      0.60000000      0.60000000      0.60000000      0.60000000      0.60000000      0.60000000      0.60000000      0.60000000      0.60000000      0.60000000      0.60000000      0.60000000
      0.60000000      0.60000000      0.60000000      0.60000000      0.60000000      0.60000000      0.60000000      0.60000000</v>
    <i name="NUPDOWN">     -1.00000000</i>
    <i type="logical" name="LSORBIT"> F  </i>
    <v name="SAXIS">      0.00000000      0.00000000      1.00000000</v>
    <i type="logical" name="LSPIRAL"> F  </i>
    <v name="QSPIRAL">      0.00000000      0.00000000      0.00000000</v>
    <i type="logical" name="LZEROZ"> F  </i>
   </separator>
   <separator name="electronic exchange-correlation" >
    <i type="logical" name="LASPH"> F  </i>
    <i type="logical" name="LMETAGGA"> F  </i>
   </separator>
   <separator name="electronic convergence" >
    <i type="int" name="NELM">    40</i>
    <i type="int" name="NELMDL">     0</i>
    <i type="int" name="NELMIN">     8</i>
    <i name="ENINI">    520.00000000</i>
    <separator name="electronic convergence detail" >
     <i type="logical" name="LDIAG"> T  </i>
     <i type="logical" name="LSUBROT"> F  </i>
     <i name="WEIMIN">      0.00100000</i>
     <i name="EBREAK">      0.00000003</i>
     <i name="DEPER">      0.30000000</i>
     <i type="int" name="NRMM">     4</i>
     <i name="TIME">      0.40000000</i>
    </separator>
   </separator>
   <separator name="electronic mixer" >
    <i name="AMIX">      0.40000000</i>
    <i name="BMIX">      1.00000000</i>
    <i name="AMIN">      0.10000000</i>
    <i name="AMIX_MAG">      1.60000000</i>
    <i name="BMIX_MAG">      1.00000000</i>
    <separator name="electronic mixer details" >
     <i type="int" name="IMIX">     4</i>
     <i type="logical" name="MIXFIRST"> F  </i>
     <i type="int" name="MAXMIX">   -45</i>
     <i name="WC">    100.00000000</i>
     <i type="int" name="INIMIX">     1</i>
     <i type="int" name="MIXPRE">     1</i>
     <i type="int" name="MREMOVE">     5</i>
    </separator>
   </separator>
   <separator name="electronic dipolcorrection" >
    <i type="logical" name="LDIPOL"> F  </i>
    <i type="logical" name="LMONO"> F  </i>
    <i type="int" name="IDIPOL">     0</i>
    <i name="EPSILON">      1.00000000</i>
    <v name="DIPOL">   -100.00000000   -100.00000000   -100.00000000</v>
    <i name="EFIELD">      0.00000000</i>
   </separator>
  </separator>
  <separator name="grids" >
   <i type="int" name="NGX">    64</i>
   <i type="int" name="NGY">    64</i>
   <i type="int" name="NGZ">    90</i>
   <i type="int" name="NGXF">   128</i>
   <i type="int" name="NGYF">   128</i>
   <i type="int" name="NGZF">   180</i>
   <i type="logical" name="ADDGRID"> F  </i>
  </separator>
  <separator name="ionic" >
   <i type="int" name="NSW">    30</i>
   <i type="int" name="IBRION">     2</i>
   <i type="int" name="ISIF">     3</i>
   <i name="PSTRESS">      0.00000000</i>
   <i name="EDIFFG">     -0.03000000</i>
   <i type="int" name="NFREE">     1</i>
   <i name="POTIM">      0.50000000</i>
   <i name="SMASS">     -3.00000000</i>
   <i name="SCALEE">      1.00000000</i>
  </separator>
  <separator name="ionic md" >
   <i name="TEBEG">      0.00010000</i>
   <i name="TEEND">      0.00010000</i>
   <i type="int" name="NBLOCK">     1</i>
   <i type="int" name="KBLOCK">    30</i>
   <i type="int" name="NPACO">   256</i>
   <i name="APACO">     16.00000000</i>
  </separator>
  <separator name="symmetry" >
   <i type="int" name="ISYM">     2</i>
   <i name="SYMPREC">      0.00001000</i>
  </separator>
  <separator name="dos" >
   <i type="logical" name="LORBIT"> F  </i>
   <v name="RWIGS">     -1.00000000     -1.00000000     -1.00000000     -1.00000000</v>
   <i type="int" name="NEDOS">   301</i>
   <i name="EMIN">     10.00000000</i>
   <i name="EMAX">    -10.00000000</i>
   <i name="EFERMI">      0.00000000</i>
  </separator>
  <separator name="writing" >
   <i type="int" name="NWRITE">     2</i>
   <i type="logical" name="LWAVE"> T  </i>
   <i type="logical" name="LCHARG"> T  </i>
   <i type="logical" name="LPARD"> F  </i>
   <i type="logical" name="LVTOT"> F  </i>
   <i type="logical" name="LVHAR"> F  </i>
   <i type="logical" name="LELF"> F  </i>
   <i type="logical" name="LOPTICS"> F  </i>
   <v name="STM">      0.00000000      0.00000000      0.00000000      0.00000000      0.00000000      0.00000000      0.00000000</v>
  </separator>
  <separator name="performance" >
   <i type="int" name="NPAR">     2</i>
   <i type="int" name="NSIM">     4</i>
   <i type="int" name="NBLK">    -1</i>
   <i type="logical" name="LPLANE"> T  </i>
   <i type="logical" name="LSCALAPACK"> T  </i>
   <i type="logical" name="LSCAAWARE"> F  </i>
   <i type="logical" name="LSCALU"> F  </i>
   <i type="logical" name="LASYNC"> F  </i>
   <i type="logical" name="LORBITALREAL"> F  </i>
  </separator>
  <separator name="miscellaneous" >
   <i type="int" name="IDIOT">     3</i>
   <i type="logical" name="LMUSIC"> F  </i>
   <v name="POMASS">     87.62000000     47.88000000     55.84700000     16.00000000</v>
   <v name="DARWINR">      0.00000000      0.00000000      0.00000000      0.00000000</v>
   <v name="DARWINV">      1.00000000      1.00000000      1.00000000      1.00000000</v>
   <i type="logical" name="LCORR"> T  </i>
  </separator>
  <i type="logical" name="GGA_COMPAT"> T  </i>
  <i type="logical" name="LBERRY"> F  </i>
  <i type="int" name="ICORELEVEL">     0</i>
  <i type="logical" name="LDAU"> T  </i>
  <v type="int" name="LDAUTYPE">     2</v>
  <v type="int" name="LDAUL">     0</v>
  <v name="LDAUU">      0.00000000</v>
  <v name="LDAUJ">      0.00000000</v>
  <i type="int" name="LDAUPRINT">     1</i>
  <i type="int" name="I_CONSTRAINED_M">     0</i>
  <separator name="electronic exchange-correlation" >
   <i type="string" name="GGA">--</i>
   <i type="int" name="VOSKOWN">     0</i>
   <i type="logical" name="LHFCALC"> F  </i>
   <i type="string" name="PRECFOCK"></i>
   <i type="logical" name="LSYMGRAD"> F  </i>
   <i type="logical" name="LHFONE"> F  </i>
   <i type="logical" name="LRHFCALC"> F  </i>
   <i type="logical" name="LTHOMAS"> F  </i>
   <i type="logical" name="LMODELHF"> F  </i>
   <i name="ENCUT4O">     -1.00000000</i>
   <i type="int" name="EXXOEP">     0</i>
   <i type="int" name="FOURORBIT">     0</i>
   <i name="AEXX">      0.00000000</i>
   <i name="HFALPHA">      0.00000000</i>
   <i name="MCALPHA">      0.00000000</i>
   <i name="ALDAX">      1.00000000</i>
   <i name="AGGAX">      1.00000000</i>
   <i name="ALDAC">      1.00000000</i>
   <i name="AGGAC">      1.00000000</i>
   <i type="int" name="NKREDX">     1</i>
   <i type="int" name="NKREDY">     1</i>
   <i type="int" name="NKREDZ">     1</i>
   <i type="logical" name="SHIFTRED"> F  </i>
   <i type="logical" name="ODDONLY"> F  </i>
   <i type="logical" name="EVENONLY"> F  </i>
   <i type="int" name="LMAXFOCK">     0</i>
   <i type="int" name="NMAXFOCKAE">     0</i>
   <i type="logical" name="LFOCKAEDFT"> F  </i>
   <i name="HFSCREEN">      0.00000000</i>
   <i name="HFSCREENC">      0.00000000</i>
   <i type="int" name="NBANDSGWLOW">     0</i>
  </separator>
  <separator name="vdW DFT" >
   <i type="logical" name="LUSE_VDW"> F  </i>
   <i name="Zab_VDW">     -0.84910000</i>
   <i name="PARAM1">      0.12340000</i>
   <i name="PARAM2">      1.00000000</i>
   <i name="PARAM3">      0.00000000</i>
  </separator>
  <separator name="model GW" >
   <i type="int" name="MODEL_GW">     0</i>
   <i name="MODEL_EPS0">      8.16106208</i>
   <i name="MODEL_ALPHA">      1.00000000</i>
  </separator>
  <separator name="linear response parameters" >
   <i type="logical" name="LEPSILON"> F  </i>
   <i type="logical" name="LRPA"> F  </i>
   <i type="logical" name="LNABLA"> F  </i>
   <i type="logical" name="LVEL"> F  </i>
   <i type="int" name="KINTER">     0</i>
   <i name="CSHIFT">      0.10000000</i>
   <i name="OMEGAMAX">     -1.00000000</i>
   <i name="DEG_THRESHOLD">      0.00200000</i>
  </separator>
  <separator name="orbital magnetization" >
   <i type="logical" name="NUCIND"> F  </i>
   <v name="MAGPOS">      0.00000000      0.00000000      0.00000000</v>
   <i type="logical" name="LNICSALL"> T  </i>
   <i type="logical" name="ORBITALMAG"> F  </i>
   <i type="logical" name="LMAGBLOCH"> F  </i>
   <i type="logical" name="LCHIMAG"> F  </i>
   <i type="logical" name="LGAUGE"> T  </i>
   <i type="int" name="MAGATOM">     0</i>
   <v name="MAGDIPOL">      0.00000000      0.00000000      0.00000000</v>
   <v name="AVECCONST">      0.00000000      0.00000000      0.00000000</v>
  </separator>
  <separator name="response functions" >
   <i type="logical" name="LADDER"> F  </i>
   <i type="logical" name="LFXC"> F  </i>
   <i type="logical" name="LHARTREE"> T  </i>
   <i type="int" name="IBSE">     0</i>
   <v type="int" name="KPOINT">    -1     0     0     0</v>
   <i type="logical" name="LTCTE"> F  </i>
   <i type="logical" name="LTETE"> F  </i>
   <i type="logical" name="LTRIPLET"> F  </i>
   <i type="logical" name="LFXCEPS"> F  </i>
   <i type="logical" name="LFXHEG"> F  </i>
   <i type="int" name="NATURALO">     0</i>
   <i type="logical" name="L2ORDER"> F  </i>
   <i type="logical" name="LUSEW"> F  </i>
   <i name="ENCUTGW">     -2.00000000</i>
   <i name="ENCUTGWSOFT">     -2.00000000</i>
   <i name="ENCUTLF">     -1.00000000</i>
   <i type="int" name="LMAXMP2">    -1</i>
   <i name="SCISSOR">      0.00000000</i>
   <i type="int" name="NOMEGA">     0</i>
   <i type="int" name="NOMEGAR">     0</i>
   <i type="int" name="NBANDSGW">    -1</i>
   <i type="int" name="NBANDSO">    -1</i>
   <i type="int" name="NBANDSV">    -1</i>
   <i type="int" name="NELM">    40</i>
   <i type="int" name="NELMHF">     1</i>
   <i type="int" name="DIM">     3</i>
   <i type="int" name="ANTIRES">     0</i>
   <i name="OMEGAMAX">    -30.00000000</i>
   <i name="OMEGAMIN">    -30.00000000</i>
   <i name="OMEGATL">   -200.00000000</i>
   <i type="int" name="OMEGAGRID">     0</i>
   <i name="CSHIFT">     -0.10000000</i>
   <i type="logical" name="SELFENERGY"> F  </i>
   <i type="logical" name="LSPECTRAL"> F  </i>
   <i type="logical" name="LSPECTRALGW"> F  </i>
   <i type="logical" name="LSINGLES"> F  </i>
   <i type="logical" name="LFERMIGW"> F  </i>
   <i type="logical" name="ODDONLYGW"> F  </i>
   <i type="logical" name="EVENONLYGW"> F  </i>
   <i type="int" name="NKREDLFX">     1</i>
   <i type="int" name="NKREDLFY">     1</i>
   <i type="int" name="NKREDLFZ">     1</i>
   <i type="int" name="MAXMEM">  1800</i>
   <i type="int" name="TELESCOPE">     0</i>
   <i type="int" name="TAUPAR">     1</i>
   <i type="int" name="OMEGAPAR">    -1</i>
   <i name="LAMBDA">      1.00000000</i>
  </separator>
  <separator name="External order field" >
   <i name="OFIELD_KAPPA">      0.00000000</i>
   <v name="OFIELD_K">      0.00000000      0.00000000      0.00000000</v>
   <i name="OFIELD_Q6_NEAR">      0.00000000</i>
   <i name="OFIELD_Q6_FAR">      0.00000000</i>
   <i name="OFIELD_A">      0.00000000</i>
  </separator>
 </parameters>
 <atominfo>
  <atoms>     148 </atoms>
  <types>       4 </types>
  <array name="atoms" >
   <dimension dim="1">ion</dimension>
   <field type="string">element</field>
   <field type="int">atomtype</field>
   <set>
    <rc><c>Sr</c><c>   1</c></rc>
    <rc><c>Sr</c><c>   1</c></rc>
    <rc><c>Sr</c><c>   1</c></rc>
    <rc><c>Sr</c><c>   1</c></rc>
    <rc><c>Sr</c><c>   1</c></rc>
    <rc><c>Sr</c><c>   1</c></rc>
    <rc><c>Sr</c><c>   1</c></rc>
    <rc><c>Sr</c><c>   1</c></rc>
    <rc><c>Sr</c><c>   1</c></rc>
    <rc><c>Sr</c><c>   1</c></rc>
    <rc><c>Sr</c><c>   1</c></rc>
    <rc><c>Sr</c><c>   1</c></rc>
    <rc><c>Sr</c><c>   1</c></rc>
    <rc><c>Sr</c><c>   1</c></rc>
    <rc><c>Sr</c><c>   1</c></rc>
    <rc><c>Sr</c><c>   1</c></rc>
    <rc><c>Sr</c><c>   1</c></rc>
    <rc><c>Sr</c><c>   1</c></rc>
    <rc><c>Sr</c><c>   1</c></rc>
    <rc><c>Sr</c><c>   1</c></rc>
    <rc><c>Sr</c><c>   1</c></rc>
    <rc><c>Sr</c><c>   1</c></rc>
    <rc><c>Sr</c><c>   1</c></rc>
    <rc><c>Sr</c><c>   1</c></rc>
    <rc><c>Sr</c><c>   1</c></rc>
    <rc><c>Sr</c><c>   1</c></rc>
    <rc><c>Sr</c><c>   1</c></rc>
    <rc><c>Sr</c><c>   1</c></rc>
    <rc><c>Sr</c><c>   1</c></rc>
    <rc><c>Sr</c><c>   1</c></rc>
    <rc><c>Sr</c><c>   1</c></rc>
    <rc><c>Sr</c><c>   1</c></rc>
    <rc><c>Ti</c><c>   2</c></rc>
    <rc><c>Ti</c><c>   2</c></rc>
    <rc><c>Ti</c><c>   2</c></rc>
    <rc><c>Ti</c><c>   2</c></rc>
    <rc><c>Ti</c><c>   2</c></rc>
    <rc><c>Ti</c><c>   2</c></rc>
    <rc><c>Ti</c><c>   2</c></rc>
    <rc><c>Ti</c><c>   2</c></rc>
    <rc><c>Fe</c><c>   3</c></rc>
    <rc><c>Fe</c><c>   3</c></rc>
    <rc><c>Fe</c><c>   3</c></rc>
    <rc><c>Fe</c><c>   3</c></rc>
    <rc><c>Fe</c><c>   3</c></rc>
    <rc><c>Fe</c><c>   3</c></rc>
    <rc><c>Fe</c><c>   3</c></rc>
    <rc><c>Fe</c><c>   3</c></rc>
    <rc><c>Fe</c><c>   3</c></rc>
    <rc><c>Fe</c><c>   3</c></rc>
    <rc><c>Fe</c><c>   3</c></rc>
    <rc><c>Fe</c><c>   3</c></rc>
    <rc><c>Fe</c><c>   3</c></rc>
    <rc><c>Fe</c><c>   3</c></rc>
    <rc><c>Fe</c><c>   3</c></rc>
    <rc><c>Fe</c><c>   3</c></rc>
    <rc><c>Fe</c><c>   3</c></rc>
    <rc><c>Fe</c><c>   3</c></rc>
    <rc><c>Fe</c><c>   3</c></rc>
    <rc><c>Fe</c><c>   3</c></rc>
    <rc><c>Fe</c><c>   3</c></rc>
    <rc><c>Fe</c><c>   3</c></rc>
    <rc><c>Fe</c><c>   3</c></rc>
    <rc><c>Fe</c><c>   3</c></rc>
    <rc><c>O </c><c>   4</c></rc>
    <rc><c>O </c><c>   4</c></rc>
    <rc><c>O </c><c>   4</c></rc>
    <rc><c>O </c><c>   4</c></rc>
    <rc><c>O </c><c>   4</c></rc>
    <rc><c>O </c><c>   4</c></rc>
    <rc><c>O </c><c>   4</c></rc>
    <rc><c>O </c><c>   4</c></rc>
    <rc><c>O </c><c>   4</c></rc>
    <rc><c>O </c><c>   4</c></rc>
    <rc><c>O </c><c>   4</c></rc>
    <rc><c>O </c><c>   4</c></rc>
    <rc><c>O </c><c>   4</c></rc>
    <rc><c>O </c><c>   4</c></rc>
    <rc><c>O </c><c>   4</c></rc>
    <rc><c>O </c><c>   4</c></rc>
    <rc><c>O </c><c>   4</c></rc>
    <rc><c>O </c><c>   4</c></rc>
    <rc><c>O </c><c>   4</c></rc>
    <rc><c>O </c><c>   4</c></rc>
    <rc><c>O </c><c>   4</c></rc>
    <rc><c>O </c><c>   4</c></rc>
    <rc><c>O </c><c>   4</c></rc>
    <rc><c>O </c><c>   4</c></rc>
    <rc><c>O </c><c>   4</c></rc>
    <rc><c>O </c><c>   4</c></rc>
    <rc><c>O </c><c>   4</c></rc>
    <rc><c>O </c><c>   4</c></rc>
    <rc><c>O </c><c>   4</c></rc>
    <rc><c>O </c><c>   4</c></rc>
    <rc><c>O </c><c>   4</c></rc>
    <rc><c>O </c><c>   4</c></rc>
    <rc><c>O </c><c>   4</c></rc>
    <rc><c>O </c><c>   4</c></rc>
    <rc><c>O </c><c>   4</c></rc>
    <rc><c>O </c><c>   4</c></rc>
    <rc><c>O </c><c>   4</c></rc>
    <rc><c>O </c><c>   4</c></rc>
    <rc><c>O </c><c>   4</c></rc>
    <rc><c>O </c><c>   4</c></rc>
    <rc><c>O </c><c>   4</c></rc>
    <rc><c>O </c><c>   4</c></rc>
    <rc><c>O </c><c>   4</c></rc>
    <rc><c>O </c><c>   4</c></rc>
    <rc><c>O </c><c>   4</c></rc>
    <rc><c>O </c><c>   4</c></rc>
    <rc><c>O </c><c>   4</c></rc>
    <rc><c>O </c><c>   4</c></rc>
    <rc><c>O </c><c>   4</c></rc>
    <rc><c>O </c><c>   4</c></rc>
    <rc><c>O </c><c>   4</c></rc>
    <rc><c>O </c><c>   4</c></rc>
    <rc><c>O </c><c>   4</c></rc>
    <rc><c>O </c><c>   4</c></rc>
    <rc><c>O </c><c>   4</c></rc>
    <rc><c>O </c><c>   4</c></rc>
    <rc><c>O </c><c>   4</c></rc>
    <rc><c>O </c><c>   4</c></rc>
    <rc><c>O </c><c>   4</c></rc>
    <rc><c>O </c><c>   4</c></rc>
    <rc><c>O </c><c>   4</c></rc>
    <rc><c>O </c><c>   4</c></rc>
    <rc><c>O </c><c>   4</c></rc>
    <rc><c>O </c><c>   4</c></rc>
    <rc><c>O </c><c>   4</c></rc>
    <rc><c>O </c><c>   4</c></rc>
    <rc><c>O </c><c>   4</c></rc>
    <rc><c>O </c><c>   4</c></rc>
    <rc><c>O </c><c>   4</c></rc>
    <rc><c>O </c><c>   4</c></rc>
    <rc><c>O </c><c>   4</c></rc>
    <rc><c>O </c><c>   4</c></rc>
    <rc><c>O </c><c>   4</c></rc>
    <rc><c>O </c><c>   4</c></rc>
    <rc><c>O </c><c>   4</c></rc>
    <rc><c>O </c><c>   4</c></rc>
    <rc><c>O </c><c>   4</c></rc>
    <rc><c>O </c><c>   4</c></rc>
    <rc><c>O </c><c>   4</c></rc>
    <rc><c>O </c><c>   4</c></rc>
    <rc><c>O </c><c>   4</c></rc>
    <rc><c>O </c><c>   4</c></rc>
    <rc><c>O </c><c>   4</c></rc>
    <rc><c>O </c><c>   4</c></rc>
   </set>
  </array>
  <array name="atomtypes" >
   <dimension dim="1">type</dimension>
   <field type="int">atomspertype</field>
   <field type="string">element</field>
   <field>mass</field>
   <field>valence</field>
   <field type="string">pseudopotential</field>
   <set>
    <rc><c>  32</c><c>Sr</c><c>     87.62000000</c><c>     10.00000000</c><c>  PAW_PBE Sr_sv 07Sep2000               </c></rc>
    <rc><c>   8</c><c>Ti</c><c>     47.88000000</c><c>      4.00000000</c><c>  PAW_PBE Ti 08Apr2002                  </c></rc>
    <rc><c>  24</c><c>Fe</c><c>     55.84700000</c><c>      8.00000000</c><c>  PAW_PBE Fe 06Sep2000                  </c></rc>
    <rc><c>  84</c><c>O </c><c>     16.00000000</c><c>      6.00000000</c><c>  PAW_PBE O 08Apr2002                   </c></rc>
   </set>
  </array>
 </atominfo>
 <structure name="initialpos" >
  <crystal>
   <varray name="basis" >
    <v>      11.21511808       0.01584313      -0.00384023 </v>
    <v>       0.01596268      11.38074678      -0.00060839 </v>
    <v>      -0.00524563      -0.00080024      15.77187936 </v>
   </varray>
   <i name="volume">   2013.06197942 </i>
   <varray name="rec_basis" >
    <v>       0.08916554      -0.00012506       0.00002965 </v>
    <v>      -0.00012413       0.08786787       0.00000442 </v>
    <v>       0.00002171       0.00000336       0.06340399 </v>
   </varray>
  </crystal>
  <varray name="positions" >
   <v>       0.98894149       0.23293897       0.11378142 </v>
   <v>       0.00031039       0.24904787       0.61113016 </v>
   <v>       0.00039990       0.75160628       0.11016354 </v>
   <v>       0.99103241       0.73488272       0.61603440 </v>
   <v>       0.50409687       0.24106525       0.11644382 </v>
   <v>       0.49811324       0.25042825       0.61297864 </v>
   <v>       0.49497626       0.74825948       0.11149540 </v>
   <v>       0.50655152       0.73985814       0.61820556 </v>
   <v>       0.99036468       0.23497944       0.38355567 </v>
   <v>       0.00031837       0.24633184       0.88997582 </v>
   <v>       0.00213438       0.74868801       0.38897420 </v>
   <v>       0.98948033       0.73826902       0.88688276 </v>
   <v>       0.50625203       0.23934993       0.38231781 </v>
   <v>       0.49329310       0.25308485       0.88828738 </v>
   <v>       0.49690843       0.75082158       0.38669009 </v>
   <v>       0.50442580       0.73624389       0.88311214 </v>
   <v>       0.23815996       0.99762206       0.10732422 </v>
   <v>       0.24960344       0.01765111       0.61444749 </v>
   <v>       0.25397979       0.51834530       0.11370688 </v>
   <v>       0.24321444       0.49937839       0.60873959 </v>
   <v>       0.75412858       0.01284434       0.11671038 </v>
   <v>       0.74784055       0.99485374       0.61237374 </v>
   <v>       0.74143303       0.49678124       0.11054826 </v>
   <v>       0.75167212       0.51548806       0.61958954 </v>
   <v>       0.24304811       0.99959156       0.39150701 </v>
   <v>       0.24284150       0.01773964       0.88702352 </v>
   <v>       0.24878063       0.51667855       0.38547842 </v>
   <v>       0.24353333       0.49836226       0.89293413 </v>
   <v>       0.75083506       0.01475700       0.38066355 </v>
   <v>       0.75136838       0.99668614       0.88872600 </v>
   <v>       0.74832776       0.49506468       0.38768881 </v>
   <v>       0.74807098       0.51360562       0.88263501 </v>
   <v>       0.49521345       0.50159893       0.50061730 </v>
   <v>       0.49517773       0.00150102       0.49885493 </v>
   <v>       0.99600681       0.99872001       0.50166524 </v>
   <v>       0.75458136       0.24475109       0.24944258 </v>
   <v>       0.75574295       0.74526405       0.75045650 </v>
   <v>       0.49387052       0.00149203       0.00026530 </v>
   <v>       0.99622950       0.49869750       0.49835996 </v>
   <v>       0.99483590       0.49874208       0.00308405 </v>
   <v>       0.74657560       0.74885056       0.49602734 </v>
   <v>       0.99455435       0.99913955       0.99952535 </v>
   <v>       0.74456016       0.24921340       0.99557926 </v>
   <v>       0.24476858       0.25008254       0.48946500 </v>
   <v>       0.51417909       0.96527985       0.75095373 </v>
   <v>       0.24391339       0.24979569       0.01366849 </v>
   <v>       0.74667026       0.24901341       0.50365059 </v>
   <v>       0.24400475       0.75002959       0.98683888 </v>
   <v>       0.24567267       0.74980986       0.51082164 </v>
   <v>       0.25562038       0.78461470       0.74965598 </v>
   <v>       0.74512824       0.74906567       0.00399552 </v>
   <v>       0.51388727       0.46571706       0.25269014 </v>
   <v>       0.25872225       0.30043057       0.74917305 </v>
   <v>       0.26003483       0.80019499       0.25077195 </v>
   <v>       0.00703563       0.46644214       0.24904541 </v>
   <v>       0.49395600       0.50110586       0.99495400 </v>
   <v>       0.76318770       0.27583548       0.74992848 </v>
   <v>       0.76305681       0.77532734       0.25020018 </v>
   <v>       0.99649438       0.98096316       0.24960103 </v>
   <v>       0.00789555       0.96677363       0.74849181 </v>
   <v>       0.25529899       0.28498051       0.25046588 </v>
   <v>       0.99681752       0.48146395       0.75170047 </v>
   <v>       0.52068540       0.98699357       0.24859505 </v>
   <v>       0.51923224       0.48610499       0.74938245 </v>
   <v>       0.00342323       0.00126946       0.12784825 </v>
   <v>       0.98448358       0.01981167       0.63499706 </v>
   <v>       0.98153588       0.52242634       0.13800832 </v>
   <v>       0.00582590       0.49961653       0.62350369 </v>
   <v>       0.48027041       0.00719780       0.12823149 </v>
   <v>       0.49173232       0.02331418       0.63855374 </v>
   <v>       0.48634972       0.53277364       0.14809493 </v>
   <v>       0.48037552       0.50794010       0.62762262 </v>
   <v>       0.00628929       0.00036704       0.37601810 </v>
   <v>       0.98323735       0.02813473       0.85607581 </v>
   <v>       0.98498809       0.52152119       0.36215208 </v>
   <v>       0.00481830       0.49974110       0.87626348 </v>
   <v>       0.48184393       0.00705954       0.37257695 </v>
   <v>       0.48991697       0.02457988       0.86123117 </v>
   <v>       0.49251512       0.52166877       0.36587404 </v>
   <v>       0.47767315       0.50916261       0.86647069 </v>
   <v>       0.23035294       0.21976877       0.35927121 </v>
   <v>       0.23291511       0.24001779       0.85779905 </v>
   <v>       0.23591060       0.74052899       0.36187501 </v>
   <v>       0.22887290       0.71902767       0.85712253 </v>
   <v>       0.74807748       0.25155063       0.37641080 </v>
   <v>       0.73473162       0.22037095       0.85953226 </v>
   <v>       0.73529705       0.71975155       0.36152083 </v>
   <v>       0.74971623       0.75012996       0.87399049 </v>
   <v>       0.23185104       0.21842074       0.14304920 </v>
   <v>       0.23170693       0.24150584       0.63819203 </v>
   <v>       0.23275713       0.73993810       0.14195228 </v>
   <v>       0.23137603       0.71938879       0.64081611 </v>
   <v>       0.74786482       0.25002120       0.12594905 </v>
   <v>       0.73921170       0.21966376       0.63823518 </v>
   <v>       0.73684343       0.72051018       0.13994203 </v>
   <v>       0.75076043       0.75169874       0.62344355 </v>
   <v>       0.17609066       0.43393419       0.24965157 </v>
   <v>       0.41733503       0.32813791       0.25151328 </v>
   <v>       0.67271501       0.40904138       0.25062542 </v>
   <v>       0.91899280       0.32927435       0.25020163 </v>
   <v>       0.17284670       0.94562754       0.25124076 </v>
   <v>       0.42617077       0.83743091       0.25060995 </v>
   <v>       0.67143581       0.91376469       0.25032456 </v>
   <v>       0.92725546       0.82386812       0.25150377 </v>
   <v>       0.12270150       0.12144873       0.50270191 </v>
   <v>       0.37303130       0.13039872       0.50089565 </v>
   <v>       0.62157351       0.12022193       0.49883487 </v>
   <v>       0.87426613       0.12517712       0.49936322 </v>
   <v>       0.11865177       0.37305988       0.48654779 </v>
   <v>       0.36783651       0.37756669       0.49088171 </v>
   <v>       0.61718799       0.37558671       0.50363589 </v>
   <v>       0.87055743       0.37677965       0.50519264 </v>
   <v>       0.12314129       0.62115117       0.49696253 </v>
   <v>       0.37289004       0.63061494       0.49947212 </v>
   <v>       0.62194877       0.62049790       0.50245612 </v>
   <v>       0.87492972       0.62520896       0.49953600 </v>
   <v>       0.11933148       0.87272498       0.51230618 </v>
   <v>       0.36851440       0.87797480       0.51007614 </v>
   <v>       0.61663760       0.87579635       0.49750364 </v>
   <v>       0.87036379       0.87666920       0.49337543 </v>
   <v>       0.17207631       0.44711253       0.74993794 </v>
   <v>       0.42490361       0.33395857       0.74764287 </v>
   <v>       0.67080810       0.41287854       0.74820054 </v>
   <v>       0.92736651       0.32528612       0.74985911 </v>
   <v>       0.17666810       0.93361297       0.74881608 </v>
   <v>       0.41827080       0.82772563       0.74978850 </v>
   <v>       0.67304153       0.90933362       0.74977961 </v>
   <v>       0.91961034       0.82945711       0.74945784 </v>
   <v>       0.12222843       0.12442076       0.99802871 </v>
   <v>       0.37119161       0.12862934       0.99958066 </v>
   <v>       0.61922966       0.12084658       0.00144441 </v>
   <v>       0.87094353       0.12623679       0.99947350 </v>
   <v>       0.11830101       0.37431910       0.01464393 </v>
   <v>       0.36760113       0.37501663       0.01025878 </v>
   <v>       0.61758613       0.37510181       0.99661257 </v>
   <v>       0.87009839       0.37654787       0.99525097 </v>
   <v>       0.12101429       0.62182525       0.00329610 </v>
   <v>       0.37042462       0.63113797       0.99954490 </v>
   <v>       0.62136102       0.62194065       0.99801262 </v>
   <v>       0.87301945       0.62429801       0.99989044 </v>
   <v>       0.12004318       0.87287256       0.98741698 </v>
   <v>       0.36865071       0.87729341       0.98871214 </v>
   <v>       0.61651348       0.87693590       0.00211718 </v>
   <v>       0.86895280       0.87434508       0.00562406 </v>
   <v>       0.60858920       0.14593252       0.25110100 </v>
   <v>       0.86473775       0.10370794       0.25293090 </v>
   <v>       0.61252509       0.64633942       0.74765548 </v>
   <v>       0.86826649       0.60275229       0.74883251 </v>
  </varray>
 </structure>
 <calculation>
  <scstep>
   <time name="dav">  297.67  297.71</time>
   <time name="total">  301.46  301.55</time>
   <energy>
    <i name="alphaZ">   5582.25091391 </i>
    <i name="ewald"> -62688.74427877 </i>
    <i name="hartreedc"> -18906.34215663 </i>
    <i name="XCdc">   3409.68347063 </i>
    <i name="pawpsdc"> 120199.23719195 </i>
    <i name="pawaedc">-119705.32698320 </i>
    <i name="eentropy">     -0.00000000 </i>
    <i name="bandstr">  -7202.19560897 </i>
    <i name="atom">  78316.90445604 </i>
    <i name="e_fr_energy">   -994.53299504 </i>
    <i name="e_wo_entrp">   -994.53299504 </i>
    <i name="e_0_energy">   -994.53299504 </i>
   </energy>
  </scstep>
  <scstep>
   <time name="diag">   33.47   33.47</time>
   <time name="diis">   34.14   34.14</time>
   <time name="orth">   18.98   18.98</time>
   <time name="total">   90.39   90.47</time>
   <energy>
    <i name="e_fr_energy">   -994.53299702 </i>
    <i name="e_wo_entrp">   -994.53299702 </i>
    <i name="e_0_energy">   -994.53299702 </i>
   </energy>
  </scstep>
  <scstep>
   <time name="diag">   33.52   33.52</time>
   <time name="diis">   32.16   32.16</time>
   <time name="orth">   19.03   19.03</time>
   <time name="total">   88.50   88.55</time>
   <energy>
    <i name="e_fr_energy">   -994.53299783 </i>
    <i name="e_wo_entrp">   -994.53299783 </i>
    <i name="e_0_energy">   -994.53299783 </i>
   </energy>
  </scstep>
  <scstep>
   <time name="diag">   33.52   33.52</time>
   <time name="diis">   31.59   31.59</time>
   <time name="orth">   19.01   19.02</time>
   <time name="total">   87.92   88.02</time>
   <energy>
    <i name="e_fr_energy">   -994.53300571 </i>
    <i name="e_wo_entrp">   -994.53300571 </i>
    <i name="e_0_energy">   -994.53300571 </i>
   </energy>
  </scstep>
  <scstep>
   <time name="diag">   33.52   33.52</time>
   <time name="diis">   31.32   31.32</time>
   <time name="orth">   19.01   19.01</time>
   <time name="total">   87.64   87.73</time>
   <energy>
    <i name="e_fr_energy">   -994.53300965 </i>
    <i name="e_wo_entrp">   -994.53300965 </i>
    <i name="e_0_energy">   -994.53300965 </i>
   </energy>
  </scstep>
  <scstep>
   <time name="diag">   33.50   33.50</time>
   <time name="diis">   30.03   30.04</time>
   <time name="orth">   19.01   19.00</time>
   <time name="total">   86.34   86.39</time>
   <energy>
    <i name="e_fr_energy">   -994.53301057 </i>
    <i name="e_wo_entrp">   -994.53301057 </i>
    <i name="e_0_energy">   -994.53301057 </i>
   </energy>
  </scstep>
  <scstep>
   <time name="diag">   33.50   33.50</time>
   <time name="diis">   27.83   27.83</time>
   <time name="orth">   18.97   18.97</time>
   <time name="total">   84.10   84.18</time>
   <energy>
    <i name="e_fr_energy">   -994.53301075 </i>
    <i name="e_wo_entrp">   -994.53301075 </i>
    <i name="e_0_energy">   -994.53301075 </i>
   </energy>
  </scstep>
  <scstep>
   <time name="diag">   33.51   33.51</time>
   <time name="diis">   26.60   26.60</time>
   <time name="orth">   18.98   18.98</time>
   <time name="total">   79.66   79.70</time>
   <energy>
    <i name="alphaZ">   5582.25091391 </i>
    <i name="ewald"> -62688.74427877 </i>
    <i name="hartreedc"> -18906.35347293 </i>
    <i name="XCdc">   3409.68139370 </i>
    <i name="pawpsdc"> 120189.53244246 </i>
    <i name="pawaedc">-119695.59599152 </i>
    <i name="eentropy">     -0.00000000 </i>
    <i name="bandstr">  -7202.20847377 </i>
    <i name="atom">  78316.90445604 </i>
    <i name="e_fr_energy">   -994.53301086 </i>
    <i name="e_wo_entrp">   -994.53301086 </i>
    <i name="e_0_energy">   -994.53301086 </i>
   </energy>
  </scstep>
  <structure>
   <crystal>
    <varray name="basis" >
     <v>      11.21511808       0.01584313      -0.00384023 </v>
     <v>       0.01596268      11.38074678      -0.00060839 </v>
     <v>      -0.00524563      -0.00080024      15.77187936 </v>
    </varray>
    <i name="volume">   2013.06197942 </i>
    <varray name="rec_basis" >
     <v>       0.08916554      -0.00012506       0.00002965 </v>
     <v>      -0.00012413       0.08786787       0.00000442 </v>
     <v>       0.00002171       0.00000336       0.06340399 </v>
    </varray>
   </crystal>
   <varray name="positions" >
    <v>       0.98894149       0.23293897       0.11378142 </v>
    <v>       0.00031039       0.24904787       0.61113016 </v>
    <v>       0.00039990       0.75160628       0.11016354 </v>
    <v>       0.99103241       0.73488272       0.61603440 </v>
    <v>       0.50409687       0.24106525       0.11644382 </v>
    <v>       0.49811324       0.25042825       0.61297864 </v>
    <v>       0.49497626       0.74825948       0.11149540 </v>
    <v>       0.50655152       0.73985814       0.61820556 </v>
    <v>       0.99036468       0.23497944       0.38355567 </v>
    <v>       0.00031837       0.24633184       0.88997582 </v>
    <v>       0.00213438       0.74868801       0.38897420 </v>
    <v>       0.98948033       0.73826902       0.88688276 </v>
    <v>       0.50625203       0.23934993       0.38231781 </v>
    <v>       0.49329310       0.25308485       0.88828738 </v>
    <v>       0.49690843       0.75082158       0.38669009 </v>
    <v>       0.50442580       0.73624389       0.88311214 </v>
    <v>       0.23815996       0.99762206       0.10732422 </v>
    <v>       0.24960344       0.01765111       0.61444749 </v>
    <v>       0.25397979       0.51834530       0.11370688 </v>
    <v>       0.24321444       0.49937839       0.60873959 </v>
    <v>       0.75412858       0.01284434       0.11671038 </v>
    <v>       0.74784055       0.99485374       0.61237374 </v>
    <v>       0.74143303       0.49678124       0.11054826 </v>
    <v>       0.75167212       0.51548806       0.61958954 </v>
    <v>       0.24304811       0.99959156       0.39150701 </v>
    <v>       0.24284150       0.01773964       0.88702352 </v>
    <v>       0.24878063       0.51667855       0.38547842 </v>
    <v>       0.24353333       0.49836226       0.89293413 </v>
    <v>       0.75083506       0.01475700       0.38066355 </v>
    <v>       0.75136838       0.99668614       0.88872600 </v>
    <v>       0.74832776       0.49506468       0.38768881 </v>
    <v>       0.74807098       0.51360562       0.88263501 </v>
    <v>       0.49521345       0.50159893       0.50061730 </v>
    <v>       0.49517773       0.00150102       0.49885493 </v>
    <v>       0.99600681       0.99872001       0.50166524 </v>
    <v>       0.75458136       0.24475109       0.24944258 </v>
    <v>       0.75574295       0.74526405       0.75045650 </v>
    <v>       0.49387052       0.00149203       0.00026530 </v>
    <v>       0.99622950       0.49869750       0.49835996 </v>
    <v>       0.99483590       0.49874208       0.00308405 </v>
    <v>       0.74657560       0.74885056       0.49602734 </v>
    <v>       0.99455435       0.99913955       0.99952535 </v>
    <v>       0.74456016       0.24921340       0.99557926 </v>
    <v>       0.24476858       0.25008254       0.48946500 </v>
    <v>       0.51417909       0.96527985       0.75095373 </v>
    <v>       0.24391339       0.24979569       0.01366849 </v>
    <v>       0.74667026       0.24901341       0.50365059 </v>
    <v>       0.24400475       0.75002959       0.98683888 </v>
    <v>       0.24567267       0.74980986       0.51082164 </v>
    <v>       0.25562038       0.78461470       0.74965598 </v>
    <v>       0.74512824       0.74906567       0.00399552 </v>
    <v>       0.51388727       0.46571706       0.25269014 </v>
    <v>       0.25872225       0.30043057       0.74917305 </v>
    <v>       0.26003483       0.80019499       0.25077195 </v>
    <v>       0.00703563       0.46644214       0.24904541 </v>
    <v>       0.49395600       0.50110586       0.99495400 </v>
    <v>       0.76318770       0.27583548       0.74992848 </v>
    <v>       0.76305681       0.77532734       0.25020018 </v>
    <v>       0.99649438       0.98096316       0.24960103 </v>
    <v>       0.00789555       0.96677363       0.74849181 </v>
    <v>       0.25529899       0.28498051       0.25046588 </v>
    <v>       0.99681752       0.48146395       0.75170047 </v>
    <v>       0.52068540       0.98699357       0.24859505 </v>
    <v>       0.51923224       0.48610499       0.74938245 </v>
    <v>       0.00342323       0.00126946       0.12784825 </v>
    <v>       0.98448358       0.01981167       0.63499706 </v>
    <v>       0.98153588       0.52242634       0.13800832 </v>
    <v>       0.00582590       0.49961653       0.62350369 </v>
    <v>       0.48027041       0.00719780       0.12823149 </v>
    <v>       0.49173232       0.02331418       0.63855374 </v>
    <v>       0.48634972       0.53277364       0.14809493 </v>
    <v>       0.48037552       0.50794010       0.62762262 </v>
    <v>       0.00628929       0.00036704       0.37601810 </v>
    <v>       0.98323735       0.02813473       0.85607581 </v>
    <v>       0.98498809       0.52152119       0.36215208 </v>
    <v>       0.00481830       0.49974110       0.87626348 </v>
    <v>       0.48184393       0.00705954       0.37257695 </v>
    <v>       0.48991697       0.02457988       0.86123117 </v>
    <v>       0.49251512       0.52166877       0.36587404 </v>
    <v>       0.47767315       0.50916261       0.86647069 </v>
    <v>       0.23035294       0.21976877       0.35927121 </v>
    <v>       0.23291511       0.24001779       0.85779905 </v>
    <v>       0.23591060       0.74052899       0.36187501 </v>
    <v>       0.22887290       0.71902767       0.85712253 </v>
    <v>       0.74807748       0.25155063       0.37641080 </v>
    <v>       0.73473162       0.22037095       0.85953226 </v>
    <v>       0.73529705       0.71975155       0.36152083 </v>
    <v>       0.74971623       0.75012996       0.87399049 </v>
    <v>       0.23185104       0.21842074       0.14304920 </v>
    <v>       0.23170693       0.24150584       0.63819203 </v>
    <v>       0.23275713       0.73993810       0.14195228 </v>
    <v>       0.23137603       0.71938879       0.64081611 </v>
    <v>       0.74786482       0.25002120       0.12594905 </v>
    <v>       0.73921170       0.21966376       0.63823518 </v>
    <v>       0.73684343       0.72051018       0.13994203 </v>
    <v>       0.75076043       0.75169874       0.62344355 </v>
    <v>       0.17609066       0.43393419       0.24965157 </v>
    <v>       0.41733503       0.32813791       0.25151328 </v>
    <v>       0.67271501       0.40904138       0.25062542 </v>
    <v>       0.91899280       0.32927435       0.25020163 </v>
    <v>       0.17284670       0.94562754       0.25124076 </v>
    <v>       0.42617077       0.83743091       0.25060995 </v>
    <v>       0.67143581       0.91376469       0.25032456 </v>
    <v>       0.92725546       0.82386812       0.25150377 </v>
    <v>       0.12270150       0.12144873       0.50270191 </v>
    <v>       0.37303130       0.13039872       0.50089565 </v>
    <v>       0.62157351       0.12022193       0.49883487 </v>
    <v>       0.87426613       0.12517712       0.49936322 </v>
    <v>       0.11865177       0.37305988       0.48654779 </v>
    <v>       0.36783651       0.37756669       0.49088171 </v>
    <v>       0.61718799       0.37558671       0.50363589 </v>
    <v>       0.87055743       0.37677965       0.50519264 </v>
    <v>       0.12314129       0.62115117       0.49696253 </v>
    <v>       0.37289004       0.63061494       0.49947212 </v>
    <v>       0.62194877       0.62049790       0.50245612 </v>
    <v>       0.87492972       0.62520896       0.49953600 </v>
    <v>       0.11933148       0.87272498       0.51230618 </v>
    <v>       0.36851440       0.87797480       0.51007614 </v>
    <v>       0.61663760       0.87579635       0.49750364 </v>
    <v>       0.87036379       0.87666920       0.49337543 </v>
    <v>       0.17207631       0.44711253       0.74993794 </v>
    <v>       0.42490361       0.33395857       0.74764287 </v>
    <v>       0.67080810       0.41287854       0.74820054 </v>
    <v>       0.92736651       0.32528612       0.74985911 </v>
    <v>       0.17666810       0.93361297       0.74881608 </v>
    <v>       0.41827080       0.82772563       0.74978850 </v>
    <v>       0.67304153       0.90933362       0.74977961 </v>
    <v>       0.91961034       0.82945711       0.74945784 </v>
    <v>       0.12222843       0.12442076       0.99802871 </v>
    <v>       0.37119161       0.12862934       0.99958066 </v>
    <v>       0.61922966       0.12084658       0.00144441 </v>
    <v>       0.87094353       0.12623679       0.99947350 </v>
    <v>       0.11830101       0.37431910       0.01464393 </v>
    <v>       0.36760113       0.37501663       0.01025878 </v>
    <v>       0.61758613       0.37510181       0.99661257 </v>
    <v>       0.87009839       0.37654787       0.99525097 </v>
    <v>       0.12101429       0.62182525       0.00329610 </v>
    <v>       0.37042462       0.63113797       0.99954490 </v>
    <v>       0.62136102       0.62194065       0.99801262 </v>
    <v>       0.87301945       0.62429801       0.99989044 </v>
    <v>       0.12004318       0.87287256       0.98741698 </v>
    <v>       0.36865071       0.87729341       0.98871214 </v>
    <v>       0.61651348       0.87693590       0.00211718 </v>
    <v>       0.86895280       0.87434508       0.00562406 </v>
    <v>       0.60858920       0.14593252       0.25110100 </v>
    <v>       0.86473775       0.10370794       0.25293090 </v>
    <v>       0.61252509       0.64633942       0.74765548 </v>
    <v>       0.86826649       0.60275229       0.74883251 </v>
   </varray>
  </structure>
  <varray name="forces" >
   <v>       0.01108304       0.01050822       0.00691069 </v>
   <v>      -0.02459737       0.01023282      -0.02084777 </v>
   <v>       0.00346735      -0.00031714      -0.04729907 </v>
   <v>      -0.02031682       0.02249974       0.00011757 </v>
   <v>       0.00061972      -0.02942985       0.00017716 </v>
   <v>      -0.00766571       0.00829485      -0.01097027 </v>
   <v>      -0.03452203       0.01858740      -0.01443964 </v>
   <v>       0.01451743      -0.04059070      -0.01243508 </v>
   <v>      -0.01876794      -0.00011254       0.01997899 </v>
   <v>      -0.01004512       0.02181753       0.04045299 </v>
   <v>      -0.03358467       0.02872252       0.02421353 </v>
   <v>       0.00462724       0.02083517      -0.00298943 </v>
   <v>       0.00725378      -0.03374968      -0.01163133 </v>
   <v>      -0.01772728      -0.00362268       0.01064428 </v>
   <v>      -0.00819554       0.01783609       0.00570623 </v>
   <v>       0.00091772      -0.02034053       0.01253145 </v>
   <v>       0.02111795       0.02089770      -0.02095355 </v>
   <v>      -0.01389045       0.00482738      -0.03701113 </v>
   <v>      -0.00787655       0.01567356      -0.03451987 </v>
   <v>       0.01269735       0.01892303       0.02026064 </v>
   <v>      -0.01612710      -0.04027064       0.02152845 </v>
   <v>      -0.02729625       0.02802426      -0.01573207 </v>
   <v>      -0.01912140       0.01919425      -0.02277376 </v>
   <v>      -0.01951074      -0.05275963       0.03296295 </v>
   <v>       0.00410802       0.02180022      -0.01360485 </v>
   <v>       0.01759119       0.02369317       0.05279451 </v>
   <v>      -0.01060157       0.00336189       0.02074757 </v>
   <v>       0.00337032       0.02842743       0.00349453 </v>
   <v>      -0.00569463      -0.03265359      -0.02666323 </v>
   <v>      -0.02192375       0.00991915       0.01633137 </v>
   <v>      -0.03428318       0.00772606       0.01975531 </v>
   <v>       0.00641044      -0.04298989      -0.01257415 </v>
   <v>       0.06187571       0.01157355       0.02283910 </v>
   <v>       0.02973830       0.01829069      -0.03581425 </v>
   <v>      -0.02866550       0.02296033      -0.01295400 </v>
   <v>      -0.07374458      -0.08089862       0.07154325 </v>
   <v>      -0.01425836      -0.05348397      -0.04695891 </v>
   <v>      -0.02709513      -0.03007852       0.04000099 </v>
   <v>      -0.01852977       0.00635922       0.00153363 </v>
   <v>       0.03126686       0.04194641      -0.00225127 </v>
   <v>      -0.01210540      -0.02363344      -0.01384255 </v>
   <v>       0.02363485      -0.00256115      -0.02709215 </v>
   <v>      -0.01328632      -0.01801919      -0.01704392 </v>
   <v>      -0.00855526      -0.01253612       0.01620341 </v>
   <v>      -0.01958985       0.01612369       0.00677319 </v>
   <v>       0.00823891       0.01779180       0.01881650 </v>
   <v>      -0.02261391      -0.03600678       0.03310611 </v>
   <v>       0.03041521      -0.01066132       0.01110032 </v>
   <v>      -0.02173473       0.01445709      -0.02535980 </v>
   <v>       0.04495288      -0.00646863       0.02658829 </v>
   <v>      -0.01942563      -0.02913143       0.01529518 </v>
   <v>      -0.03796116      -0.00346418       0.07423793 </v>
   <v>      -0.03355770      -0.00894153      -0.03557396 </v>
   <v>       0.04055229       0.01515059      -0.03070692 </v>
   <v>       0.04927803       0.04580947       0.00523912 </v>
   <v>      -0.01880980       0.01811182      -0.01429563 </v>
   <v>      -0.03969007      -0.05507958      -0.06799215 </v>
   <v>      -0.08444549       0.01761929       0.02616262 </v>
   <v>      -0.02395257       0.01471543       0.01772208 </v>
   <v>       0.00693833       0.07395838      -0.05453243 </v>
   <v>       0.03757010      -0.03487187      -0.00435663 </v>
   <v>      -0.02560937      -0.00741288      -0.00209077 </v>
   <v>       0.00444969       0.00272401       0.00886715 </v>
   <v>       0.01103119      -0.03379014      -0.05736228 </v>
   <v>      -0.00532167       0.00308883      -0.00663030 </v>
   <v>       0.02725570       0.03367995      -0.01800060 </v>
   <v>       0.01229316       0.03130738      -0.00858560 </v>
   <v>      -0.00469609       0.00277279      -0.02525166 </v>
   <v>       0.01592732       0.00188736      -0.03386345 </v>
   <v>       0.02176668       0.03240950       0.01242708 </v>
   <v>       0.03290626       0.05730663      -0.04275286 </v>
   <v>      -0.00440977      -0.01061235       0.00866770 </v>
   <v>      -0.00853289       0.00346082       0.03412977 </v>
   <v>       0.01246836       0.04514141       0.06745972 </v>
   <v>       0.01912474       0.02126558      -0.00948761 </v>
   <v>      -0.01699798       0.00053710       0.02965323 </v>
   <v>       0.01323465      -0.01112114       0.01146617 </v>
   <v>       0.02663542       0.04233644      -0.00343081 </v>
   <v>       0.01389708       0.02553763       0.00918899 </v>
   <v>       0.00166684      -0.00614097      -0.00739830 </v>
   <v>       0.00877976       0.04526099      -0.02260215 </v>
   <v>       0.01970320      -0.02078230      -0.02435710 </v>
   <v>       0.02370323      -0.01464227      -0.01998570 </v>
   <v>      -0.01781558       0.03508582      -0.07491306 </v>
   <v>       0.02641944      -0.00487147      -0.02479325 </v>
   <v>       0.03079841      -0.03858905       0.05562988 </v>
   <v>       0.04137945      -0.02154290      -0.01106514 </v>
   <v>       0.03099272      -0.00775286       0.01594763 </v>
   <v>      -0.00776017       0.02742272       0.04804345 </v>
   <v>       0.03963434      -0.02042957      -0.01165355 </v>
   <v>       0.01830012       0.00833712       0.08135482 </v>
   <v>      -0.01076806       0.05244518       0.03406258 </v>
   <v>       0.03104512      -0.01538858      -0.03929001 </v>
   <v>       0.02506044      -0.02605248       0.01873121 </v>
   <v>       0.03475701      -0.02550827      -0.02069154 </v>
   <v>       0.04234984       0.00290079       0.02848449 </v>
   <v>      -0.03784321       0.04718012       0.01494393 </v>
   <v>      -0.03361370      -0.02034400       0.00232564 </v>
   <v>       0.00954986      -0.01792122       0.00228688 </v>
   <v>       0.00133675       0.02075438      -0.01309529 </v>
   <v>      -0.00684715       0.00358812       0.00972406 </v>
   <v>      -0.03327186      -0.05546059       0.00658968 </v>
   <v>       0.08510065      -0.09355125      -0.01526835 </v>
   <v>       0.05464988       0.02138425      -0.00287446 </v>
   <v>       0.02691120       0.00249138      -0.00020292 </v>
   <v>      -0.00838646       0.03513053       0.00389258 </v>
   <v>       0.02273485      -0.02046016      -0.00442083 </v>
   <v>       0.00852122       0.01515338      -0.01409338 </v>
   <v>       0.01455743       0.00865764       0.00359970 </v>
   <v>      -0.04777792       0.01130590      -0.00142164 </v>
   <v>      -0.03806084      -0.01958662      -0.01687067 </v>
   <v>      -0.00911713      -0.00221400      -0.07834310 </v>
   <v>       0.00593455      -0.00433563       0.01131606 </v>
   <v>       0.01191225       0.02739293       0.01000746 </v>
   <v>       0.02967167      -0.02478307       0.00341022 </v>
   <v>      -0.01891379       0.02499962       0.01482523 </v>
   <v>       0.00605220       0.00155367       0.01239834 </v>
   <v>      -0.05980348       0.01255572       0.00121756 </v>
   <v>       0.01200962      -0.06069343       0.02030426 </v>
   <v>      -0.02802358      -0.02124933       0.07670942 </v>
   <v>      -0.02186628       0.03495736      -0.01923796 </v>
   <v>       0.05111811      -0.02247097       0.02204382 </v>
   <v>      -0.00256034      -0.00367409       0.01553718 </v>
   <v>       0.07236832       0.04689978      -0.00995090 </v>
   <v>       0.06602715      -0.00209090      -0.00824776 </v>
   <v>      -0.07309940      -0.02530529      -0.00141567 </v>
   <v>      -0.00557036      -0.01888976      -0.00036770 </v>
   <v>      -0.01251265      -0.02571831       0.00638232 </v>
   <v>      -0.01771402      -0.00693971      -0.00677137 </v>
   <v>       0.01432488       0.04657358      -0.00798682 </v>
   <v>       0.05671946       0.00779019       0.00969521 </v>
   <v>       0.00627299       0.00049447       0.01102159 </v>
   <v>      -0.02054799       0.00608477      -0.00569156 </v>
   <v>      -0.03988076       0.03653833      -0.00427903 </v>
   <v>      -0.00378007      -0.05843441       0.01127646 </v>
   <v>      -0.03588016      -0.00690061       0.06283413 </v>
   <v>      -0.01382108      -0.01591854      -0.00548105 </v>
   <v>       0.02610823       0.02515039       0.00633794 </v>
   <v>       0.01096196      -0.02876330      -0.01319442 </v>
   <v>      -0.01400694       0.01682399      -0.00842697 </v>
   <v>      -0.05689049       0.02301096      -0.00453174 </v>
   <v>      -0.03533856       0.05635175       0.01831519 </v>
   <v>      -0.00360103      -0.05074260      -0.01888415 </v>
   <v>      -0.01281520       0.01162755      -0.08140874 </v>
   <v>      -0.02610753       0.00632640       0.00918415 </v>
   <v>       0.04859626      -0.07525010      -0.01538133 </v>
   <v>      -0.03912528      -0.01458465      -0.00906358 </v>
   <v>       0.02919554      -0.05876243      -0.00172591 </v>
  </varray>
  <varray name="stress" >
   <v>      -0.13543672       0.17479898      -0.00587627 </v>
   <v>       0.17479898       0.42927224      -0.09462507 </v>
   <v>      -0.00587649      -0.09462487      -0.32001352 </v>
  </varray>
  <energy>
   <i name="e_fr_energy">   -994.53301086 </i>
   <i name="e_wo_entrp">   -994.53301086 </i>
   <i name="e_0_energy">     -0.00000000 </i>
  </energy>
  <time name="totalsc"> 1058.86 1060.67</time>
 </calculation>
 <calculation>
  <scstep>
   <time name="dav">  286.95  286.97</time>
   <time name="total">  290.75  290.80</time>
   <energy>
    <i name="alphaZ">   5582.31094375 </i>
    <i name="ewald"> -62687.14470429 </i>
    <i name="hartreedc"> -18908.09362070 </i>
    <i name="XCdc">   3409.70529397 </i>
    <i name="pawpsdc"> 120189.58308552 </i>
    <i name="pawaedc">-119695.64615372 </i>
    <i name="eentropy">     -0.00000000 </i>
    <i name="bandstr">  -7202.14460263 </i>
    <i name="atom">  78316.90445604 </i>
    <i name="e_fr_energy">   -994.52530206 </i>
    <i name="e_wo_entrp">   -994.52530206 </i>
    <i name="e_0_energy">   -994.52530206 </i>
   </energy>
  </scstep>
  <scstep>
   <time name="diag">   33.51   33.52</time>
   <time name="diis">   53.04   53.04</time>
   <time name="orth">   18.97   18.98</time>
   <time name="total">  109.33  109.35</time>
   <energy>
    <i name="e_fr_energy">   -994.54127510 </i>
    <i name="e_wo_entrp">   -994.54127510 </i>
    <i name="e_0_energy">   -994.54127510 </i>
   </energy>
  </scstep>
  <scstep>
   <time name="diag">   33.55   33.56</time>
   <time name="diis">   55.18   55.18</time>
   <time name="orth">   19.01   19.01</time>
   <time name="total">  111.55  111.56</time>
   <energy>
    <i name="e_fr_energy">   -994.54308547 </i>
    <i name="e_wo_entrp">   -994.54308547 </i>
    <i name="e_0_energy">   -994.54308547 </i>
   </energy>
  </scstep>
  <scstep>
   <time name="diag">   33.50   33.50</time>
   <time name="diis">   50.45   50.45</time>
   <time name="orth">   19.01   19.01</time>
   <time name="total">  106.76  106.83</time>
   <energy>
    <i name="e_fr_energy">   -994.54261946 </i>
    <i name="e_wo_entrp">   -994.54261946 </i>
    <i name="e_0_energy">   -994.54261946 </i>
   </energy>
  </scstep>
  <scstep>
   <time name="diag">   33.49   33.49</time>
   <time name="diis">   49.24   49.24</time>
   <time name="orth">   19.01   19.01</time>
   <time name="total">  105.55  105.56</time>
   <energy>
    <i name="e_fr_energy">   -994.54232720 </i>
    <i name="e_wo_entrp">   -994.54232720 </i>
    <i name="e_0_energy">   -994.54232720 </i>
   </energy>
  </scstep>
  <scstep>
   <time name="diag">   33.53   33.53</time>
   <time name="diis">   33.39   33.39</time>
   <time name="orth">   19.05   19.04</time>
   <time name="total">   89.76   89.84</time>
   <energy>
    <i name="e_fr_energy">   -994.54232208 </i>
    <i name="e_wo_entrp">   -994.54232208 </i>
    <i name="e_0_energy">   -994.54232208 </i>
   </energy>
  </scstep>
  <scstep>
   <time name="diag">   33.50   33.50</time>
   <time name="diis">   32.87   32.87</time>
   <time name="orth">   19.03   19.03</time>
   <time name="total">   89.15   89.20</time>
   <energy>
    <i name="e_fr_energy">   -994.54232414 </i>
    <i name="e_wo_entrp">   -994.54232414 </i>
    <i name="e_0_energy">   -994.54232414 </i>
   </energy>
  </scstep>
  <scstep>
   <time name="diag">   33.48   33.48</time>
   <time name="diis">   32.38   32.38</time>
   <time name="orth">   18.98   18.98</time>
   <time name="total">   85.41   85.54</time>
   <energy>
    <i name="alphaZ">   5582.31094375 </i>
    <i name="ewald"> -62687.14470429 </i>
    <i name="hartreedc"> -18907.96649887 </i>
    <i name="XCdc">   3409.69337740 </i>
    <i name="pawpsdc"> 120214.54740176 </i>
    <i name="pawaedc">-119720.60035138 </i>
    <i name="eentropy">     -0.00000000 </i>
    <i name="bandstr">  -7202.28694685 </i>
    <i name="atom">  78316.90445604 </i>
    <i name="e_fr_energy">   -994.54232243 </i>
    <i name="e_wo_entrp">   -994.54232243 </i>
    <i name="e_0_energy">   -994.54232243 </i>
   </energy>
  </scstep>
  <structure>
   <crystal>
    <varray name="basis" >
     <v>      11.21449713       0.01664896      -0.00386733 </v>
     <v>       0.01677655      11.38274882      -0.00104940 </v>
     <v>      -0.00528335      -0.00141199      15.76981228 </v>
    </varray>
    <i name="volume">   2013.04033179 </i>
    <varray name="rec_basis" >
     <v>       0.08917050      -0.00013142       0.00002986 </v>
     <v>      -0.00013042       0.08785243       0.00000782 </v>
     <v>       0.00002186       0.00000581       0.06341230 </v>
    </varray>
   </crystal>
   <varray name="positions" >
    <v>       0.98898912       0.23298345       0.11380257 </v>
    <v>       0.00020449       0.24909139       0.61106637 </v>
    <v>       0.00041475       0.75160491       0.11001887 </v>
    <v>       0.99094488       0.73497822       0.61603474 </v>
    <v>       0.50409971       0.24094049       0.11644436 </v>
    <v>       0.49808020       0.25046346       0.61294508 </v>
    <v>       0.49482763       0.74833848       0.11145120 </v>
    <v>       0.50661420       0.73968599       0.61816753 </v>
    <v>       0.99028397       0.23497908       0.38361677 </v>
    <v>       0.00027509       0.24642439       0.89009955 </v>
    <v>       0.00198977       0.74880997       0.38904824 </v>
    <v>       0.98950011       0.73835731       0.88687363 </v>
    <v>       0.50628342       0.23920682       0.38228223 </v>
    <v>       0.49321688       0.25306960       0.88831992 </v>
    <v>       0.49687307       0.75089724       0.38670754 </v>
    <v>       0.50442989       0.73615766       0.88315047 </v>
    <v>       0.23825064       0.99771051       0.10726015 </v>
    <v>       0.24954360       0.01767165       0.61433427 </v>
    <v>       0.25394577       0.51841178       0.11360129 </v>
    <v>       0.24326897       0.49945854       0.60880158 </v>
    <v>       0.75405948       0.01267374       0.11677621 </v>
    <v>       0.74772294       0.99497269       0.61232560 </v>
    <v>       0.74135063       0.49686271       0.11047858 </v>
    <v>       0.75158856       0.51526453       0.61969034 </v>
    <v>       0.24306563       0.99968394       0.39146540 </v>
    <v>       0.24291710       0.01783998       0.88718503 </v>
    <v>       0.24873504       0.51669286       0.38554187 </v>
    <v>       0.24354766       0.49848275       0.89294483 </v>
    <v>       0.75081072       0.01461861       0.38058199 </v>
    <v>       0.75127403       0.99672833       0.88877593 </v>
    <v>       0.74818027       0.49509764       0.38774921 </v>
    <v>       0.74809880       0.51342335       0.88259654 </v>
    <v>       0.49547958       0.50164763       0.50068722 </v>
    <v>       0.49530549       0.00157837       0.49874542 </v>
    <v>       0.99588335       0.99881751       0.50162559 </v>
    <v>       0.75426474       0.24440862       0.24966133 </v>
    <v>       0.75568188       0.74503741       0.75031284 </v>
    <v>       0.49375421       0.00136470       0.00038763 </v>
    <v>       0.99614976       0.49872456       0.49836463 </v>
    <v>       0.99497014       0.49891970       0.00307720 </v>
    <v>       0.74652365       0.74875045       0.49598499 </v>
    <v>       0.99465599       0.99912855       0.99944250 </v>
    <v>       0.74450309       0.24913710       0.99552711 </v>
    <v>       0.24473187       0.25002946       0.48951455 </v>
    <v>       0.51409473       0.96534831       0.75097443 </v>
    <v>       0.24394875       0.24987106       0.01372606 </v>
    <v>       0.74657325       0.24886092       0.50375182 </v>
    <v>       0.24413566       0.74998422       0.98687286 </v>
    <v>       0.24557905       0.74987127       0.51074405 </v>
    <v>       0.25581382       0.78458702       0.74973736 </v>
    <v>       0.74504488       0.74894230       0.00404228 </v>
    <v>       0.51372411       0.46570261       0.25291717 </v>
    <v>       0.25857790       0.30039286       0.74906420 </v>
    <v>       0.26020914       0.80025897       0.25067807 </v>
    <v>       0.00724734       0.46663603       0.24906149 </v>
    <v>       0.49387496       0.50118274       0.99491025 </v>
    <v>       0.76301720       0.27560222       0.74972045 </v>
    <v>       0.76269349       0.77540254       0.25028012 </v>
    <v>       0.99639128       0.98102568       0.24965522 </v>
    <v>       0.00792487       0.96708708       0.74832503 </v>
    <v>       0.25546081       0.28483246       0.25045259 </v>
    <v>       0.99670741       0.48143268       0.75169404 </v>
    <v>       0.52070453       0.98700509       0.24862217 </v>
    <v>       0.51927981       0.48596167       0.74920700 </v>
    <v>       0.00340031       0.00128258       0.12782797 </v>
    <v>       0.98460060       0.01995427       0.63494203 </v>
    <v>       0.98158856       0.52255898       0.13798208 </v>
    <v>       0.00580565       0.49962831       0.62342644 </v>
    <v>       0.48033886       0.00720570       0.12812792 </v>
    <v>       0.49182577       0.02345143       0.63859178 </v>
    <v>       0.48649086       0.53301636       0.14796420 </v>
    <v>       0.48035663       0.50789514       0.62764913 </v>
    <v>       0.00625262       0.00038177       0.37612248 </v>
    <v>       0.98329081       0.02832602       0.85628217 </v>
    <v>       0.98507022       0.52161122       0.36212308 </v>
    <v>       0.00474522       0.49974348       0.87635417 </v>
    <v>       0.48190094       0.00701232       0.37261203 </v>
    <v>       0.49003128       0.02475918       0.86122071 </v>
    <v>       0.49257475       0.52177694       0.36590217 </v>
    <v>       0.47768035       0.50913657       0.86644806 </v>
    <v>       0.23039040       0.21996057       0.35920209 </v>
    <v>       0.23299996       0.23992957       0.85772457 </v>
    <v>       0.23601262       0.74046678       0.36181390 </v>
    <v>       0.22879594       0.71917649       0.85689337 </v>
    <v>       0.74819112       0.25152981       0.37633499 </v>
    <v>       0.73486441       0.22020720       0.85970244 </v>
    <v>       0.73547516       0.71965998       0.36148703 </v>
    <v>       0.74984962       0.75009692       0.87403930 </v>
    <v>       0.23181756       0.21853704       0.14319615 </v>
    <v>       0.23187753       0.24141900       0.63815642 </v>
    <v>       0.23283591       0.73997335       0.14220114 </v>
    <v>       0.23132944       0.71961118       0.64092030 </v>
    <v>       0.74799840       0.24995578       0.12582890 </v>
    <v>       0.73931968       0.21955318       0.63829249 </v>
    <v>       0.73699307       0.72040183       0.13987877 </v>
    <v>       0.75094263       0.75171079       0.62353072 </v>
    <v>       0.17592761       0.43413441       0.24969724 </v>
    <v>       0.41719057       0.32805187       0.25152035 </v>
    <v>       0.67275620       0.40896535       0.25063242 </v>
    <v>       0.91899841       0.32936231       0.25016158 </v>
    <v>       0.17281724       0.94564279       0.25127049 </v>
    <v>       0.42602800       0.83719602       0.25063006 </v>
    <v>       0.67180242       0.91336762       0.25027793 </v>
    <v>       0.92749041       0.82395843       0.25149504 </v>
    <v>       0.12281724       0.12145913       0.50270132 </v>
    <v>       0.37299502       0.13054769       0.50090755 </v>
    <v>       0.62167142       0.12013507       0.49882137 </v>
    <v>       0.87430267       0.12524130       0.49932012 </v>
    <v>       0.11871434       0.37309649       0.48655882 </v>
    <v>       0.36763092       0.37761490       0.49087731 </v>
    <v>       0.61702436       0.37550391       0.50358424 </v>
    <v>       0.87051811       0.37677030       0.50495300 </v>
    <v>       0.12316686       0.62113276       0.49699715 </v>
    <v>       0.37294113       0.63073099       0.49950275 </v>
    <v>       0.62207656       0.62039267       0.50246658 </v>
    <v>       0.87484823       0.62531505       0.49958133 </v>
    <v>       0.11935752       0.87273153       0.51234411 </v>
    <v>       0.36825707       0.87802838       0.51007980 </v>
    <v>       0.61668965       0.87553900       0.49756574 </v>
    <v>       0.87024348       0.87657931       0.49361003 </v>
    <v>       0.17198201       0.44726084       0.74987908 </v>
    <v>       0.42512366       0.33386302       0.74771035 </v>
    <v>       0.67079713       0.41286298       0.74824806 </v>
    <v>       0.92767751       0.32548449       0.74982876 </v>
    <v>       0.17695212       0.93360371       0.74879092 </v>
    <v>       0.41795650       0.82761880       0.74978409 </v>
    <v>       0.67301768       0.90925358       0.74977847 </v>
    <v>       0.91955668       0.82934817       0.74947735 </v>
    <v>       0.12215226       0.12439145       0.99800798 </v>
    <v>       0.37125294       0.12882667       0.99955625 </v>
    <v>       0.61947361       0.12087926       0.00147412 </v>
    <v>       0.87097053       0.12623885       0.99950722 </v>
    <v>       0.11821258       0.37434502       0.01462650 </v>
    <v>       0.36742935       0.37517175       0.01024566 </v>
    <v>       0.61757024       0.37485413       0.99664705 </v>
    <v>       0.86994418       0.37651884       0.99544313 </v>
    <v>       0.12095492       0.62175786       0.00327932 </v>
    <v>       0.37053678       0.63124442       0.99956432 </v>
    <v>       0.62140833       0.62181866       0.99797227 </v>
    <v>       0.87295908       0.62436941       0.99986465 </v>
    <v>       0.11979832       0.87297044       0.98740306 </v>
    <v>       0.36849838       0.87753249       0.98876813 </v>
    <v>       0.61649827       0.87672082       0.00205941 </v>
    <v>       0.86889748       0.87439443       0.00537504 </v>
    <v>       0.60847687       0.14595950       0.25112906 </v>
    <v>       0.86494722       0.10338866       0.25288389 </v>
    <v>       0.61235686       0.64627783       0.74762771 </v>
    <v>       0.86839243       0.60250302       0.74882725 </v>
   </varray>
  </structure>
  <varray name="forces" >
   <v>      -0.01431375       0.01182536       0.01073116 </v>
   <v>      -0.00524784       0.01824458      -0.01716356 </v>
   <v>      -0.01346895       0.01735906      -0.02036923 </v>
   <v>      -0.00270387       0.01831819       0.00461252 </v>
   <v>       0.01628201      -0.00519517      -0.01872879 </v>
   <v>      -0.03406329       0.00352489      -0.00007833 </v>
   <v>      -0.01876145      -0.00186959      -0.01226110 </v>
   <v>      -0.00627453      -0.02093182       0.00127364 </v>
   <v>      -0.00890490       0.02012961      -0.00828417 </v>
   <v>      -0.02004564       0.02312526       0.04247904 </v>
   <v>      -0.01757240       0.01621645       0.00918315 </v>
   <v>      -0.01148358       0.02957974      -0.01217739 </v>
   <v>      -0.01494906      -0.00896223      -0.00276005 </v>
   <v>      -0.00901717      -0.00386326       0.01166111 </v>
   <v>      -0.02671654       0.00453509       0.01106883 </v>
   <v>       0.01525651      -0.01932559      -0.00827709 </v>
   <v>      -0.01736617       0.02259127      -0.00125327 </v>
   <v>      -0.00865744      -0.01199395      -0.01717217 </v>
   <v>      -0.01289809       0.00611744      -0.00670160 </v>
   <v>       0.00485263       0.03305958       0.00370280 </v>
   <v>       0.02110042      -0.02684185      -0.01527457 </v>
   <v>      -0.02087976      -0.00278000       0.00337190 </v>
   <v>      -0.00797968      -0.00535059      -0.01103123 </v>
   <v>       0.00665463      -0.03312824       0.02488822 </v>
   <v>      -0.01035257       0.01656894      -0.01185095 </v>
   <v>       0.00040525       0.01904491       0.01517338 </v>
   <v>      -0.01481512       0.00520281       0.01585178 </v>
   <v>      -0.00119409       0.02055995      -0.01745520 </v>
   <v>       0.02075414      -0.04130155      -0.01829451 </v>
   <v>      -0.00796426      -0.00106263       0.02302586 </v>
   <v>      -0.00813781       0.00424477      -0.00424605 </v>
   <v>       0.01536525      -0.04127485       0.00558269 </v>
   <v>      -0.04447732       0.00346572       0.00289837 </v>
   <v>      -0.02797303      -0.02797800       0.02737122 </v>
   <v>       0.02172997      -0.02605094      -0.00815309 </v>
   <v>       0.05374249       0.01652059      -0.08066935 </v>
   <v>       0.00721529      -0.01967983       0.04033485 </v>
   <v>       0.05739096       0.01944076      -0.01464200 </v>
   <v>       0.01575640       0.01912518      -0.01184677 </v>
   <v>      -0.05232893      -0.01266085       0.01142285 </v>
   <v>       0.01751619      -0.01295226       0.00272505 </v>
   <v>      -0.03127708       0.02007605      -0.02044743 </v>
   <v>       0.01741955      -0.01339163       0.00799006 </v>
   <v>      -0.01199336       0.02222666       0.00932578 </v>
   <v>      -0.02040830      -0.02539684       0.00969528 </v>
   <v>      -0.01791848       0.02008246       0.01426501 </v>
   <v>       0.00783418      -0.00911410       0.00362070 </v>
   <v>      -0.02066651       0.01164637      -0.01654147 </v>
   <v>      -0.01866936       0.00133950      -0.00816687 </v>
   <v>      -0.02212613       0.00855931      -0.03581341 </v>
   <v>       0.01447268      -0.01525031      -0.00204432 </v>
   <v>      -0.00772011       0.00762817      -0.03994506 </v>
   <v>      -0.00492545       0.00940124      -0.00058381 </v>
   <v>      -0.02641307       0.02027483       0.04306574 </v>
   <v>      -0.00978029       0.00990212      -0.01117598 </v>
   <v>       0.02618511      -0.01828564      -0.00744321 </v>
   <v>       0.02337680      -0.01217894       0.07692571 </v>
   <v>       0.06182251      -0.07137206      -0.04143773 </v>
   <v>      -0.00139217      -0.00706418      -0.02319540 </v>
   <v>       0.00849068       0.00722508       0.04265504 </v>
   <v>      -0.03579711       0.03180244       0.01911510 </v>
   <v>      -0.00011485       0.01188728       0.01137382 </v>
   <v>       0.02722090      -0.04898062      -0.00811824 </v>
   <v>      -0.01660205      -0.02342943       0.00596213 </v>
   <v>       0.00310911      -0.00078825       0.00016631 </v>
   <v>       0.01588294       0.04279757      -0.02535133 </v>
   <v>       0.02072426       0.03918310      -0.01398393 </v>
   <v>      -0.01478868      -0.00442341      -0.02968254 </v>
   <v>       0.01825842      -0.00903998       0.03054447 </v>
   <v>       0.02050428       0.03296645      -0.00443855 </v>
   <v>       0.03114628       0.01080276       0.04132060 </v>
   <v>       0.00575810      -0.01171823      -0.01277158 </v>
   <v>      -0.01456549       0.00298544       0.04845282 </v>
   <v>       0.02495875       0.01012360      -0.02510730 </v>
   <v>       0.00986237       0.03367777       0.02163357 </v>
   <v>      -0.01094899      -0.00063662       0.01803309 </v>
   <v>       0.02442508      -0.01294647      -0.02216821 </v>
   <v>       0.02029587       0.03143075       0.00149110 </v>
   <v>       0.01688199       0.02568881       0.02766374 </v>
   <v>      -0.00031858      -0.00437081      -0.01674227 </v>
   <v>       0.00750223       0.02069495       0.00271845 </v>
   <v>       0.01583619      -0.01233370      -0.03130063 </v>
   <v>       0.02332318      -0.00710134      -0.01223724 </v>
   <v>      -0.02267962      -0.00445720       0.03652972 </v>
   <v>       0.00367047      -0.02728687       0.01477218 </v>
   <v>       0.03692757       0.00101508      -0.04492698 </v>
   <v>       0.02374536      -0.02301505       0.02099620 </v>
   <v>       0.01110131      -0.02248571      -0.03258879 </v>
   <v>      -0.00323084      -0.00014403      -0.00373698 </v>
   <v>       0.02908742      -0.01402336      -0.01843740 </v>
   <v>       0.01313431      -0.01676504      -0.00201247 </v>
   <v>      -0.00924001       0.01890378      -0.00913917 </v>
   <v>       0.00933676      -0.03630242       0.05621014 </v>
   <v>       0.01332663      -0.03131713      -0.03759383 </v>
   <v>       0.02606630      -0.00731357       0.00356768 </v>
   <v>       0.01860717      -0.01331002       0.00604647 </v>
   <v>       0.03561265      -0.00218782       0.00497699 </v>
   <v>       0.02497643       0.00437843       0.00627821 </v>
   <v>      -0.03426646      -0.02427081       0.01621339 </v>
   <v>      -0.00784220       0.01164351       0.00485430 </v>
   <v>       0.00887928       0.01202780       0.00590468 </v>
   <v>       0.05856455       0.01147775       0.00447840 </v>
   <v>      -0.06542855       0.05177901      -0.00228594 </v>
   <v>      -0.01246841      -0.00324445       0.00388273 </v>
   <v>      -0.00071533      -0.00145525      -0.00301682 </v>
   <v>       0.03733764      -0.00070563      -0.00702581 </v>
   <v>       0.02748497      -0.00723340      -0.01093994 </v>
   <v>      -0.01841900       0.02425340      -0.00712084 </v>
   <v>      -0.00869152       0.00831101       0.00774422 </v>
[...]
       <r>   -17.6210     0.0000    32.0000 </r>
       <r>   -17.4671     0.0000    32.0000 </r>
       <r>   -17.3133     0.0000    32.0000 </r>
       <r>   -17.1594     0.0000    32.0000 </r>
       <r>   -17.0055     0.0000    32.0000 </r>
       <r>   -16.8516     0.0000    32.0000 </r>
       <r>   -16.6977     0.0000    32.0000 </r>
       <r>   -16.5438     0.0000    32.0000 </r>
       <r>   -16.3899     0.0000    32.0000 </r>
       <r>   -16.2360     0.0000    32.0000 </r>
       <r>   -16.0821     0.0000    32.0000 </r>
       <r>   -15.9282     0.0000    32.0000 </r>
       <r>   -15.7743     0.0000    32.0000 </r>
       <r>   -15.6204     0.0000    32.0000 </r>
       <r>   -15.4665     0.0000    32.0000 </r>
       <r>   -15.3126     1.2143    32.1869 </r>
       <r>   -15.1587    13.0363    34.1931 </r>
       <r>   -15.0048    25.7250    38.1521 </r>
       <r>   -14.8509    45.3166    45.1261 </r>
       <r>   -14.6970    40.3787    51.3402 </r>
       <r>   -14.5431    42.4410    57.8717 </r>
       <r>   -14.3892    41.2887    64.2258 </r>
       <r>   -14.2353    53.5663    72.4695 </r>
       <r>   -14.0814    69.6342    83.1859 </r>
       <r>   -13.9275    85.9075    96.4067 </r>
       <r>   -13.7737    60.1245   105.6596 </r>
       <r>   -13.6198    44.3892   112.4909 </r>
       <r>   -13.4659    20.8334   115.6971 </r>
       <r>   -13.3120     1.9684   116.0000 </r>
       <r>   -13.1581     0.0000   116.0000 </r>
       <r>   -13.0042     0.0000   116.0000 </r>
       <r>   -12.8503     0.0013   116.0002 </r>
       <r>   -12.6964    11.7714   117.8118 </r>
       <r>   -12.5425    73.2048   129.0777 </r>
       <r>   -12.3886   121.2810   147.7423 </r>
       <r>   -12.2347   123.8210   166.7978 </r>
       <r>   -12.0808   107.1997   183.2954 </r>
       <r>   -11.9269    93.4185   197.6721 </r>
       <r>   -11.7730    55.4966   206.2128 </r>
       <r>   -11.6191    29.3992   210.7372 </r>
       <r>   -11.4652     8.2041   211.9998 </r>
       <r>   -11.3113     0.0012   212.0000 </r>
       <r>   -11.1574     0.0000   212.0000 </r>
       <r>   -11.0035     0.0000   212.0000 </r>
       <r>   -10.8496     0.0000   212.0000 </r>
       <r>   -10.6957     0.0000   212.0000 </r>
       <r>   -10.5418     0.0000   212.0000 </r>
       <r>   -10.3879     0.0000   212.0000 </r>
       <r>   -10.2340     0.0000   212.0000 </r>
       <r>   -10.0802     0.0000   212.0000 </r>
       <r>    -9.9263     0.0000   212.0000 </r>
       <r>    -9.7724     0.0000   212.0000 </r>
       <r>    -9.6185     0.0000   212.0000 </r>
       <r>    -9.4646     0.0000   212.0000 </r>
       <r>    -9.3107     0.0000   212.0000 </r>
       <r>    -9.1568     0.0000   212.0000 </r>
       <r>    -9.0029     0.0000   212.0000 </r>
       <r>    -8.8490     0.0000   212.0000 </r>
       <r>    -8.6951     0.0000   212.0000 </r>
       <r>    -8.5412     0.0000   212.0000 </r>
       <r>    -8.3873     0.0000   212.0000 </r>
       <r>    -8.2334     0.0000   212.0000 </r>
       <r>    -8.0795     0.0000   212.0000 </r>
       <r>    -7.9256     0.0000   212.0000 </r>
       <r>    -7.7717     0.0000   212.0000 </r>
       <r>    -7.6178     0.0000   212.0000 </r>
       <r>    -7.4639     0.0000   212.0000 </r>
       <r>    -7.3100     0.0000   212.0000 </r>
       <r>    -7.1561     0.0000   212.0000 </r>
       <r>    -7.0022     0.0000   212.0000 </r>
       <r>    -6.8483     0.0000   212.0000 </r>
       <r>    -6.6944     0.0000   212.0000 </r>
       <r>    -6.5406     0.0000   212.0000 </r>
       <r>    -6.3867     0.0000   212.0000 </r>
       <r>    -6.2328     0.0000   212.0000 </r>
       <r>    -6.0789     0.0000   212.0000 </r>
       <r>    -5.9250     0.0000   212.0000 </r>
       <r>    -5.7711     0.0000   212.0000 </r>
       <r>    -5.6172     0.0000   212.0000 </r>
       <r>    -5.4633     0.0000   212.0000 </r>
       <r>    -5.3094     0.0000   212.0000 </r>
       <r>    -5.1555     0.0000   212.0000 </r>
       <r>    -5.0016     0.0000   212.0000 </r>
       <r>    -4.8477     0.0000   212.0000 </r>
       <r>    -4.6938     0.0000   212.0000 </r>
       <r>    -4.5399     0.0000   212.0000 </r>
       <r>    -4.3860     0.0000   212.0000 </r>
       <r>    -4.2321     0.0000   212.0000 </r>
       <r>    -4.0782     0.0000   212.0000 </r>
       <r>    -3.9243     0.0000   212.0000 </r>
       <r>    -3.7704     0.0000   212.0000 </r>
       <r>    -3.6165     0.0000   212.0000 </r>
       <r>    -3.4626     0.0000   212.0000 </r>
       <r>    -3.3087     0.0000   212.0000 </r>
       <r>    -3.1548     0.0000   212.0000 </r>
       <r>    -3.0009     0.0000   212.0000 </r>
       <r>    -2.8471     0.0000   212.0000 </r>
       <r>    -2.6932     0.8334   212.1283 </r>
       <r>    -2.5393     7.4163   213.2696 </r>
       <r>    -2.3854    10.8781   214.9437 </r>
       <r>    -2.2315    13.4997   217.0212 </r>
       <r>    -2.0776    22.5547   220.4923 </r>
       <r>    -1.9237    22.5090   223.9563 </r>
       <r>    -1.7698    25.3266   227.8540 </r>
       <r>    -1.6159    30.0732   232.4821 </r>
       <r>    -1.4620    39.1629   238.5092 </r>
       <r>    -1.3081    43.4792   245.2004 </r>
       <r>    -1.1542    58.9666   254.2751 </r>
       <r>    -1.0003    84.8673   267.3358 </r>
       <r>    -0.8464    71.0673   278.2728 </r>
       <r>    -0.6925    84.6937   291.3068 </r>
       <r>    -0.5386    94.5199   305.8530 </r>
       <r>    -0.3847    79.6235   318.1067 </r>
       <r>    -0.2308    61.1419   327.5162 </r>
       <r>    -0.0769    58.0691   336.4528 </r>
       <r>     0.0770    65.0584   346.4650 </r>
       <r>     0.2309    60.0481   355.7061 </r>
       <r>     0.3848    61.7379   365.2074 </r>
       <r>     0.5387    60.8728   374.5754 </r>
       <r>     0.6926    59.1673   383.6810 </r>
       <r>     0.8464    55.0882   392.1588 </r>
       <r>     1.0003    58.6399   401.1833 </r>
       <r>     1.1542    65.4275   411.2523 </r>
       <r>     1.3081    70.5079   422.1032 </r>
       <r>     1.4620    81.3486   434.6224 </r>
       <r>     1.6159    70.2711   445.4368 </r>
       <r>     1.7698    59.1373   454.5378 </r>
       <r>     1.9237    31.5006   459.3856 </r>
       <r>     2.0776    21.6625   462.7194 </r>
       <r>     2.2315     6.6031   463.7355 </r>
       <r>     2.3854     1.7184   464.0000 </r>
       <r>     2.5393     0.0000   464.0000 </r>
       <r>     2.6932     0.0000   464.0000 </r>
       <r>     2.8471     0.0000   464.0000 </r>
       <r>     3.0010     0.0000   464.0000 </r>
       <r>     3.1549     0.0000   464.0000 </r>
       <r>     3.3088     0.0000   464.0000 </r>
       <r>     3.4627     0.0000   464.0000 </r>
       <r>     3.6166     0.0000   464.0000 </r>
       <r>     3.7705     0.0000   464.0000 </r>
       <r>     3.9244     0.0000   464.0000 </r>
       <r>     4.0783     0.0000   464.0000 </r>
       <r>     4.2322     3.1315   464.4819 </r>
       <r>     4.3860    58.5719   473.4959 </r>
       <r>     4.5399    85.5943   486.6685 </r>
       <r>     4.6938    65.2900   496.7163 </r>
       <r>     4.8477    79.9337   509.0178 </r>
       <r>     5.0016    77.5703   520.9555 </r>
       <r>     5.1555    72.8970   532.1741 </r>
       <r>     5.3094    70.1491   542.9697 </r>
       <r>     5.4633    80.7717   555.4001 </r>
       <r>     5.6172    88.5492   569.0275 </r>
       <r>     5.7711    90.5354   582.9605 </r>
       <r>     5.9250    81.1822   595.4541 </r>
       <r>     6.0789    49.4697   603.0673 </r>
       <r>     6.2328    14.1630   605.2469 </r>
       <r>     6.3867     4.9095   606.0025 </r>
       <r>     6.5406    11.0394   607.7014 </r>
       <r>     6.6945     6.4133   608.6884 </r>
       <r>     6.8484     6.2700   609.6533 </r>
       <r>     7.0023     9.4819   611.1125 </r>
       <r>     7.1562    14.0782   613.2791 </r>
       <r>     7.3101    18.3061   616.0963 </r>
       <r>     7.4640    11.5941   617.8806 </r>
       <r>     7.6179    17.0900   620.5107 </r>
       <r>     7.7718    22.7578   624.0130 </r>
       <r>     7.9257    23.5745   627.6410 </r>
       <r>     8.0795    17.4016   630.3191 </r>
       <r>     8.2334    22.1590   633.7293 </r>
       <r>     8.3873    24.3210   637.4721 </r>
       <r>     8.5412    13.6711   639.5761 </r>
       <r>     8.6951    25.0628   643.4331 </r>
       <r>     8.8490    26.9577   647.5818 </r>
       <r>     9.0029    30.4448   652.2671 </r>
       <r>     9.1568    40.2536   658.4620 </r>
       <r>     9.3107    37.5140   664.2352 </r>
       <r>     9.4646    51.0459   672.0910 </r>
       <r>     9.6185    49.9556   679.7789 </r>
       <r>     9.7724    41.7156   686.1988 </r>
       <r>     9.9263    44.5016   693.0474 </r>
       <r>    10.0802    50.4100   700.8053 </r>
       <r>    10.2341    54.2722   709.1576 </r>
       <r>    10.3880    53.3620   717.3697 </r>
       <r>    10.5419    48.6764   724.8608 </r>
       <r>    10.6958    43.7172   731.5887 </r>
       <r>    10.8497    49.5405   739.2128 </r>
       <r>    11.0036    53.2853   747.4132 </r>
       <r>    11.1575    61.8419   756.9304 </r>
       <r>    11.3114    53.2453   765.1246 </r>
       <r>    11.4653    18.6732   767.9984 </r>
       <r>    11.6192     0.0106   768.0000 </r>
       <r>    11.7730     0.0000   768.0000 </r>
       <r>    11.9269     0.0000   768.0000 </r>
       <r>    12.0808     0.0000   768.0000 </r>
       <r>    12.2347     0.0000   768.0000 </r>
       <r>    12.3886     0.0000   768.0000 </r>
       <r>    12.5425     0.0000   768.0000 </r>
       <r>    12.6964     0.0000   768.0000 </r>
       <r>    12.8503     0.0000   768.0000 </r>
       <r>    13.0042     0.0000   768.0000 </r>
       <r>    13.1581     0.0000   768.0000 </r>
       <r>    13.3120     0.0000   768.0000 </r>
       <r>    13.4659     0.0000   768.0000 </r>
      </set>
     </set>
    </array>
   </total>
  </dos>
 </calculation>
 <structure name="finalpos" >
  <crystal>
   <varray name="basis" >
    <v>      11.20998466       0.01452309      -0.00296197 </v>
    <v>       0.01461170      11.38202897      -0.00166071 </v>
    <v>      -0.00400328      -0.00225927      15.78000219 </v>
   </varray>
   <i name="volume">   2013.40435595 </i>
   <varray name="rec_basis" >
    <v>       0.08920634      -0.00011452       0.00002261 </v>
    <v>      -0.00011382       0.08785795       0.00001255 </v>
    <v>       0.00001673       0.00000922       0.06337135 </v>
   </varray>
  </crystal>
  <varray name="positions" >
   <v>       0.98855154       0.23304407       0.11431426 </v>
   <v>      -0.00019138       0.24978434       0.61060391 </v>
   <v>       0.00050042       0.75310383       0.10937027 </v>
   <v>       0.99051734       0.73600519       0.61603494 </v>
   <v>       0.50493689       0.24015640       0.11699943 </v>
   <v>       0.49693090       0.25019212       0.61268262 </v>
   <v>       0.49350462       0.74858572       0.11115186 </v>
   <v>       0.50664789       0.73857416       0.61862166 </v>
   <v>       0.98974903       0.23575283       0.38373474 </v>
   <v>       0.00012538       0.24791607       0.89073895 </v>
   <v>       0.00111720       0.74977521       0.38936976 </v>
   <v>       0.98890485       0.73918226       0.88664177 </v>
   <v>       0.50617134       0.23809298       0.38182311 </v>
   <v>       0.49244603       0.25264686       0.88855178 </v>
   <v>       0.49617815       0.75094412       0.38702189 </v>
   <v>       0.50545380       0.73527192       0.88241147 </v>
   <v>       0.23779340       0.99867752       0.10737770 </v>
   <v>       0.24914612       0.01802377       0.61381571 </v>
   <v>       0.25380659       0.52027694       0.11357071 </v>
   <v>       0.24300710       0.50125770       0.60871712 </v>
   <v>       0.75514475       0.01052605       0.11652163 </v>
   <v>       0.74722197       0.99454865       0.61263974 </v>
   <v>       0.74019165       0.49647693       0.11058033 </v>
   <v>       0.75214654       0.51306186       0.61993105 </v>
   <v>       0.24279040       0.00136165       0.39141590 </v>
   <v>       0.24306216       0.01994931       0.88730476 </v>
   <v>       0.24819768       0.51741248       0.38596325 </v>
   <v>       0.24302141       0.49952167       0.89259670 </v>
   <v>       0.75177881       0.01254774       0.38032972 </v>
   <v>       0.75054181       0.99629694       0.88858292 </v>
   <v>       0.74776954       0.49476038       0.38757915 </v>
   <v>       0.74948582       0.51099691       0.88260610 </v>
   <v>       0.49538505       0.50123094       0.50074524 </v>
   <v>       0.49536157       0.00098462       0.49865048 </v>
   <v>       0.99575329       0.99925754       0.50186273 </v>
   <v>       0.75429267       0.24329699       0.24967608 </v>
   <v>       0.75566564       0.74367796       0.75015877 </v>
   <v>       0.49381920       0.00111022       0.00054797 </v>
   <v>       0.99583633       0.49922119       0.49807601 </v>
   <v>       0.99472131       0.49969693       0.00386150 </v>
   <v>       0.74634012       0.74783219       0.49659689 </v>
   <v>       0.99457861       0.99979244       0.99839499 </v>
   <v>       0.74465515       0.24816114       0.99611881 </v>
   <v>       0.24465639       0.25103004       0.49025357 </v>
   <v>       0.51376205       0.96545879       0.75094662 </v>
   <v>       0.24379501       0.25104882       0.01515499 </v>
   <v>       0.74619186       0.24786512       0.50331497 </v>
   <v>       0.24377505       0.75113257       0.98559247 </v>
   <v>       0.24530916       0.75080137       0.51025964 </v>
   <v>       0.25529022       0.78626120       0.74955508 </v>
   <v>       0.74474806       0.74793212       0.00346794 </v>
   <v>       0.51337578       0.46596975       0.25335782 </v>
   <v>       0.25881477       0.30081340       0.74817714 </v>
   <v>       0.26033261       0.80099057       0.25134548 </v>
   <v>       0.00745182       0.46796494       0.24905393 </v>
   <v>       0.49365031       0.50079627       0.99415198 </v>
   <v>       0.76387062       0.27399941       0.74988530 </v>
   <v>       0.76377421       0.77379808       0.24987967 </v>
   <v>       0.99667453       0.98075133       0.24944810 </v>
   <v>       0.00841290       0.96839606       0.74871243 </v>
   <v>       0.25495969       0.28630835       0.25078097 </v>
   <v>       0.99678487       0.48120446       0.75168072 </v>
   <v>       0.52158282       0.98565856       0.24861731 </v>
   <v>       0.51956758       0.48441834       0.74909079 </v>
   <v>       0.00321101       0.00017178       0.12751579 </v>
   <v>       0.98613133       0.02183117       0.63534740 </v>
   <v>       0.98273588       0.52469991       0.13809175 </v>
   <v>       0.00445512       0.49897137       0.62306004 </v>
   <v>       0.48105729       0.00603540       0.12804733 </v>
   <v>       0.49216099       0.02423811       0.63874481 </v>
   <v>       0.48776746       0.53444651       0.14890413 </v>
   <v>       0.48032928       0.50625546       0.62766972 </v>
   <v>       0.00485519      -0.00043508       0.37652095 </v>
   <v>       0.98445910       0.02950315       0.85673536 </v>
   <v>       0.98586985       0.52336511       0.36202124 </v>
   <v>       0.00362855       0.49879165       0.87665907 </v>
   <v>       0.48268483       0.00527393       0.37269765 </v>
   <v>       0.49111071       0.02553609       0.86124673 </v>
   <v>       0.49346492       0.52262982       0.36635012 </v>
   <v>       0.47712570       0.50829969       0.86612690 </v>
   <v>       0.23046683       0.22158574       0.35939449 </v>
   <v>       0.23311196       0.23963793       0.85619667 </v>
   <v>       0.23686034       0.74115190       0.36261852 </v>
   <v>       0.22720388       0.72027172       0.85655475 </v>
   <v>       0.74827376       0.24964499       0.37597827 </v>
   <v>       0.73764204       0.22020982       0.86044081 </v>
   <v>       0.73765615       0.71950297       0.36168167 </v>
   <v>       0.74950978       0.74808278       0.87352052 </v>
   <v>       0.23109276       0.21931527       0.14364554 </v>
   <v>       0.23363678       0.24239053       0.63668052 </v>
   <v>       0.23317914       0.74005889       0.14318853 </v>
   <v>       0.23068044       0.72151766       0.64080326 </v>
   <v>       0.74779751       0.24793077       0.12635846 </v>
   <v>       0.74076071       0.21912108       0.63795896 </v>
   <v>       0.73891155       0.72035283       0.13897841 </v>
   <v>       0.75134855       0.75054603       0.62398558 </v>
   <v>       0.17640508       0.43572567       0.24976117 </v>
   <v>       0.41717436       0.32825837       0.25149881 </v>
   <v>       0.67159191       0.40692342       0.25091543 </v>
   <v>       0.91862691       0.33065183       0.25029891 </v>
   <v>       0.17310633       0.94665408       0.25158666 </v>
   <v>       0.42660407       0.83665736       0.25075388 </v>
   <v>       0.67236302       0.91188091       0.24991184 </v>
   <v>       0.92802830       0.82368228       0.25130334 </v>
   <v>       0.12294839       0.12191607       0.50223139 </v>
   <v>       0.37412894       0.13134699       0.50017912 </v>
   <v>       0.62281120       0.11816662       0.49849970 </v>
   <v>       0.87446511       0.12549084       0.49929898 </v>
   <v>       0.11816118       0.37369956       0.48659759 </v>
   <v>       0.36653587       0.37917484       0.49068432 </v>
   <v>       0.61583267       0.37344389       0.50290824 </v>
   <v>       0.86983583       0.37679932       0.50291363 </v>
   <v>       0.12312462       0.62168846       0.49741636 </v>
   <v>       0.37395309       0.63196157       0.50023647 </v>
   <v>       0.62331336       0.61854917       0.50309108 </v>
   <v>       0.87487215       0.62558037       0.49979468 </v>
   <v>       0.11863766       0.87330289       0.51239505 </v>
   <v>       0.36690254       0.87959276       0.50998827 </v>
   <v>       0.61528958       0.87317372       0.49859075 </v>
   <v>       0.86955874       0.87683588       0.49550766 </v>
   <v>       0.17203300       0.44789388       0.74943020 </v>
   <v>       0.42566148       0.33254139       0.74784931 </v>
   <v>       0.67111534       0.41080927       0.74859535 </v>
   <v>       0.92816976       0.32501012       0.74958317 </v>
   <v>       0.17773002       0.93578399       0.74890303 </v>
   <v>       0.41803786       0.82762763       0.74994055 </v>
   <v>       0.67205889       0.90761716       0.74973387 </v>
   <v>       0.91942569       0.83072925       0.74961318 </v>
   <v>       0.12294452       0.12523861       0.99835572 </v>
   <v>       0.37264312       0.13088479       0.00020685 </v>
   <v>       0.62123146       0.11829878       0.00184622 </v>
   <v>       0.87204483       0.12672688       0.99997725 </v>
   <v>       0.11730395       0.37462249       0.01477513 </v>
   <v>       0.36550318       0.37751940       0.01014132 </v>
   <v>       0.61579964       0.37222493       0.99743706 </v>
   <v>       0.86882804       0.37751116       0.99768281 </v>
   <v>       0.12137987       0.62244431       0.00282757 </v>
   <v>       0.37122192       0.63327232       0.99887923 </v>
   <v>       0.62213661       0.61927081       0.99733106 </v>
   <v>       0.87330142       0.62492057       0.99956513 </v>
   <v>       0.11866368       0.87317837       0.98721424 </v>
   <v>       0.36627319       0.87979018       0.98899903 </v>
   <v>       0.61406021       0.87391588       0.00089194 </v>
   <v>       0.86742339       0.87513343       0.00337359 </v>
   <v>       0.60774400       0.14438704       0.25138949 </v>
   <v>       0.86542695       0.10259064       0.25259016 </v>
   <v>       0.61196521       0.64453058       0.74710694 </v>
   <v>       0.86858351       0.60184802       0.74865201 </v>
  </varray>
 </structure>
</modeling>
