       N       E                     dE             d eps       ncg     rms          rms(c)
DAV:   1    -0.115348682402E+04   -0.11535E+04   -0.56365E-05  6136   0.140E-02    0.954E-03
RMM:   2    -0.115348682528E+04   -0.12641E-05   -0.20515E-05  5061   0.835E-03    0.116E-02
RMM:   3    -0.115348682641E+04   -0.11210E-05   -0.12373E-05  4257   0.448E-03    0.238E-03
RMM:   4    -0.115348682681E+04   -0.40780E-06   -0.61650E-06  3282   0.370E-03    0.267E-03
RMM:   5    -0.115348682712E+04   -0.30434E-06   -0.44887E-06  2615   0.282E-03    0.146E-03
RMM:   6    -0.115348682703E+04    0.90862E-07   -0.27086E-06  2199   0.272E-03    0.110E-03
RMM:   7    -0.115348682700E+04    0.29017E-07   -0.18419E-06  1896   0.231E-03    0.355E-04
RMM:   8    -0.115348682703E+04   -0.32378E-07   -0.11598E-06  1590   0.227E-03
   1 F= -.11534868E+04 E0= -.11534868E+04  d E =-.115349E+04  mag=    20.0000
       N       E                     dE             d eps       ncg     rms          rms(c)
DAV:   1    -0.115348730856E+04   -0.48156E-03   -0.42365E-01  9312   0.765E-01    0.311E-01
RMM:   2    -0.115348821562E+04   -0.90706E-03   -0.12946E-02  9231   0.148E-01    0.231E-01
RMM:   3    -0.115348816851E+04    0.47111E-04   -0.66477E-04  8507   0.470E-02    0.124E-01
RMM:   4    -0.115348804913E+04    0.11938E-03   -0.28790E-04  6770   0.203E-02    0.654E-02
RMM:   5    -0.115348802541E+04    0.23719E-04   -0.86365E-05  5430   0.131E-02    0.323E-02
RMM:   6    -0.115348802912E+04   -0.37080E-05   -0.23367E-05  5302   0.770E-03    0.239E-02
RMM:   7    -0.115348803104E+04   -0.19177E-05   -0.10518E-05  4937   0.472E-03    0.107E-02
RMM:   8    -0.115348803332E+04   -0.22847E-05   -0.54900E-06  4605   0.373E-03
   2 F= -.11534880E+04 E0= -.11534880E+04  d E =-.120629E-02  mag=    20.0000
