<?xml version="1.0" encoding="ISO-8859-1"?>
<modeling>
 <generator>
  <i name="program" type="string">vasp </i>
  <i name="version" type="string">5.4.1  </i>
  <i name="subversion" type="string">05Feb16 (build Jan 25 2017 20:16:33) complex                          parallel </i>
  <i name="platform" type="string">BWXE6 </i>
  <i name="date" type="string">2019 08 11 </i>
  <i name="time" type="string">11:32:15 </i>
 </generator>
 <incar>
  <i type="string" name="SYSTEM"> STF</i>
  <i type="string" name="PREC">normal</i>
  <i type="string" name="ALGO"> Fast</i>
  <i type="int" name="ISPIN">     2</i>
  <i type="int" name="NELM">    40</i>
  <i type="int" name="NELMIN">     8</i>
  <i type="int" name="IBRION">     2</i>
  <i name="EDIFF">      0.00010000</i>
  <i name="EDIFFG">     -0.03000000</i>
  <i type="int" name="NSW">    30</i>
  <i type="int" name="ISIF">     3</i>
  <i name="ENCUT">    520.00000000</i>
  <i type="int" name="NBANDS">   768</i>
  <v name="MAGMOM">      0.60000000      0.60000000      0.60000000      0.60000000      0.60000000      0.60000000      0.60000000      0.60000000      0.60000000      0.60000000      0.60000000      0.60000000      0.60000000      0.60000000      0.60000000      0.60000000      0.60000000      0.60000000      0.60000000      0.60000000
      0.60000000      0.60000000      0.60000000      0.60000000      0.60000000      0.60000000      0.60000000      0.60000000      0.60000000      0.60000000      0.60000000      0.60000000      0.60000000      0.60000000      0.60000000      0.60000000      0.60000000      0.60000000      0.60000000      0.60000000
      0.60000000      0.60000000      0.60000000      0.60000000      0.60000000      0.60000000      0.60000000      0.60000000      0.60000000      0.60000000      0.60000000      0.60000000      0.60000000      0.60000000      0.60000000      0.60000000      0.60000000      0.60000000      0.60000000      0.60000000
      5.00000000      5.00000000      5.00000000      5.00000000      0.60000000      0.60000000      0.60000000      0.60000000      0.60000000      0.60000000      0.60000000      0.60000000      0.60000000      0.60000000      0.60000000      0.60000000      0.60000000      0.60000000      0.60000000      0.60000000
      0.60000000      0.60000000      0.60000000      0.60000000      0.60000000      0.60000000      0.60000000      0.60000000      0.60000000      0.60000000      0.60000000      0.60000000      0.60000000      0.60000000      0.60000000      0.60000000      0.60000000      0.60000000      0.60000000      0.60000000
      0.60000000      0.60000000      0.60000000      0.60000000      0.60000000      0.60000000      0.60000000      0.60000000      0.60000000      0.60000000      0.60000000      0.60000000      0.60000000      0.60000000      0.60000000      0.60000000      0.60000000      0.60000000      0.60000000      0.60000000
      0.60000000      0.60000000      0.60000000      0.60000000      0.60000000      0.60000000      0.60000000      0.60000000      0.60000000      0.60000000      0.60000000      0.60000000      0.60000000      0.60000000      0.60000000      0.60000000      0.60000000      0.60000000      0.60000000      0.60000000
      0.60000000      0.60000000      0.60000000      0.60000000      0.60000000      0.60000000      0.60000000      0.60000000      0.60000000      0.60000000      0.60000000      0.60000000      0.60000000      0.60000000      0.60000000      0.60000000      0.60000000      0.60000000</v>
  <i type="string" name="LREAL"> Auto</i>
  <i type="int" name="ISMEAR">     0</i>
  <i name="SIGMA">      0.05000000</i>
  <i type="int" name="LMAXMIX">     4</i>
  <v type="int" name="KPOINT_BSE">    -1     0     0     0</v>
  <i type="int" name="NELM">    40</i>
  <i type="logical" name="LDAU"> T  </i>
  <v type="int" name="LDAUTYPE">     2</v>
  <v type="int" name="LDAUL">     0     2     2     0</v>
  <v name="LDAUU">      0.00000000      3.00000000      5.00000000      0.00000000</v>
  <v name="LDAUJ">      0.00000000      0.00000000      0.00000000      0.00000000</v>
  <i type="int" name="LDAUPRINT">     1</i>
 </incar>
 <kpoints>
  <generation param="Monkhorst-Pack">
   <v type="int" name="divisions">       2        2        2 </v>
   <v name="usershift">      0.00000000       0.00000000       0.00000000 </v>
   <v name="genvec1">      0.50000000      -0.00000000       0.00000000 </v>
   <v name="genvec2">     -0.00000000       0.50000000       0.00000000 </v>
   <v name="genvec3">     -0.00000000      -0.00000000       0.50000000 </v>
   <v name="shift">      0.50000000       0.50000000       0.50000000 </v>
  </generation>
  <varray name="kpointlist" >
   <v>       0.25000000       0.25000000       0.25000000 </v>
   <v>      -0.25000000       0.25000000       0.25000000 </v>
   <v>      -0.25000000      -0.25000000       0.25000000 </v>
  </varray>
  <varray name="weights" >
   <v>       0.25000000 </v>
   <v>       0.50000000 </v>
   <v>       0.25000000 </v>
  </varray>
 </kpoints>
 <parameters>
  <separator name="general" >
   <i type="string" name="SYSTEM">STF</i>
   <i type="logical" name="LCOMPAT"> F  </i>
  </separator>
  <separator name="electronic" >
   <i type="string" name="PREC">normal</i>
   <i name="ENMAX">    520.00000000</i>
   <i name="ENAUG">    605.39200000</i>
   <i name="EDIFF">      0.00010000</i>
   <i type="int" name="IALGO">    68</i>
   <i type="int" name="IWAVPR">    11</i>
   <i type="int" name="NBANDS">   768</i>
   <i name="NELECT">   1028.00000000</i>
   <i type="int" name="TURBO">     0</i>
   <i type="int" name="IRESTART">     0</i>
   <i type="int" name="NREBOOT">     0</i>
   <i type="int" name="NMIN">     0</i>
   <i name="EREF">      0.00000000</i>
   <separator name="electronic smearing" >
    <i type="int" name="ISMEAR">     0</i>
    <i name="SIGMA">      0.05000000</i>
    <i name="KSPACING">      0.50000000</i>
    <i type="logical" name="KGAMMA"> T  </i>
   </separator>
   <separator name="electronic projectors" >
    <i type="logical" name="LREAL"> T  </i>
    <v name="ROPT">     -0.00050000     -0.00050000     -0.00050000     -0.00050000</v>
    <i type="int" name="LMAXPAW">  -100</i>
    <i type="int" name="LMAXMIX">     4</i>
    <i type="logical" name="NLSPLINE"> F  </i>
   </separator>
   <separator name="electronic startup" >
    <i type="int" name="ISTART">     1</i>
    <i type="int" name="ICHARG">     0</i>
    <i type="int" name="INIWAV">     1</i>
   </separator>
   <separator name="electronic spin" >
    <i type="int" name="ISPIN">     2</i>
    <i type="logical" name="LNONCOLLINEAR"> F  </i>
    <v name="MAGMOM">      0.60000000      0.60000000      0.60000000      0.60000000      0.60000000      0.60000000      0.60000000      0.60000000      0.60000000      0.60000000      0.60000000      0.60000000      0.60000000      0.60000000      0.60000000      0.60000000      0.60000000      0.60000000      0.60000000      0.60000000
      0.60000000      0.60000000      0.60000000      0.60000000      0.60000000      0.60000000      0.60000000      0.60000000      0.60000000      0.60000000      0.60000000      0.60000000      0.60000000      0.60000000      0.60000000      0.60000000      0.60000000      0.60000000      0.60000000      0.60000000
      0.60000000      0.60000000      0.60000000      0.60000000      0.60000000      0.60000000      0.60000000      0.60000000      0.60000000      0.60000000      0.60000000      0.60000000      0.60000000      0.60000000      0.60000000      0.60000000      0.60000000      0.60000000      0.60000000      0.60000000
      5.00000000      5.00000000      5.00000000      5.00000000      0.60000000      0.60000000      0.60000000      0.60000000      0.60000000      0.60000000      0.60000000      0.60000000      0.60000000      0.60000000      0.60000000      0.60000000      0.60000000      0.60000000      0.60000000      0.60000000
      0.60000000      0.60000000      0.60000000      0.60000000      0.60000000      0.60000000      0.60000000      0.60000000      0.60000000      0.60000000      0.60000000      0.60000000      0.60000000      0.60000000      0.60000000      0.60000000      0.60000000      0.60000000      0.60000000      0.60000000
      0.60000000      0.60000000      0.60000000      0.60000000      0.60000000      0.60000000      0.60000000      0.60000000      0.60000000      0.60000000      0.60000000      0.60000000      0.60000000      0.60000000      0.60000000      0.60000000      0.60000000      0.60000000      0.60000000      0.60000000
      0.60000000      0.60000000      0.60000000      0.60000000      0.60000000      0.60000000      0.60000000      0.60000000      0.60000000      0.60000000      0.60000000      0.60000000      0.60000000      0.60000000      0.60000000      0.60000000      0.60000000      0.60000000      0.60000000      0.60000000
      0.60000000      0.60000000      0.60000000      0.60000000      0.60000000      0.60000000      0.60000000      0.60000000      0.60000000      0.60000000      0.60000000      0.60000000      0.60000000      0.60000000      0.60000000      0.60000000      0.60000000      0.60000000</v>
    <i name="NUPDOWN">     -1.00000000</i>
    <i type="logical" name="LSORBIT"> F  </i>
    <v name="SAXIS">      0.00000000      0.00000000      1.00000000</v>
    <i type="logical" name="LSPIRAL"> F  </i>
    <v name="QSPIRAL">      0.00000000      0.00000000      0.00000000</v>
    <i type="logical" name="LZEROZ"> F  </i>
   </separator>
   <separator name="electronic exchange-correlation" >
    <i type="logical" name="LASPH"> F  </i>
    <i type="logical" name="LMETAGGA"> F  </i>
   </separator>
   <separator name="electronic convergence" >
    <i type="int" name="NELM">    40</i>
    <i type="int" name="NELMDL">     0</i>
    <i type="int" name="NELMIN">     8</i>
    <i name="ENINI">    520.00000000</i>
    <separator name="electronic convergence detail" >
     <i type="logical" name="LDIAG"> T  </i>
     <i type="logical" name="LSUBROT"> F  </i>
     <i name="WEIMIN">      0.00100000</i>
     <i name="EBREAK">      0.00000003</i>
     <i name="DEPER">      0.30000000</i>
     <i type="int" name="NRMM">     4</i>
     <i name="TIME">      0.40000000</i>
    </separator>
   </separator>
   <separator name="electronic mixer" >
    <i name="AMIX">      0.40000000</i>
    <i name="BMIX">      1.00000000</i>
    <i name="AMIN">      0.10000000</i>
    <i name="AMIX_MAG">      1.60000000</i>
    <i name="BMIX_MAG">      1.00000000</i>
    <separator name="electronic mixer details" >
     <i type="int" name="IMIX">     4</i>
     <i type="logical" name="MIXFIRST"> F  </i>
     <i type="int" name="MAXMIX">   -45</i>
     <i name="WC">    100.00000000</i>
     <i type="int" name="INIMIX">     1</i>
     <i type="int" name="MIXPRE">     1</i>
     <i type="int" name="MREMOVE">     5</i>
    </separator>
   </separator>
   <separator name="electronic dipolcorrection" >
    <i type="logical" name="LDIPOL"> F  </i>
    <i type="logical" name="LMONO"> F  </i>
    <i type="int" name="IDIPOL">     0</i>
    <i name="EPSILON">      1.00000000</i>
    <v name="DIPOL">   -100.00000000   -100.00000000   -100.00000000</v>
    <i name="EFIELD">      0.00000000</i>
   </separator>
  </separator>
  <separator name="grids" >
   <i type="int" name="NGX">    64</i>
   <i type="int" name="NGY">    64</i>
   <i type="int" name="NGZ">    90</i>
   <i type="int" name="NGXF">   128</i>
   <i type="int" name="NGYF">   128</i>
   <i type="int" name="NGZF">   180</i>
   <i type="logical" name="ADDGRID"> F  </i>
  </separator>
  <separator name="ionic" >
   <i type="int" name="NSW">    30</i>
   <i type="int" name="IBRION">     2</i>
   <i type="int" name="ISIF">     3</i>
   <i name="PSTRESS">      0.00000000</i>
   <i name="EDIFFG">     -0.03000000</i>
   <i type="int" name="NFREE">     1</i>
   <i name="POTIM">      0.50000000</i>
   <i name="SMASS">     -3.00000000</i>
   <i name="SCALEE">      1.00000000</i>
  </separator>
  <separator name="ionic md" >
   <i name="TEBEG">      0.00010000</i>
   <i name="TEEND">      0.00010000</i>
   <i type="int" name="NBLOCK">     1</i>
   <i type="int" name="KBLOCK">    30</i>
   <i type="int" name="NPACO">   256</i>
   <i name="APACO">     16.00000000</i>
  </separator>
  <separator name="symmetry" >
   <i type="int" name="ISYM">     2</i>
   <i name="SYMPREC">      0.00001000</i>
  </separator>
  <separator name="dos" >
   <i type="logical" name="LORBIT"> F  </i>
   <v name="RWIGS">     -1.00000000     -1.00000000     -1.00000000     -1.00000000</v>
   <i type="int" name="NEDOS">   301</i>
   <i name="EMIN">     10.00000000</i>
   <i name="EMAX">    -10.00000000</i>
   <i name="EFERMI">      0.00000000</i>
  </separator>
  <separator name="writing" >
   <i type="int" name="NWRITE">     2</i>
   <i type="logical" name="LWAVE"> T  </i>
   <i type="logical" name="LCHARG"> T  </i>
   <i type="logical" name="LPARD"> F  </i>
   <i type="logical" name="LVTOT"> F  </i>
   <i type="logical" name="LVHAR"> F  </i>
   <i type="logical" name="LELF"> F  </i>
   <i type="logical" name="LOPTICS"> F  </i>
   <v name="STM">      0.00000000      0.00000000      0.00000000      0.00000000      0.00000000      0.00000000      0.00000000</v>
  </separator>
  <separator name="performance" >
   <i type="int" name="NPAR">     2</i>
   <i type="int" name="NSIM">     4</i>
   <i type="int" name="NBLK">    -1</i>
   <i type="logical" name="LPLANE"> T  </i>
   <i type="logical" name="LSCALAPACK"> T  </i>
   <i type="logical" name="LSCAAWARE"> F  </i>
   <i type="logical" name="LSCALU"> F  </i>
   <i type="logical" name="LASYNC"> F  </i>
   <i type="logical" name="LORBITALREAL"> F  </i>
  </separator>
  <separator name="miscellaneous" >
   <i type="int" name="IDIOT">     3</i>
   <i type="logical" name="LMUSIC"> F  </i>
   <v name="POMASS">     87.62000000     47.88000000     55.84700000     16.00000000</v>
   <v name="DARWINR">      0.00000000      0.00000000      0.00000000      0.00000000</v>
   <v name="DARWINV">      1.00000000      1.00000000      1.00000000      1.00000000</v>
   <i type="logical" name="LCORR"> T  </i>
  </separator>
  <i type="logical" name="GGA_COMPAT"> T  </i>
  <i type="logical" name="LBERRY"> F  </i>
  <i type="int" name="ICORELEVEL">     0</i>
  <i type="logical" name="LDAU"> T  </i>
  <v type="int" name="LDAUTYPE">     2</v>
  <v type="int" name="LDAUL">     0</v>
  <v name="LDAUU">      0.00000000</v>
  <v name="LDAUJ">      0.00000000</v>
  <i type="int" name="LDAUPRINT">     1</i>
  <i type="int" name="I_CONSTRAINED_M">     0</i>
  <separator name="electronic exchange-correlation" >
   <i type="string" name="GGA">--</i>
   <i type="int" name="VOSKOWN">     0</i>
   <i type="logical" name="LHFCALC"> F  </i>
   <i type="string" name="PRECFOCK"></i>
   <i type="logical" name="LSYMGRAD"> F  </i>
   <i type="logical" name="LHFONE"> F  </i>
   <i type="logical" name="LRHFCALC"> F  </i>
   <i type="logical" name="LTHOMAS"> F  </i>
   <i type="logical" name="LMODELHF"> F  </i>
   <i name="ENCUT4O">     -1.00000000</i>
   <i type="int" name="EXXOEP">     0</i>
   <i type="int" name="FOURORBIT">     0</i>
   <i name="AEXX">      0.00000000</i>
   <i name="HFALPHA">      0.00000000</i>
   <i name="MCALPHA">      0.00000000</i>
   <i name="ALDAX">      1.00000000</i>
   <i name="AGGAX">      1.00000000</i>
   <i name="ALDAC">      1.00000000</i>
   <i name="AGGAC">      1.00000000</i>
   <i type="int" name="NKREDX">     1</i>
   <i type="int" name="NKREDY">     1</i>
   <i type="int" name="NKREDZ">     1</i>
   <i type="logical" name="SHIFTRED"> F  </i>
   <i type="logical" name="ODDONLY"> F  </i>
   <i type="logical" name="EVENONLY"> F  </i>
   <i type="int" name="LMAXFOCK">     0</i>
   <i type="int" name="NMAXFOCKAE">     0</i>
   <i type="logical" name="LFOCKAEDFT"> F  </i>
   <i name="HFSCREEN">      0.00000000</i>
   <i name="HFSCREENC">      0.00000000</i>
   <i type="int" name="NBANDSGWLOW">     0</i>
  </separator>
  <separator name="vdW DFT" >
   <i type="logical" name="LUSE_VDW"> F  </i>
   <i name="Zab_VDW">     -0.84910000</i>
   <i name="PARAM1">      0.12340000</i>
   <i name="PARAM2">      1.00000000</i>
   <i name="PARAM3">      0.00000000</i>
  </separator>
  <separator name="model GW" >
   <i type="int" name="MODEL_GW">     0</i>
   <i name="MODEL_EPS0">      7.59458762</i>
   <i name="MODEL_ALPHA">      1.00000000</i>
  </separator>
  <separator name="linear response parameters" >
   <i type="logical" name="LEPSILON"> F  </i>
   <i type="logical" name="LRPA"> F  </i>
   <i type="logical" name="LNABLA"> F  </i>
   <i type="logical" name="LVEL"> F  </i>
   <i type="int" name="KINTER">     0</i>
   <i name="CSHIFT">      0.10000000</i>
   <i name="OMEGAMAX">     -1.00000000</i>
   <i name="DEG_THRESHOLD">      0.00200000</i>
  </separator>
  <separator name="orbital magnetization" >
   <i type="logical" name="NUCIND"> F  </i>
   <v name="MAGPOS">      0.00000000      0.00000000      0.00000000</v>
   <i type="logical" name="LNICSALL"> T  </i>
   <i type="logical" name="ORBITALMAG"> F  </i>
   <i type="logical" name="LMAGBLOCH"> F  </i>
   <i type="logical" name="LCHIMAG"> F  </i>
   <i type="logical" name="LGAUGE"> T  </i>
   <i type="int" name="MAGATOM">     0</i>
   <v name="MAGDIPOL">      0.00000000      0.00000000      0.00000000</v>
   <v name="AVECCONST">      0.00000000      0.00000000      0.00000000</v>
  </separator>
  <separator name="response functions" >
   <i type="logical" name="LADDER"> F  </i>
   <i type="logical" name="LFXC"> F  </i>
   <i type="logical" name="LHARTREE"> T  </i>
   <i type="int" name="IBSE">     0</i>
   <v type="int" name="KPOINT">    -1     0     0     0</v>
   <i type="logical" name="LTCTE"> F  </i>
   <i type="logical" name="LTETE"> F  </i>
   <i type="logical" name="LTRIPLET"> F  </i>
   <i type="logical" name="LFXCEPS"> F  </i>
   <i type="logical" name="LFXHEG"> F  </i>
   <i type="int" name="NATURALO">     0</i>
   <i type="logical" name="L2ORDER"> F  </i>
   <i type="logical" name="LUSEW"> F  </i>
   <i name="ENCUTGW">     -2.00000000</i>
   <i name="ENCUTGWSOFT">     -2.00000000</i>
   <i name="ENCUTLF">     -1.00000000</i>
   <i type="int" name="LMAXMP2">    -1</i>
   <i name="SCISSOR">      0.00000000</i>
   <i type="int" name="NOMEGA">     0</i>
   <i type="int" name="NOMEGAR">     0</i>
   <i type="int" name="NBANDSGW">    -1</i>
   <i type="int" name="NBANDSO">    -1</i>
   <i type="int" name="NBANDSV">    -1</i>
   <i type="int" name="NELM">    40</i>
   <i type="int" name="NELMHF">     1</i>
   <i type="int" name="DIM">     3</i>
   <i type="int" name="ANTIRES">     0</i>
   <i name="OMEGAMAX">    -30.00000000</i>
   <i name="OMEGAMIN">    -30.00000000</i>
   <i name="OMEGATL">   -200.00000000</i>
   <i type="int" name="OMEGAGRID">     0</i>
   <i name="CSHIFT">     -0.10000000</i>
   <i type="logical" name="SELFENERGY"> F  </i>
   <i type="logical" name="LSPECTRAL"> F  </i>
   <i type="logical" name="LSPECTRALGW"> F  </i>
   <i type="logical" name="LSINGLES"> F  </i>
   <i type="logical" name="LFERMIGW"> F  </i>
   <i type="logical" name="ODDONLYGW"> F  </i>
   <i type="logical" name="EVENONLYGW"> F  </i>
   <i type="int" name="NKREDLFX">     1</i>
   <i type="int" name="NKREDLFY">     1</i>
   <i type="int" name="NKREDLFZ">     1</i>
   <i type="int" name="MAXMEM">  1800</i>
   <i type="int" name="TELESCOPE">     0</i>
   <i type="int" name="TAUPAR">     1</i>
   <i type="int" name="OMEGAPAR">    -1</i>
   <i name="LAMBDA">      1.00000000</i>
  </separator>
  <separator name="External order field" >
   <i name="OFIELD_KAPPA">      0.00000000</i>
   <v name="OFIELD_K">      0.00000000      0.00000000      0.00000000</v>
   <i name="OFIELD_Q6_NEAR">      0.00000000</i>
   <i name="OFIELD_Q6_FAR">      0.00000000</i>
   <i name="OFIELD_A">      0.00000000</i>
  </separator>
 </parameters>
 <atominfo>
  <atoms>     158 </atoms>
  <types>       4 </types>
  <array name="atoms" >
   <dimension dim="1">ion</dimension>
   <field type="string">element</field>
   <field type="int">atomtype</field>
   <set>
    <rc><c>Sr</c><c>   1</c></rc>
    <rc><c>Sr</c><c>   1</c></rc>
    <rc><c>Sr</c><c>   1</c></rc>
    <rc><c>Sr</c><c>   1</c></rc>
    <rc><c>Sr</c><c>   1</c></rc>
    <rc><c>Sr</c><c>   1</c></rc>
    <rc><c>Sr</c><c>   1</c></rc>
    <rc><c>Sr</c><c>   1</c></rc>
    <rc><c>Sr</c><c>   1</c></rc>
    <rc><c>Sr</c><c>   1</c></rc>
    <rc><c>Sr</c><c>   1</c></rc>
    <rc><c>Sr</c><c>   1</c></rc>
    <rc><c>Sr</c><c>   1</c></rc>
    <rc><c>Sr</c><c>   1</c></rc>
    <rc><c>Sr</c><c>   1</c></rc>
    <rc><c>Sr</c><c>   1</c></rc>
    <rc><c>Sr</c><c>   1</c></rc>
    <rc><c>Sr</c><c>   1</c></rc>
    <rc><c>Sr</c><c>   1</c></rc>
    <rc><c>Sr</c><c>   1</c></rc>
    <rc><c>Sr</c><c>   1</c></rc>
    <rc><c>Sr</c><c>   1</c></rc>
    <rc><c>Sr</c><c>   1</c></rc>
    <rc><c>Sr</c><c>   1</c></rc>
    <rc><c>Sr</c><c>   1</c></rc>
    <rc><c>Sr</c><c>   1</c></rc>
    <rc><c>Sr</c><c>   1</c></rc>
    <rc><c>Sr</c><c>   1</c></rc>
    <rc><c>Sr</c><c>   1</c></rc>
    <rc><c>Sr</c><c>   1</c></rc>
    <rc><c>Sr</c><c>   1</c></rc>
    <rc><c>Sr</c><c>   1</c></rc>
    <rc><c>Ti</c><c>   2</c></rc>
    <rc><c>Ti</c><c>   2</c></rc>
    <rc><c>Ti</c><c>   2</c></rc>
    <rc><c>Ti</c><c>   2</c></rc>
    <rc><c>Ti</c><c>   2</c></rc>
    <rc><c>Ti</c><c>   2</c></rc>
    <rc><c>Ti</c><c>   2</c></rc>
    <rc><c>Ti</c><c>   2</c></rc>
    <rc><c>Ti</c><c>   2</c></rc>
    <rc><c>Ti</c><c>   2</c></rc>
    <rc><c>Ti</c><c>   2</c></rc>
    <rc><c>Ti</c><c>   2</c></rc>
    <rc><c>Ti</c><c>   2</c></rc>
    <rc><c>Ti</c><c>   2</c></rc>
    <rc><c>Ti</c><c>   2</c></rc>
    <rc><c>Ti</c><c>   2</c></rc>
    <rc><c>Ti</c><c>   2</c></rc>
    <rc><c>Ti</c><c>   2</c></rc>
    <rc><c>Ti</c><c>   2</c></rc>
    <rc><c>Ti</c><c>   2</c></rc>
    <rc><c>Ti</c><c>   2</c></rc>
    <rc><c>Ti</c><c>   2</c></rc>
    <rc><c>Ti</c><c>   2</c></rc>
    <rc><c>Ti</c><c>   2</c></rc>
    <rc><c>Ti</c><c>   2</c></rc>
    <rc><c>Ti</c><c>   2</c></rc>
    <rc><c>Ti</c><c>   2</c></rc>
    <rc><c>Ti</c><c>   2</c></rc>
    <rc><c>Fe</c><c>   3</c></rc>
    <rc><c>Fe</c><c>   3</c></rc>
    <rc><c>Fe</c><c>   3</c></rc>
    <rc><c>Fe</c><c>   3</c></rc>
    <rc><c>O </c><c>   4</c></rc>
    <rc><c>O </c><c>   4</c></rc>
    <rc><c>O </c><c>   4</c></rc>
    <rc><c>O </c><c>   4</c></rc>
    <rc><c>O </c><c>   4</c></rc>
    <rc><c>O </c><c>   4</c></rc>
    <rc><c>O </c><c>   4</c></rc>
    <rc><c>O </c><c>   4</c></rc>
    <rc><c>O </c><c>   4</c></rc>
    <rc><c>O </c><c>   4</c></rc>
    <rc><c>O </c><c>   4</c></rc>
    <rc><c>O </c><c>   4</c></rc>
    <rc><c>O </c><c>   4</c></rc>
    <rc><c>O </c><c>   4</c></rc>
    <rc><c>O </c><c>   4</c></rc>
    <rc><c>O </c><c>   4</c></rc>
    <rc><c>O </c><c>   4</c></rc>
    <rc><c>O </c><c>   4</c></rc>
    <rc><c>O </c><c>   4</c></rc>
    <rc><c>O </c><c>   4</c></rc>
    <rc><c>O </c><c>   4</c></rc>
    <rc><c>O </c><c>   4</c></rc>
    <rc><c>O </c><c>   4</c></rc>
    <rc><c>O </c><c>   4</c></rc>
    <rc><c>O </c><c>   4</c></rc>
    <rc><c>O </c><c>   4</c></rc>
    <rc><c>O </c><c>   4</c></rc>
    <rc><c>O </c><c>   4</c></rc>
    <rc><c>O </c><c>   4</c></rc>
    <rc><c>O </c><c>   4</c></rc>
    <rc><c>O </c><c>   4</c></rc>
    <rc><c>O </c><c>   4</c></rc>
    <rc><c>O </c><c>   4</c></rc>
    <rc><c>O </c><c>   4</c></rc>
    <rc><c>O </c><c>   4</c></rc>
    <rc><c>O </c><c>   4</c></rc>
    <rc><c>O </c><c>   4</c></rc>
    <rc><c>O </c><c>   4</c></rc>
    <rc><c>O </c><c>   4</c></rc>
    <rc><c>O </c><c>   4</c></rc>
    <rc><c>O </c><c>   4</c></rc>
    <rc><c>O </c><c>   4</c></rc>
    <rc><c>O </c><c>   4</c></rc>
    <rc><c>O </c><c>   4</c></rc>
    <rc><c>O </c><c>   4</c></rc>
    <rc><c>O </c><c>   4</c></rc>
    <rc><c>O </c><c>   4</c></rc>
    <rc><c>O </c><c>   4</c></rc>
    <rc><c>O </c><c>   4</c></rc>
    <rc><c>O </c><c>   4</c></rc>
    <rc><c>O </c><c>   4</c></rc>
    <rc><c>O </c><c>   4</c></rc>
    <rc><c>O </c><c>   4</c></rc>
    <rc><c>O </c><c>   4</c></rc>
    <rc><c>O </c><c>   4</c></rc>
    <rc><c>O </c><c>   4</c></rc>
    <rc><c>O </c><c>   4</c></rc>
    <rc><c>O </c><c>   4</c></rc>
    <rc><c>O </c><c>   4</c></rc>
    <rc><c>O </c><c>   4</c></rc>
    <rc><c>O </c><c>   4</c></rc>
    <rc><c>O </c><c>   4</c></rc>
    <rc><c>O </c><c>   4</c></rc>
    <rc><c>O </c><c>   4</c></rc>
    <rc><c>O </c><c>   4</c></rc>
    <rc><c>O </c><c>   4</c></rc>
    <rc><c>O </c><c>   4</c></rc>
    <rc><c>O </c><c>   4</c></rc>
    <rc><c>O </c><c>   4</c></rc>
    <rc><c>O </c><c>   4</c></rc>
    <rc><c>O </c><c>   4</c></rc>
    <rc><c>O </c><c>   4</c></rc>
    <rc><c>O </c><c>   4</c></rc>
    <rc><c>O </c><c>   4</c></rc>
    <rc><c>O </c><c>   4</c></rc>
    <rc><c>O </c><c>   4</c></rc>
    <rc><c>O </c><c>   4</c></rc>
    <rc><c>O </c><c>   4</c></rc>
    <rc><c>O </c><c>   4</c></rc>
    <rc><c>O </c><c>   4</c></rc>
    <rc><c>O </c><c>   4</c></rc>
    <rc><c>O </c><c>   4</c></rc>
    <rc><c>O </c><c>   4</c></rc>
    <rc><c>O </c><c>   4</c></rc>
    <rc><c>O </c><c>   4</c></rc>
    <rc><c>O </c><c>   4</c></rc>
    <rc><c>O </c><c>   4</c></rc>
    <rc><c>O </c><c>   4</c></rc>
    <rc><c>O </c><c>   4</c></rc>
    <rc><c>O </c><c>   4</c></rc>
    <rc><c>O </c><c>   4</c></rc>
    <rc><c>O </c><c>   4</c></rc>
    <rc><c>O </c><c>   4</c></rc>
    <rc><c>O </c><c>   4</c></rc>
   </set>
  </array>
  <array name="atomtypes" >
   <dimension dim="1">type</dimension>
   <field type="int">atomspertype</field>
   <field type="string">element</field>
   <field>mass</field>
   <field>valence</field>
   <field type="string">pseudopotential</field>
   <set>
    <rc><c>  32</c><c>Sr</c><c>     87.62000000</c><c>     10.00000000</c><c>  PAW_PBE Sr_sv 07Sep2000               </c></rc>
    <rc><c>  28</c><c>Ti</c><c>     47.88000000</c><c>      4.00000000</c><c>  PAW_PBE Ti 08Apr2002                  </c></rc>
    <rc><c>   4</c><c>Fe</c><c>     55.84700000</c><c>      8.00000000</c><c>  PAW_PBE Fe 06Sep2000                  </c></rc>
    <rc><c>  94</c><c>O </c><c>     16.00000000</c><c>      6.00000000</c><c>  PAW_PBE O 08Apr2002                   </c></rc>
   </set>
  </array>
 </atominfo>
 <structure name="initialpos" >
  <crystal>
   <varray name="basis" >
    <v>      11.19396690       0.00554643       0.00014460 </v>
    <v>       0.00554643      11.19396690       0.00014460 </v>
    <v>       0.00022267       0.00022267      15.96033870 </v>
   </varray>
   <i name="volume">   1999.90807263 </i>
   <varray name="rec_basis" >
    <v>       0.08933386      -0.00004426      -0.00000125 </v>
    <v>      -0.00004426       0.08933386      -0.00000125 </v>
    <v>      -0.00000081      -0.00000081       0.06265531 </v>
   </varray>
  </crystal>
  <varray name="positions" >
   <v>       0.00509844       0.25509844       0.12490489 </v>
   <v>       0.00087287       0.25087287       0.62491410 </v>
   <v>       0.00152083       0.74358633       0.12558175 </v>
   <v>       0.00039035       0.74950030       0.62508842 </v>
   <v>       0.49358633       0.25152083       0.12558175 </v>
   <v>       0.49950030       0.25039035       0.62508842 </v>
   <v>       0.49845756       0.74845756       0.12484057 </v>
   <v>       0.49957185       0.74957185       0.62482351 </v>
   <v>       0.00100318       0.25100318       0.37395601 </v>
   <v>       0.00121297       0.25121297       0.87518566 </v>
   <v>       0.99966201       0.74993896       0.37321656 </v>
   <v>       0.00049253       0.74978297       0.87766087 </v>
   <v>       0.49993896       0.24966201       0.37321656 </v>
   <v>       0.49978297       0.25049253       0.87766087 </v>
   <v>       0.49945837       0.74945837       0.37229912 </v>
   <v>       0.49992875       0.74992875       0.87683279 </v>
   <v>       0.25641367       0.99847917       0.12441825 </v>
   <v>       0.25049970       0.99960965       0.62491158 </v>
   <v>       0.25154244       0.50154244       0.12515943 </v>
   <v>       0.25042815       0.50042815       0.62517649 </v>
   <v>       0.74490156       0.99490156       0.12509511 </v>
   <v>       0.74912713       0.99912713       0.62508590 </v>
   <v>       0.74847917       0.50641367       0.12441825 </v>
   <v>       0.74960965       0.50049970       0.62491158 </v>
   <v>       0.25021703       0.99950747       0.37233913 </v>
   <v>       0.25006104       0.00033799       0.87678344 </v>
   <v>       0.25007125       0.50007125       0.37316721 </v>
   <v>       0.25054163       0.50054163       0.87770088 </v>
   <v>       0.74878703       0.99878703       0.37481434 </v>
   <v>       0.74899682       0.99899682       0.87604399 </v>
   <v>       0.74950747       0.50021703       0.37233913 </v>
   <v>       0.75033799       0.50006104       0.87678344 </v>
   <v>       0.99954955       0.00039573       0.50118463 </v>
   <v>       0.99839500       0.49813177       0.00081770 </v>
   <v>       0.99948255       0.49985014       0.49966506 </v>
   <v>       0.50154138       0.00148757       0.00058267 </v>
   <v>       0.50016776       0.00037458       0.49971997 </v>
   <v>       0.50166450       0.49855791       0.00053891 </v>
   <v>       0.50047790       0.49930164       0.49908665 </v>
   <v>       0.24813177       0.24839500       0.00081770 </v>
   <v>       0.24985014       0.24948255       0.49966506 </v>
   <v>       0.24855791       0.75166450       0.00053891 </v>
   <v>       0.24930164       0.75047790       0.49908665 </v>
   <v>       0.75039573       0.24954955       0.50118463 </v>
   <v>       0.75148757       0.75154138       0.00058267 </v>
   <v>       0.75037458       0.75016776       0.49971997 </v>
   <v>       0.24845862       0.24851243       0.24941733 </v>
   <v>       0.24983224       0.24962542       0.75028003 </v>
   <v>       0.24833550       0.75144209       0.24946109 </v>
   <v>       0.24952210       0.75069836       0.75091335 </v>
   <v>       0.75045045       0.24960427       0.74881537 </v>
   <v>       0.75160500       0.75186823       0.24918230 </v>
   <v>       0.75051745       0.75014986       0.75033494 </v>
   <v>       0.99960427       0.00045045       0.74881537 </v>
   <v>       0.99851243       0.49845862       0.24941733 </v>
   <v>       0.99962542       0.49983224       0.75028003 </v>
   <v>       0.50186823       0.00160500       0.24918230 </v>
   <v>       0.50014986       0.00051745       0.75033494 </v>
   <v>       0.50144209       0.49833550       0.24946109 </v>
   <v>       0.50069836       0.49952210       0.75091335 </v>
   <v>       0.99777271       0.00217935       0.99222890 </v>
   <v>       0.99782065       0.00222729       0.25777110 </v>
   <v>       0.75222729       0.24782065       0.25777110 </v>
   <v>       0.75217935       0.24777271       0.99222890 </v>
   <v>       0.00069678       0.99930322       0.62500000 </v>
   <v>       0.00639283       0.50460602       0.12518919 </v>
   <v>       0.00102318       0.50054935       0.62499739 </v>
   <v>       0.49539398       0.99360717       0.12481081 </v>
   <v>       0.49945065       0.99897682       0.62500261 </v>
   <v>       0.49309012       0.50690988       0.12500000 </v>
   <v>       0.49850063       0.50149937       0.62500000 </v>
   <v>       0.99521885       0.00273024       0.37608844 </v>
   <v>       0.99726976       0.00478115       0.87391156 </v>
   <v>       0.99622950       0.49614203       0.37452022 </v>
   <v>       0.99434877       0.49614802       0.87567996 </v>
   <v>       0.50385198       0.00565123       0.37432004 </v>
   <v>       0.50385797       0.00377050       0.87547978 </v>
   <v>       0.50703175       0.49416710       0.37462111 </v>
   <v>       0.50583290       0.49296825       0.87537889 </v>
   <v>       0.24614203       0.24622950       0.37452022 </v>
   <v>       0.24614802       0.24434877       0.87567996 </v>
   <v>       0.24416710       0.75703175       0.37462111 </v>
   <v>       0.24296825       0.75583290       0.87537889 </v>
   <v>       0.75273024       0.24521885       0.37608844 </v>
   <v>       0.75478115       0.24726976       0.87391156 </v>
   <v>       0.75565123       0.75385198       0.37432004 </v>
   <v>       0.75377050       0.75385797       0.87547978 </v>
   <v>       0.25460602       0.25639283       0.12518919 </v>
   <v>       0.25054935       0.25102318       0.62499739 </v>
   <v>       0.25690988       0.74309012       0.12500000 </v>
   <v>       0.25149937       0.74850063       0.62500000 </v>
   <v>       0.74930322       0.25069678       0.62500000 </v>
   <v>       0.74360717       0.74539398       0.12481081 </v>
   <v>       0.74897682       0.74945065       0.62500261 </v>
   <v>       0.11420174       0.13391917       0.24163179 </v>
   <v>       0.36483032       0.11413768       0.24964422 </v>
   <v>       0.61692202       0.13648873       0.23916799 </v>
   <v>       0.86639390       0.11639390       0.22889979 </v>
   <v>       0.13629575       0.38629575       0.25082965 </v>
   <v>       0.38711358       0.36286302       0.25222102 </v>
   <v>       0.63830551       0.38280354       0.23864190 </v>
   <v>       0.88391917       0.36420174       0.24163179 </v>
   <v>       0.11286302       0.63711358       0.25222102 </v>
   <v>       0.36312221       0.61312221       0.25525625 </v>
   <v>       0.61426226       0.63582776       0.25195244 </v>
   <v>       0.86413768       0.61483032       0.24964422 </v>
   <v>       0.13280354       0.88830551       0.23864190 </v>
   <v>       0.38582776       0.86426226       0.25195244 </v>
   <v>       0.63589238       0.88589238       0.25144918 </v>
   <v>       0.88648873       0.86692202       0.23916799 </v>
   <v>       0.14162013       0.10803952       0.50045631 </v>
   <v>       0.39158423       0.14172766       0.49979554 </v>
   <v>       0.64200903       0.10804728       0.50138997 </v>
   <v>       0.89229726       0.14229726       0.50219088 </v>
   <v>       0.10846473       0.35846473       0.49960397 </v>
   <v>       0.35872881       0.39095168       0.49849239 </v>
   <v>       0.60882780       0.35775898       0.50067220 </v>
   <v>       0.85803952       0.39162013       0.50045631 </v>
   <v>       0.14095168       0.60872881       0.49849239 </v>
   <v>       0.39077033       0.64077033       0.49602211 </v>
   <v>       0.64177877       0.60895261       0.49863729 </v>
   <v>       0.89172766       0.64158423       0.49979554 </v>
   <v>       0.10775898       0.85882780       0.50067220 </v>
   <v>       0.35895261       0.89177877       0.49863729 </v>
   <v>       0.60867788       0.85867788       0.49864354 </v>
   <v>       0.85804728       0.89200903       0.50138997 </v>
   <v>       0.10799097       0.14195272       0.74861003 </v>
   <v>       0.35841577       0.10827234       0.75020446 </v>
   <v>       0.60837987       0.14196048       0.74954369 </v>
   <v>       0.85770274       0.10770274       0.74780912 </v>
   <v>       0.14132212       0.39132212       0.75135646 </v>
   <v>       0.39104739       0.35822123       0.75136271 </v>
   <v>       0.64224102       0.39117220       0.74932780 </v>
   <v>       0.89195272       0.35799097       0.74861003 </v>
   <v>       0.10822123       0.64104739       0.75136271 </v>
   <v>       0.35922967       0.60922967       0.75397789 </v>
   <v>       0.60904832       0.64127119       0.75150761 </v>
   <v>       0.85827234       0.60841577       0.75020446 </v>
   <v>       0.14117220       0.89224102       0.74932780 </v>
   <v>       0.39127119       0.85904832       0.75150761 </v>
   <v>       0.64153527       0.89153527       0.75039603 </v>
   <v>       0.89196048       0.85837987       0.74954369 </v>
   <v>       0.13307798       0.11351127       0.01083201 </v>
   <v>       0.38516968       0.13586232       0.00035578 </v>
   <v>       0.63579826       0.11608083       0.00836821 </v>
   <v>       0.88360610       0.13360610       0.02110021 </v>
   <v>       0.11410762       0.36410762       0.99855082 </v>
   <v>       0.36417224       0.38573774       0.99804756 </v>
   <v>       0.61719646       0.36169449       0.01135810 </v>
   <v>       0.86351127       0.38307798       0.01083201 </v>
   <v>       0.13573774       0.61417224       0.99804756 </v>
   <v>       0.38687779       0.63687779       0.99474375 </v>
   <v>       0.63713698       0.61288642       0.99777898 </v>
   <v>       0.88586232       0.63516968       0.00035578 </v>
   <v>       0.11169449       0.86719646       0.01135810 </v>
   <v>       0.36288642       0.88713698       0.99777898 </v>
   <v>       0.61370425       0.86370425       0.99917035 </v>
   <v>       0.86608083       0.88579826       0.00836821 </v>
  </varray>
 </structure>
 <calculation>
  <scstep>
   <time name="dav">  153.67  153.78</time>
   <time name="total">  156.81  156.96</time>
   <energy>
    <i name="alphaZ">   5648.39845659 </i>
    <i name="ewald"> -61384.85103197 </i>
    <i name="hartreedc"> -15142.31086071 </i>
    <i name="XCdc">   2852.80442055 </i>
    <i name="pawpsdc"> 111490.75077502 </i>
    <i name="pawaedc">-110239.50685098 </i>
    <i name="eentropy">     -0.00000000 </i>
    <i name="bandstr">  -7028.85536438 </i>
    <i name="atom">  72650.08363186 </i>
    <i name="e_fr_energy">  -1153.48682402 </i>
    <i name="e_wo_entrp">  -1153.48682402 </i>
    <i name="e_0_energy">  -1153.48682402 </i>
   </energy>
  </scstep>
  <scstep>
   <time name="diag">   24.85   24.86</time>
   <time name="diis">   22.85   22.86</time>
   <time name="orth">   14.12   14.12</time>
   <time name="total">   64.97   65.01</time>
   <energy>
    <i name="e_fr_energy">  -1153.48682528 </i>
    <i name="e_wo_entrp">  -1153.48682528 </i>
    <i name="e_0_energy">  -1153.48682528 </i>
   </energy>
  </scstep>
  <scstep>
   <time name="diag">   24.84   24.84</time>
   <time name="diis">   21.45   21.45</time>
   <time name="orth">   14.13   14.13</time>
   <time name="total">   63.57   63.63</time>
   <energy>
    <i name="e_fr_energy">  -1153.48682641 </i>
    <i name="e_wo_entrp">  -1153.48682641 </i>
    <i name="e_0_energy">  -1153.48682641 </i>
   </energy>
  </scstep>
  <scstep>
   <time name="diag">   24.85   24.87</time>
   <time name="diis">   20.06   20.06</time>
   <time name="orth">   14.09   14.09</time>
   <time name="total">   62.14   62.27</time>
   <energy>
    <i name="e_fr_energy">  -1153.48682681 </i>
    <i name="e_wo_entrp">  -1153.48682681 </i>
    <i name="e_0_energy">  -1153.48682681 </i>
   </energy>
  </scstep>
  <scstep>
   <time name="diag">   24.82   24.84</time>
   <time name="diis">   19.02   19.04</time>
   <time name="orth">   14.14   14.15</time>
   <time name="total">   61.12   61.21</time>
   <energy>
    <i name="e_fr_energy">  -1153.48682712 </i>
    <i name="e_wo_entrp">  -1153.48682712 </i>
    <i name="e_0_energy">  -1153.48682712 </i>
   </energy>
  </scstep>
  <scstep>
   <time name="diag">   24.82   24.84</time>
   <time name="diis">   18.34   18.34</time>
   <time name="orth">   14.11   14.11</time>
   <time name="total">   60.41   60.46</time>
   <energy>
    <i name="e_fr_energy">  -1153.48682703 </i>
    <i name="e_wo_entrp">  -1153.48682703 </i>
    <i name="e_0_energy">  -1153.48682703 </i>
   </energy>
  </scstep>
  <scstep>
   <time name="diag">   24.86   24.86</time>
   <time name="diis">   17.86   17.86</time>
   <time name="orth">   14.12   14.12</time>
   <time name="total">   59.98   60.05</time>
   <energy>
    <i name="e_fr_energy">  -1153.48682700 </i>
    <i name="e_wo_entrp">  -1153.48682700 </i>
    <i name="e_0_energy">  -1153.48682700 </i>
   </energy>
  </scstep>
  <scstep>
   <time name="diag">   24.83   24.85</time>
   <time name="diis">   17.39   17.40</time>
   <time name="orth">   14.10   14.11</time>
   <time name="total">   56.89   56.99</time>
   <energy>
    <i name="alphaZ">   5648.39845659 </i>
    <i name="ewald"> -61384.85103197 </i>
    <i name="hartreedc"> -15142.32797646 </i>
    <i name="XCdc">   2852.80661680 </i>
    <i name="pawpsdc"> 111490.33283151 </i>
    <i name="pawaedc">-110239.10211936 </i>
    <i name="eentropy">     -0.00000000 </i>
    <i name="bandstr">  -7028.82723600 </i>
    <i name="atom">  72650.08363186 </i>
    <i name="e_fr_energy">  -1153.48682703 </i>
    <i name="e_wo_entrp">  -1153.48682703 </i>
    <i name="e_0_energy">  -1153.48682703 </i>
   </energy>
  </scstep>
  <structure>
   <crystal>
    <varray name="basis" >
     <v>      11.19396690       0.00554643       0.00014460 </v>
     <v>       0.00554643      11.19396690       0.00014460 </v>
     <v>       0.00022267       0.00022267      15.96033870 </v>
    </varray>
    <i name="volume">   1999.90807263 </i>
    <varray name="rec_basis" >
     <v>       0.08933386      -0.00004426      -0.00000125 </v>
     <v>      -0.00004426       0.08933386      -0.00000125 </v>
     <v>      -0.00000081      -0.00000081       0.06265531 </v>
    </varray>
   </crystal>
   <varray name="positions" >
    <v>       0.00509844       0.25509844       0.12490489 </v>
    <v>       0.00087287       0.25087287       0.62491410 </v>
    <v>       0.00152083       0.74358633       0.12558175 </v>
    <v>       0.00039035       0.74950030       0.62508842 </v>
    <v>       0.49358633       0.25152083       0.12558175 </v>
    <v>       0.49950030       0.25039035       0.62508842 </v>
    <v>       0.49845756       0.74845756       0.12484057 </v>
    <v>       0.49957185       0.74957185       0.62482351 </v>
    <v>       0.00100318       0.25100318       0.37395601 </v>
    <v>       0.00121297       0.25121297       0.87518566 </v>
    <v>       0.99966201       0.74993896       0.37321656 </v>
    <v>       0.00049253       0.74978297       0.87766087 </v>
    <v>       0.49993896       0.24966201       0.37321656 </v>
    <v>       0.49978297       0.25049253       0.87766087 </v>
    <v>       0.49945837       0.74945837       0.37229912 </v>
    <v>       0.49992875       0.74992875       0.87683279 </v>
    <v>       0.25641367       0.99847917       0.12441825 </v>
    <v>       0.25049970       0.99960965       0.62491158 </v>
    <v>       0.25154244       0.50154244       0.12515943 </v>
    <v>       0.25042815       0.50042815       0.62517649 </v>
    <v>       0.74490156       0.99490156       0.12509511 </v>
    <v>       0.74912713       0.99912713       0.62508590 </v>
    <v>       0.74847917       0.50641367       0.12441825 </v>
    <v>       0.74960965       0.50049970       0.62491158 </v>
    <v>       0.25021703       0.99950747       0.37233913 </v>
    <v>       0.25006104       0.00033799       0.87678344 </v>
    <v>       0.25007125       0.50007125       0.37316721 </v>
    <v>       0.25054163       0.50054163       0.87770088 </v>
    <v>       0.74878703       0.99878703       0.37481434 </v>
    <v>       0.74899682       0.99899682       0.87604399 </v>
    <v>       0.74950747       0.50021703       0.37233913 </v>
    <v>       0.75033799       0.50006104       0.87678344 </v>
    <v>       0.99954955       0.00039573       0.50118463 </v>
    <v>       0.99839500       0.49813177       0.00081770 </v>
    <v>       0.99948255       0.49985014       0.49966506 </v>
    <v>       0.50154138       0.00148757       0.00058267 </v>
    <v>       0.50016776       0.00037458       0.49971997 </v>
    <v>       0.50166450       0.49855791       0.00053891 </v>
    <v>       0.50047790       0.49930164       0.49908665 </v>
    <v>       0.24813177       0.24839500       0.00081770 </v>
    <v>       0.24985014       0.24948255       0.49966506 </v>
    <v>       0.24855791       0.75166450       0.00053891 </v>
    <v>       0.24930164       0.75047790       0.49908665 </v>
    <v>       0.75039573       0.24954955       0.50118463 </v>
    <v>       0.75148757       0.75154138       0.00058267 </v>
    <v>       0.75037458       0.75016776       0.49971997 </v>
    <v>       0.24845862       0.24851243       0.24941733 </v>
    <v>       0.24983224       0.24962542       0.75028003 </v>
    <v>       0.24833550       0.75144209       0.24946109 </v>
    <v>       0.24952210       0.75069836       0.75091335 </v>
    <v>       0.75045045       0.24960427       0.74881537 </v>
    <v>       0.75160500       0.75186823       0.24918230 </v>
    <v>       0.75051745       0.75014986       0.75033494 </v>
    <v>       0.99960427       0.00045045       0.74881537 </v>
    <v>       0.99851243       0.49845862       0.24941733 </v>
    <v>       0.99962542       0.49983224       0.75028003 </v>
    <v>       0.50186823       0.00160500       0.24918230 </v>
    <v>       0.50014986       0.00051745       0.75033494 </v>
    <v>       0.50144209       0.49833550       0.24946109 </v>
    <v>       0.50069836       0.49952210       0.75091335 </v>
    <v>       0.99777271       0.00217935       0.99222890 </v>
    <v>       0.99782065       0.00222729       0.25777110 </v>
    <v>       0.75222729       0.24782065       0.25777110 </v>
    <v>       0.75217935       0.24777271       0.99222890 </v>
    <v>       0.00069678       0.99930322       0.62500000 </v>
    <v>       0.00639283       0.50460602       0.12518919 </v>
    <v>       0.00102318       0.50054935       0.62499739 </v>
    <v>       0.49539398       0.99360717       0.12481081 </v>
    <v>       0.49945065       0.99897682       0.62500261 </v>
    <v>       0.49309012       0.50690988       0.12500000 </v>
    <v>       0.49850063       0.50149937       0.62500000 </v>
    <v>       0.99521885       0.00273024       0.37608844 </v>
    <v>       0.99726976       0.00478115       0.87391156 </v>
    <v>       0.99622950       0.49614203       0.37452022 </v>
    <v>       0.99434877       0.49614802       0.87567996 </v>
    <v>       0.50385198       0.00565123       0.37432004 </v>
    <v>       0.50385797       0.00377050       0.87547978 </v>
    <v>       0.50703175       0.49416710       0.37462111 </v>
    <v>       0.50583290       0.49296825       0.87537889 </v>
    <v>       0.24614203       0.24622950       0.37452022 </v>
    <v>       0.24614802       0.24434877       0.87567996 </v>
    <v>       0.24416710       0.75703175       0.37462111 </v>
    <v>       0.24296825       0.75583290       0.87537889 </v>
    <v>       0.75273024       0.24521885       0.37608844 </v>
    <v>       0.75478115       0.24726976       0.87391156 </v>
    <v>       0.75565123       0.75385198       0.37432004 </v>
    <v>       0.75377050       0.75385797       0.87547978 </v>
    <v>       0.25460602       0.25639283       0.12518919 </v>
    <v>       0.25054935       0.25102318       0.62499739 </v>
    <v>       0.25690988       0.74309012       0.12500000 </v>
    <v>       0.25149937       0.74850063       0.62500000 </v>
    <v>       0.74930322       0.25069678       0.62500000 </v>
    <v>       0.74360717       0.74539398       0.12481081 </v>
    <v>       0.74897682       0.74945065       0.62500261 </v>
    <v>       0.11420174       0.13391917       0.24163179 </v>
    <v>       0.36483032       0.11413768       0.24964422 </v>
    <v>       0.61692202       0.13648873       0.23916799 </v>
    <v>       0.86639390       0.11639390       0.22889979 </v>
    <v>       0.13629575       0.38629575       0.25082965 </v>
    <v>       0.38711358       0.36286302       0.25222102 </v>
    <v>       0.63830551       0.38280354       0.23864190 </v>
    <v>       0.88391917       0.36420174       0.24163179 </v>
    <v>       0.11286302       0.63711358       0.25222102 </v>
    <v>       0.36312221       0.61312221       0.25525625 </v>
    <v>       0.61426226       0.63582776       0.25195244 </v>
    <v>       0.86413768       0.61483032       0.24964422 </v>
    <v>       0.13280354       0.88830551       0.23864190 </v>
    <v>       0.38582776       0.86426226       0.25195244 </v>
    <v>       0.63589238       0.88589238       0.25144918 </v>
    <v>       0.88648873       0.86692202       0.23916799 </v>
    <v>       0.14162013       0.10803952       0.50045631 </v>
    <v>       0.39158423       0.14172766       0.49979554 </v>
    <v>       0.64200903       0.10804728       0.50138997 </v>
    <v>       0.89229726       0.14229726       0.50219088 </v>
    <v>       0.10846473       0.35846473       0.49960397 </v>
    <v>       0.35872881       0.39095168       0.49849239 </v>
    <v>       0.60882780       0.35775898       0.50067220 </v>
    <v>       0.85803952       0.39162013       0.50045631 </v>
    <v>       0.14095168       0.60872881       0.49849239 </v>
    <v>       0.39077033       0.64077033       0.49602211 </v>
    <v>       0.64177877       0.60895261       0.49863729 </v>
    <v>       0.89172766       0.64158423       0.49979554 </v>
    <v>       0.10775898       0.85882780       0.50067220 </v>
    <v>       0.35895261       0.89177877       0.49863729 </v>
    <v>       0.60867788       0.85867788       0.49864354 </v>
    <v>       0.85804728       0.89200903       0.50138997 </v>
    <v>       0.10799097       0.14195272       0.74861003 </v>
    <v>       0.35841577       0.10827234       0.75020446 </v>
    <v>       0.60837987       0.14196048       0.74954369 </v>
    <v>       0.85770274       0.10770274       0.74780912 </v>
    <v>       0.14132212       0.39132212       0.75135646 </v>
    <v>       0.39104739       0.35822123       0.75136271 </v>
    <v>       0.64224102       0.39117220       0.74932780 </v>
    <v>       0.89195272       0.35799097       0.74861003 </v>
    <v>       0.10822123       0.64104739       0.75136271 </v>
    <v>       0.35922967       0.60922967       0.75397789 </v>
    <v>       0.60904832       0.64127119       0.75150761 </v>
    <v>       0.85827234       0.60841577       0.75020446 </v>
    <v>       0.14117220       0.89224102       0.74932780 </v>
    <v>       0.39127119       0.85904832       0.75150761 </v>
    <v>       0.64153527       0.89153527       0.75039603 </v>
    <v>       0.89196048       0.85837987       0.74954369 </v>
    <v>       0.13307798       0.11351127       0.01083201 </v>
    <v>       0.38516968       0.13586232       0.00035578 </v>
    <v>       0.63579826       0.11608083       0.00836821 </v>
    <v>       0.88360610       0.13360610       0.02110021 </v>
    <v>       0.11410762       0.36410762       0.99855082 </v>
    <v>       0.36417224       0.38573774       0.99804756 </v>
    <v>       0.61719646       0.36169449       0.01135810 </v>
    <v>       0.86351127       0.38307798       0.01083201 </v>
    <v>       0.13573774       0.61417224       0.99804756 </v>
    <v>       0.38687779       0.63687779       0.99474375 </v>
    <v>       0.63713698       0.61288642       0.99777898 </v>
    <v>       0.88586232       0.63516968       0.00035578 </v>
    <v>       0.11169449       0.86719646       0.01135810 </v>
    <v>       0.36288642       0.88713698       0.99777898 </v>
    <v>       0.61370425       0.86370425       0.99917035 </v>
    <v>       0.86608083       0.88579826       0.00836821 </v>
   </varray>
  </structure>
  <varray name="forces" >
   <v>      -0.01383863      -0.01383863       0.01065486 </v>
   <v>       0.00604467       0.00604467      -0.00955075 </v>
   <v>       0.00123553       0.00044132      -0.00788420 </v>
   <v>      -0.01631447      -0.00446330       0.00556601 </v>
   <v>       0.00044132       0.00123553      -0.00788420 </v>
   <v>      -0.00446330      -0.01631447       0.00556601 </v>
   <v>       0.01624753       0.01624753      -0.00452310 </v>
   <v>       0.01465108       0.01465108      -0.00358011 </v>
   <v>       0.00321530       0.00321530      -0.00409260 </v>
   <v>      -0.01078963      -0.01078963      -0.01136530 </v>
   <v>      -0.00473959      -0.00714639       0.00800640 </v>
   <v>      -0.00459195      -0.00292784      -0.00326643 </v>
   <v>      -0.00714639      -0.00473959       0.00800640 </v>
   <v>      -0.00292784      -0.00459195      -0.00326643 </v>
   <v>       0.00975377       0.00975377      -0.00972411 </v>
   <v>       0.01203413       0.01203413       0.01317238 </v>
   <v>      -0.00044132      -0.00123553       0.00788420 </v>
   <v>       0.00446330       0.01631447      -0.00556601 </v>
   <v>      -0.01624753      -0.01624753       0.00452310 </v>
   <v>      -0.01465108      -0.01465108       0.00358011 </v>
   <v>       0.01383863       0.01383863      -0.01065486 </v>
   <v>      -0.00604467      -0.00604467       0.00955075 </v>
   <v>      -0.00123553      -0.00044132       0.00788420 </v>
   <v>       0.01631447       0.00446330      -0.00556601 </v>
   <v>       0.00292784       0.00459195       0.00326643 </v>
   <v>       0.00714639       0.00473959      -0.00800640 </v>
   <v>      -0.01203413      -0.01203413      -0.01317238 </v>
   <v>      -0.00975377      -0.00975377       0.00972411 </v>
   <v>       0.01078963       0.01078963       0.01136530 </v>
   <v>      -0.00321530      -0.00321530       0.00409260 </v>
   <v>       0.00459195       0.00292784       0.00326643 </v>
   <v>       0.00473959       0.00714639      -0.00800640 </v>
   <v>       0.01893525      -0.00593767      -0.02341361 </v>
   <v>      -0.01464585       0.00814801      -0.00555605 </v>
   <v>      -0.00069661      -0.01680793       0.02776868 </v>
   <v>       0.01653798       0.00119893      -0.01713641 </v>
   <v>      -0.00043243      -0.00730382       0.02653597 </v>
   <v>       0.01372046      -0.02262176      -0.00342548 </v>
   <v>       0.01632646      -0.00224800      -0.01274018 </v>
   <v>       0.00814801      -0.01464585      -0.00555605 </v>
   <v>      -0.01680793      -0.00069661       0.02776868 </v>
   <v>      -0.02262176       0.01372046      -0.00342548 </v>
   <v>      -0.00224800       0.01632646      -0.01274018 </v>
   <v>      -0.00593767       0.01893525      -0.02341361 </v>
   <v>       0.00119893       0.01653798      -0.01713641 </v>
   <v>      -0.00730382      -0.00043243       0.02653597 </v>
   <v>      -0.01653798      -0.00119893       0.01713641 </v>
   <v>       0.00043243       0.00730382      -0.02653597 </v>
   <v>      -0.01372046       0.02262176       0.00342548 </v>
   <v>      -0.01632646       0.00224800       0.01274018 </v>
   <v>      -0.01893525       0.00593767       0.02341361 </v>
   <v>       0.01464585      -0.00814801       0.00555605 </v>
   <v>       0.00069661       0.01680793      -0.02776868 </v>
   <v>       0.00593767      -0.01893525       0.02341361 </v>
   <v>      -0.00119893      -0.01653798       0.01713641 </v>
   <v>       0.00730382       0.00043243      -0.02653597 </v>
   <v>      -0.00814801       0.01464585       0.00555605 </v>
   <v>       0.01680793       0.00069661      -0.02776868 </v>
   <v>       0.02262176      -0.01372046       0.00342548 </v>
   <v>       0.00224800      -0.01632646       0.01274018 </v>
   <v>      -0.02178399       0.01951043       0.00891945 </v>
   <v>      -0.01951043       0.02178399      -0.00891945 </v>
   <v>       0.02178399      -0.01951043      -0.00891945 </v>
   <v>       0.01951043      -0.02178399       0.00891945 </v>
   <v>      -0.01142018       0.01142018       0.00000000 </v>
   <v>       0.01199737       0.00466911      -0.01065712 </v>
   <v>       0.00843990       0.00650532       0.00114062 </v>
   <v>      -0.00466911      -0.01199737       0.01065712 </v>
   <v>      -0.00650532      -0.00843990      -0.00114062 </v>
   <v>      -0.01069183       0.01069183       0.00000000 </v>
   <v>      -0.01557178       0.01557178       0.00000000 </v>
   <v>       0.01452152      -0.01005918       0.02394063 </v>
   <v>       0.01005918      -0.01452152      -0.02394063 </v>
   <v>      -0.00203158       0.01299866      -0.00504086 </v>
   <v>      -0.00000039       0.00291683       0.00677069 </v>
   <v>      -0.00291683       0.00000039      -0.00677069 </v>
   <v>      -0.01299866       0.00203158       0.00504086 </v>
   <v>      -0.00668445      -0.00027969      -0.00568912 </v>
   <v>       0.00027969       0.00668445       0.00568912 </v>
   <v>       0.01299866      -0.00203158      -0.00504086 </v>
   <v>       0.00291683      -0.00000039       0.00677069 </v>
   <v>      -0.00027969      -0.00668445      -0.00568912 </v>
   <v>       0.00668445       0.00027969       0.00568912 </v>
   <v>      -0.01005918       0.01452152       0.02394063 </v>
   <v>      -0.01452152       0.01005918      -0.02394063 </v>
   <v>       0.00000039      -0.00291683      -0.00677069 </v>
   <v>       0.00203158      -0.01299866       0.00504086 </v>
   <v>       0.00466911       0.01199737      -0.01065712 </v>
   <v>       0.00650532       0.00843990       0.00114062 </v>
   <v>       0.01069183      -0.01069183       0.00000000 </v>
   <v>       0.01557178      -0.01557178       0.00000000 </v>
   <v>       0.01142018      -0.01142018       0.00000000 </v>
   <v>      -0.01199737      -0.00466911       0.01065712 </v>
   <v>      -0.00843990      -0.00650532      -0.00114062 </v>
   <v>       0.00320284       0.01432877      -0.00431675 </v>
   <v>      -0.00236306       0.00032922       0.00518783 </v>
   <v>      -0.00736496      -0.00309949       0.00062957 </v>
   <v>       0.00966724       0.00966724      -0.01801805 </v>
   <v>       0.00686676       0.00686676       0.00316937 </v>
   <v>      -0.02774193       0.00646375       0.00174148 </v>
   <v>      -0.01438820      -0.00525780      -0.01795022 </v>
   <v>       0.01432877       0.00320284      -0.00431675 </v>
   <v>       0.00646375      -0.02774193       0.00174148 </v>
   <v>       0.01649661       0.01649661       0.00560347 </v>
   <v>       0.00438084      -0.00197693       0.01221359 </v>
   <v>       0.00032922      -0.00236306       0.00518783 </v>
   <v>      -0.00525780      -0.01438820      -0.01795022 </v>
   <v>      -0.00197693       0.00438084       0.01221359 </v>
   <v>      -0.00993662      -0.00993662       0.01682397 </v>
   <v>      -0.00309949      -0.00736496       0.00062957 </v>
   <v>      -0.00759130      -0.00699499      -0.00651067 </v>
   <v>       0.00648123      -0.00687117      -0.00752972 </v>
   <v>       0.01674211       0.01096511      -0.01308781 </v>
   <v>      -0.00004333      -0.00004333      -0.01288461 </v>
   <v>       0.00453268       0.00453268      -0.01057848 </v>
   <v>      -0.00027406       0.00051557      -0.00789646 </v>
   <v>       0.00297390       0.00175702       0.00843006 </v>
   <v>      -0.00699499      -0.00759130      -0.00651067 </v>
   <v>       0.00051557      -0.00027406      -0.00789646 </v>
   <v>      -0.00249210      -0.00249210      -0.00486988 </v>
   <v>      -0.01295463       0.00163717      -0.00117715 </v>
   <v>      -0.00687117       0.00648123      -0.00752972 </v>
   <v>       0.00175702       0.00297390       0.00843006 </v>
   <v>       0.00163717      -0.01295463      -0.00117715 </v>
   <v>      -0.00508237      -0.00508237      -0.01192137 </v>
   <v>       0.01096511       0.01674211      -0.01308781 </v>
   <v>      -0.01674211      -0.01096511       0.01308781 </v>
   <v>      -0.00648123       0.00687117       0.00752972 </v>
   <v>       0.00759130       0.00699499       0.00651067 </v>
   <v>       0.00004333       0.00004333       0.01288461 </v>
   <v>       0.00508237       0.00508237       0.01192137 </v>
   <v>      -0.00163717       0.01295463       0.00117715 </v>
   <v>      -0.00175702      -0.00297390      -0.00843006 </v>
   <v>      -0.01096511      -0.01674211       0.01308781 </v>
   <v>       0.01295463      -0.00163717       0.00117715 </v>
   <v>       0.00249210       0.00249210       0.00486988 </v>
   <v>      -0.00051557       0.00027406       0.00789646 </v>
   <v>       0.00687117      -0.00648123       0.00752972 </v>
   <v>      -0.00297390      -0.00175702      -0.00843006 </v>
   <v>       0.00027406      -0.00051557       0.00789646 </v>
   <v>      -0.00453268      -0.00453268       0.01057848 </v>
   <v>       0.00699499       0.00759130       0.00651067 </v>
   <v>       0.00736496       0.00309949      -0.00062957 </v>
   <v>       0.00236306      -0.00032922      -0.00518783 </v>
   <v>      -0.00320284      -0.01432877       0.00431675 </v>
   <v>      -0.00966724      -0.00966724       0.01801805 </v>
   <v>       0.00993662       0.00993662      -0.01682397 </v>
   <v>       0.00197693      -0.00438084      -0.01221359 </v>
   <v>       0.00525780       0.01438820       0.01795022 </v>
   <v>       0.00309949       0.00736496      -0.00062957 </v>
   <v>      -0.00438084       0.00197693      -0.01221359 </v>
   <v>      -0.01649661      -0.01649661      -0.00560347 </v>
   <v>      -0.00646375       0.02774193      -0.00174148 </v>
   <v>      -0.00032922       0.00236306      -0.00518783 </v>
   <v>       0.01438820       0.00525780       0.01795022 </v>
   <v>       0.02774193      -0.00646375      -0.00174148 </v>
   <v>      -0.00686676      -0.00686676      -0.00316937 </v>
   <v>      -0.01432877      -0.00320284       0.00431675 </v>
  </varray>
  <varray name="stress" >
   <v>      -0.31004304      -0.11197287       0.01599337 </v>
   <v>      -0.11197287      -0.31004304       0.01599337 </v>
   <v>       0.01599287       0.01599287       0.14933519 </v>
  </varray>
  <energy>
   <i name="e_fr_energy">  -1153.48682703 </i>
   <i name="e_wo_entrp">  -1153.48682703 </i>
   <i name="e_0_energy">     -0.00000000 </i>
  </energy>
  <time name="totalsc">  709.13  711.59</time>
 </calculation>
 <calculation>
  <scstep>
   <time name="dav">  212.73  212.77</time>
   <time name="total">  215.86  215.93</time>
   <energy>
    <i name="alphaZ">   5649.41206757 </i>
    <i name="ewald"> -61389.51145700 </i>
    <i name="hartreedc"> -15142.31499080 </i>
    <i name="XCdc">   2853.03118976 </i>
    <i name="pawpsdc"> 111490.32939116 </i>
    <i name="pawaedc">-110239.09876148 </i>
    <i name="eentropy">     -0.00000000 </i>
    <i name="bandstr">  -7025.41837964 </i>
    <i name="atom">  72650.08363186 </i>
    <i name="e_fr_energy">  -1153.48730856 </i>
    <i name="e_wo_entrp">  -1153.48730856 </i>
    <i name="e_0_energy">  -1153.48730856 </i>
   </energy>
  </scstep>
  <scstep>
   <time name="diag">   24.85   24.86</time>
   <time name="diis">   39.25   39.26</time>
   <time name="orth">   14.11   14.11</time>
   <time name="total">   81.32   81.37</time>
   <energy>
    <i name="e_fr_energy">  -1153.48821562 </i>
    <i name="e_wo_entrp">  -1153.48821562 </i>
    <i name="e_0_energy">  -1153.48821562 </i>
   </energy>
  </scstep>
  <scstep>
   <time name="diag">   24.83   24.83</time>
   <time name="diis">   36.49   36.50</time>
   <time name="orth">   14.13   14.13</time>
   <time name="total">   78.55   78.66</time>
   <energy>
    <i name="e_fr_energy">  -1153.48816851 </i>
    <i name="e_wo_entrp">  -1153.48816851 </i>
    <i name="e_0_energy">  -1153.48816851 </i>
   </energy>
  </scstep>
  <scstep>
   <time name="diag">   24.84   24.84</time>
   <time name="diis">   29.49   29.51</time>
   <time name="orth">   14.08   14.08</time>
   <time name="total">   71.52   71.58</time>
   <energy>
    <i name="e_fr_energy">  -1153.48804913 </i>
    <i name="e_wo_entrp">  -1153.48804913 </i>
    <i name="e_0_energy">  -1153.48804913 </i>
   </energy>
  </scstep>
  <scstep>
   <time name="diag">   24.85   24.86</time>
   <time name="diis">   24.35   24.38</time>
   <time name="orth">   14.14   14.14</time>
   <time name="total">   66.46   66.56</time>
   <energy>
    <i name="e_fr_energy">  -1153.48802541 </i>
    <i name="e_wo_entrp">  -1153.48802541 </i>
    <i name="e_0_energy">  -1153.48802541 </i>
   </energy>
  </scstep>
  <scstep>
   <time name="diag">   24.83   24.85</time>
   <time name="diis">   23.88   23.88</time>
   <time name="orth">   14.12   14.12</time>
   <time name="total">   65.94   66.02</time>
   <energy>
    <i name="e_fr_energy">  -1153.48802912 </i>
    <i name="e_wo_entrp">  -1153.48802912 </i>
    <i name="e_0_energy">  -1153.48802912 </i>
   </energy>
  </scstep>
  <scstep>
   <time name="diag">   24.87   24.89</time>
   <time name="diis">   23.29   23.29</time>
   <time name="orth">   14.12   14.12</time>
   <time name="total">   65.44   65.49</time>
   <energy>
    <i name="e_fr_energy">  -1153.48803104 </i>
    <i name="e_wo_entrp">  -1153.48803104 </i>
    <i name="e_0_energy">  -1153.48803104 </i>
   </energy>
  </scstep>
  <scstep>
   <time name="diag">   24.88   24.89</time>
   <time name="diis">   22.83   22.85</time>
   <time name="orth">   14.10   14.11</time>
   <time name="total">   62.40   62.55</time>
   <energy>
    <i name="alphaZ">   5649.41206757 </i>
    <i name="ewald"> -61389.51145700 </i>
    <i name="hartreedc"> -15139.80499977 </i>
    <i name="XCdc">   2852.86430507 </i>
    <i name="pawpsdc"> 111521.22307973 </i>
    <i name="pawaedc">-110270.00545289 </i>
    <i name="eentropy">     -0.00000000 </i>
    <i name="bandstr">  -7027.74920790 </i>
    <i name="atom">  72650.08363186 </i>
    <i name="e_fr_energy">  -1153.48803332 </i>
    <i name="e_wo_entrp">  -1153.48803332 </i>
    <i name="e_0_energy">  -1153.48803332 </i>
   </energy>
  </scstep>
  <structure>
   <crystal>
    <varray name="basis" >
     <v>      11.19264391       0.00506806       0.00021288 </v>
     <v>       0.00506806      11.19264391       0.00021288 </v>
     <v>       0.00031992       0.00031992      15.96124710 </v>
    </varray>
    <i name="volume">   1999.54925144 </i>
    <varray name="rec_basis" >
     <v>       0.08934441      -0.00004046      -0.00000179 </v>
     <v>      -0.00004046       0.08934441      -0.00000179 </v>
     <v>      -0.00000119      -0.00000119       0.06265175 </v>
    </varray>
   </crystal>
   <varray name="positions" >
    <v>       0.00503883       0.25503883       0.12493709 </v>
    <v>       0.00089891       0.25089891       0.62488523 </v>
    <v>       0.00152616       0.74358823       0.12555791 </v>
    <v>       0.00032005       0.74948110       0.62510525 </v>
    <v>       0.49358823       0.25152616       0.12555791 </v>
    <v>       0.49948110       0.25032005       0.62510525 </v>
    <v>       0.49852755       0.74852755       0.12482690 </v>
    <v>       0.49963496       0.74963496       0.62481269 </v>
    <v>       0.00101703       0.25101703       0.37394364 </v>
    <v>       0.00116649       0.25116649       0.87515131 </v>
    <v>       0.99964160       0.74990817       0.37324076 </v>
    <v>       0.00047274       0.74977036       0.87765099 </v>
    <v>       0.49990817       0.24964160       0.37324076 </v>
    <v>       0.49977036       0.25047274       0.87765099 </v>
    <v>       0.49950039       0.74950039       0.37226973 </v>
    <v>       0.49998059       0.74998059       0.87687260 </v>
    <v>       0.25641177       0.99847384       0.12444209 </v>
    <v>       0.25051890       0.99967995       0.62489475 </v>
    <v>       0.25147245       0.50147245       0.12517310 </v>
    <v>       0.25036504       0.50036504       0.62518731 </v>
    <v>       0.74496117       0.99496117       0.12506291 </v>
    <v>       0.74910109       0.99910109       0.62511477 </v>
    <v>       0.74847384       0.50641177       0.12444209 </v>
    <v>       0.74967995       0.50051890       0.62489475 </v>
    <v>       0.25022964       0.99952726       0.37234901 </v>
    <v>       0.25009183       0.00035840       0.87675924 </v>
    <v>       0.25001941       0.50001941       0.37312740 </v>
    <v>       0.25049961       0.50049961       0.87773027 </v>
    <v>       0.74883351       0.99883351       0.37484869 </v>
    <v>       0.74898297       0.99898297       0.87605636 </v>
    <v>       0.74952726       0.50022964       0.37234901 </v>
    <v>       0.75035840       0.50009183       0.87675924 </v>
    <v>       0.99963117       0.00037010       0.50111386 </v>
    <v>       0.99833186       0.49816691       0.00080091 </v>
    <v>       0.99947958       0.49977770       0.49974900 </v>
    <v>       0.50161266       0.00149270       0.00053087 </v>
    <v>       0.50016591       0.00034310       0.49980018 </v>
    <v>       0.50172368       0.49846039       0.00052856 </v>
    <v>       0.50054826       0.49929192       0.49904814 </v>
    <v>       0.24816691       0.24833186       0.00080091 </v>
    <v>       0.24977770       0.24947958       0.49974900 </v>
    <v>       0.24846039       0.75172368       0.00052856 </v>
    <v>       0.24929192       0.75054826       0.49904814 </v>
    <v>       0.75037010       0.24963117       0.50111386 </v>
    <v>       0.75149270       0.75161266       0.00053087 </v>
    <v>       0.75034310       0.75016591       0.49980018 </v>
    <v>       0.24838734       0.24850730       0.24946913 </v>
    <v>       0.24983409       0.24965690       0.75019982 </v>
    <v>       0.24827632       0.75153961       0.24947144 </v>
    <v>       0.24945174       0.75070808       0.75095186 </v>
    <v>       0.75036883       0.24962990       0.74888614 </v>
    <v>       0.75166814       0.75183309       0.24919909 </v>
    <v>       0.75052042       0.75022230       0.75025100 </v>
    <v>       0.99962990       0.00036883       0.74888614 </v>
    <v>       0.99850730       0.49838734       0.24946913 </v>
    <v>       0.99965690       0.49983409       0.75019982 </v>
    <v>       0.50183309       0.00166814       0.24919909 </v>
    <v>       0.50022230       0.00052042       0.75025100 </v>
    <v>       0.50153961       0.49827632       0.24947144 </v>
    <v>       0.50070808       0.49945174       0.75095186 </v>
    <v>       0.99767878       0.00226348       0.99225586 </v>
    <v>       0.99773652       0.00232122       0.25774414 </v>
    <v>       0.75232122       0.24773652       0.25774414 </v>
    <v>       0.75226348       0.24767878       0.99225586 </v>
    <v>       0.00064754       0.99935246       0.62500000 </v>
    <v>       0.00644452       0.50462612       0.12515697 </v>
    <v>       0.00105954       0.50057737       0.62500084 </v>
    <v>       0.49537388       0.99355548       0.12484303 </v>
    <v>       0.49942263       0.99894046       0.62499916 </v>
    <v>       0.49304402       0.50695598       0.12500000 </v>
    <v>       0.49843348       0.50156652       0.62500000 </v>
    <v>       0.99528145       0.00268686       0.37616081 </v>
    <v>       0.99731314       0.00471855       0.87383919 </v>
    <v>       0.99622072       0.49619805       0.37450499 </v>
    <v>       0.99434876       0.49616059       0.87570043 </v>
    <v>       0.50383941       0.00565124       0.37429957 </v>
    <v>       0.50380195       0.00377928       0.87549501 </v>
    <v>       0.50700294       0.49416591       0.37460391 </v>
    <v>       0.50583409       0.49299706       0.87539609 </v>
    <v>       0.24619805       0.24622072       0.37450499 </v>
    <v>       0.24616059       0.24434876       0.87570043 </v>
    <v>       0.24416591       0.75700294       0.37460391 </v>
    <v>       0.24299706       0.75583409       0.87539609 </v>
    <v>       0.75268686       0.24528145       0.37616081 </v>
    <v>       0.75471855       0.24731314       0.87383919 </v>
    <v>       0.75565124       0.75383941       0.37429957 </v>
    <v>       0.75377928       0.75380195       0.87549501 </v>
    <v>       0.25462612       0.25644452       0.12515697 </v>
    <v>       0.25057737       0.25105954       0.62500084 </v>
    <v>       0.25695598       0.74304402       0.12500000 </v>
    <v>       0.25156652       0.74843348       0.62500000 </v>
    <v>       0.74935246       0.25064754       0.62500000 </v>
    <v>       0.74355548       0.74537388       0.12484303 </v>
    <v>       0.74894046       0.74942263       0.62499916 </v>
    <v>       0.11421552       0.13398091       0.24161874 </v>
    <v>       0.36482014       0.11413910       0.24965990 </v>
    <v>       0.61689028       0.13647538       0.23916989 </v>
    <v>       0.86643554       0.11643554       0.22884533 </v>
    <v>       0.13632533       0.38632533       0.25083923 </v>
    <v>       0.38699401       0.36289093       0.25222628 </v>
    <v>       0.63824351       0.38278091       0.23858765 </v>
    <v>       0.88398091       0.36421552       0.24161874 </v>
    <v>       0.11289093       0.63699401       0.25222628 </v>
    <v>       0.36319327       0.61319327       0.25527319 </v>
    <v>       0.61428115       0.63581923       0.25198935 </v>
    <v>       0.86413910       0.61482014       0.24965990 </v>
    <v>       0.13278091       0.88824351       0.23858765 </v>
    <v>       0.38581923       0.86428115       0.25198935 </v>
    <v>       0.63584958       0.88584958       0.25150004 </v>
    <v>       0.88647538       0.86689028       0.23916989 </v>
    <v>       0.14158743       0.10800939       0.50043663 </v>
    <v>       0.39161217       0.14169804       0.49977278 </v>
    <v>       0.64208116       0.10809450       0.50135041 </v>
    <v>       0.89229707       0.14229707       0.50215194 </v>
    <v>       0.10848425       0.35848425       0.49957199 </v>
    <v>       0.35872763       0.39095390       0.49846852 </v>
    <v>       0.60884061       0.35776655       0.50069768 </v>
    <v>       0.85800939       0.39158743       0.50043663 </v>
    <v>       0.14095390       0.60872763       0.49846852 </v>
    <v>       0.39075960       0.64075960       0.49600739 </v>
    <v>       0.64172294       0.60895970       0.49863373 </v>
    <v>       0.89169804       0.64161217       0.49977278 </v>
    <v>       0.10776655       0.85884061       0.50069768 </v>
    <v>       0.35895970       0.89172294       0.49863373 </v>
    <v>       0.60865599       0.85865599       0.49860750 </v>
    <v>       0.85809450       0.89208116       0.50135041 </v>
    <v>       0.10791884       0.14190550       0.74864959 </v>
    <v>       0.35838783       0.10830196       0.75022722 </v>
    <v>       0.60841257       0.14199061       0.74956337 </v>
    <v>       0.85770293       0.10770293       0.74784806 </v>
    <v>       0.14134401       0.39134401       0.75139250 </v>
    <v>       0.39104030       0.35827706       0.75136627 </v>
    <v>       0.64223345       0.39115939       0.74930232 </v>
    <v>       0.89190550       0.35791884       0.74864959 </v>
    <v>       0.10827706       0.64104030       0.75136627 </v>
    <v>       0.35924040       0.60924040       0.75399261 </v>
    <v>       0.60904610       0.64127237       0.75153148 </v>
    <v>       0.85830196       0.60838783       0.75022722 </v>
    <v>       0.14115939       0.89223345       0.74930232 </v>
    <v>       0.39127237       0.85904610       0.75153148 </v>
    <v>       0.64151575       0.89151575       0.75042801 </v>
    <v>       0.89199061       0.85841257       0.74956337 </v>
    <v>       0.13310972       0.11352462       0.01083011 </v>
    <v>       0.38517986       0.13586090       0.00034010 </v>
    <v>       0.63578448       0.11601909       0.00838126 </v>
    <v>       0.88356446       0.13356446       0.02115467 </v>
    <v>       0.11415042       0.36415042       0.99849996 </v>
    <v>       0.36418077       0.38571885       0.99801065 </v>
    <v>       0.61721909       0.36175649       0.01141235 </v>
    <v>       0.86352462       0.38310972       0.01083011 </v>
    <v>       0.13571885       0.61418077       0.99801065 </v>
    <v>       0.38680673       0.63680673       0.99472681 </v>
    <v>       0.63710907       0.61300599       0.99777372 </v>
    <v>       0.88586090       0.63517986       0.00034010 </v>
    <v>       0.11175649       0.86721909       0.01141235 </v>
    <v>       0.36300599       0.88710907       0.99777372 </v>
    <v>       0.61367467       0.86367467       0.99916077 </v>
    <v>       0.86601909       0.88578448       0.00838126 </v>
   </varray>
  </structure>
  <varray name="forces" >
   <v>       0.00152100       0.00152100       0.00266198 </v>
   <v>      -0.01495074      -0.01495074      -0.00067919 </v>
   <v>       0.00329927      -0.00863434      -0.00309411 </v>
   <v>      -0.00444132       0.00469848       0.00063237 </v>
   <v>      -0.00863434       0.00329927      -0.00309411 </v>
   <v>       0.00469848      -0.00444132       0.00063237 </v>
   <v>       0.00923547       0.00923547      -0.00201171 </v>
   <v>      -0.00242839      -0.00242839       0.00050049 </v>
   <v>       0.00259005       0.00259005       0.00314574 </v>
   <v>      -0.00015632      -0.00015632      -0.01050286 </v>
   <v>      -0.00555901      -0.01073136       0.00465275 </v>
   <v>      -0.00394464      -0.00949706       0.00051994 </v>
   <v>      -0.01073136      -0.00555901       0.00465275 </v>
   <v>      -0.00949706      -0.00394464       0.00051994 </v>
   <v>       0.00710677       0.00710677      -0.01654657 </v>
   <v>       0.00339340       0.00339340       0.01713828 </v>
   <v>       0.00863434      -0.00329927       0.00309411 </v>
   <v>      -0.00469848       0.00444132      -0.00063237 </v>
   <v>      -0.00923547      -0.00923547       0.00201171 </v>
   <v>       0.00242839       0.00242839      -0.00050049 </v>
   <v>      -0.00152100      -0.00152100      -0.00266198 </v>
   <v>       0.01495074       0.01495074       0.00067919 </v>
   <v>      -0.00329927       0.00863434       0.00309411 </v>
   <v>       0.00444132      -0.00469848      -0.00063237 </v>
   <v>       0.00949706       0.00394464      -0.00051994 </v>
   <v>       0.01073136       0.00555901      -0.00465275 </v>
   <v>      -0.00339340      -0.00339340      -0.01713828 </v>
   <v>      -0.00710677      -0.00710677       0.01654657 </v>
   <v>       0.00015632       0.00015632       0.01050286 </v>
   <v>      -0.00259005      -0.00259005      -0.00314574 </v>
   <v>       0.00394464       0.00949706      -0.00051994 </v>
   <v>       0.00555901       0.01073136      -0.00465275 </v>
   <v>      -0.01497406       0.00968564       0.01270343 </v>
   <v>       0.00846467       0.00227416       0.00063264 </v>
   <v>       0.00245769       0.01109049      -0.01526740 </v>
   <v>      -0.01529461      -0.01575974       0.01050537 </v>
   <v>       0.00879100       0.00369820      -0.02751461 </v>
   <v>      -0.01372818       0.01562741       0.01472372 </v>
   <v>      -0.01801333       0.00676939      -0.00185369 </v>
   <v>       0.00227416       0.00846467       0.00063264 </v>
   <v>       0.01109049       0.00245769      -0.01526740 </v>
   <v>       0.01562741      -0.01372818       0.01472372 </v>
   <v>       0.00676939      -0.01801333      -0.00185369 </v>
   <v>       0.00968564      -0.01497406       0.01270343 </v>
   <v>      -0.01575974      -0.01529461       0.01050537 </v>
   <v>       0.00369820       0.00879100      -0.02751461 </v>
   <v>       0.01529461       0.01575974      -0.01050537 </v>
   <v>      -0.00879100      -0.00369820       0.02751461 </v>
   <v>       0.01372818      -0.01562741      -0.01472372 </v>
   <v>       0.01801333      -0.00676939       0.00185369 </v>
   <v>       0.01497406      -0.00968564      -0.01270343 </v>
   <v>      -0.00846467      -0.00227416      -0.00063264 </v>
   <v>      -0.00245769      -0.01109049       0.01526740 </v>
   <v>      -0.00968564       0.01497406      -0.01270343 </v>
   <v>       0.01575974       0.01529461      -0.01050537 </v>
   <v>      -0.00369820      -0.00879100       0.02751461 </v>
   <v>      -0.00227416      -0.00846467      -0.00063264 </v>
   <v>      -0.01109049      -0.00245769       0.01526740 </v>
   <v>      -0.01562741       0.01372818      -0.01472372 </v>
[...]
       <r>   -15.7869     0.0000    32.0000 </r>
       <r>   -15.6350     0.0000    32.0000 </r>
       <r>   -15.4831     0.0000    32.0000 </r>
       <r>   -15.3312     0.0000    32.0000 </r>
       <r>   -15.1793     0.0026    32.0004 </r>
       <r>   -15.0274    13.5686    34.0614 </r>
       <r>   -14.8755    52.4249    42.0246 </r>
       <r>   -14.7236    51.8792    49.9049 </r>
       <r>   -14.5717    30.9462    54.6056 </r>
       <r>   -14.4198    26.6604    58.6552 </r>
       <r>   -14.2679    30.7820    63.3309 </r>
       <r>   -14.1160    87.4814    76.6191 </r>
       <r>   -13.9641   151.3065    99.6021 </r>
       <r>   -13.8122   136.3609   120.3149 </r>
       <r>   -13.6603    23.1515   123.8316 </r>
       <r>   -13.5084     7.8632   125.0260 </r>
       <r>   -13.3565     6.3514   125.9908 </r>
       <r>   -13.2046     0.0608   126.0000 </r>
       <r>   -13.0527     0.0000   126.0000 </r>
       <r>   -12.9008     0.0000   126.0000 </r>
       <r>   -12.7489     0.0069   126.0011 </r>
       <r>   -12.5970    14.7182   128.2367 </r>
       <r>   -12.4452   108.2881   144.6854 </r>
       <r>   -12.2933   164.4985   169.6722 </r>
       <r>   -12.1414   140.8418   191.0657 </r>
       <r>   -11.9895   124.5068   209.9779 </r>
       <r>   -11.8376    63.8979   219.6838 </r>
       <r>   -11.6857    14.6661   221.9116 </r>
       <r>   -11.5338     0.5822   222.0000 </r>
       <r>   -11.3819     0.0000   222.0000 </r>
       <r>   -11.2300     0.0000   222.0000 </r>
       <r>   -11.0781     0.0000   222.0000 </r>
       <r>   -10.9262     0.0000   222.0000 </r>
       <r>   -10.7743     0.0000   222.0000 </r>
       <r>   -10.6224     0.0000   222.0000 </r>
       <r>   -10.4705     0.0000   222.0000 </r>
       <r>   -10.3186     0.0000   222.0000 </r>
       <r>   -10.1667     0.0000   222.0000 </r>
       <r>   -10.0148     0.0000   222.0000 </r>
       <r>    -9.8629     0.0000   222.0000 </r>
       <r>    -9.7110     0.0000   222.0000 </r>
       <r>    -9.5591     0.0000   222.0000 </r>
       <r>    -9.4072     0.0000   222.0000 </r>
       <r>    -9.2553     0.0000   222.0000 </r>
       <r>    -9.1034     0.0000   222.0000 </r>
       <r>    -8.9515     0.0000   222.0000 </r>
       <r>    -8.7996     0.0000   222.0000 </r>
       <r>    -8.6477     0.0000   222.0000 </r>
       <r>    -8.4958     0.0000   222.0000 </r>
       <r>    -8.3439     0.0000   222.0000 </r>
       <r>    -8.1920     0.0000   222.0000 </r>
       <r>    -8.0401     0.0000   222.0000 </r>
       <r>    -7.8882     0.0000   222.0000 </r>
       <r>    -7.7363     0.0000   222.0000 </r>
       <r>    -7.5844     0.0000   222.0000 </r>
       <r>    -7.4325     0.0000   222.0000 </r>
       <r>    -7.2806     0.0000   222.0000 </r>
       <r>    -7.1288     0.0000   222.0000 </r>
       <r>    -6.9769     0.0000   222.0000 </r>
       <r>    -6.8250     0.0000   222.0000 </r>
       <r>    -6.6731     0.0000   222.0000 </r>
       <r>    -6.5212     0.0000   222.0000 </r>
       <r>    -6.3693     0.0000   222.0000 </r>
       <r>    -6.2174     0.0000   222.0000 </r>
       <r>    -6.0655     0.0000   222.0000 </r>
       <r>    -5.9136     0.0000   222.0000 </r>
       <r>    -5.7617     0.0000   222.0000 </r>
       <r>    -5.6098     0.0000   222.0000 </r>
       <r>    -5.4579     0.0000   222.0000 </r>
       <r>    -5.3060     0.0000   222.0000 </r>
       <r>    -5.1541     0.0000   222.0000 </r>
       <r>    -5.0022     0.0000   222.0000 </r>
       <r>    -4.8503     0.0000   222.0000 </r>
       <r>    -4.6984     0.0000   222.0000 </r>
       <r>    -4.5465     0.0000   222.0000 </r>
       <r>    -4.3946     0.0000   222.0000 </r>
       <r>    -4.2427     0.0000   222.0000 </r>
       <r>    -4.0908     0.0000   222.0000 </r>
       <r>    -3.9389     0.0000   222.0000 </r>
       <r>    -3.7870     0.0000   222.0000 </r>
       <r>    -3.6351     0.0000   222.0000 </r>
       <r>    -3.4832     0.0000   222.0000 </r>
       <r>    -3.3313     0.0000   222.0000 </r>
       <r>    -3.1794     0.0000   222.0000 </r>
       <r>    -3.0275     0.0000   222.0000 </r>
       <r>    -2.8756     0.0000   222.0000 </r>
       <r>    -2.7237     0.0000   222.0000 </r>
       <r>    -2.5718     0.0000   222.0000 </r>
       <r>    -2.4199     0.0000   222.0000 </r>
       <r>    -2.2680     1.1136   222.1691 </r>
       <r>    -2.1161    13.7645   224.2599 </r>
       <r>    -1.9642    35.7971   229.6974 </r>
       <r>    -1.8123    47.8561   236.9666 </r>
       <r>    -1.6605    60.0050   246.0812 </r>
       <r>    -1.5086    57.7664   254.8558 </r>
       <r>    -1.3567    52.3541   262.8082 </r>
       <r>    -1.2048    73.0241   273.9004 </r>
       <r>    -1.0529    68.6568   284.3291 </r>
       <r>    -0.9010    69.9337   294.9519 </r>
       <r>    -0.7491    76.5394   306.5780 </r>
       <r>    -0.5972   103.3779   322.2808 </r>
       <r>    -0.4453   135.9085   342.9249 </r>
       <r>    -0.2934    77.5982   354.7119 </r>
       <r>    -0.1415    47.1927   361.8803 </r>
       <r>     0.0104    49.1160   369.3409 </r>
       <r>     0.1623    36.7913   374.9294 </r>
       <r>     0.3142    46.8179   382.0409 </r>
       <r>     0.4661    55.6007   390.4865 </r>
       <r>     0.6180    58.6541   399.3959 </r>
       <r>     0.7699    45.4513   406.2998 </r>
       <r>     0.9218    48.3635   413.6461 </r>
       <r>     1.0737    57.2360   422.3401 </r>
       <r>     1.2256    82.3427   434.8477 </r>
       <r>     1.3775    84.0439   447.6138 </r>
       <r>     1.5294   107.3389   463.9182 </r>
       <r>     1.6813    79.0089   475.9195 </r>
       <r>     1.8332    71.6761   486.8069 </r>
       <r>     1.9851    52.4576   494.7750 </r>
       <r>     2.1370    39.3815   500.7570 </r>
       <r>     2.2889    14.4036   502.9448 </r>
       <r>     2.4408     6.9463   503.9999 </r>
       <r>     2.5927     0.0003   504.0000 </r>
       <r>     2.7446     0.0000   504.0000 </r>
       <r>     2.8965     0.0000   504.0000 </r>
       <r>     3.0484     0.0000   504.0000 </r>
       <r>     3.2003     0.0000   504.0000 </r>
       <r>     3.3522     0.0000   504.0000 </r>
       <r>     3.5041     0.0000   504.0000 </r>
       <r>     3.6559     0.0000   504.0000 </r>
       <r>     3.8078     0.0000   504.0000 </r>
       <r>     3.9597     0.0000   504.0000 </r>
       <r>     4.1116     0.0000   504.0000 </r>
       <r>     4.2635     0.2147   504.0326 </r>
       <r>     4.4154     6.4113   505.0065 </r>
       <r>     4.5673    11.4122   506.7400 </r>
       <r>     4.7192    31.0600   511.4579 </r>
       <r>     4.8711    43.0612   517.9987 </r>
       <r>     5.0230    26.3622   522.0031 </r>
       <r>     5.1749    25.2713   525.8417 </r>
       <r>     5.3268    45.5578   532.7618 </r>
       <r>     5.4787    67.2983   542.9843 </r>
       <r>     5.6306    47.9900   550.2738 </r>
       <r>     5.7825    67.8800   560.5846 </r>
       <r>     5.9344   100.4369   575.8407 </r>
       <r>     6.0863    99.1271   590.8978 </r>
       <r>     6.2382    70.0829   601.5432 </r>
       <r>     6.3901    51.9064   609.4276 </r>
       <r>     6.5420    35.6979   614.8500 </r>
       <r>     6.6939    25.9779   618.7960 </r>
       <r>     6.8458    24.3493   622.4946 </r>
       <r>     6.9977    26.4346   626.5099 </r>
       <r>     7.1496    18.9434   629.3874 </r>
       <r>     7.3015    12.3280   631.2600 </r>
       <r>     7.4534    23.2084   634.7853 </r>
       <r>     7.6053     9.0804   636.1646 </r>
       <r>     7.7572    11.1166   637.8531 </r>
       <r>     7.9091    14.6271   640.0750 </r>
       <r>     8.0610    31.7812   644.9024 </r>
       <r>     8.2129    22.6056   648.3362 </r>
       <r>     8.3648    22.0633   651.6875 </r>
       <r>     8.5167    22.2339   655.0648 </r>
       <r>     8.6686    26.1367   659.0349 </r>
       <r>     8.8205    28.9330   663.4297 </r>
       <r>     8.9724    23.1928   666.9526 </r>
       <r>     9.1242    38.0648   672.7346 </r>
       <r>     9.2761    36.3169   678.2510 </r>
       <r>     9.4280    43.7217   684.8922 </r>
       <r>     9.5799    40.4237   691.0325 </r>
       <r>     9.7318    44.5956   697.8064 </r>
       <r>     9.8837    55.9874   706.3107 </r>
       <r>    10.0356    70.6580   717.0435 </r>
       <r>    10.1875    79.3779   729.1008 </r>
       <r>    10.3394    67.6441   739.3757 </r>
       <r>    10.4913    58.4903   748.2602 </r>
       <r>    10.6432    54.2390   756.4990 </r>
       <r>    10.7951    56.2784   765.0475 </r>
       <r>    10.9470    19.4191   767.9972 </r>
       <r>    11.0989     0.0184   768.0000 </r>
       <r>    11.2508     0.0000   768.0000 </r>
       <r>    11.4027     0.0000   768.0000 </r>
       <r>    11.5546     0.0000   768.0000 </r>
       <r>    11.7065     0.0000   768.0000 </r>
       <r>    11.8584     0.0000   768.0000 </r>
       <r>    12.0103     0.0000   768.0000 </r>
       <r>    12.1622     0.0000   768.0000 </r>
       <r>    12.3141     0.0000   768.0000 </r>
       <r>    12.4660     0.0000   768.0000 </r>
       <r>    12.6179     0.0000   768.0000 </r>
       <r>    12.7698     0.0000   768.0000 </r>
       <r>    12.9217     0.0000   768.0000 </r>
      </set>
     </set>
    </array>
   </total>
  </dos>
 </calculation>
 <structure name="finalpos" >
  <crystal>
   <varray name="basis" >
    <v>      11.19264391       0.00506806       0.00021288 </v>
    <v>       0.00506806      11.19264391       0.00021288 </v>
    <v>       0.00031992       0.00031992      15.96124710 </v>
   </varray>
   <i name="volume">   1999.54925144 </i>
   <varray name="rec_basis" >
    <v>       0.08934441      -0.00004046      -0.00000179 </v>
    <v>      -0.00004046       0.08934441      -0.00000179 </v>
    <v>      -0.00000119      -0.00000119       0.06265175 </v>
   </varray>
  </crystal>
  <varray name="positions" >
   <v>       0.00503883       0.25503883       0.12493709 </v>
   <v>       0.00089891       0.25089891       0.62488523 </v>
   <v>       0.00152616       0.74358823       0.12555791 </v>
   <v>       0.00032005       0.74948110       0.62510525 </v>
   <v>       0.49358823       0.25152616       0.12555791 </v>
   <v>       0.49948110       0.25032005       0.62510525 </v>
   <v>       0.49852755       0.74852755       0.12482690 </v>
   <v>       0.49963496       0.74963496       0.62481269 </v>
   <v>       0.00101703       0.25101703       0.37394364 </v>
   <v>       0.00116649       0.25116649       0.87515131 </v>
   <v>       0.99964160       0.74990817       0.37324076 </v>
   <v>       0.00047274       0.74977036       0.87765099 </v>
   <v>       0.49990817       0.24964160       0.37324076 </v>
   <v>       0.49977036       0.25047274       0.87765099 </v>
   <v>       0.49950039       0.74950039       0.37226973 </v>
   <v>       0.49998059       0.74998059       0.87687260 </v>
   <v>       0.25641177       0.99847384       0.12444209 </v>
   <v>       0.25051890       0.99967995       0.62489475 </v>
   <v>       0.25147245       0.50147245       0.12517310 </v>
   <v>       0.25036504       0.50036504       0.62518731 </v>
   <v>       0.74496117       0.99496117       0.12506291 </v>
   <v>       0.74910109       0.99910109       0.62511477 </v>
   <v>       0.74847384       0.50641177       0.12444209 </v>
   <v>       0.74967995       0.50051890       0.62489475 </v>
   <v>       0.25022964       0.99952726       0.37234901 </v>
   <v>       0.25009183       0.00035840       0.87675924 </v>
   <v>       0.25001941       0.50001941       0.37312740 </v>
   <v>       0.25049961       0.50049961       0.87773027 </v>
   <v>       0.74883351       0.99883351       0.37484869 </v>
   <v>       0.74898297       0.99898297       0.87605636 </v>
   <v>       0.74952726       0.50022964       0.37234901 </v>
   <v>       0.75035840       0.50009183       0.87675924 </v>
   <v>       0.99963117       0.00037010       0.50111386 </v>
   <v>       0.99833186       0.49816691       0.00080091 </v>
   <v>       0.99947958       0.49977770       0.49974900 </v>
   <v>       0.50161266       0.00149270       0.00053087 </v>
   <v>       0.50016591       0.00034310       0.49980018 </v>
   <v>       0.50172368       0.49846039       0.00052856 </v>
   <v>       0.50054826       0.49929192       0.49904814 </v>
   <v>       0.24816691       0.24833186       0.00080091 </v>
   <v>       0.24977770       0.24947958       0.49974900 </v>
   <v>       0.24846039       0.75172368       0.00052856 </v>
   <v>       0.24929192       0.75054826       0.49904814 </v>
   <v>       0.75037010       0.24963117       0.50111386 </v>
   <v>       0.75149270       0.75161266       0.00053087 </v>
   <v>       0.75034310       0.75016591       0.49980018 </v>
   <v>       0.24838734       0.24850730       0.24946913 </v>
   <v>       0.24983409       0.24965690       0.75019982 </v>
   <v>       0.24827632       0.75153961       0.24947144 </v>
   <v>       0.24945174       0.75070808       0.75095186 </v>
   <v>       0.75036883       0.24962990       0.74888614 </v>
   <v>       0.75166814       0.75183309       0.24919909 </v>
   <v>       0.75052042       0.75022230       0.75025100 </v>
   <v>       0.99962990       0.00036883       0.74888614 </v>
   <v>       0.99850730       0.49838734       0.24946913 </v>
   <v>       0.99965690       0.49983409       0.75019982 </v>
   <v>       0.50183309       0.00166814       0.24919909 </v>
   <v>       0.50022230       0.00052042       0.75025100 </v>
   <v>       0.50153961       0.49827632       0.24947144 </v>
   <v>       0.50070808       0.49945174       0.75095186 </v>
   <v>       0.99767878       0.00226348       0.99225586 </v>
   <v>       0.99773652       0.00232122       0.25774414 </v>
   <v>       0.75232122       0.24773652       0.25774414 </v>
   <v>       0.75226348       0.24767878       0.99225586 </v>
   <v>       0.00064754       0.99935246       0.62500000 </v>
   <v>       0.00644452       0.50462612       0.12515697 </v>
   <v>       0.00105954       0.50057737       0.62500084 </v>
   <v>       0.49537388       0.99355548       0.12484303 </v>
   <v>       0.49942263       0.99894046       0.62499916 </v>
   <v>       0.49304402       0.50695598       0.12500000 </v>
   <v>       0.49843348       0.50156652       0.62500000 </v>
   <v>       0.99528145       0.00268686       0.37616081 </v>
   <v>       0.99731314       0.00471855       0.87383919 </v>
   <v>       0.99622072       0.49619805       0.37450499 </v>
   <v>       0.99434876       0.49616059       0.87570043 </v>
   <v>       0.50383941       0.00565124       0.37429957 </v>
   <v>       0.50380195       0.00377928       0.87549501 </v>
   <v>       0.50700294       0.49416591       0.37460391 </v>
   <v>       0.50583409       0.49299706       0.87539609 </v>
   <v>       0.24619805       0.24622072       0.37450499 </v>
   <v>       0.24616059       0.24434876       0.87570043 </v>
   <v>       0.24416591       0.75700294       0.37460391 </v>
   <v>       0.24299706       0.75583409       0.87539609 </v>
   <v>       0.75268686       0.24528145       0.37616081 </v>
   <v>       0.75471855       0.24731314       0.87383919 </v>
   <v>       0.75565124       0.75383941       0.37429957 </v>
   <v>       0.75377928       0.75380195       0.87549501 </v>
   <v>       0.25462612       0.25644452       0.12515697 </v>
   <v>       0.25057737       0.25105954       0.62500084 </v>
   <v>       0.25695598       0.74304402       0.12500000 </v>
   <v>       0.25156652       0.74843348       0.62500000 </v>
   <v>       0.74935246       0.25064754       0.62500000 </v>
   <v>       0.74355548       0.74537388       0.12484303 </v>
   <v>       0.74894046       0.74942263       0.62499916 </v>
   <v>       0.11421552       0.13398091       0.24161874 </v>
   <v>       0.36482014       0.11413910       0.24965990 </v>
   <v>       0.61689028       0.13647538       0.23916989 </v>
   <v>       0.86643554       0.11643554       0.22884533 </v>
   <v>       0.13632533       0.38632533       0.25083923 </v>
   <v>       0.38699401       0.36289093       0.25222628 </v>
   <v>       0.63824351       0.38278091       0.23858765 </v>
   <v>       0.88398091       0.36421552       0.24161874 </v>
   <v>       0.11289093       0.63699401       0.25222628 </v>
   <v>       0.36319327       0.61319327       0.25527319 </v>
   <v>       0.61428115       0.63581923       0.25198935 </v>
   <v>       0.86413910       0.61482014       0.24965990 </v>
   <v>       0.13278091       0.88824351       0.23858765 </v>
   <v>       0.38581923       0.86428115       0.25198935 </v>
   <v>       0.63584958       0.88584958       0.25150004 </v>
   <v>       0.88647538       0.86689028       0.23916989 </v>
   <v>       0.14158743       0.10800939       0.50043663 </v>
   <v>       0.39161217       0.14169804       0.49977278 </v>
   <v>       0.64208116       0.10809450       0.50135041 </v>
   <v>       0.89229707       0.14229707       0.50215194 </v>
   <v>       0.10848425       0.35848425       0.49957199 </v>
   <v>       0.35872763       0.39095390       0.49846852 </v>
   <v>       0.60884061       0.35776655       0.50069768 </v>
   <v>       0.85800939       0.39158743       0.50043663 </v>
   <v>       0.14095390       0.60872763       0.49846852 </v>
   <v>       0.39075960       0.64075960       0.49600739 </v>
   <v>       0.64172294       0.60895970       0.49863373 </v>
   <v>       0.89169804       0.64161217       0.49977278 </v>
   <v>       0.10776655       0.85884061       0.50069768 </v>
   <v>       0.35895970       0.89172294       0.49863373 </v>
   <v>       0.60865599       0.85865599       0.49860750 </v>
   <v>       0.85809450       0.89208116       0.50135041 </v>
   <v>       0.10791884       0.14190550       0.74864959 </v>
   <v>       0.35838783       0.10830196       0.75022722 </v>
   <v>       0.60841257       0.14199061       0.74956337 </v>
   <v>       0.85770293       0.10770293       0.74784806 </v>
   <v>       0.14134401       0.39134401       0.75139250 </v>
   <v>       0.39104030       0.35827706       0.75136627 </v>
   <v>       0.64223345       0.39115939       0.74930232 </v>
   <v>       0.89190550       0.35791884       0.74864959 </v>
   <v>       0.10827706       0.64104030       0.75136627 </v>
   <v>       0.35924040       0.60924040       0.75399261 </v>
   <v>       0.60904610       0.64127237       0.75153148 </v>
   <v>       0.85830196       0.60838783       0.75022722 </v>
   <v>       0.14115939       0.89223345       0.74930232 </v>
   <v>       0.39127237       0.85904610       0.75153148 </v>
   <v>       0.64151575       0.89151575       0.75042801 </v>
   <v>       0.89199061       0.85841257       0.74956337 </v>
   <v>       0.13310972       0.11352462       0.01083011 </v>
   <v>       0.38517986       0.13586090       0.00034010 </v>
   <v>       0.63578448       0.11601909       0.00838126 </v>
   <v>       0.88356446       0.13356446       0.02115467 </v>
   <v>       0.11415042       0.36415042       0.99849996 </v>
   <v>       0.36418077       0.38571885       0.99801065 </v>
   <v>       0.61721909       0.36175649       0.01141235 </v>
   <v>       0.86352462       0.38310972       0.01083011 </v>
   <v>       0.13571885       0.61418077       0.99801065 </v>
   <v>       0.38680673       0.63680673       0.99472681 </v>
   <v>       0.63710907       0.61300599       0.99777372 </v>
   <v>       0.88586090       0.63517986       0.00034010 </v>
   <v>       0.11175649       0.86721909       0.01141235 </v>
   <v>       0.36300599       0.88710907       0.99777372 </v>
   <v>       0.61367467       0.86367467       0.99916077 </v>
   <v>       0.86601909       0.88578448       0.00838126 </v>
  </varray>
 </structure>
</modeling>
