       N       E                     dE             d eps       ncg     rms          rms(c)
DAV:   1    -0.112146385915E+04   -0.11215E+04   -0.18901E-04  4752   0.285E-02    0.363E-02
RMM:   2    -0.112146386089E+04   -0.17353E-05   -0.61049E-05  3523   0.160E-02    0.708E-02
RMM:   3    -0.112146386269E+04   -0.18025E-05   -0.26911E-05  3364   0.800E-03    0.411E-03
RMM:   4    -0.112146386317E+04   -0.48130E-06   -0.11630E-05  2761   0.501E-03    0.143E-02
RMM:   5    -0.112146386372E+04   -0.54734E-06   -0.89105E-06  2361   0.354E-03    0.574E-03
RMM:   6    -0.112146386382E+04   -0.10202E-06   -0.51179E-06  1957   0.327E-03    0.510E-03
RMM:   7    -0.112146386399E+04   -0.16924E-06   -0.34545E-06  1602   0.254E-03    0.293E-03
RMM:   8    -0.112146386389E+04    0.98458E-07   -0.21439E-06  1447   0.251E-03
   1 F= -.11214639E+04 E0= -.11214639E+04  d E =-.112146E+04  mag=    40.0000
       N       E                     dE             d eps       ncg     rms          rms(c)
DAV:   1    -0.112146539378E+04   -0.15298E-02   -0.23922E+00  6208   0.183E+00    0.928E-01
RMM:   2    -0.112147164060E+04   -0.62468E-02   -0.73776E-02  6185   0.372E-01    0.602E-01
RMM:   3    -0.112147170110E+04   -0.60498E-04   -0.44900E-03  6462   0.118E-01    0.348E-01
RMM:   4    -0.112147102888E+04    0.67221E-03   -0.17661E-03  6249   0.502E-02    0.215E-01
RMM:   5    -0.112147088635E+04    0.14253E-03   -0.68389E-04  5439   0.335E-02    0.165E-01
RMM:   6    -0.112147087135E+04    0.15003E-04   -0.14308E-04  4022   0.175E-02    0.791E-02
RMM:   7    -0.112147086717E+04    0.41818E-05   -0.47038E-05  3641   0.998E-03    0.309E-02
RMM:   8    -0.112147086479E+04    0.23772E-05   -0.34475E-05  3587   0.890E-03
   2 F= -.11214709E+04 E0= -.11214709E+04  d E =-.700090E-02  mag=    40.0000
       N       E                     dE             d eps       ncg     rms          rms(c)
DAV:   1    -0.112147086708E+04    0.89436E-07   -0.50825E-03  6984   0.865E-02    0.445E-02
RMM:   2    -0.112147087878E+04   -0.11699E-04   -0.15177E-04  3733   0.178E-02    0.322E-02
RMM:   3    -0.112147088083E+04   -0.20490E-05   -0.20860E-05  3420   0.837E-03    0.225E-02
RMM:   4    -0.112147087992E+04    0.90257E-06   -0.74631E-06  3164   0.385E-03    0.138E-02
RMM:   5    -0.112147087831E+04    0.16149E-05   -0.44266E-06  2835   0.358E-03    0.792E-03
RMM:   6    -0.112147087731E+04    0.99339E-06   -0.18849E-06  1945   0.248E-03    0.375E-03
RMM:   7    -0.112147087710E+04    0.21540E-06   -0.81543E-07  1476   0.223E-03    0.144E-03
RMM:   8    -0.112147087678E+04    0.32040E-06   -0.15909E-07  1054   0.196E-03
   3 F= -.11214709E+04 E0= -.11214709E+04  d E =-.701289E-02  mag=    40.0000
       N       E                     dE             d eps       ncg     rms          rms(c)
DAV:   1    -0.112147061413E+04    0.26297E-03   -0.13172E+00  6224   0.135E+00    0.482E-01
RMM:   2    -0.112147398218E+04   -0.33680E-02   -0.37149E-02  6173   0.256E-01    0.311E-01
RMM:   3    -0.112147402590E+04   -0.43725E-04   -0.21773E-03  6340   0.839E-02    0.177E-01
RMM:   4    -0.112147383971E+04    0.18620E-03   -0.67417E-04  5987   0.304E-02    0.990E-02
RMM:   5    -0.112147380690E+04    0.32801E-04   -0.16421E-04  3937   0.191E-02    0.759E-02
RMM:   6    -0.112147381092E+04   -0.40182E-05   -0.50048E-05  3596   0.116E-02    0.422E-02
RMM:   7    -0.112147381640E+04   -0.54810E-05   -0.23762E-05  3542   0.699E-03    0.159E-02
RMM:   8    -0.112147382228E+04   -0.58727E-05   -0.15840E-05  3512   0.634E-03
   4 F= -.11214738E+04 E0= -.11214738E+04  d E =-.294550E-02  mag=    40.0000
       N       E                     dE             d eps       ncg     rms          rms(c)
DAV:   1    -0.112147368708E+04    0.12933E-03   -0.11600E-01  6304   0.402E-01    0.143E-01
RMM:   2    -0.112147399357E+04   -0.30649E-03   -0.33326E-03  6142   0.768E-02    0.927E-02
RMM:   3    -0.112147399475E+04   -0.11764E-05   -0.15650E-04  3850   0.254E-02    0.558E-02
RMM:   4    -0.112147398387E+04    0.10873E-04   -0.60724E-05  3543   0.111E-02    0.321E-02
RMM:   5    -0.112147398481E+04   -0.94097E-06   -0.30702E-05  3515   0.829E-03    0.400E-02
RMM:   6    -0.112147398551E+04   -0.69290E-06   -0.13062E-05  3227   0.575E-03    0.127E-02
RMM:   7    -0.112147398706E+04   -0.15571E-05   -0.56882E-06  2750   0.341E-03    0.706E-03
RMM:   8    -0.112147398838E+04   -0.13157E-05   -0.40921E-06  2559   0.333E-03
   5 F= -.11214740E+04 E0= -.11214740E+04  d E =-.311160E-02  mag=    40.0000
       N       E                     dE             d eps       ncg     rms          rms(c)
DAV:   1    -0.112147329393E+04    0.69314E-03   -0.14402E+00  6256   0.140E+00    0.317E-01
RMM:   2    -0.112147687673E+04   -0.35828E-02   -0.35598E-02  6251   0.239E-01    0.193E-01
RMM:   3    -0.112147692549E+04   -0.48758E-04   -0.18012E-03  6100   0.783E-02    0.116E-01
RMM:   4    -0.112147683124E+04    0.94250E-04   -0.46382E-04  5171   0.245E-02    0.524E-02
RMM:   5    -0.112147682593E+04    0.53152E-05   -0.10339E-04  3606   0.143E-02    0.170E-02
RMM:   6    -0.112147683005E+04   -0.41277E-05   -0.32751E-05  3514   0.881E-03    0.124E-02
RMM:   7    -0.112147683228E+04   -0.22259E-05   -0.21426E-05  3336   0.606E-03    0.105E-02
RMM:   8    -0.112147683367E+04   -0.13915E-05   -0.12825E-05  3092   0.502E-03
   6 F= -.11214768E+04 E0= -.11214768E+04  d E =-.284529E-02  mag=    40.0000
