<?xml version="1.0" encoding="ISO-8859-1"?>
<modeling>
 <generator>
  <i name="program" type="string">vasp </i>
  <i name="version" type="string">5.4.1  </i>
  <i name="subversion" type="string">05Feb16 (build Jan 25 2017 20:16:33) complex                          parallel </i>
  <i name="platform" type="string">BWXE6 </i>
  <i name="date" type="string">2019 08 11 </i>
  <i name="time" type="string">11:32:43 </i>
 </generator>
 <incar>
  <i type="string" name="SYSTEM"> STF</i>
  <i type="string" name="PREC">normal</i>
  <i type="string" name="ALGO"> Fast</i>
  <i type="int" name="ISPIN">     2</i>
  <i type="int" name="NELM">    40</i>
  <i type="int" name="NELMIN">     8</i>
  <i type="int" name="IBRION">     2</i>
  <i name="EDIFF">      0.00010000</i>
  <i name="EDIFFG">     -0.03000000</i>
  <i type="int" name="NSW">    30</i>
  <i type="int" name="ISIF">     3</i>
  <i name="ENCUT">    520.00000000</i>
  <i type="int" name="NBANDS">   768</i>
  <v name="MAGMOM">      0.60000000      0.60000000      0.60000000      0.60000000      0.60000000      0.60000000      0.60000000      0.60000000      0.60000000      0.60000000      0.60000000      0.60000000      0.60000000      0.60000000      0.60000000      0.60000000      0.60000000      0.60000000      0.60000000      0.60000000
      0.60000000      0.60000000      0.60000000      0.60000000      0.60000000      0.60000000      0.60000000      0.60000000      0.60000000      0.60000000      0.60000000      0.60000000      0.60000000      0.60000000      0.60000000      0.60000000      0.60000000      0.60000000      0.60000000      0.60000000
      0.60000000      0.60000000      0.60000000      0.60000000      0.60000000      0.60000000      0.60000000      0.60000000      0.60000000      0.60000000      0.60000000      0.60000000      0.60000000      0.60000000      0.60000000      0.60000000      5.00000000      5.00000000      5.00000000      5.00000000
      5.00000000      5.00000000      5.00000000      5.00000000      0.60000000      0.60000000      0.60000000      0.60000000      0.60000000      0.60000000      0.60000000      0.60000000      0.60000000      0.60000000      0.60000000      0.60000000      0.60000000      0.60000000      0.60000000      0.60000000
      0.60000000      0.60000000      0.60000000      0.60000000      0.60000000      0.60000000      0.60000000      0.60000000      0.60000000      0.60000000      0.60000000      0.60000000      0.60000000      0.60000000      0.60000000      0.60000000      0.60000000      0.60000000      0.60000000      0.60000000
      0.60000000      0.60000000      0.60000000      0.60000000      0.60000000      0.60000000      0.60000000      0.60000000      0.60000000      0.60000000      0.60000000      0.60000000      0.60000000      0.60000000      0.60000000      0.60000000      0.60000000      0.60000000      0.60000000      0.60000000
      0.60000000      0.60000000      0.60000000      0.60000000      0.60000000      0.60000000      0.60000000      0.60000000      0.60000000      0.60000000      0.60000000      0.60000000      0.60000000      0.60000000      0.60000000      0.60000000      0.60000000      0.60000000      0.60000000      0.60000000
      0.60000000      0.60000000      0.60000000      0.60000000      0.60000000      0.60000000      0.60000000      0.60000000      0.60000000      0.60000000      0.60000000      0.60000000      0.60000000      0.60000000      0.60000000      0.60000000</v>
  <i type="string" name="LREAL"> Auto</i>
  <i type="int" name="ISMEAR">     0</i>
  <i name="SIGMA">      0.05000000</i>
  <i type="int" name="LMAXMIX">     4</i>
  <v type="int" name="KPOINT_BSE">    -1     0     0     0</v>
  <i type="int" name="NELM">    40</i>
  <i type="logical" name="LDAU"> T  </i>
  <v type="int" name="LDAUTYPE">     2</v>
  <v type="int" name="LDAUL">     0     2     2     0</v>
  <v name="LDAUU">      0.00000000      3.00000000      5.00000000      0.00000000</v>
  <v name="LDAUJ">      0.00000000      0.00000000      0.00000000      0.00000000</v>
  <i type="int" name="LDAUPRINT">     1</i>
 </incar>
 <kpoints>
  <generation param="Monkhorst-Pack">
   <v type="int" name="divisions">       2        2        2 </v>
   <v name="usershift">      0.00000000       0.00000000       0.00000000 </v>
   <v name="genvec1">      0.50000000       0.00000000       0.00000000 </v>
   <v name="genvec2">      0.00000000       0.50000000       0.00000000 </v>
   <v name="genvec3">      0.00000000       0.00000000       0.50000000 </v>
   <v name="shift">      0.50000000       0.50000000       0.50000000 </v>
  </generation>
  <varray name="kpointlist" >
   <v>       0.25000000       0.25000000       0.25000000 </v>
   <v>      -0.25000000       0.25000000       0.25000000 </v>
  </varray>
  <varray name="weights" >
   <v>       0.50000000 </v>
   <v>       0.50000000 </v>
  </varray>
 </kpoints>
 <parameters>
  <separator name="general" >
   <i type="string" name="SYSTEM">STF</i>
   <i type="logical" name="LCOMPAT"> F  </i>
  </separator>
  <separator name="electronic" >
   <i type="string" name="PREC">normal</i>
   <i name="ENMAX">    520.00000000</i>
   <i name="ENAUG">    605.39200000</i>
   <i name="EDIFF">      0.00010000</i>
   <i type="int" name="IALGO">    68</i>
   <i type="int" name="IWAVPR">    11</i>
   <i type="int" name="NBANDS">   768</i>
   <i name="NELECT">   1032.00000000</i>
   <i type="int" name="TURBO">     0</i>
   <i type="int" name="IRESTART">     0</i>
   <i type="int" name="NREBOOT">     0</i>
   <i type="int" name="NMIN">     0</i>
   <i name="EREF">      0.00000000</i>
   <separator name="electronic smearing" >
    <i type="int" name="ISMEAR">     0</i>
    <i name="SIGMA">      0.05000000</i>
    <i name="KSPACING">      0.50000000</i>
    <i type="logical" name="KGAMMA"> T  </i>
   </separator>
   <separator name="electronic projectors" >
    <i type="logical" name="LREAL"> T  </i>
    <v name="ROPT">     -0.00050000     -0.00050000     -0.00050000     -0.00050000</v>
    <i type="int" name="LMAXPAW">  -100</i>
    <i type="int" name="LMAXMIX">     4</i>
    <i type="logical" name="NLSPLINE"> F  </i>
   </separator>
   <separator name="electronic startup" >
    <i type="int" name="ISTART">     1</i>
    <i type="int" name="ICHARG">     0</i>
    <i type="int" name="INIWAV">     1</i>
   </separator>
   <separator name="electronic spin" >
    <i type="int" name="ISPIN">     2</i>
    <i type="logical" name="LNONCOLLINEAR"> F  </i>
    <v name="MAGMOM">      0.60000000      0.60000000      0.60000000      0.60000000      0.60000000      0.60000000      0.60000000      0.60000000      0.60000000      0.60000000      0.60000000      0.60000000      0.60000000      0.60000000      0.60000000      0.60000000      0.60000000      0.60000000      0.60000000      0.60000000
      0.60000000      0.60000000      0.60000000      0.60000000      0.60000000      0.60000000      0.60000000      0.60000000      0.60000000      0.60000000      0.60000000      0.60000000      0.60000000      0.60000000      0.60000000      0.60000000      0.60000000      0.60000000      0.60000000      0.60000000
      0.60000000      0.60000000      0.60000000      0.60000000      0.60000000      0.60000000      0.60000000      0.60000000      0.60000000      0.60000000      0.60000000      0.60000000      0.60000000      0.60000000      0.60000000      0.60000000      5.00000000      5.00000000      5.00000000      5.00000000
      5.00000000      5.00000000      5.00000000      5.00000000      0.60000000      0.60000000      0.60000000      0.60000000      0.60000000      0.60000000      0.60000000      0.60000000      0.60000000      0.60000000      0.60000000      0.60000000      0.60000000      0.60000000      0.60000000      0.60000000
      0.60000000      0.60000000      0.60000000      0.60000000      0.60000000      0.60000000      0.60000000      0.60000000      0.60000000      0.60000000      0.60000000      0.60000000      0.60000000      0.60000000      0.60000000      0.60000000      0.60000000      0.60000000      0.60000000      0.60000000
      0.60000000      0.60000000      0.60000000      0.60000000      0.60000000      0.60000000      0.60000000      0.60000000      0.60000000      0.60000000      0.60000000      0.60000000      0.60000000      0.60000000      0.60000000      0.60000000      0.60000000      0.60000000      0.60000000      0.60000000
      0.60000000      0.60000000      0.60000000      0.60000000      0.60000000      0.60000000      0.60000000      0.60000000      0.60000000      0.60000000      0.60000000      0.60000000      0.60000000      0.60000000      0.60000000      0.60000000      0.60000000      0.60000000      0.60000000      0.60000000
      0.60000000      0.60000000      0.60000000      0.60000000      0.60000000      0.60000000      0.60000000      0.60000000      0.60000000      0.60000000      0.60000000      0.60000000      0.60000000      0.60000000      0.60000000      0.60000000</v>
    <i name="NUPDOWN">     -1.00000000</i>
    <i type="logical" name="LSORBIT"> F  </i>
    <v name="SAXIS">      0.00000000      0.00000000      1.00000000</v>
    <i type="logical" name="LSPIRAL"> F  </i>
    <v name="QSPIRAL">      0.00000000      0.00000000      0.00000000</v>
    <i type="logical" name="LZEROZ"> F  </i>
   </separator>
   <separator name="electronic exchange-correlation" >
    <i type="logical" name="LASPH"> F  </i>
    <i type="logical" name="LMETAGGA"> F  </i>
   </separator>
   <separator name="electronic convergence" >
    <i type="int" name="NELM">    40</i>
    <i type="int" name="NELMDL">     0</i>
    <i type="int" name="NELMIN">     8</i>
    <i name="ENINI">    520.00000000</i>
    <separator name="electronic convergence detail" >
     <i type="logical" name="LDIAG"> T  </i>
     <i type="logical" name="LSUBROT"> F  </i>
     <i name="WEIMIN">      0.00100000</i>
     <i name="EBREAK">      0.00000003</i>
     <i name="DEPER">      0.30000000</i>
     <i type="int" name="NRMM">     4</i>
     <i name="TIME">      0.40000000</i>
    </separator>
   </separator>
   <separator name="electronic mixer" >
    <i name="AMIX">      0.40000000</i>
    <i name="BMIX">      1.00000000</i>
    <i name="AMIN">      0.10000000</i>
    <i name="AMIX_MAG">      1.60000000</i>
    <i name="BMIX_MAG">      1.00000000</i>
    <separator name="electronic mixer details" >
     <i type="int" name="IMIX">     4</i>
     <i type="logical" name="MIXFIRST"> F  </i>
     <i type="int" name="MAXMIX">   -45</i>
     <i name="WC">    100.00000000</i>
     <i type="int" name="INIMIX">     1</i>
     <i type="int" name="MIXPRE">     1</i>
     <i type="int" name="MREMOVE">     5</i>
    </separator>
   </separator>
   <separator name="electronic dipolcorrection" >
    <i type="logical" name="LDIPOL"> F  </i>
    <i type="logical" name="LMONO"> F  </i>
    <i type="int" name="IDIPOL">     0</i>
    <i name="EPSILON">      1.00000000</i>
    <v name="DIPOL">   -100.00000000   -100.00000000   -100.00000000</v>
    <i name="EFIELD">      0.00000000</i>
   </separator>
  </separator>
  <separator name="grids" >
   <i type="int" name="NGX">    64</i>
   <i type="int" name="NGY">    64</i>
   <i type="int" name="NGZ">    90</i>
   <i type="int" name="NGXF">   128</i>
   <i type="int" name="NGYF">   128</i>
   <i type="int" name="NGZF">   180</i>
   <i type="logical" name="ADDGRID"> F  </i>
  </separator>
  <separator name="ionic" >
   <i type="int" name="NSW">    30</i>
   <i type="int" name="IBRION">     2</i>
   <i type="int" name="ISIF">     3</i>
   <i name="PSTRESS">      0.00000000</i>
   <i name="EDIFFG">     -0.03000000</i>
   <i type="int" name="NFREE">     1</i>
   <i name="POTIM">      0.50000000</i>
   <i name="SMASS">     -3.00000000</i>
   <i name="SCALEE">      1.00000000</i>
  </separator>
  <separator name="ionic md" >
   <i name="TEBEG">      0.00010000</i>
   <i name="TEEND">      0.00010000</i>
   <i type="int" name="NBLOCK">     1</i>
   <i type="int" name="KBLOCK">    30</i>
   <i type="int" name="NPACO">   256</i>
   <i name="APACO">     16.00000000</i>
  </separator>
  <separator name="symmetry" >
   <i type="int" name="ISYM">     2</i>
   <i name="SYMPREC">      0.00001000</i>
  </separator>
  <separator name="dos" >
   <i type="logical" name="LORBIT"> F  </i>
   <v name="RWIGS">     -1.00000000     -1.00000000     -1.00000000     -1.00000000</v>
   <i type="int" name="NEDOS">   301</i>
   <i name="EMIN">     10.00000000</i>
   <i name="EMAX">    -10.00000000</i>
   <i name="EFERMI">      0.00000000</i>
  </separator>
  <separator name="writing" >
   <i type="int" name="NWRITE">     2</i>
   <i type="logical" name="LWAVE"> T  </i>
   <i type="logical" name="LCHARG"> T  </i>
   <i type="logical" name="LPARD"> F  </i>
   <i type="logical" name="LVTOT"> F  </i>
   <i type="logical" name="LVHAR"> F  </i>
   <i type="logical" name="LELF"> F  </i>
   <i type="logical" name="LOPTICS"> F  </i>
   <v name="STM">      0.00000000      0.00000000      0.00000000      0.00000000      0.00000000      0.00000000      0.00000000</v>
  </separator>
  <separator name="performance" >
   <i type="int" name="NPAR">     2</i>
   <i type="int" name="NSIM">     4</i>
   <i type="int" name="NBLK">    -1</i>
   <i type="logical" name="LPLANE"> T  </i>
   <i type="logical" name="LSCALAPACK"> T  </i>
   <i type="logical" name="LSCAAWARE"> F  </i>
   <i type="logical" name="LSCALU"> F  </i>
   <i type="logical" name="LASYNC"> F  </i>
   <i type="logical" name="LORBITALREAL"> F  </i>
  </separator>
  <separator name="miscellaneous" >
   <i type="int" name="IDIOT">     3</i>
   <i type="logical" name="LMUSIC"> F  </i>
   <v name="POMASS">     87.62000000     47.88000000     55.84700000     16.00000000</v>
   <v name="DARWINR">      0.00000000      0.00000000      0.00000000      0.00000000</v>
   <v name="DARWINV">      1.00000000      1.00000000      1.00000000      1.00000000</v>
   <i type="logical" name="LCORR"> T  </i>
  </separator>
  <i type="logical" name="GGA_COMPAT"> T  </i>
  <i type="logical" name="LBERRY"> F  </i>
  <i type="int" name="ICORELEVEL">     0</i>
  <i type="logical" name="LDAU"> T  </i>
  <v type="int" name="LDAUTYPE">     2</v>
  <v type="int" name="LDAUL">     0</v>
  <v name="LDAUU">      0.00000000</v>
  <v name="LDAUJ">      0.00000000</v>
  <i type="int" name="LDAUPRINT">     1</i>
  <i type="int" name="I_CONSTRAINED_M">     0</i>
  <separator name="electronic exchange-correlation" >
   <i type="string" name="GGA">--</i>
   <i type="int" name="VOSKOWN">     0</i>
   <i type="logical" name="LHFCALC"> F  </i>
   <i type="string" name="PRECFOCK"></i>
   <i type="logical" name="LSYMGRAD"> F  </i>
   <i type="logical" name="LHFONE"> F  </i>
   <i type="logical" name="LRHFCALC"> F  </i>
   <i type="logical" name="LTHOMAS"> F  </i>
   <i type="logical" name="LMODELHF"> F  </i>
   <i name="ENCUT4O">     -1.00000000</i>
   <i type="int" name="EXXOEP">     0</i>
   <i type="int" name="FOURORBIT">     0</i>
   <i name="AEXX">      0.00000000</i>
   <i name="HFALPHA">      0.00000000</i>
   <i name="MCALPHA">      0.00000000</i>
   <i name="ALDAX">      1.00000000</i>
   <i name="AGGAX">      1.00000000</i>
   <i name="ALDAC">      1.00000000</i>
   <i name="AGGAC">      1.00000000</i>
   <i type="int" name="NKREDX">     1</i>
   <i type="int" name="NKREDY">     1</i>
   <i type="int" name="NKREDZ">     1</i>
   <i type="logical" name="SHIFTRED"> F  </i>
   <i type="logical" name="ODDONLY"> F  </i>
   <i type="logical" name="EVENONLY"> F  </i>
   <i type="int" name="LMAXFOCK">     0</i>
   <i type="int" name="NMAXFOCKAE">     0</i>
   <i type="logical" name="LFOCKAEDFT"> F  </i>
   <i name="HFSCREEN">      0.00000000</i>
   <i name="HFSCREENC">      0.00000000</i>
   <i type="int" name="NBANDSGWLOW">     0</i>
  </separator>
  <separator name="vdW DFT" >
   <i type="logical" name="LUSE_VDW"> F  </i>
   <i name="Zab_VDW">     -0.84910000</i>
   <i name="PARAM1">      0.12340000</i>
   <i name="PARAM2">      1.00000000</i>
   <i name="PARAM3">      0.00000000</i>
  </separator>
  <separator name="model GW" >
   <i type="int" name="MODEL_GW">     0</i>
   <i name="MODEL_EPS0">      7.65418192</i>
   <i name="MODEL_ALPHA">      1.00000000</i>
  </separator>
  <separator name="linear response parameters" >
   <i type="logical" name="LEPSILON"> F  </i>
   <i type="logical" name="LRPA"> F  </i>
   <i type="logical" name="LNABLA"> F  </i>
   <i type="logical" name="LVEL"> F  </i>
   <i type="int" name="KINTER">     0</i>
   <i name="CSHIFT">      0.10000000</i>
   <i name="OMEGAMAX">     -1.00000000</i>
   <i name="DEG_THRESHOLD">      0.00200000</i>
  </separator>
  <separator name="orbital magnetization" >
   <i type="logical" name="NUCIND"> F  </i>
   <v name="MAGPOS">      0.00000000      0.00000000      0.00000000</v>
   <i type="logical" name="LNICSALL"> T  </i>
   <i type="logical" name="ORBITALMAG"> F  </i>
   <i type="logical" name="LMAGBLOCH"> F  </i>
   <i type="logical" name="LCHIMAG"> F  </i>
   <i type="logical" name="LGAUGE"> T  </i>
   <i type="int" name="MAGATOM">     0</i>
   <v name="MAGDIPOL">      0.00000000      0.00000000      0.00000000</v>
   <v name="AVECCONST">      0.00000000      0.00000000      0.00000000</v>
  </separator>
  <separator name="response functions" >
   <i type="logical" name="LADDER"> F  </i>
   <i type="logical" name="LFXC"> F  </i>
   <i type="logical" name="LHARTREE"> T  </i>
   <i type="int" name="IBSE">     0</i>
   <v type="int" name="KPOINT">    -1     0     0     0</v>
   <i type="logical" name="LTCTE"> F  </i>
   <i type="logical" name="LTETE"> F  </i>
   <i type="logical" name="LTRIPLET"> F  </i>
   <i type="logical" name="LFXCEPS"> F  </i>
   <i type="logical" name="LFXHEG"> F  </i>
   <i type="int" name="NATURALO">     0</i>
   <i type="logical" name="L2ORDER"> F  </i>
   <i type="logical" name="LUSEW"> F  </i>
   <i name="ENCUTGW">     -2.00000000</i>
   <i name="ENCUTGWSOFT">     -2.00000000</i>
   <i name="ENCUTLF">     -1.00000000</i>
   <i type="int" name="LMAXMP2">    -1</i>
   <i name="SCISSOR">      0.00000000</i>
   <i type="int" name="NOMEGA">     0</i>
   <i type="int" name="NOMEGAR">     0</i>
   <i type="int" name="NBANDSGW">    -1</i>
   <i type="int" name="NBANDSO">    -1</i>
   <i type="int" name="NBANDSV">    -1</i>
   <i type="int" name="NELM">    40</i>
   <i type="int" name="NELMHF">     1</i>
   <i type="int" name="DIM">     3</i>
   <i type="int" name="ANTIRES">     0</i>
   <i name="OMEGAMAX">    -30.00000000</i>
   <i name="OMEGAMIN">    -30.00000000</i>
   <i name="OMEGATL">   -200.00000000</i>
   <i type="int" name="OMEGAGRID">     0</i>
   <i name="CSHIFT">     -0.10000000</i>
   <i type="logical" name="SELFENERGY"> F  </i>
   <i type="logical" name="LSPECTRAL"> F  </i>
   <i type="logical" name="LSPECTRALGW"> F  </i>
   <i type="logical" name="LSINGLES"> F  </i>
   <i type="logical" name="LFERMIGW"> F  </i>
   <i type="logical" name="ODDONLYGW"> F  </i>
   <i type="logical" name="EVENONLYGW"> F  </i>
   <i type="int" name="NKREDLFX">     1</i>
   <i type="int" name="NKREDLFY">     1</i>
   <i type="int" name="NKREDLFZ">     1</i>
   <i type="int" name="MAXMEM">  1800</i>
   <i type="int" name="TELESCOPE">     0</i>
   <i type="int" name="TAUPAR">     1</i>
   <i type="int" name="OMEGAPAR">    -1</i>
   <i name="LAMBDA">      1.00000000</i>
  </separator>
  <separator name="External order field" >
   <i name="OFIELD_KAPPA">      0.00000000</i>
   <v name="OFIELD_K">      0.00000000      0.00000000      0.00000000</v>
   <i name="OFIELD_Q6_NEAR">      0.00000000</i>
   <i name="OFIELD_Q6_FAR">      0.00000000</i>
   <i name="OFIELD_A">      0.00000000</i>
  </separator>
 </parameters>
 <atominfo>
  <atoms>     156 </atoms>
  <types>       4 </types>
  <array name="atoms" >
   <dimension dim="1">ion</dimension>
   <field type="string">element</field>
   <field type="int">atomtype</field>
   <set>
    <rc><c>Sr</c><c>   1</c></rc>
    <rc><c>Sr</c><c>   1</c></rc>
    <rc><c>Sr</c><c>   1</c></rc>
    <rc><c>Sr</c><c>   1</c></rc>
    <rc><c>Sr</c><c>   1</c></rc>
    <rc><c>Sr</c><c>   1</c></rc>
    <rc><c>Sr</c><c>   1</c></rc>
    <rc><c>Sr</c><c>   1</c></rc>
    <rc><c>Sr</c><c>   1</c></rc>
    <rc><c>Sr</c><c>   1</c></rc>
    <rc><c>Sr</c><c>   1</c></rc>
    <rc><c>Sr</c><c>   1</c></rc>
    <rc><c>Sr</c><c>   1</c></rc>
    <rc><c>Sr</c><c>   1</c></rc>
    <rc><c>Sr</c><c>   1</c></rc>
    <rc><c>Sr</c><c>   1</c></rc>
    <rc><c>Sr</c><c>   1</c></rc>
    <rc><c>Sr</c><c>   1</c></rc>
    <rc><c>Sr</c><c>   1</c></rc>
    <rc><c>Sr</c><c>   1</c></rc>
    <rc><c>Sr</c><c>   1</c></rc>
    <rc><c>Sr</c><c>   1</c></rc>
    <rc><c>Sr</c><c>   1</c></rc>
    <rc><c>Sr</c><c>   1</c></rc>
    <rc><c>Sr</c><c>   1</c></rc>
    <rc><c>Sr</c><c>   1</c></rc>
    <rc><c>Sr</c><c>   1</c></rc>
    <rc><c>Sr</c><c>   1</c></rc>
    <rc><c>Sr</c><c>   1</c></rc>
    <rc><c>Sr</c><c>   1</c></rc>
    <rc><c>Sr</c><c>   1</c></rc>
    <rc><c>Sr</c><c>   1</c></rc>
    <rc><c>Ti</c><c>   2</c></rc>
    <rc><c>Ti</c><c>   2</c></rc>
    <rc><c>Ti</c><c>   2</c></rc>
    <rc><c>Ti</c><c>   2</c></rc>
    <rc><c>Ti</c><c>   2</c></rc>
    <rc><c>Ti</c><c>   2</c></rc>
    <rc><c>Ti</c><c>   2</c></rc>
    <rc><c>Ti</c><c>   2</c></rc>
    <rc><c>Ti</c><c>   2</c></rc>
    <rc><c>Ti</c><c>   2</c></rc>
    <rc><c>Ti</c><c>   2</c></rc>
    <rc><c>Ti</c><c>   2</c></rc>
    <rc><c>Ti</c><c>   2</c></rc>
    <rc><c>Ti</c><c>   2</c></rc>
    <rc><c>Ti</c><c>   2</c></rc>
    <rc><c>Ti</c><c>   2</c></rc>
    <rc><c>Ti</c><c>   2</c></rc>
    <rc><c>Ti</c><c>   2</c></rc>
    <rc><c>Ti</c><c>   2</c></rc>
    <rc><c>Ti</c><c>   2</c></rc>
    <rc><c>Ti</c><c>   2</c></rc>
    <rc><c>Ti</c><c>   2</c></rc>
    <rc><c>Ti</c><c>   2</c></rc>
    <rc><c>Ti</c><c>   2</c></rc>
    <rc><c>Fe</c><c>   3</c></rc>
    <rc><c>Fe</c><c>   3</c></rc>
    <rc><c>Fe</c><c>   3</c></rc>
    <rc><c>Fe</c><c>   3</c></rc>
    <rc><c>Fe</c><c>   3</c></rc>
    <rc><c>Fe</c><c>   3</c></rc>
    <rc><c>Fe</c><c>   3</c></rc>
    <rc><c>Fe</c><c>   3</c></rc>
    <rc><c>O </c><c>   4</c></rc>
    <rc><c>O </c><c>   4</c></rc>
    <rc><c>O </c><c>   4</c></rc>
    <rc><c>O </c><c>   4</c></rc>
    <rc><c>O </c><c>   4</c></rc>
    <rc><c>O </c><c>   4</c></rc>
    <rc><c>O </c><c>   4</c></rc>
    <rc><c>O </c><c>   4</c></rc>
    <rc><c>O </c><c>   4</c></rc>
    <rc><c>O </c><c>   4</c></rc>
    <rc><c>O </c><c>   4</c></rc>
    <rc><c>O </c><c>   4</c></rc>
    <rc><c>O </c><c>   4</c></rc>
    <rc><c>O </c><c>   4</c></rc>
    <rc><c>O </c><c>   4</c></rc>
    <rc><c>O </c><c>   4</c></rc>
    <rc><c>O </c><c>   4</c></rc>
    <rc><c>O </c><c>   4</c></rc>
    <rc><c>O </c><c>   4</c></rc>
    <rc><c>O </c><c>   4</c></rc>
    <rc><c>O </c><c>   4</c></rc>
    <rc><c>O </c><c>   4</c></rc>
    <rc><c>O </c><c>   4</c></rc>
    <rc><c>O </c><c>   4</c></rc>
    <rc><c>O </c><c>   4</c></rc>
    <rc><c>O </c><c>   4</c></rc>
    <rc><c>O </c><c>   4</c></rc>
    <rc><c>O </c><c>   4</c></rc>
    <rc><c>O </c><c>   4</c></rc>
    <rc><c>O </c><c>   4</c></rc>
    <rc><c>O </c><c>   4</c></rc>
    <rc><c>O </c><c>   4</c></rc>
    <rc><c>O </c><c>   4</c></rc>
    <rc><c>O </c><c>   4</c></rc>
    <rc><c>O </c><c>   4</c></rc>
    <rc><c>O </c><c>   4</c></rc>
    <rc><c>O </c><c>   4</c></rc>
    <rc><c>O </c><c>   4</c></rc>
    <rc><c>O </c><c>   4</c></rc>
    <rc><c>O </c><c>   4</c></rc>
    <rc><c>O </c><c>   4</c></rc>
    <rc><c>O </c><c>   4</c></rc>
    <rc><c>O </c><c>   4</c></rc>
    <rc><c>O </c><c>   4</c></rc>
    <rc><c>O </c><c>   4</c></rc>
    <rc><c>O </c><c>   4</c></rc>
    <rc><c>O </c><c>   4</c></rc>
    <rc><c>O </c><c>   4</c></rc>
    <rc><c>O </c><c>   4</c></rc>
    <rc><c>O </c><c>   4</c></rc>
    <rc><c>O </c><c>   4</c></rc>
    <rc><c>O </c><c>   4</c></rc>
    <rc><c>O </c><c>   4</c></rc>
    <rc><c>O </c><c>   4</c></rc>
    <rc><c>O </c><c>   4</c></rc>
    <rc><c>O </c><c>   4</c></rc>
    <rc><c>O </c><c>   4</c></rc>
    <rc><c>O </c><c>   4</c></rc>
    <rc><c>O </c><c>   4</c></rc>
    <rc><c>O </c><c>   4</c></rc>
    <rc><c>O </c><c>   4</c></rc>
    <rc><c>O </c><c>   4</c></rc>
    <rc><c>O </c><c>   4</c></rc>
    <rc><c>O </c><c>   4</c></rc>
    <rc><c>O </c><c>   4</c></rc>
    <rc><c>O </c><c>   4</c></rc>
    <rc><c>O </c><c>   4</c></rc>
    <rc><c>O </c><c>   4</c></rc>
    <rc><c>O </c><c>   4</c></rc>
    <rc><c>O </c><c>   4</c></rc>
    <rc><c>O </c><c>   4</c></rc>
    <rc><c>O </c><c>   4</c></rc>
    <rc><c>O </c><c>   4</c></rc>
    <rc><c>O </c><c>   4</c></rc>
    <rc><c>O </c><c>   4</c></rc>
    <rc><c>O </c><c>   4</c></rc>
    <rc><c>O </c><c>   4</c></rc>
    <rc><c>O </c><c>   4</c></rc>
    <rc><c>O </c><c>   4</c></rc>
    <rc><c>O </c><c>   4</c></rc>
    <rc><c>O </c><c>   4</c></rc>
    <rc><c>O </c><c>   4</c></rc>
    <rc><c>O </c><c>   4</c></rc>
    <rc><c>O </c><c>   4</c></rc>
    <rc><c>O </c><c>   4</c></rc>
    <rc><c>O </c><c>   4</c></rc>
    <rc><c>O </c><c>   4</c></rc>
    <rc><c>O </c><c>   4</c></rc>
    <rc><c>O </c><c>   4</c></rc>
    <rc><c>O </c><c>   4</c></rc>
    <rc><c>O </c><c>   4</c></rc>
    <rc><c>O </c><c>   4</c></rc>
   </set>
  </array>
  <array name="atomtypes" >
   <dimension dim="1">type</dimension>
   <field type="int">atomspertype</field>
   <field type="string">element</field>
   <field>mass</field>
   <field>valence</field>
   <field type="string">pseudopotential</field>
   <set>
    <rc><c>  32</c><c>Sr</c><c>     87.62000000</c><c>     10.00000000</c><c>  PAW_PBE Sr_sv 07Sep2000               </c></rc>
    <rc><c>  24</c><c>Ti</c><c>     47.88000000</c><c>      4.00000000</c><c>  PAW_PBE Ti 08Apr2002                  </c></rc>
    <rc><c>   8</c><c>Fe</c><c>     55.84700000</c><c>      8.00000000</c><c>  PAW_PBE Fe 06Sep2000                  </c></rc>
    <rc><c>  92</c><c>O </c><c>     16.00000000</c><c>      6.00000000</c><c>  PAW_PBE O 08Apr2002                   </c></rc>
   </set>
  </array>
 </atominfo>
 <structure name="initialpos" >
  <crystal>
   <varray name="basis" >
    <v>      11.17409681       0.00000000       0.00066673 </v>
    <v>       0.00000000      11.18240031       0.00000000 </v>
    <v>       0.00108894       0.00000000      15.92665839 </v>
   </varray>
   <i name="volume">   1990.08729938 </i>
   <varray name="rec_basis" >
    <v>       0.08949269       0.00000000      -0.00000612 </v>
    <v>       0.00000000       0.08942624       0.00000000 </v>
    <v>      -0.00000375       0.00000000       0.06278781 </v>
   </varray>
  </crystal>
  <varray name="positions" >
   <v>       0.00000000       0.25387455       0.12500000 </v>
   <v>       0.00000000       0.25145473       0.62500000 </v>
   <v>       0.00000000       0.74407969       0.12500000 </v>
   <v>       0.00000000       0.74896678       0.62500000 </v>
   <v>       0.50000000       0.25387455       0.12500000 </v>
   <v>       0.50000000       0.25145473       0.62500000 </v>
   <v>       0.50000000       0.74407969       0.12500000 </v>
   <v>       0.50000000       0.74896678       0.62500000 </v>
   <v>       0.99952316       0.25089685       0.37209777 </v>
   <v>       0.00047684       0.25089685       0.87790223 </v>
   <v>       0.99977559       0.75072042       0.36989642 </v>
   <v>       0.00022441       0.75072042       0.88010358 </v>
   <v>       0.49952316       0.25089685       0.37209777 </v>
   <v>       0.50047684       0.25089685       0.87790223 </v>
   <v>       0.49977559       0.75072042       0.36989642 </v>
   <v>       0.50022441       0.75072042       0.88010358 </v>
   <v>       0.25000000       0.99612545       0.12500000 </v>
   <v>       0.25000000       0.99854527       0.62500000 </v>
   <v>       0.25000000       0.50592031       0.12500000 </v>
   <v>       0.25000000       0.50103322       0.62500000 </v>
   <v>       0.75000000       0.99612545       0.12500000 </v>
   <v>       0.75000000       0.99854527       0.62500000 </v>
   <v>       0.75000000       0.50592031       0.12500000 </v>
   <v>       0.75000000       0.50103322       0.62500000 </v>
   <v>       0.24952316       0.99910315       0.37209777 </v>
   <v>       0.25047684       0.99910315       0.87790223 </v>
   <v>       0.24977559       0.49927958       0.36989642 </v>
   <v>       0.25022441       0.49927958       0.88010358 </v>
   <v>       0.74952316       0.99910315       0.37209777 </v>
   <v>       0.75047684       0.99910315       0.87790223 </v>
   <v>       0.74977559       0.49927958       0.36989642 </v>
   <v>       0.75022441       0.49927958       0.88010358 </v>
   <v>       0.00005223       0.00060389       0.50048095 </v>
   <v>       0.99982583       0.49698250       0.00152883 </v>
   <v>       0.99997413       0.49938463       0.49837471 </v>
   <v>       0.50005223       0.00060389       0.50048095 </v>
   <v>       0.49982583       0.49698250       0.00152883 </v>
   <v>       0.49997413       0.49938463       0.49837471 </v>
   <v>       0.25005223       0.24939611       0.50048095 </v>
   <v>       0.24982583       0.75301750       0.00152883 </v>
   <v>       0.24997413       0.75061537       0.49837471 </v>
   <v>       0.75005223       0.24939611       0.50048095 </v>
   <v>       0.74982583       0.75301750       0.00152883 </v>
   <v>       0.74997413       0.75061537       0.49837471 </v>
   <v>       0.24994777       0.24939611       0.74951905 </v>
   <v>       0.25017417       0.75301750       0.24847117 </v>
   <v>       0.25002587       0.75061537       0.75162529 </v>
   <v>       0.74994777       0.24939611       0.74951905 </v>
   <v>       0.75017417       0.75301750       0.24847117 </v>
   <v>       0.75002587       0.75061537       0.75162529 </v>
   <v>       0.99994777       0.00060389       0.74951905 </v>
   <v>       0.00017417       0.49698250       0.24847117 </v>
   <v>       0.00002587       0.49938463       0.75162529 </v>
   <v>       0.49994777       0.00060389       0.74951905 </v>
   <v>       0.50017417       0.49698250       0.24847117 </v>
   <v>       0.50002587       0.49938463       0.75162529 </v>
   <v>       0.00072992       0.00397374       0.25583351 </v>
   <v>       0.99927008       0.00397374       0.99416649 </v>
   <v>       0.75072992       0.24602626       0.25583351 </v>
   <v>       0.74927008       0.24602626       0.99416649 </v>
   <v>       0.50072992       0.00397374       0.25583351 </v>
   <v>       0.49927008       0.00397374       0.99416649 </v>
   <v>       0.25072992       0.24602626       0.25583351 </v>
   <v>       0.24927008       0.24602626       0.99416649 </v>
   <v>       0.00000000       0.99822010       0.62500000 </v>
   <v>       0.00000000       0.51350312       0.12500000 </v>
   <v>       0.00000000       0.50264635       0.62500000 </v>
   <v>       0.50000000       0.99822010       0.62500000 </v>
   <v>       0.50000000       0.51350312       0.12500000 </v>
   <v>       0.50000000       0.50264635       0.62500000 </v>
   <v>       0.99942657       0.00703534       0.37474912 </v>
   <v>       0.00057343       0.00703534       0.87525088 </v>
   <v>       0.00183692       0.48765630       0.37359047 </v>
   <v>       0.99816308       0.48765630       0.87640953 </v>
   <v>       0.49942657       0.00703534       0.37474912 </v>
   <v>       0.50057343       0.00703534       0.87525088 </v>
   <v>       0.50183692       0.48765630       0.37359047 </v>
   <v>       0.49816308       0.48765630       0.87640953 </v>
   <v>       0.24942657       0.24296466       0.37474912 </v>
   <v>       0.25057343       0.24296466       0.87525088 </v>
   <v>       0.25183692       0.76234370       0.37359047 </v>
   <v>       0.24816308       0.76234370       0.87640953 </v>
   <v>       0.74942657       0.24296466       0.37474912 </v>
   <v>       0.75057343       0.24296466       0.87525088 </v>
   <v>       0.75183692       0.76234370       0.37359047 </v>
   <v>       0.74816308       0.76234370       0.87640953 </v>
   <v>       0.25000000       0.25177990       0.62500000 </v>
   <v>       0.25000000       0.73649688       0.12500000 </v>
   <v>       0.25000000       0.74735365       0.62500000 </v>
   <v>       0.75000000       0.25177990       0.62500000 </v>
   <v>       0.75000000       0.73649688       0.12500000 </v>
   <v>       0.75000000       0.74735365       0.62500000 </v>
   <v>       0.12271401       0.12888074       0.23012479 </v>
   <v>       0.37271401       0.12111926       0.23012479 </v>
   <v>       0.62271401       0.12888074       0.23012479 </v>
   <v>       0.87271401       0.12111926       0.23012479 </v>
   <v>       0.13313757       0.37772317       0.23855608 </v>
   <v>       0.37776034       0.36849553       0.24037982 </v>
   <v>       0.63313757       0.37772317       0.23855608 </v>
   <v>       0.87776034       0.36849553       0.24037982 </v>
   <v>       0.11988438       0.63057813       0.25528141 </v>
   <v>       0.36988438       0.61942187       0.25528141 </v>
   <v>       0.61988438       0.63057813       0.25528141 </v>
   <v>       0.86988438       0.61942187       0.25528141 </v>
   <v>       0.12776034       0.88150447       0.24037982 </v>
   <v>       0.38313757       0.87227683       0.23855608 </v>
   <v>       0.62776034       0.88150447       0.24037982 </v>
   <v>       0.88313757       0.87227683       0.23855608 </v>
   <v>       0.14276738       0.10702333       0.50131712 </v>
   <v>       0.39276738       0.14297667       0.50131712 </v>
   <v>       0.64276738       0.10702333       0.50131712 </v>
   <v>       0.89276738       0.14297667       0.50131712 </v>
   <v>       0.10787032       0.35701156       0.50029331 </v>
   <v>       0.35757969       0.39191212       0.49915884 </v>
   <v>       0.60787032       0.35701156       0.50029331 </v>
   <v>       0.85757969       0.39191212       0.49915884 </v>
   <v>       0.14199664       0.60847829       0.49572381 </v>
   <v>       0.39199664       0.64152171       0.49572381 </v>
   <v>       0.64199664       0.60847829       0.49572381 </v>
   <v>       0.89199664       0.64152171       0.49572381 </v>
   <v>       0.10757969       0.85808788       0.49915884 </v>
   <v>       0.35787032       0.89298844       0.50029331 </v>
   <v>       0.60757969       0.85808788       0.49915884 </v>
   <v>       0.85787032       0.89298844       0.50029331 </v>
   <v>       0.10723262       0.14297667       0.74868288 </v>
   <v>       0.35723262       0.10702333       0.74868288 </v>
   <v>       0.60723262       0.14297667       0.74868288 </v>
   <v>       0.85723262       0.10702333       0.74868288 </v>
   <v>       0.14242031       0.39191212       0.75084116 </v>
   <v>       0.39212968       0.35701156       0.74970669 </v>
   <v>       0.64242031       0.39191212       0.75084116 </v>
   <v>       0.89212968       0.35701156       0.74970669 </v>
   <v>       0.10800336       0.64152171       0.75427619 </v>
   <v>       0.35800336       0.60847829       0.75427619 </v>
   <v>       0.60800336       0.64152171       0.75427619 </v>
   <v>       0.85800336       0.60847829       0.75427619 </v>
   <v>       0.14212968       0.89298844       0.74970669 </v>
   <v>       0.39242031       0.85808788       0.75084116 </v>
   <v>       0.64212968       0.89298844       0.74970669 </v>
   <v>       0.89242031       0.85808788       0.75084116 </v>
   <v>       0.12728599       0.12111926       0.01987521 </v>
   <v>       0.37728599       0.12888074       0.01987521 </v>
   <v>       0.62728599       0.12111926       0.01987521 </v>
   <v>       0.87728599       0.12888074       0.01987521 </v>
   <v>       0.12223966       0.36849553       0.00962018 </v>
   <v>       0.36686243       0.37772317       0.01144392 </v>
   <v>       0.62223966       0.36849553       0.00962018 </v>
   <v>       0.86686243       0.37772317       0.01144392 </v>
   <v>       0.13011562       0.61942187       0.99471859 </v>
   <v>       0.38011562       0.63057813       0.99471859 </v>
   <v>       0.63011562       0.61942187       0.99471859 </v>
   <v>       0.88011562       0.63057813       0.99471859 </v>
   <v>       0.11686243       0.87227683       0.01144392 </v>
   <v>       0.37223966       0.88150447       0.00962018 </v>
   <v>       0.61686243       0.87227683       0.01144392 </v>
   <v>       0.87223966       0.88150447       0.00962018 </v>
  </varray>
 </structure>
 <calculation>
  <scstep>
   <time name="dav">  114.13  114.14</time>
   <time name="total">  116.59  116.65</time>
   <energy>
    <i name="alphaZ">   5670.78456377 </i>
    <i name="ewald"> -61989.05253640 </i>
    <i name="hartreedc"> -15634.96700832 </i>
    <i name="XCdc">   2964.53796490 </i>
    <i name="pawpsdc"> 112510.45171443 </i>
    <i name="pawaedc">-111411.06810027 </i>
    <i name="eentropy">     -0.00000000 </i>
    <i name="bandstr">  -7015.59825397 </i>
    <i name="atom">  73783.44779670 </i>
    <i name="e_fr_energy">  -1121.46385915 </i>
    <i name="e_wo_entrp">  -1121.46385915 </i>
    <i name="e_0_energy">  -1121.46385915 </i>
   </energy>
  </scstep>
  <scstep>
   <time name="diag">   16.49   16.49</time>
   <time name="diis">   15.59   15.60</time>
   <time name="orth">    9.37    9.37</time>
   <time name="total">   43.92   43.96</time>
   <energy>
    <i name="e_fr_energy">  -1121.46386089 </i>
    <i name="e_wo_entrp">  -1121.46386089 </i>
    <i name="e_0_energy">  -1121.46386089 </i>
   </energy>
  </scstep>
  <scstep>
   <time name="diag">   16.49   16.51</time>
   <time name="diis">   15.12   15.13</time>
   <time name="orth">    9.42    9.42</time>
   <time name="total">   43.51   43.61</time>
   <energy>
    <i name="e_fr_energy">  -1121.46386269 </i>
    <i name="e_wo_entrp">  -1121.46386269 </i>
    <i name="e_0_energy">  -1121.46386269 </i>
   </energy>
  </scstep>
  <scstep>
   <time name="diag">   16.51   16.51</time>
   <time name="diis">   14.24   14.25</time>
   <time name="orth">    9.38    9.38</time>
   <time name="total">   42.61   42.71</time>
   <energy>
    <i name="e_fr_energy">  -1121.46386317 </i>
    <i name="e_wo_entrp">  -1121.46386317 </i>
    <i name="e_0_energy">  -1121.46386317 </i>
   </energy>
  </scstep>
  <scstep>
   <time name="diag">   16.49   16.49</time>
   <time name="diis">   13.58   13.60</time>
   <time name="orth">    9.40    9.39</time>
   <time name="total">   41.93   42.02</time>
   <energy>
    <i name="e_fr_energy">  -1121.46386372 </i>
    <i name="e_wo_entrp">  -1121.46386372 </i>
    <i name="e_0_energy">  -1121.46386372 </i>
   </energy>
  </scstep>
  <scstep>
   <time name="diag">   16.48   16.48</time>
   <time name="diis">   13.00   13.00</time>
   <time name="orth">    9.40    9.40</time>
   <time name="total">   41.35   41.42</time>
   <energy>
    <i name="e_fr_energy">  -1121.46386382 </i>
    <i name="e_wo_entrp">  -1121.46386382 </i>
    <i name="e_0_energy">  -1121.46386382 </i>
   </energy>
  </scstep>
  <scstep>
   <time name="diag">   16.51   16.52</time>
   <time name="diis">   12.46   12.45</time>
   <time name="orth">    9.42    9.42</time>
   <time name="total">   40.88   40.93</time>
   <energy>
    <i name="e_fr_energy">  -1121.46386399 </i>
    <i name="e_wo_entrp">  -1121.46386399 </i>
    <i name="e_0_energy">  -1121.46386399 </i>
   </energy>
  </scstep>
  <scstep>
   <time name="diag">   16.51   16.51</time>
   <time name="diis">   12.21   12.21</time>
   <time name="orth">    9.38    9.39</time>
   <time name="total">   38.69   38.73</time>
   <energy>
    <i name="alphaZ">   5670.78456377 </i>
    <i name="ewald"> -61989.05253640 </i>
    <i name="hartreedc"> -15634.92082317 </i>
    <i name="XCdc">   2964.53686389 </i>
    <i name="pawpsdc"> 112510.17633055 </i>
    <i name="pawaedc">-111410.79326127 </i>
    <i name="eentropy">     -0.00000000 </i>
    <i name="bandstr">  -7015.64279796 </i>
    <i name="atom">  73783.44779670 </i>
    <i name="e_fr_energy">  -1121.46386389 </i>
    <i name="e_wo_entrp">  -1121.46386389 </i>
    <i name="e_0_energy">  -1121.46386389 </i>
   </energy>
  </scstep>
  <structure>
   <crystal>
    <varray name="basis" >
     <v>      11.17409681       0.00000000       0.00066673 </v>
     <v>       0.00000000      11.18240031       0.00000000 </v>
     <v>       0.00108894       0.00000000      15.92665839 </v>
    </varray>
    <i name="volume">   1990.08729938 </i>
    <varray name="rec_basis" >
     <v>       0.08949269       0.00000000      -0.00000612 </v>
     <v>       0.00000000       0.08942624       0.00000000 </v>
     <v>      -0.00000375       0.00000000       0.06278781 </v>
    </varray>
   </crystal>
   <varray name="positions" >
    <v>       0.00000000       0.25387455       0.12500000 </v>
    <v>       0.00000000       0.25145473       0.62500000 </v>
    <v>       0.00000000       0.74407969       0.12500000 </v>
    <v>       0.00000000       0.74896678       0.62500000 </v>
    <v>       0.50000000       0.25387455       0.12500000 </v>
    <v>       0.50000000       0.25145473       0.62500000 </v>
    <v>       0.50000000       0.74407969       0.12500000 </v>
    <v>       0.50000000       0.74896678       0.62500000 </v>
    <v>       0.99952316       0.25089685       0.37209777 </v>
    <v>       0.00047684       0.25089685       0.87790223 </v>
    <v>       0.99977559       0.75072042       0.36989642 </v>
    <v>       0.00022441       0.75072042       0.88010358 </v>
    <v>       0.49952316       0.25089685       0.37209777 </v>
    <v>       0.50047684       0.25089685       0.87790223 </v>
    <v>       0.49977559       0.75072042       0.36989642 </v>
    <v>       0.50022441       0.75072042       0.88010358 </v>
    <v>       0.25000000       0.99612545       0.12500000 </v>
    <v>       0.25000000       0.99854527       0.62500000 </v>
    <v>       0.25000000       0.50592031       0.12500000 </v>
    <v>       0.25000000       0.50103322       0.62500000 </v>
    <v>       0.75000000       0.99612545       0.12500000 </v>
    <v>       0.75000000       0.99854527       0.62500000 </v>
    <v>       0.75000000       0.50592031       0.12500000 </v>
    <v>       0.75000000       0.50103322       0.62500000 </v>
    <v>       0.24952316       0.99910315       0.37209777 </v>
    <v>       0.25047684       0.99910315       0.87790223 </v>
    <v>       0.24977559       0.49927958       0.36989642 </v>
    <v>       0.25022441       0.49927958       0.88010358 </v>
    <v>       0.74952316       0.99910315       0.37209777 </v>
    <v>       0.75047684       0.99910315       0.87790223 </v>
    <v>       0.74977559       0.49927958       0.36989642 </v>
    <v>       0.75022441       0.49927958       0.88010358 </v>
    <v>       0.00005223       0.00060389       0.50048095 </v>
    <v>       0.99982583       0.49698250       0.00152883 </v>
    <v>       0.99997413       0.49938463       0.49837471 </v>
    <v>       0.50005223       0.00060389       0.50048095 </v>
    <v>       0.49982583       0.49698250       0.00152883 </v>
    <v>       0.49997413       0.49938463       0.49837471 </v>
    <v>       0.25005223       0.24939611       0.50048095 </v>
    <v>       0.24982583       0.75301750       0.00152883 </v>
    <v>       0.24997413       0.75061537       0.49837471 </v>
    <v>       0.75005223       0.24939611       0.50048095 </v>
    <v>       0.74982583       0.75301750       0.00152883 </v>
    <v>       0.74997413       0.75061537       0.49837471 </v>
    <v>       0.24994777       0.24939611       0.74951905 </v>
    <v>       0.25017417       0.75301750       0.24847117 </v>
    <v>       0.25002587       0.75061537       0.75162529 </v>
    <v>       0.74994777       0.24939611       0.74951905 </v>
    <v>       0.75017417       0.75301750       0.24847117 </v>
    <v>       0.75002587       0.75061537       0.75162529 </v>
    <v>       0.99994777       0.00060389       0.74951905 </v>
    <v>       0.00017417       0.49698250       0.24847117 </v>
    <v>       0.00002587       0.49938463       0.75162529 </v>
    <v>       0.49994777       0.00060389       0.74951905 </v>
    <v>       0.50017417       0.49698250       0.24847117 </v>
    <v>       0.50002587       0.49938463       0.75162529 </v>
    <v>       0.00072992       0.00397374       0.25583351 </v>
    <v>       0.99927008       0.00397374       0.99416649 </v>
    <v>       0.75072992       0.24602626       0.25583351 </v>
    <v>       0.74927008       0.24602626       0.99416649 </v>
    <v>       0.50072992       0.00397374       0.25583351 </v>
    <v>       0.49927008       0.00397374       0.99416649 </v>
    <v>       0.25072992       0.24602626       0.25583351 </v>
    <v>       0.24927008       0.24602626       0.99416649 </v>
    <v>       0.00000000       0.99822010       0.62500000 </v>
    <v>       0.00000000       0.51350312       0.12500000 </v>
    <v>       0.00000000       0.50264635       0.62500000 </v>
    <v>       0.50000000       0.99822010       0.62500000 </v>
    <v>       0.50000000       0.51350312       0.12500000 </v>
    <v>       0.50000000       0.50264635       0.62500000 </v>
    <v>       0.99942657       0.00703534       0.37474912 </v>
    <v>       0.00057343       0.00703534       0.87525088 </v>
    <v>       0.00183692       0.48765630       0.37359047 </v>
    <v>       0.99816308       0.48765630       0.87640953 </v>
    <v>       0.49942657       0.00703534       0.37474912 </v>
    <v>       0.50057343       0.00703534       0.87525088 </v>
    <v>       0.50183692       0.48765630       0.37359047 </v>
    <v>       0.49816308       0.48765630       0.87640953 </v>
    <v>       0.24942657       0.24296466       0.37474912 </v>
    <v>       0.25057343       0.24296466       0.87525088 </v>
    <v>       0.25183692       0.76234370       0.37359047 </v>
    <v>       0.24816308       0.76234370       0.87640953 </v>
    <v>       0.74942657       0.24296466       0.37474912 </v>
    <v>       0.75057343       0.24296466       0.87525088 </v>
    <v>       0.75183692       0.76234370       0.37359047 </v>
    <v>       0.74816308       0.76234370       0.87640953 </v>
    <v>       0.25000000       0.25177990       0.62500000 </v>
    <v>       0.25000000       0.73649688       0.12500000 </v>
    <v>       0.25000000       0.74735365       0.62500000 </v>
    <v>       0.75000000       0.25177990       0.62500000 </v>
    <v>       0.75000000       0.73649688       0.12500000 </v>
    <v>       0.75000000       0.74735365       0.62500000 </v>
    <v>       0.12271401       0.12888074       0.23012479 </v>
    <v>       0.37271401       0.12111926       0.23012479 </v>
    <v>       0.62271401       0.12888074       0.23012479 </v>
    <v>       0.87271401       0.12111926       0.23012479 </v>
    <v>       0.13313757       0.37772317       0.23855608 </v>
    <v>       0.37776034       0.36849553       0.24037982 </v>
    <v>       0.63313757       0.37772317       0.23855608 </v>
    <v>       0.87776034       0.36849553       0.24037982 </v>
    <v>       0.11988438       0.63057813       0.25528141 </v>
    <v>       0.36988438       0.61942187       0.25528141 </v>
    <v>       0.61988438       0.63057813       0.25528141 </v>
    <v>       0.86988438       0.61942187       0.25528141 </v>
    <v>       0.12776034       0.88150447       0.24037982 </v>
    <v>       0.38313757       0.87227683       0.23855608 </v>
    <v>       0.62776034       0.88150447       0.24037982 </v>
    <v>       0.88313757       0.87227683       0.23855608 </v>
    <v>       0.14276738       0.10702333       0.50131712 </v>
    <v>       0.39276738       0.14297667       0.50131712 </v>
    <v>       0.64276738       0.10702333       0.50131712 </v>
    <v>       0.89276738       0.14297667       0.50131712 </v>
    <v>       0.10787032       0.35701156       0.50029331 </v>
    <v>       0.35757969       0.39191212       0.49915884 </v>
    <v>       0.60787032       0.35701156       0.50029331 </v>
    <v>       0.85757969       0.39191212       0.49915884 </v>
    <v>       0.14199664       0.60847829       0.49572381 </v>
    <v>       0.39199664       0.64152171       0.49572381 </v>
    <v>       0.64199664       0.60847829       0.49572381 </v>
    <v>       0.89199664       0.64152171       0.49572381 </v>
    <v>       0.10757969       0.85808788       0.49915884 </v>
    <v>       0.35787032       0.89298844       0.50029331 </v>
    <v>       0.60757969       0.85808788       0.49915884 </v>
    <v>       0.85787032       0.89298844       0.50029331 </v>
    <v>       0.10723262       0.14297667       0.74868288 </v>
    <v>       0.35723262       0.10702333       0.74868288 </v>
    <v>       0.60723262       0.14297667       0.74868288 </v>
    <v>       0.85723262       0.10702333       0.74868288 </v>
    <v>       0.14242031       0.39191212       0.75084116 </v>
    <v>       0.39212968       0.35701156       0.74970669 </v>
    <v>       0.64242031       0.39191212       0.75084116 </v>
    <v>       0.89212968       0.35701156       0.74970669 </v>
    <v>       0.10800336       0.64152171       0.75427619 </v>
    <v>       0.35800336       0.60847829       0.75427619 </v>
    <v>       0.60800336       0.64152171       0.75427619 </v>
    <v>       0.85800336       0.60847829       0.75427619 </v>
    <v>       0.14212968       0.89298844       0.74970669 </v>
    <v>       0.39242031       0.85808788       0.75084116 </v>
    <v>       0.64212968       0.89298844       0.74970669 </v>
    <v>       0.89242031       0.85808788       0.75084116 </v>
    <v>       0.12728599       0.12111926       0.01987521 </v>
    <v>       0.37728599       0.12888074       0.01987521 </v>
    <v>       0.62728599       0.12111926       0.01987521 </v>
    <v>       0.87728599       0.12888074       0.01987521 </v>
    <v>       0.12223966       0.36849553       0.00962018 </v>
    <v>       0.36686243       0.37772317       0.01144392 </v>
    <v>       0.62223966       0.36849553       0.00962018 </v>
    <v>       0.86686243       0.37772317       0.01144392 </v>
    <v>       0.13011562       0.61942187       0.99471859 </v>
    <v>       0.38011562       0.63057813       0.99471859 </v>
    <v>       0.63011562       0.61942187       0.99471859 </v>
    <v>       0.88011562       0.63057813       0.99471859 </v>
    <v>       0.11686243       0.87227683       0.01144392 </v>
    <v>       0.37223966       0.88150447       0.00962018 </v>
    <v>       0.61686243       0.87227683       0.01144392 </v>
    <v>       0.87223966       0.88150447       0.00962018 </v>
   </varray>
  </structure>
  <varray name="forces" >
   <v>      -0.00000000      -0.01855261       0.00000000 </v>
   <v>      -0.00000000      -0.03024161       0.00000000 </v>
   <v>      -0.00000000      -0.00055997       0.00000000 </v>
   <v>      -0.00000000       0.02696070       0.00000000 </v>
   <v>      -0.00000000      -0.01855261       0.00000000 </v>
   <v>      -0.00000000      -0.03024161       0.00000000 </v>
   <v>      -0.00000000      -0.00055997       0.00000000 </v>
   <v>      -0.00000000       0.02696070       0.00000000 </v>
   <v>       0.01654638      -0.04250641       0.00174022 </v>
   <v>      -0.01654638      -0.04250641      -0.00174022 </v>
   <v>       0.00075588       0.00223128       0.00357471 </v>
   <v>      -0.00075588       0.00223128      -0.00357471 </v>
   <v>       0.01654638      -0.04250641       0.00174022 </v>
   <v>      -0.01654638      -0.04250641      -0.00174022 </v>
   <v>       0.00075588       0.00223128       0.00357471 </v>
   <v>      -0.00075588       0.00223128      -0.00357471 </v>
   <v>      -0.00000000       0.01855261       0.00000000 </v>
   <v>      -0.00000000       0.03024161       0.00000000 </v>
   <v>      -0.00000000       0.00055997       0.00000000 </v>
   <v>      -0.00000000      -0.02696070       0.00000000 </v>
   <v>      -0.00000000       0.01855261       0.00000000 </v>
   <v>      -0.00000000       0.03024161       0.00000000 </v>
   <v>      -0.00000000       0.00055997       0.00000000 </v>
   <v>      -0.00000000      -0.02696070       0.00000000 </v>
   <v>       0.01654638       0.04250641       0.00174022 </v>
   <v>      -0.01654638       0.04250641      -0.00174022 </v>
   <v>       0.00075588      -0.00223128       0.00357471 </v>
   <v>      -0.00075588      -0.00223128      -0.00357471 </v>
   <v>       0.01654638       0.04250641       0.00174022 </v>
   <v>      -0.01654638       0.04250641      -0.00174022 </v>
   <v>       0.00075588      -0.00223128       0.00357471 </v>
   <v>      -0.00075588      -0.00223128      -0.00357471 </v>
   <v>      -0.01034015       0.01393642       0.00890444 </v>
   <v>      -0.02080692       0.00078507       0.03933673 </v>
   <v>       0.00714910      -0.04061820       0.02932151 </v>
   <v>      -0.01034015       0.01393642       0.00890444 </v>
   <v>      -0.02080692       0.00078507       0.03933673 </v>
   <v>       0.00714910      -0.04061820       0.02932151 </v>
   <v>      -0.01034015      -0.01393642       0.00890444 </v>
   <v>      -0.02080692      -0.00078507       0.03933673 </v>
   <v>       0.00714910       0.04061820       0.02932151 </v>
   <v>      -0.01034015      -0.01393642       0.00890444 </v>
   <v>      -0.02080692      -0.00078507       0.03933673 </v>
   <v>       0.00714910       0.04061820       0.02932151 </v>
   <v>       0.01034015      -0.01393642      -0.00890444 </v>
   <v>       0.02080692      -0.00078507      -0.03933673 </v>
   <v>      -0.00714910       0.04061820      -0.02932151 </v>
   <v>       0.01034015      -0.01393642      -0.00890444 </v>
   <v>       0.02080692      -0.00078507      -0.03933673 </v>
   <v>      -0.00714910       0.04061820      -0.02932151 </v>
   <v>       0.01034015       0.01393642      -0.00890444 </v>
   <v>       0.02080692       0.00078507      -0.03933673 </v>
   <v>      -0.00714910      -0.04061820      -0.02932151 </v>
   <v>       0.01034015       0.01393642      -0.00890444 </v>
   <v>       0.02080692       0.00078507      -0.03933673 </v>
   <v>      -0.00714910      -0.04061820      -0.02932151 </v>
   <v>      -0.03170352       0.05473297       0.02683667 </v>
   <v>       0.03170352       0.05473297      -0.02683667 </v>
   <v>      -0.03170352      -0.05473297       0.02683667 </v>
   <v>       0.03170352      -0.05473297      -0.02683667 </v>
   <v>      -0.03170352       0.05473297       0.02683667 </v>
   <v>       0.03170352       0.05473297      -0.02683667 </v>
   <v>      -0.03170352      -0.05473297       0.02683667 </v>
   <v>       0.03170352      -0.05473297      -0.02683667 </v>
   <v>      -0.00000000       0.03464302       0.00000000 </v>
   <v>      -0.00000000       0.01574826       0.00000000 </v>
   <v>      -0.00000000       0.03927573       0.00000000 </v>
   <v>      -0.00000000       0.03464302       0.00000000 </v>
   <v>      -0.00000000       0.01574826       0.00000000 </v>
   <v>      -0.00000000       0.03927573       0.00000000 </v>
   <v>       0.00529714      -0.03485956       0.04660795 </v>
   <v>      -0.00529714      -0.03485956      -0.04660795 </v>
   <v>      -0.01609646       0.01185561      -0.04221347 </v>
   <v>       0.01609646       0.01185561       0.04221347 </v>
   <v>       0.00529714      -0.03485956       0.04660795 </v>
   <v>      -0.00529714      -0.03485956      -0.04660795 </v>
   <v>      -0.01609646       0.01185561      -0.04221347 </v>
   <v>       0.01609646       0.01185561       0.04221347 </v>
   <v>       0.00529714       0.03485956       0.04660795 </v>
   <v>      -0.00529714       0.03485956      -0.04660795 </v>
   <v>      -0.01609646      -0.01185561      -0.04221347 </v>
   <v>       0.01609646      -0.01185561       0.04221347 </v>
   <v>       0.00529714       0.03485956       0.04660795 </v>
   <v>      -0.00529714       0.03485956      -0.04660795 </v>
   <v>      -0.01609646      -0.01185561      -0.04221347 </v>
   <v>       0.01609646      -0.01185561       0.04221347 </v>
   <v>      -0.00000000      -0.03464302       0.00000000 </v>
   <v>      -0.00000000      -0.01574826       0.00000000 </v>
   <v>      -0.00000000      -0.03927573       0.00000000 </v>
   <v>      -0.00000000      -0.03464302       0.00000000 </v>
   <v>      -0.00000000      -0.01574826       0.00000000 </v>
   <v>      -0.00000000      -0.03927573       0.00000000 </v>
   <v>      -0.01134776      -0.02154438      -0.02434139 </v>
   <v>      -0.01134776       0.02154438      -0.02434139 </v>
   <v>      -0.01134776      -0.02154438      -0.02434139 </v>
   <v>      -0.01134776       0.02154438      -0.02434139 </v>
   <v>      -0.03059468       0.01893065       0.00071641 </v>
   <v>       0.00080707       0.01525257      -0.00679388 </v>
   <v>      -0.03059468       0.01893065       0.00071641 </v>
   <v>       0.00080707       0.01525257      -0.00679388 </v>
   <v>      -0.00287085      -0.04441700       0.03432944 </v>
   <v>      -0.00287085       0.04441700       0.03432944 </v>
   <v>      -0.00287085      -0.04441700       0.03432944 </v>
   <v>      -0.00287085       0.04441700       0.03432944 </v>
   <v>       0.00080707      -0.01525257      -0.00679388 </v>
   <v>      -0.03059468      -0.01893065       0.00071641 </v>
   <v>       0.00080707      -0.01525257      -0.00679388 </v>
   <v>      -0.03059468      -0.01893065       0.00071641 </v>
   <v>       0.01484898       0.00795937      -0.02320062 </v>
   <v>       0.01484898      -0.00795937      -0.02320062 </v>
   <v>       0.01484898       0.00795937      -0.02320062 </v>
   <v>       0.01484898      -0.00795937      -0.02320062 </v>
   <v>       0.03329325      -0.00333771      -0.01082394 </v>
   <v>      -0.02599966      -0.01252639      -0.00234128 </v>
   <v>       0.03329325      -0.00333771      -0.01082394 </v>
   <v>      -0.02599966      -0.01252639      -0.00234128 </v>
   <v>      -0.01217795      -0.01010099      -0.03290339 </v>
   <v>      -0.01217795       0.01010099      -0.03290339 </v>
   <v>      -0.01217795      -0.01010099      -0.03290339 </v>
   <v>      -0.01217795       0.01010099      -0.03290339 </v>
   <v>      -0.02599966       0.01252639      -0.00234128 </v>
   <v>       0.03329325       0.00333771      -0.01082394 </v>
   <v>      -0.02599966       0.01252639      -0.00234128 </v>
   <v>       0.03329325       0.00333771      -0.01082394 </v>
   <v>      -0.01484898      -0.00795937       0.02320062 </v>
   <v>      -0.01484898       0.00795937       0.02320062 </v>
   <v>      -0.01484898      -0.00795937       0.02320062 </v>
   <v>      -0.01484898       0.00795937       0.02320062 </v>
   <v>       0.02599966      -0.01252639       0.00234128 </v>
   <v>      -0.03329325      -0.00333771       0.01082394 </v>
   <v>       0.02599966      -0.01252639       0.00234128 </v>
   <v>      -0.03329325      -0.00333771       0.01082394 </v>
   <v>       0.01217795       0.01010099       0.03290339 </v>
   <v>       0.01217795      -0.01010099       0.03290339 </v>
   <v>       0.01217795       0.01010099       0.03290339 </v>
   <v>       0.01217795      -0.01010099       0.03290339 </v>
   <v>      -0.03329325       0.00333771       0.01082394 </v>
   <v>       0.02599966       0.01252639       0.00234128 </v>
   <v>      -0.03329325       0.00333771       0.01082394 </v>
   <v>       0.02599966       0.01252639       0.00234128 </v>
   <v>       0.01134776       0.02154438       0.02434139 </v>
   <v>       0.01134776      -0.02154438       0.02434139 </v>
   <v>       0.01134776       0.02154438       0.02434139 </v>
   <v>       0.01134776      -0.02154438       0.02434139 </v>
   <v>      -0.00080707       0.01525257       0.00679388 </v>
   <v>       0.03059468       0.01893065      -0.00071641 </v>
   <v>      -0.00080707       0.01525257       0.00679388 </v>
   <v>       0.03059468       0.01893065      -0.00071641 </v>
   <v>       0.00287085       0.04441700      -0.03432944 </v>
   <v>       0.00287085      -0.04441700      -0.03432944 </v>
   <v>       0.00287085       0.04441700      -0.03432944 </v>
   <v>       0.00287085      -0.04441700      -0.03432944 </v>
   <v>       0.03059468      -0.01893065      -0.00071641 </v>
   <v>      -0.00080707      -0.01525257       0.00679388 </v>
   <v>       0.03059468      -0.01893065      -0.00071641 </v>
   <v>      -0.00080707      -0.01525257       0.00679388 </v>
  </varray>
  <varray name="stress" >
   <v>       1.14103039       0.00000000      -0.06717643 </v>
   <v>       0.00000000       1.31187033       0.00000000 </v>
   <v>      -0.06717708       0.00000000      -0.59111725 </v>
  </varray>
  <energy>
   <i name="e_fr_energy">  -1121.46386389 </i>
   <i name="e_wo_entrp">  -1121.46386389 </i>
   <i name="e_0_energy">     -0.00000000 </i>
  </energy>
  <time name="totalsc">  501.05  503.04</time>
 </calculation>
 <calculation>
  <scstep>
   <time name="dav">  141.39  141.38</time>
   <time name="total">  143.87  143.91</time>
   <energy>
    <i name="alphaZ">   5666.73196364 </i>
    <i name="ewald"> -61975.99052025 </i>
    <i name="hartreedc"> -15629.58327258 </i>
    <i name="XCdc">   2963.59366526 </i>
    <i name="pawpsdc"> 112510.16592744 </i>
    <i name="pawaedc">-111410.78324675 </i>
    <i name="eentropy">     -0.00000000 </i>
    <i name="bandstr">  -7029.04770724 </i>
    <i name="atom">  73783.44779670 </i>
    <i name="e_fr_energy">  -1121.46539378 </i>
    <i name="e_wo_entrp">  -1121.46539378 </i>
    <i name="e_0_energy">  -1121.46539378 </i>
   </energy>
  </scstep>
  <scstep>
   <time name="diag">   16.53   16.52</time>
   <time name="diis">   25.91   25.91</time>
   <time name="orth">    9.37    9.37</time>
   <time name="total">   54.33   54.37</time>
   <energy>
    <i name="e_fr_energy">  -1121.47164060 </i>
    <i name="e_wo_entrp">  -1121.47164060 </i>
    <i name="e_0_energy">  -1121.47164060 </i>
   </energy>
  </scstep>
  <scstep>
   <time name="diag">   16.49   16.53</time>
   <time name="diis">   27.09   27.09</time>
   <time name="orth">    9.36    9.36</time>
   <time name="total">   55.47   55.51</time>
   <energy>
    <i name="e_fr_energy">  -1121.47170110 </i>
    <i name="e_wo_entrp">  -1121.47170110 </i>
    <i name="e_0_energy">  -1121.47170110 </i>
   </energy>
  </scstep>
  <scstep>
   <time name="diag">   16.49   16.51</time>
   <time name="diis">   26.25   26.27</time>
   <time name="orth">    9.36    9.36</time>
   <time name="total">   54.63   54.72</time>
   <energy>
    <i name="e_fr_energy">  -1121.47102888 </i>
    <i name="e_wo_entrp">  -1121.47102888 </i>
    <i name="e_0_energy">  -1121.47102888 </i>
   </energy>
  </scstep>
  <scstep>
   <time name="diag">   16.52   16.53</time>
   <time name="diis">   23.13   23.13</time>
   <time name="orth">    9.38    9.38</time>
   <time name="total">   51.56   51.61</time>
   <energy>
    <i name="e_fr_energy">  -1121.47088635 </i>
    <i name="e_wo_entrp">  -1121.47088635 </i>
    <i name="e_0_energy">  -1121.47088635 </i>
   </energy>
  </scstep>
  <scstep>
   <time name="diag">   16.52   16.52</time>
   <time name="diis">   17.56   17.56</time>
   <time name="orth">    9.36    9.36</time>
   <time name="total">   45.97   46.02</time>
   <energy>
    <i name="e_fr_energy">  -1121.47087135 </i>
    <i name="e_wo_entrp">  -1121.47087135 </i>
    <i name="e_0_energy">  -1121.47087135 </i>
   </energy>
  </scstep>
  <scstep>
   <time name="diag">   16.52   16.52</time>
   <time name="diis">   16.07   16.07</time>
   <time name="orth">    9.36    9.37</time>
   <time name="total">   44.48   44.54</time>
   <energy>
    <i name="e_fr_energy">  -1121.47086717 </i>
    <i name="e_wo_entrp">  -1121.47086717 </i>
    <i name="e_0_energy">  -1121.47086717 </i>
   </energy>
  </scstep>
  <scstep>
   <time name="diag">   16.51   16.51</time>
   <time name="diis">   15.96   15.96</time>
   <time name="orth">    9.37    9.37</time>
   <time name="total">   42.42   42.44</time>
   <energy>
    <i name="alphaZ">   5666.73196364 </i>
    <i name="ewald"> -61975.99052025 </i>
    <i name="hartreedc"> -15639.10575922 </i>
    <i name="XCdc">   2964.27569583 </i>
    <i name="pawpsdc"> 112379.79329744 </i>
    <i name="pawaedc">-111280.31118999 </i>
    <i name="eentropy">     -0.00000000 </i>
    <i name="bandstr">  -7020.31214894 </i>
    <i name="atom">  73783.44779670 </i>
    <i name="e_fr_energy">  -1121.47086479 </i>
    <i name="e_wo_entrp">  -1121.47086479 </i>
    <i name="e_0_energy">  -1121.47086479 </i>
   </energy>
  </scstep>
  <structure>
   <crystal>
    <varray name="basis" >
     <v>      11.17899434       0.00000000       0.00037824 </v>
     <v>       0.00000000      11.18803531       0.00000000 </v>
     <v>       0.00067844       0.00000000      15.92304205 </v>
    </varray>
    <i name="volume">   1991.51052322 </i>
    <varray name="rec_basis" >
     <v>       0.08945348       0.00000000      -0.00000381 </v>
     <v>       0.00000000       0.08938120       0.00000000 </v>
     <v>      -0.00000212       0.00000000       0.06280207 </v>
    </varray>
   </crystal>
   <varray name="positions" >
    <v>      -0.00000000       0.25379451       0.12500000 </v>
    <v>      -0.00000000       0.25132426       0.62500000 </v>
    <v>      -0.00000000       0.74407727       0.12500000 </v>
    <v>      -0.00000000       0.74908310       0.62500000 </v>
    <v>       0.50000000       0.25379451       0.12500000 </v>
    <v>       0.50000000       0.25132426       0.62500000 </v>
    <v>       0.50000000       0.74407727       0.12500000 </v>
    <v>       0.50000000       0.74908310       0.62500000 </v>
    <v>       0.99959460       0.25071347       0.37210303 </v>
    <v>       0.00040540       0.25071347       0.87789697 </v>
    <v>       0.99977885       0.75073004       0.36990725 </v>
    <v>       0.00022115       0.75073004       0.88009275 </v>
    <v>       0.49959460       0.25071347       0.37210303 </v>
    <v>       0.50040540       0.25071347       0.87789697 </v>
    <v>       0.49977885       0.75073004       0.36990725 </v>
    <v>       0.50022115       0.75073004       0.88009275 </v>
    <v>       0.25000000       0.99620549       0.12500000 </v>
    <v>       0.25000000       0.99867574       0.62500000 </v>
    <v>       0.25000000       0.50592273       0.12500000 </v>
    <v>       0.25000000       0.50091690       0.62500000 </v>
    <v>       0.75000000       0.99620549       0.12500000 </v>
    <v>       0.75000000       0.99867574       0.62500000 </v>
    <v>       0.75000000       0.50592273       0.12500000 </v>
    <v>       0.75000000       0.50091690       0.62500000 </v>
    <v>       0.24959460       0.99928653       0.37210303 </v>
    <v>       0.25040540       0.99928653       0.87789697 </v>
    <v>       0.24977885       0.49926996       0.36990725 </v>
    <v>       0.25022115       0.49926996       0.88009275 </v>
    <v>       0.74959460       0.99928653       0.37210303 </v>
    <v>       0.75040540       0.99928653       0.87789697 </v>
    <v>       0.74977885       0.49926996       0.36990725 </v>
    <v>       0.75022115       0.49926996       0.88009275 </v>
    <v>       0.00000759       0.00066402       0.50050793 </v>
    <v>       0.99973598       0.49698588       0.00164799 </v>
    <v>       0.00000499       0.49920940       0.49846353 </v>
    <v>       0.50000759       0.00066402       0.50050793 </v>
    <v>       0.49973598       0.49698588       0.00164799 </v>
    <v>       0.50000499       0.49920940       0.49846353 </v>
    <v>       0.25000759       0.24933598       0.50050793 </v>
    <v>       0.24973598       0.75301412       0.00164799 </v>
    <v>       0.25000499       0.75079060       0.49846353 </v>
    <v>       0.75000759       0.24933598       0.50050793 </v>
    <v>       0.74973598       0.75301412       0.00164799 </v>
    <v>       0.75000499       0.75079060       0.49846353 </v>
    <v>       0.24999241       0.24933598       0.74949207 </v>
    <v>       0.25026402       0.75301412       0.24835201 </v>
    <v>       0.24999501       0.75079060       0.75153647 </v>
    <v>       0.74999241       0.24933598       0.74949207 </v>
    <v>       0.75026402       0.75301412       0.24835201 </v>
    <v>       0.74999501       0.75079060       0.75153647 </v>
    <v>       0.99999241       0.00066402       0.74949207 </v>
    <v>       0.00026402       0.49698588       0.24835201 </v>
    <v>      -0.00000499       0.49920940       0.75153647 </v>
    <v>       0.49999241       0.00066402       0.74949207 </v>
    <v>       0.50026402       0.49698588       0.24835201 </v>
    <v>       0.49999501       0.49920940       0.75153647 </v>
    <v>       0.00059303       0.00420987       0.25591481 </v>
    <v>       0.99940697       0.00420987       0.99408519 </v>
    <v>       0.75059303       0.24579013       0.25591481 </v>
    <v>       0.74940697       0.24579013       0.99408519 </v>
    <v>       0.50059303       0.00420987       0.25591481 </v>
    <v>       0.49940697       0.00420987       0.99408519 </v>
    <v>       0.25059303       0.24579013       0.25591481 </v>
    <v>       0.24940697       0.24579013       0.99408519 </v>
    <v>      -0.00000000       0.99836955       0.62500000 </v>
    <v>      -0.00000000       0.51357106       0.12500000 </v>
    <v>      -0.00000000       0.50281579       0.62500000 </v>
    <v>       0.50000000       0.99836955       0.62500000 </v>
    <v>       0.50000000       0.51357106       0.12500000 </v>
    <v>       0.50000000       0.50281579       0.62500000 </v>
    <v>       0.99944943       0.00688495       0.37489030 </v>
    <v>       0.00055057       0.00688495       0.87510970 </v>
    <v>       0.00176744       0.48770745       0.37346260 </v>
    <v>       0.99823256       0.48770745       0.87653740 </v>
    <v>       0.49944943       0.00688495       0.37489030 </v>
    <v>       0.50055057       0.00688495       0.87510970 </v>
    <v>       0.50176744       0.48770745       0.37346260 </v>
    <v>       0.49823256       0.48770745       0.87653740 </v>
    <v>       0.24944943       0.24311505       0.37489030 </v>
    <v>       0.25055057       0.24311505       0.87510970 </v>
    <v>       0.25176744       0.76229255       0.37346260 </v>
    <v>       0.24823256       0.76229255       0.87653740 </v>
    <v>       0.74944943       0.24311505       0.37489030 </v>
    <v>       0.75055057       0.24311505       0.87510970 </v>
    <v>       0.75176744       0.76229255       0.37346260 </v>
    <v>       0.74823256       0.76229255       0.87653740 </v>
    <v>       0.25000000       0.25163045       0.62500000 </v>
    <v>       0.25000000       0.73642894       0.12500000 </v>
    <v>       0.25000000       0.74718421       0.62500000 </v>
    <v>       0.75000000       0.25163045       0.62500000 </v>
    <v>       0.75000000       0.73642894       0.12500000 </v>
    <v>       0.75000000       0.74718421       0.62500000 </v>
    <v>       0.12266503       0.12878779       0.23005106 </v>
    <v>       0.37266503       0.12121221       0.23005106 </v>
    <v>       0.62266503       0.12878779       0.23005106 </v>
    <v>       0.87266503       0.12121221       0.23005106 </v>
    <v>       0.13300548       0.37780484       0.23855826 </v>
    <v>       0.37776382       0.36856133       0.24035924 </v>
    <v>       0.63300548       0.37780484       0.23855826 </v>
    <v>       0.87776382       0.36856133       0.24035924 </v>
    <v>       0.11987198       0.63038651       0.25538540 </v>
    <v>       0.36987198       0.61961349       0.25538540 </v>
    <v>       0.61987198       0.63038651       0.25538540 </v>
    <v>       0.86987198       0.61961349       0.25538540 </v>
    <v>       0.12776382       0.88143867       0.24035924 </v>
    <v>       0.38300548       0.87219516       0.23855826 </v>
    <v>       0.62776382       0.88143867       0.24035924 </v>
    <v>       0.88300548       0.87219516       0.23855826 </v>
    <v>       0.14283150       0.10705766       0.50124684 </v>
    <v>       0.39283150       0.14294234       0.50124684 </v>
    <v>       0.64283150       0.10705766       0.50124684 </v>
    <v>       0.89283150       0.14294234       0.50124684 </v>
    <v>       0.10801406       0.35699716       0.50026052 </v>
    <v>       0.35746744       0.39185807       0.49915176 </v>
    <v>       0.60801406       0.35699716       0.50026052 </v>
    <v>       0.85746744       0.39185807       0.49915176 </v>
    <v>       0.14194407       0.60843471       0.49562414 </v>
    <v>       0.39194407       0.64156529       0.49562414 </v>
    <v>       0.64194407       0.60843471       0.49562414 </v>
    <v>       0.89194407       0.64156529       0.49562414 </v>
    <v>       0.10746744       0.85814193       0.49915176 </v>
    <v>       0.35801406       0.89300284       0.50026052 </v>
    <v>       0.60746744       0.85814193       0.49915176 </v>
    <v>       0.85801406       0.89300284       0.50026052 </v>
    <v>       0.10716850       0.14294234       0.74875316 </v>
    <v>       0.35716850       0.10705766       0.74875316 </v>
    <v>       0.60716850       0.14294234       0.74875316 </v>
    <v>       0.85716850       0.10705766       0.74875316 </v>
    <v>       0.14253256       0.39185807       0.75084824 </v>
    <v>       0.39198594       0.35699716       0.74973948 </v>
    <v>       0.64253256       0.39185807       0.75084824 </v>
    <v>       0.89198594       0.35699716       0.74973948 </v>
    <v>       0.10805593       0.64156529       0.75437586 </v>
    <v>       0.35805593       0.60843471       0.75437586 </v>
    <v>       0.60805593       0.64156529       0.75437586 </v>
    <v>       0.85805593       0.60843471       0.75437586 </v>
    <v>       0.14198594       0.89300284       0.74973948 </v>
    <v>       0.39253256       0.85814193       0.75084824 </v>
    <v>       0.64198594       0.89300284       0.74973948 </v>
    <v>       0.89253256       0.85814193       0.75084824 </v>
    <v>       0.12733497       0.12121221       0.01994894 </v>
    <v>       0.37733497       0.12878779       0.01994894 </v>
    <v>       0.62733497       0.12121221       0.01994894 </v>
    <v>       0.87733497       0.12878779       0.01994894 </v>
    <v>       0.12223618       0.36856133       0.00964076 </v>
    <v>       0.36699452       0.37780484       0.01144174 </v>
    <v>       0.62223618       0.36856133       0.00964076 </v>
    <v>       0.86699452       0.37780484       0.01144174 </v>
    <v>       0.13012802       0.61961349       0.99461460 </v>
    <v>       0.38012802       0.63038651       0.99461460 </v>
    <v>       0.63012802       0.61961349       0.99461460 </v>
    <v>       0.88012802       0.63038651       0.99461460 </v>
    <v>       0.11699452       0.87219516       0.01144174 </v>
    <v>       0.37223618       0.88143867       0.00964076 </v>
    <v>       0.61699452       0.87219516       0.01144174 </v>
    <v>       0.87223618       0.88143867       0.00964076 </v>
   </varray>
  </structure>
  <varray name="forces" >
   <v>      -0.00000000       0.00434756      -0.00000000 </v>
   <v>      -0.00000000      -0.02712569      -0.00000000 </v>
   <v>      -0.00000000       0.00355913      -0.00000000 </v>
   <v>      -0.00000000       0.01004953      -0.00000000 </v>
   <v>      -0.00000000       0.00434756      -0.00000000 </v>
   <v>      -0.00000000      -0.02712569      -0.00000000 </v>
   <v>      -0.00000000       0.00355913      -0.00000000 </v>
   <v>      -0.00000000       0.01004953      -0.00000000 </v>
   <v>       0.01162420      -0.00946069       0.00322218 </v>
   <v>      -0.01162420      -0.00946069      -0.00322218 </v>
   <v>       0.00450607      -0.01332708      -0.00403500 </v>
   <v>      -0.00450607      -0.01332708       0.00403500 </v>
   <v>       0.01162420      -0.00946069       0.00322218 </v>
   <v>      -0.01162420      -0.00946069      -0.00322218 </v>
   <v>       0.00450607      -0.01332708      -0.00403500 </v>
   <v>      -0.00450607      -0.01332708       0.00403500 </v>
   <v>      -0.00000000      -0.00434756      -0.00000000 </v>
   <v>      -0.00000000       0.02712569      -0.00000000 </v>
   <v>      -0.00000000      -0.00355913      -0.00000000 </v>
   <v>      -0.00000000      -0.01004953      -0.00000000 </v>
   <v>      -0.00000000      -0.00434756      -0.00000000 </v>
   <v>      -0.00000000       0.02712569      -0.00000000 </v>
   <v>      -0.00000000      -0.00355913      -0.00000000 </v>
   <v>      -0.00000000      -0.01004953      -0.00000000 </v>
   <v>       0.01162420       0.00946069       0.00322218 </v>
   <v>      -0.01162420       0.00946069      -0.00322218 </v>
   <v>       0.00450607       0.01332708      -0.00403500 </v>
   <v>      -0.00450607       0.01332708       0.00403500 </v>
   <v>       0.01162420       0.00946069       0.00322218 </v>
   <v>      -0.01162420       0.00946069      -0.00322218 </v>
   <v>       0.00450607       0.01332708      -0.00403500 </v>
   <v>      -0.00450607       0.01332708       0.00403500 </v>
   <v>       0.00321883      -0.00723574       0.00618423 </v>
   <v>      -0.00308264       0.01939905      -0.01541842 </v>
   <v>       0.00044340       0.00643334      -0.04502310 </v>
   <v>       0.00321883      -0.00723574       0.00618423 </v>
   <v>      -0.00308264       0.01939905      -0.01541842 </v>
   <v>       0.00044340       0.00643334      -0.04502310 </v>
   <v>       0.00321883       0.00723574       0.00618423 </v>
   <v>      -0.00308264      -0.01939905      -0.01541842 </v>
   <v>       0.00044340      -0.00643334      -0.04502310 </v>
   <v>       0.00321883       0.00723574       0.00618423 </v>
   <v>      -0.00308264      -0.01939905      -0.01541842 </v>
   <v>       0.00044340      -0.00643334      -0.04502310 </v>
   <v>      -0.00321883       0.00723574      -0.00618423 </v>
   <v>       0.00308264      -0.01939905       0.01541842 </v>
   <v>      -0.00044340      -0.00643334       0.04502310 </v>
   <v>      -0.00321883       0.00723574      -0.00618423 </v>
   <v>       0.00308264      -0.01939905       0.01541842 </v>
   <v>      -0.00044340      -0.00643334       0.04502310 </v>
   <v>      -0.00321883      -0.00723574      -0.00618423 </v>
   <v>       0.00308264       0.01939905       0.01541842 </v>
   <v>      -0.00044340       0.00643334       0.04502310 </v>
   <v>      -0.00321883      -0.00723574      -0.00618423 </v>
   <v>       0.00308264       0.01939905       0.01541842 </v>
   <v>      -0.00044340       0.00643334       0.04502310 </v>
   <v>      -0.01559046      -0.01899538       0.01419191 </v>
   <v>       0.01559046      -0.01899538      -0.01419191 </v>
   <v>      -0.01559046       0.01899538       0.01419191 </v>
   <v>       0.01559046       0.01899538      -0.01419191 </v>
   <v>      -0.01559046      -0.01899538       0.01419191 </v>
   <v>       0.01559046      -0.01899538      -0.01419191 </v>
   <v>      -0.01559046       0.01899538       0.01419191 </v>
   <v>       0.01559046       0.01899538      -0.01419191 </v>
   <v>      -0.00000000       0.04064261      -0.00000000 </v>
   <v>      -0.00000000       0.01888265      -0.00000000 </v>
   <v>      -0.00000000       0.01347024      -0.00000000 </v>
   <v>      -0.00000000       0.04064261      -0.00000000 </v>
   <v>      -0.00000000       0.01888265      -0.00000000 </v>
   <v>      -0.00000000       0.01347024      -0.00000000 </v>
   <v>       0.00296567      -0.01457081      -0.00054539 </v>
[...]
       <r>   -16.2471     0.0000    32.0000 </r>
       <r>   -16.0945     0.0000    32.0000 </r>
       <r>   -15.9420     0.0000    32.0000 </r>
       <r>   -15.7895     0.0000    32.0000 </r>
       <r>   -15.6370     0.0000    32.0000 </r>
       <r>   -15.4845     0.0000    32.0000 </r>
       <r>   -15.3319     0.0000    32.0000 </r>
       <r>   -15.1794     0.0003    32.0000 </r>
       <r>   -15.0269     9.9724    33.5211 </r>
       <r>   -14.8744    46.0504    40.5447 </r>
       <r>   -14.7219    45.6394    47.5058 </r>
       <r>   -14.5693    37.2692    53.1901 </r>
       <r>   -14.4168    31.6140    58.0120 </r>
       <r>   -14.2643    30.2873    62.6314 </r>
       <r>   -14.1118    69.6084    73.2482 </r>
       <r>   -13.9592   142.2232    94.9404 </r>
       <r>   -13.8067   116.9533   112.7784 </r>
       <r>   -13.6542    36.8509   118.3989 </r>
       <r>   -13.5017    18.1973   121.1744 </r>
       <r>   -13.3492    11.9085   122.9907 </r>
       <r>   -13.1966     6.5078   123.9833 </r>
       <r>   -13.0441     0.1094   124.0000 </r>
       <r>   -12.8916     0.0000   124.0000 </r>
       <r>   -12.7391     0.7447   124.1136 </r>
       <r>   -12.5865    43.3322   130.7227 </r>
       <r>   -12.4340   130.7377   150.6631 </r>
       <r>   -12.2815   117.5606   168.5936 </r>
       <r>   -12.1290   124.6201   187.6009 </r>
       <r>   -11.9765    96.0733   202.2542 </r>
       <r>   -11.8239    60.3041   211.4519 </r>
       <r>   -11.6714    19.3826   214.4082 </r>
       <r>   -11.5189    26.1469   218.3962 </r>
       <r>   -11.3664    10.4538   219.9906 </r>
       <r>   -11.2138     0.0616   220.0000 </r>
       <r>   -11.0613     0.0000   220.0000 </r>
       <r>   -10.9088     0.0000   220.0000 </r>
       <r>   -10.7563     0.0000   220.0000 </r>
       <r>   -10.6038     0.0000   220.0000 </r>
       <r>   -10.4512     0.0000   220.0000 </r>
       <r>   -10.2987     0.0000   220.0000 </r>
       <r>   -10.1462     0.0000   220.0000 </r>
       <r>    -9.9937     0.0000   220.0000 </r>
       <r>    -9.8412     0.0000   220.0000 </r>
       <r>    -9.6886     0.0000   220.0000 </r>
       <r>    -9.5361     0.0000   220.0000 </r>
       <r>    -9.3836     0.0000   220.0000 </r>
       <r>    -9.2311     0.0000   220.0000 </r>
       <r>    -9.0785     0.0000   220.0000 </r>
       <r>    -8.9260     0.0000   220.0000 </r>
       <r>    -8.7735     0.0000   220.0000 </r>
       <r>    -8.6210     0.0000   220.0000 </r>
       <r>    -8.4685     0.0000   220.0000 </r>
       <r>    -8.3159     0.0000   220.0000 </r>
       <r>    -8.1634     0.0000   220.0000 </r>
       <r>    -8.0109     0.0000   220.0000 </r>
       <r>    -7.8584     0.0000   220.0000 </r>
       <r>    -7.7058     0.0000   220.0000 </r>
       <r>    -7.5533     0.0000   220.0000 </r>
       <r>    -7.4008     0.0000   220.0000 </r>
       <r>    -7.2483     0.0000   220.0000 </r>
       <r>    -7.0958     0.0000   220.0000 </r>
       <r>    -6.9432     0.0000   220.0000 </r>
       <r>    -6.7907     0.0000   220.0000 </r>
       <r>    -6.6382     0.0000   220.0000 </r>
       <r>    -6.4857     0.0000   220.0000 </r>
       <r>    -6.3331     0.0000   220.0000 </r>
       <r>    -6.1806     0.0000   220.0000 </r>
       <r>    -6.0281     0.0000   220.0000 </r>
       <r>    -5.8756     0.0000   220.0000 </r>
       <r>    -5.7231     0.0000   220.0000 </r>
       <r>    -5.5705     0.0000   220.0000 </r>
       <r>    -5.4180     0.0000   220.0000 </r>
       <r>    -5.2655     0.0000   220.0000 </r>
       <r>    -5.1130     0.0000   220.0000 </r>
       <r>    -4.9604     0.0000   220.0000 </r>
       <r>    -4.8079     0.0000   220.0000 </r>
       <r>    -4.6554     0.0000   220.0000 </r>
       <r>    -4.5029     0.0000   220.0000 </r>
       <r>    -4.3504     0.0000   220.0000 </r>
       <r>    -4.1978     0.0000   220.0000 </r>
       <r>    -4.0453     0.0000   220.0000 </r>
       <r>    -3.8928     0.0000   220.0000 </r>
       <r>    -3.7403     0.0000   220.0000 </r>
       <r>    -3.5878     0.0000   220.0000 </r>
       <r>    -3.4352     0.0000   220.0000 </r>
       <r>    -3.2827     0.0000   220.0000 </r>
       <r>    -3.1302     0.0000   220.0000 </r>
       <r>    -2.9777     0.0000   220.0000 </r>
       <r>    -2.8251     0.0000   220.0000 </r>
       <r>    -2.6726     0.0000   220.0000 </r>
       <r>    -2.5201     0.0000   220.0000 </r>
       <r>    -2.3676     0.1964   220.0299 </r>
       <r>    -2.2151     7.1150   221.1151 </r>
       <r>    -2.0625    15.3553   223.4572 </r>
       <r>    -1.9100    43.8469   230.1448 </r>
       <r>    -1.7575    39.2729   236.1348 </r>
       <r>    -1.6050    56.2105   244.7081 </r>
       <r>    -1.4524    56.6248   253.3446 </r>
       <r>    -1.2999    50.9124   261.1099 </r>
       <r>    -1.1474    69.4124   271.6968 </r>
       <r>    -0.9949    63.3305   281.3561 </r>
       <r>    -0.8424    66.3031   291.4688 </r>
       <r>    -0.6898    86.8713   304.7185 </r>
       <r>    -0.5373   109.1175   321.3613 </r>
       <r>    -0.3848   121.7575   339.9320 </r>
       <r>    -0.2323    64.3928   349.7533 </r>
       <r>    -0.0797    44.6659   356.5659 </r>
       <r>     0.0728    50.0926   364.2061 </r>
       <r>     0.2253    50.1159   371.8499 </r>
       <r>     0.3778    42.7805   378.3748 </r>
       <r>     0.5303    57.0654   387.0785 </r>
       <r>     0.6829    57.2614   395.8122 </r>
       <r>     0.8354    48.9682   403.2809 </r>
       <r>     0.9879    59.4913   412.3546 </r>
       <r>     1.1404    54.9896   420.7417 </r>
       <r>     1.2930    78.7437   432.7519 </r>
       <r>     1.4455    81.3804   445.1642 </r>
       <r>     1.5980    92.1773   459.2232 </r>
       <r>     1.7505    77.5670   471.0539 </r>
       <r>     1.9030    61.0702   480.3685 </r>
       <r>     2.0556    50.4721   488.0666 </r>
       <r>     2.2081    38.5112   493.9404 </r>
       <r>     2.3606     0.3910   494.0000 </r>
       <r>     2.5131     1.6665   494.2542 </r>
       <r>     2.6656    11.4277   495.9972 </r>
       <r>     2.8182     0.0186   496.0000 </r>
       <r>     2.9707     0.0000   496.0000 </r>
       <r>     3.1232     0.0000   496.0000 </r>
       <r>     3.2757     0.0000   496.0000 </r>
       <r>     3.4283     0.0000   496.0000 </r>
       <r>     3.5808     0.0000   496.0000 </r>
       <r>     3.7333     0.0000   496.0000 </r>
       <r>     3.8858     0.0000   496.0000 </r>
       <r>     4.0383     0.0011   496.0002 </r>
       <r>     4.1909     4.9969   496.7623 </r>
       <r>     4.3434     1.9291   497.0565 </r>
       <r>     4.4959     9.0892   498.4428 </r>
       <r>     4.6484    27.0160   502.5633 </r>
       <r>     4.8010    44.5042   509.3512 </r>
       <r>     4.9535    50.6580   517.0777 </r>
       <r>     5.1060    22.6143   520.5269 </r>
       <r>     5.2585    34.8874   525.8479 </r>
       <r>     5.4110    75.7090   537.3952 </r>
       <r>     5.5636    72.7293   548.4880 </r>
       <r>     5.7161    45.7007   555.4584 </r>
       <r>     5.8686    91.0016   569.3381 </r>
       <r>     6.0211    98.1018   584.3008 </r>
       <r>     6.1737    68.1958   594.7022 </r>
       <r>     6.3262    62.2557   604.1975 </r>
       <r>     6.4787    39.4282   610.2112 </r>
       <r>     6.6312    26.2105   614.2089 </r>
       <r>     6.7837    16.8996   616.7864 </r>
       <r>     6.9363    26.3235   620.8013 </r>
       <r>     7.0888    14.5569   623.0216 </r>
       <r>     7.2413    21.3639   626.2800 </r>
       <r>     7.3938    21.5004   629.5593 </r>
       <r>     7.5464     9.6803   631.0358 </r>
       <r>     7.6989    14.0903   633.1849 </r>
       <r>     7.8514    18.7702   636.0477 </r>
       <r>     8.0039    19.4617   639.0161 </r>
       <r>     8.1564    23.2308   642.5593 </r>
       <r>     8.3090    18.6859   645.4093 </r>
       <r>     8.4615    26.9589   649.5211 </r>
       <r>     8.6140    20.5006   652.6479 </r>
       <r>     8.7665    27.5629   656.8519 </r>
       <r>     8.9190    30.1880   661.4562 </r>
       <r>     9.0716    36.6956   667.0531 </r>
       <r>     9.2241    28.0703   671.3344 </r>
       <r>     9.3766    45.4442   678.2656 </r>
       <r>     9.5291    39.3070   684.2608 </r>
       <r>     9.6817    44.8052   691.0946 </r>
       <r>     9.8342    53.6566   699.2784 </r>
       <r>     9.9867    64.9404   709.1832 </r>
       <r>    10.1392    75.5970   720.7134 </r>
       <r>    10.2917    61.7848   730.1370 </r>
       <r>    10.4443    60.9819   739.4381 </r>
       <r>    10.5968    60.5203   748.6687 </r>
       <r>    10.7493    48.4200   756.0539 </r>
       <r>    10.9018    57.3923   764.8074 </r>
       <r>    11.0544    20.9148   767.9974 </r>
       <r>    11.2069     0.0171   768.0000 </r>
       <r>    11.3594     0.0000   768.0000 </r>
       <r>    11.5119     0.0000   768.0000 </r>
       <r>    11.6644     0.0000   768.0000 </r>
       <r>    11.8170     0.0000   768.0000 </r>
       <r>    11.9695     0.0000   768.0000 </r>
       <r>    12.1220     0.0000   768.0000 </r>
       <r>    12.2745     0.0000   768.0000 </r>
       <r>    12.4271     0.0000   768.0000 </r>
       <r>    12.5796     0.0000   768.0000 </r>
       <r>    12.7321     0.0000   768.0000 </r>
       <r>    12.8846     0.0000   768.0000 </r>
       <r>    13.0371     0.0000   768.0000 </r>
      </set>
     </set>
    </array>
   </total>
  </dos>
 </calculation>
 <structure name="finalpos" >
  <crystal>
   <varray name="basis" >
    <v>      11.17817571       0.00000000      -0.00107067 </v>
    <v>       0.00000000      11.18763567       0.00000000 </v>
    <v>      -0.00138467       0.00000000      15.91794987 </v>
   </varray>
   <i name="volume">   1990.65672666 </i>
   <varray name="rec_basis" >
    <v>       0.08946004       0.00000000       0.00000778 </v>
    <v>       0.00000000       0.08938439       0.00000000 </v>
    <v>       0.00000602       0.00000000       0.06282216 </v>
   </varray>
  </crystal>
  <varray name="positions" >
   <v>      -0.00000000       0.25376894       0.12500000 </v>
   <v>      -0.00000000       0.25095462       0.62500000 </v>
   <v>      -0.00000000       0.74420076       0.12500000 </v>
   <v>      -0.00000000       0.74921932       0.62500000 </v>
   <v>       0.50000000       0.25376894       0.12500000 </v>
   <v>       0.50000000       0.25095462       0.62500000 </v>
   <v>       0.50000000       0.74420076       0.12500000 </v>
   <v>       0.50000000       0.74921932       0.62500000 </v>
   <v>       0.99976779       0.25048269       0.37212499 </v>
   <v>       0.00023221       0.25048269       0.87787501 </v>
   <v>       0.99985080       0.75062287       0.36990015 </v>
   <v>       0.00014920       0.75062287       0.88009985 </v>
   <v>       0.49976779       0.25048269       0.37212499 </v>
   <v>       0.50023221       0.25048269       0.87787501 </v>
   <v>       0.49985080       0.75062287       0.36990015 </v>
   <v>       0.50014920       0.75062287       0.88009985 </v>
   <v>       0.25000000       0.99623106       0.12500000 </v>
   <v>       0.25000000       0.99904538       0.62500000 </v>
   <v>       0.25000000       0.50579924       0.12500000 </v>
   <v>       0.25000000       0.50078068       0.62500000 </v>
   <v>       0.75000000       0.99623106       0.12500000 </v>
   <v>       0.75000000       0.99904538       0.62500000 </v>
   <v>       0.75000000       0.50579924       0.12500000 </v>
   <v>       0.75000000       0.50078068       0.62500000 </v>
   <v>       0.24976779       0.99951731       0.37212499 </v>
   <v>       0.25023221       0.99951731       0.87787501 </v>
   <v>       0.24985080       0.49937713       0.36990015 </v>
   <v>       0.25014920       0.49937713       0.88009985 </v>
   <v>       0.74976779       0.99951731       0.37212499 </v>
   <v>       0.75023221       0.99951731       0.87787501 </v>
   <v>       0.74985080       0.49937713       0.36990015 </v>
   <v>       0.75014920       0.49937713       0.88009985 </v>
   <v>       0.00005023       0.00063677       0.50054490 </v>
   <v>       0.99969566       0.49700694       0.00160092 </v>
   <v>      -0.00000240       0.49922805       0.49829804 </v>
   <v>       0.50005023       0.00063677       0.50054490 </v>
   <v>       0.49969566       0.49700694       0.00160092 </v>
   <v>       0.49999760       0.49922805       0.49829804 </v>
   <v>       0.25005023       0.24936323       0.50054490 </v>
   <v>       0.24969566       0.75299306       0.00160092 </v>
   <v>       0.24999760       0.75077195       0.49829804 </v>
   <v>       0.75005023       0.24936323       0.50054490 </v>
   <v>       0.74969566       0.75299306       0.00160092 </v>
   <v>       0.74999760       0.75077195       0.49829804 </v>
   <v>       0.24994977       0.24936323       0.74945510 </v>
   <v>       0.25030434       0.75299306       0.24839908 </v>
   <v>       0.25000240       0.75077195       0.75170196 </v>
   <v>       0.74994977       0.24936323       0.74945510 </v>
   <v>       0.75030434       0.75299306       0.24839908 </v>
   <v>       0.75000240       0.75077195       0.75170196 </v>
   <v>       0.99994977       0.00063677       0.74945510 </v>
   <v>       0.00030434       0.49700694       0.24839908 </v>
   <v>       0.00000240       0.49922805       0.75170196 </v>
   <v>       0.49994977       0.00063677       0.74945510 </v>
   <v>       0.50030434       0.49700694       0.24839908 </v>
   <v>       0.50000240       0.49922805       0.75170196 </v>
   <v>       0.00036551       0.00415296       0.25600610 </v>
   <v>       0.99963449       0.00415296       0.99399390 </v>
   <v>       0.75036551       0.24584704       0.25600610 </v>
   <v>       0.74963449       0.24584704       0.99399390 </v>
   <v>       0.50036551       0.00415296       0.25600610 </v>
   <v>       0.49963449       0.00415296       0.99399390 </v>
   <v>       0.25036551       0.24584704       0.25600610 </v>
   <v>       0.24963449       0.24584704       0.99399390 </v>
   <v>      -0.00000000       0.99896608       0.62500000 </v>
   <v>      -0.00000000       0.51386877       0.12500000 </v>
   <v>      -0.00000000       0.50307068       0.62500000 </v>
   <v>       0.50000000       0.99896608       0.62500000 </v>
   <v>       0.50000000       0.51386877       0.12500000 </v>
   <v>       0.50000000       0.50307068       0.62500000 </v>
   <v>       0.99950219       0.00663327       0.37495053 </v>
   <v>       0.00049781       0.00663327       0.87504947 </v>
   <v>       0.00150477       0.48763569       0.37345543 </v>
   <v>       0.99849523       0.48763569       0.87654457 </v>
   <v>       0.49950219       0.00663327       0.37495053 </v>
   <v>       0.50049781       0.00663327       0.87504947 </v>
   <v>       0.50150477       0.48763569       0.37345543 </v>
   <v>       0.49849523       0.48763569       0.87654457 </v>
   <v>       0.24950219       0.24336673       0.37495053 </v>
   <v>       0.25049781       0.24336673       0.87504947 </v>
   <v>       0.25150477       0.76236431       0.37345543 </v>
   <v>       0.24849523       0.76236431       0.87654457 </v>
   <v>       0.74950219       0.24336673       0.37495053 </v>
   <v>       0.75049781       0.24336673       0.87504947 </v>
   <v>       0.75150477       0.76236431       0.37345543 </v>
   <v>       0.74849523       0.76236431       0.87654457 </v>
   <v>       0.25000000       0.25103392       0.62500000 </v>
   <v>       0.25000000       0.73613123       0.12500000 </v>
   <v>       0.25000000       0.74692932       0.62500000 </v>
   <v>       0.75000000       0.25103392       0.62500000 </v>
   <v>       0.75000000       0.73613123       0.12500000 </v>
   <v>       0.75000000       0.74692932       0.62500000 </v>
   <v>       0.12253260       0.12857945       0.22999846 </v>
   <v>       0.37253260       0.12142055       0.22999846 </v>
   <v>       0.62253260       0.12857945       0.22999846 </v>
   <v>       0.87253260       0.12142055       0.22999846 </v>
   <v>       0.13285895       0.37759095       0.23856416 </v>
   <v>       0.37749432       0.36858136       0.24025978 </v>
   <v>       0.63285895       0.37759095       0.23856416 </v>
   <v>       0.87749432       0.36858136       0.24025978 </v>
   <v>       0.12002020       0.63002529       0.25555679 </v>
   <v>       0.37002020       0.61997471       0.25555679 </v>
   <v>       0.62002020       0.63002529       0.25555679 </v>
   <v>       0.87002020       0.61997471       0.25555679 </v>
   <v>       0.12749432       0.88141864       0.24025978 </v>
   <v>       0.38285895       0.87240905       0.23856416 </v>
   <v>       0.62749432       0.88141864       0.24025978 </v>
   <v>       0.88285895       0.87240905       0.23856416 </v>
   <v>       0.14295086       0.10708062       0.50106496 </v>
   <v>       0.39295086       0.14291938       0.50106496 </v>
   <v>       0.64295086       0.10708062       0.50106496 </v>
   <v>       0.89295086       0.14291938       0.50106496 </v>
   <v>       0.10813790       0.35703476       0.50026232 </v>
   <v>       0.35743894       0.39171994       0.49926726 </v>
   <v>       0.60813790       0.35703476       0.50026232 </v>
   <v>       0.85743894       0.39171994       0.49926726 </v>
   <v>       0.14178025       0.60845989       0.49541166 </v>
   <v>       0.39178025       0.64154011       0.49541166 </v>
   <v>       0.64178025       0.60845989       0.49541166 </v>
   <v>       0.89178025       0.64154011       0.49541166 </v>
   <v>       0.10743894       0.85828006       0.49926726 </v>
   <v>       0.35813790       0.89296524       0.50026232 </v>
   <v>       0.60743894       0.85828006       0.49926726 </v>
   <v>       0.85813790       0.89296524       0.50026232 </v>
   <v>       0.10704914       0.14291938       0.74893504 </v>
   <v>       0.35704914       0.10708062       0.74893504 </v>
   <v>       0.60704914       0.14291938       0.74893504 </v>
   <v>       0.85704914       0.10708062       0.74893504 </v>
   <v>       0.14256106       0.39171994       0.75073274 </v>
   <v>       0.39186210       0.35703476       0.74973768 </v>
   <v>       0.64256106       0.39171994       0.75073274 </v>
   <v>       0.89186210       0.35703476       0.74973768 </v>
   <v>       0.10821975       0.64154011       0.75458834 </v>
   <v>       0.35821975       0.60845989       0.75458834 </v>
   <v>       0.60821975       0.64154011       0.75458834 </v>
   <v>       0.85821975       0.60845989       0.75458834 </v>
   <v>       0.14186210       0.89296524       0.74973768 </v>
   <v>       0.39256106       0.85828006       0.75073274 </v>
   <v>       0.64186210       0.89296524       0.74973768 </v>
   <v>       0.89256106       0.85828006       0.75073274 </v>
   <v>       0.12746740       0.12142055       0.02000154 </v>
   <v>       0.37746740       0.12857945       0.02000154 </v>
   <v>       0.62746740       0.12142055       0.02000154 </v>
   <v>       0.87746740       0.12857945       0.02000154 </v>
   <v>       0.12250568       0.36858136       0.00974022 </v>
   <v>       0.36714105       0.37759095       0.01143584 </v>
   <v>       0.62250568       0.36858136       0.00974022 </v>
   <v>       0.86714105       0.37759095       0.01143584 </v>
   <v>       0.12997980       0.61997471       0.99444321 </v>
   <v>       0.37997980       0.63002529       0.99444321 </v>
   <v>       0.62997980       0.61997471       0.99444321 </v>
   <v>       0.87997980       0.63002529       0.99444321 </v>
   <v>       0.11714105       0.87240905       0.01143584 </v>
   <v>       0.37250568       0.88141864       0.00974022 </v>
   <v>       0.61714105       0.87240905       0.01143584 </v>
   <v>       0.87250568       0.88141864       0.00974022 </v>
  </varray>
 </structure>
</modeling>
