       N       E                     dE             d eps       ncg     rms          rms(c)
DAV:   1    -0.105260054451E+04   -0.10526E+04   -0.60929E-03 13016   0.183E-01    0.284E-02
RMM:   2    -0.105260054476E+04   -0.25450E-06   -0.65171E-06  6138   0.436E-03    0.583E-02
RMM:   3    -0.105260054441E+04    0.35763E-06   -0.21395E-06  4564   0.307E-03    0.135E-02
RMM:   4    -0.105260054431E+04    0.91270E-07   -0.15960E-07  1580   0.167E-03    0.471E-03
RMM:   5    -0.105260054430E+04    0.19485E-07   -0.89258E-08  1397   0.160E-03    0.111E-03
RMM:   6    -0.105260054428E+04    0.14421E-07   -0.42574E-08  1209   0.157E-03    0.706E-04
RMM:   7    -0.105260054427E+04    0.10332E-07   -0.18470E-08  1082   0.157E-03    0.620E-04
RMM:   8    -0.105260054427E+04    0.51223E-08   -0.14430E-08  1015   0.157E-03
   1 F= -.10526005E+04 E0= -.10525958E+04  d E =-.105260E+04  mag=    80.0000
       N       E                     dE             d eps       ncg     rms          rms(c)
DAV:   1    -0.105260023604E+04    0.30823E-03   -0.24225E-01 12496   0.567E-01    0.242E-01
RMM:   2    -0.105260110682E+04   -0.87078E-03   -0.74848E-03 12272   0.119E-01    0.201E-01
RMM:   3    -0.105260114555E+04   -0.38730E-04   -0.39797E-04  9984   0.354E-02    0.114E-01
RMM:   4    -0.105260111355E+04    0.32005E-04   -0.77023E-05  7324   0.128E-02    0.813E-02
RMM:   5    -0.105260109370E+04    0.19855E-04   -0.73511E-05  7206   0.112E-02    0.393E-02
RMM:   6    -0.105260109359E+04    0.10163E-06   -0.21038E-05  6719   0.716E-03    0.237E-02
RMM:   7    -0.105260109346E+04    0.13167E-06   -0.65042E-06  6071   0.415E-03    0.155E-02
RMM:   8    -0.105260109316E+04    0.30211E-06   -0.29987E-06  4812   0.284E-03
   2 F= -.10526011E+04 E0= -.10525963E+04  d E =-.548895E-03  mag=    80.0000
       N       E                     dE             d eps       ncg     rms          rms(c)
DAV:   1    -0.105260108965E+04    0.38096E-05   -0.41108E-03 12800   0.739E-02    0.310E-02
RMM:   2    -0.105260110280E+04   -0.13152E-04   -0.11096E-04  6662   0.159E-02    0.286E-02
RMM:   3    -0.105260110485E+04   -0.20479E-05   -0.13501E-05  6030   0.685E-03    0.153E-02
RMM:   4    -0.105260110456E+04    0.29670E-06   -0.29973E-06  4646   0.315E-03    0.120E-02
RMM:   5    -0.105260110413E+04    0.42624E-06   -0.16156E-06  3987   0.246E-03    0.624E-03
RMM:   6    -0.105260110406E+04    0.66284E-07   -0.28065E-07  1853   0.183E-03    0.203E-03
RMM:   7    -0.105260110409E+04   -0.23050E-07   -0.24955E-07  1396   0.172E-03    0.227E-03
RMM:   8    -0.105260110409E+04   -0.34925E-08   -0.22771E-08   986   0.164E-03
   3 F= -.10526011E+04 E0= -.10525963E+04  d E =-.559824E-03  mag=    80.0000
       N       E                     dE             d eps       ncg     rms          rms(c)
DAV:   1    -0.105260085968E+04    0.24441E-03   -0.24766E-01 12384   0.573E-01    0.165E-01
RMM:   2    -0.105260157132E+04   -0.71164E-03   -0.64733E-03 12311   0.107E-01    0.113E-01
RMM:   3    -0.105260159425E+04   -0.22926E-04   -0.30311E-04  9032   0.332E-02    0.685E-02
RMM:   4    -0.105260158005E+04    0.14201E-04   -0.65868E-05  7058   0.118E-02    0.461E-02
RMM:   5    -0.105260157521E+04    0.48413E-05   -0.34986E-05  6848   0.841E-03    0.245E-02
RMM:   6    -0.105260157687E+04   -0.16618E-05   -0.11819E-05  6301   0.532E-03    0.131E-02
RMM:   7    -0.105260157747E+04   -0.60581E-06   -0.46636E-06  4946   0.344E-03    0.679E-03
RMM:   8    -0.105260157774E+04   -0.26423E-06   -0.23895E-06  3783   0.264E-03
   4 F= -.10526016E+04 E0= -.10525968E+04  d E =-.473648E-03  mag=    80.0000
       N       E                     dE             d eps       ncg     rms          rms(c)
DAV:   1    -0.105260147851E+04    0.98968E-04   -0.53658E-02 12160   0.267E-01    0.776E-02
RMM:   2    -0.105260163585E+04   -0.15735E-03   -0.14259E-03 11892   0.500E-02    0.530E-02
RMM:   3    -0.105260164054E+04   -0.46884E-05   -0.61514E-05  6910   0.159E-02    0.319E-02
RMM:   4    -0.105260163867E+04    0.18741E-05   -0.19688E-05  6564   0.652E-03    0.203E-02
RMM:   5    -0.105260163822E+04    0.45018E-06   -0.92413E-06  6085   0.448E-03    0.155E-02
RMM:   6    -0.105260163864E+04   -0.41978E-06   -0.34834E-06  4778   0.313E-03    0.684E-03
RMM:   7    -0.105260163883E+04   -0.18872E-06   -0.11476E-06  2999   0.218E-03    0.245E-03
RMM:   8    -0.105260163891E+04   -0.79643E-07   -0.58206E-07  2564   0.205E-03
   5 F= -.10526016E+04 E0= -.10525969E+04  d E =-.534817E-03  mag=    80.0000
       N       E                     dE             d eps       ncg     rms          rms(c)
DAV:   1    -0.105260175712E+04   -0.11830E-03   -0.87715E-02 12176   0.340E-01    0.778E-02
RMM:   2    -0.105260198181E+04   -0.22469E-03   -0.22291E-03 12406   0.609E-02    0.518E-02
RMM:   3    -0.105260198212E+04   -0.30856E-06   -0.89398E-05  7028   0.186E-02    0.320E-02
RMM:   4    -0.105260197899E+04    0.31277E-05   -0.25227E-05  6593   0.733E-03    0.220E-02
RMM:   5    -0.105260197782E+04    0.11750E-05   -0.10875E-05  6033   0.464E-03    0.122E-02
RMM:   6    -0.105260197821E+04   -0.39300E-06   -0.38470E-06  4250   0.320E-03    0.496E-03
RMM:   7    -0.105260197839E+04   -0.17464E-06   -0.16507E-06  3364   0.243E-03    0.266E-03
RMM:   8    -0.105260197844E+04   -0.51994E-07   -0.69111E-07  2655   0.225E-03
   6 F= -.10526020E+04 E0= -.10525973E+04  d E =-.339531E-03  mag=    80.0000
       N       E                     dE             d eps       ncg     rms          rms(c)
DAV:   1    -0.105260064554E+04    0.13328E-02   -0.78969E-01 12376   0.102E+00    0.233E-01
RMM:   2    -0.105260265007E+04   -0.20045E-02   -0.19883E-02 12641   0.182E-01    0.155E-01
RMM:   3    -0.105260267789E+04   -0.27824E-04   -0.10126E-03 11322   0.557E-02    0.962E-02
RMM:   4    -0.105260263257E+04    0.45325E-04   -0.15830E-04  7587   0.168E-02    0.689E-02
RMM:   5    -0.105260261779E+04    0.14774E-04   -0.74784E-05  7170   0.117E-02    0.376E-02
RMM:   6    -0.105260262157E+04   -0.37790E-05   -0.26655E-05  6993   0.778E-03    0.167E-02
RMM:   7    -0.105260262267E+04   -0.10977E-05   -0.11732E-05  6608   0.492E-03    0.133E-02
RMM:   8    -0.105260262298E+04   -0.31604E-06   -0.63176E-06  5596   0.389E-03
   7 F= -.10526026E+04 E0= -.10525980E+04  d E =-.984078E-03  mag=    80.0000
       N       E                     dE             d eps       ncg     rms          rms(c)
DAV:   1    -0.105259434772E+04    0.82749E-02   -0.31608E+00 12416   0.204E+00    0.467E-01
RMM:   2    -0.105260238161E+04   -0.80339E-02   -0.79661E-02 12671   0.363E-01    0.311E-01
RMM:   3    -0.105260248312E+04   -0.10151E-03   -0.40255E-03 12780   0.111E-01    0.192E-01
RMM:   4    -0.105260231312E+04    0.17000E-03   -0.78824E-04 12631   0.324E-02    0.132E-01
RMM:   5    -0.105260224994E+04    0.63176E-04   -0.28579E-04  9031   0.189E-02    0.683E-02
RMM:   6    -0.105260225958E+04   -0.96359E-05   -0.68532E-05  7267   0.117E-02    0.265E-02
RMM:   7    -0.105260226181E+04   -0.22350E-05   -0.26843E-05  7129   0.763E-03    0.180E-02
RMM:   8    -0.105260226244E+04   -0.63088E-06   -0.16463E-05  6846   0.563E-03
   8 F= -.10526023E+04 E0= -.10525977E+04  d E =-.623538E-03  mag=    80.0000
       N       E                     dE             d eps       ncg     rms          rms(c)
DAV:   1    -0.105259905949E+04    0.32023E-02   -0.14937E+00 12416   0.140E+00    0.321E-01
RMM:   2    -0.105260279133E+04   -0.37318E-02   -0.37052E-02 12601   0.249E-01    0.213E-01
RMM:   3    -0.105260284716E+04   -0.55824E-04   -0.18597E-03 11939   0.766E-02    0.132E-01
RMM:   4    -0.105260276181E+04    0.85352E-04   -0.32843E-04  8928   0.223E-02    0.920E-02
RMM:   5    -0.105260272999E+04    0.31814E-04   -0.11583E-04  7217   0.150E-02    0.503E-02
RMM:   6    -0.105260273628E+04   -0.62921E-05   -0.38561E-05  6819   0.942E-03    0.221E-02
RMM:   7    -0.105260273785E+04   -0.15665E-05   -0.14060E-05  6288   0.579E-03    0.154E-02
RMM:   8    -0.105260273828E+04   -0.42547E-06   -0.73899E-06  5602   0.410E-03
   9 F= -.10526027E+04 E0= -.10525981E+04  d E =-.109937E-02  mag=    80.0000
       N       E                     dE             d eps       ncg     rms          rms(c)
DAV:   1    -0.105260285253E+04   -0.11468E-03   -0.78979E-02 12160   0.320E-01    0.658E-02
RMM:   2    -0.105260303897E+04   -0.18643E-03   -0.18689E-03 12145   0.553E-02    0.421E-02
RMM:   3    -0.105260303986E+04   -0.89103E-06   -0.74586E-05  6489   0.181E-02    0.249E-02
RMM:   4    -0.105260303733E+04    0.25307E-05   -0.18607E-05  6051   0.614E-03    0.155E-02
RMM:   5    -0.105260303624E+04    0.10906E-05   -0.67463E-06  5632   0.388E-03    0.115E-02
RMM:   6    -0.105260303642E+04   -0.18817E-06   -0.18646E-06  3863   0.249E-03    0.402E-03
RMM:   7    -0.105260303648E+04   -0.55676E-07   -0.28006E-07  1870   0.182E-03    0.198E-03
RMM:   8    -0.105260303649E+04   -0.58499E-08   -0.10746E-07  1473   0.175E-03
  10 F= -.10526030E+04 E0= -.10525984E+04  d E =-.298209E-03  mag=    80.0000
       N       E                     dE             d eps       ncg     rms          rms(c)
DAV:   1    -0.105260208105E+04    0.95543E-03   -0.71188E-01 12512   0.961E-01    0.198E-01
RMM:   2    -0.105260384654E+04   -0.17655E-02   -0.17628E-02 12865   0.168E-01    0.126E-01
RMM:   3    -0.105260384724E+04   -0.70098E-06   -0.77954E-04 10672   0.491E-02    0.761E-02
RMM:   4    -0.105260381519E+04    0.32049E-04   -0.11484E-04  7249   0.155E-02    0.509E-02
RMM:   5    -0.105260380584E+04    0.93544E-05   -0.70273E-05  7073   0.110E-02    0.222E-02
RMM:   6    -0.105260380921E+04   -0.33730E-05   -0.19830E-05  6751   0.690E-03    0.122E-02
RMM:   7    -0.105260381011E+04   -0.90041E-06   -0.95152E-06  5740   0.421E-03    0.103E-02
RMM:   8    -0.105260381043E+04   -0.31992E-06   -0.49773E-06  4903   0.367E-03
  11 F= -.10526038E+04 E0= -.10525992E+04  d E =-.107215E-02  mag=    80.0000
       N       E                     dE             d eps       ncg     rms          rms(c)
DAV:   1    -0.105259797381E+04    0.58363E-02   -0.28505E+00 12480   0.192E+00    0.397E-01
RMM:   2    -0.105260504972E+04   -0.70759E-02   -0.70646E-02 12901   0.335E-01    0.251E-01
RMM:   3    -0.105260505206E+04   -0.23362E-05   -0.32091E-03 12694   0.980E-02    0.152E-01
RMM:   4    -0.105260492823E+04    0.12382E-03   -0.59548E-04 11619   0.284E-02    0.952E-02
RMM:   5    -0.105260488745E+04    0.40787E-04   -0.24957E-04  8403   0.175E-02    0.342E-02
RMM:   6    -0.105260489457E+04   -0.71217E-05   -0.45704E-05  7175   0.103E-02    0.203E-02
RMM:   7    -0.105260489666E+04   -0.20899E-05   -0.21332E-05  6957   0.631E-03    0.128E-02
RMM:   8    -0.105260489726E+04   -0.59960E-06   -0.13033E-05  6573   0.536E-03
  12 F= -.10526049E+04 E0= -.10526002E+04  d E =-.215898E-02  mag=    80.0000
       N       E                     dE             d eps       ncg     rms          rms(c)
DAV:   1    -0.105257741562E+04    0.27481E-01   -0.11400E+01 12480   0.384E+00    0.795E-01
RMM:   2    -0.105260569820E+04   -0.28283E-01   -0.28235E-01 12884   0.671E-01    0.505E-01
RMM:   3    -0.105260574441E+04   -0.46214E-04   -0.12876E-02 13269   0.197E-01    0.305E-01
RMM:   4    -0.105260526801E+04    0.47640E-03   -0.24557E-03 14299   0.561E-02    0.192E-01
RMM:   5    -0.105260509924E+04    0.16878E-03   -0.10696E-03 12316   0.314E-02    0.635E-02
RMM:   6    -0.105260512226E+04   -0.23020E-04   -0.14547E-04  7861   0.160E-02    0.419E-02
RMM:   7    -0.105260512672E+04   -0.44599E-05   -0.48993E-05  7314   0.912E-03    0.257E-02
RMM:   8    -0.105260512915E+04   -0.24334E-05   -0.48005E-05  7242   0.893E-03
  13 F= -.10526051E+04 E0= -.10526004E+04  d E =-.239088E-02  mag=    80.0000
       N       E                     dE             d eps       ncg     rms          rms(c)
DAV:   1    -0.105259870770E+04    0.64190E-02   -0.27826E+00 12496   0.190E+00    0.392E-01
RMM:   2    -0.105260547264E+04   -0.67649E-02   -0.67612E-02 12794   0.330E-01    0.251E-01
RMM:   3    -0.105260550812E+04   -0.35475E-04   -0.31033E-03 12496   0.987E-02    0.153E-01
RMM:   4    -0.105260538641E+04    0.12171E-03   -0.53452E-04 10724   0.278E-02    0.992E-02
RMM:   5    -0.105260533595E+04    0.50464E-04   -0.23443E-04  8009   0.173E-02    0.409E-02
RMM:   6    -0.105260534338E+04   -0.74354E-05   -0.41581E-05  6839   0.102E-02    0.232E-02
RMM:   7    -0.105260534543E+04   -0.20468E-05   -0.16450E-05  6455   0.598E-03    0.144E-02
RMM:   8    -0.105260534596E+04   -0.52823E-06   -0.86397E-06  5792   0.465E-03
  14 F= -.10526053E+04 E0= -.10526007E+04  d E =-.260768E-02  mag=    80.0000
       N       E                     dE             d eps       ncg     rms          rms(c)
DAV:   1    -0.105260479314E+04    0.55229E-03   -0.56917E-01 12448   0.856E-01    0.178E-01
RMM:   2    -0.105260617201E+04   -0.13789E-02   -0.13812E-02 12690   0.148E-01    0.112E-01
RMM:   3    -0.105260617448E+04   -0.24719E-05   -0.60601E-04 10133   0.453E-02    0.685E-02
RMM:   4    -0.105260614589E+04    0.28594E-04   -0.10058E-04  7113   0.143E-02    0.415E-02
RMM:   5    -0.105260614151E+04    0.43804E-05   -0.49228E-05  6894   0.953E-03    0.170E-02
RMM:   6    -0.105260614363E+04   -0.21218E-05   -0.13049E-05  6098   0.572E-03    0.886E-03
RMM:   7    -0.105260614426E+04   -0.63198E-06   -0.58635E-06  5135   0.344E-03    0.714E-03
RMM:   8    -0.105260614451E+04   -0.25092E-06   -0.28316E-06  4225   0.296E-03
  15 F= -.10526061E+04 E0= -.10526015E+04  d E =-.798556E-03  mag=    80.0000
       N       E                     dE             d eps       ncg     rms          rms(c)
DAV:   1    -0.105259578778E+04    0.10356E-01   -0.47669E+00 12584   0.248E+00    0.518E-01
RMM:   2    -0.105260757390E+04   -0.11786E-01   -0.11803E-01 12833   0.431E-01    0.326E-01
RMM:   3    -0.105260757486E+04   -0.96376E-06   -0.54091E-03 12896   0.129E-01    0.199E-01
RMM:   4    -0.105260735281E+04    0.22205E-03   -0.11158E-03 12839   0.380E-02    0.117E-01
RMM:   5    -0.105260730398E+04    0.48834E-04   -0.39397E-04 10471   0.211E-02    0.475E-02
RMM:   6    -0.105260731189E+04   -0.79127E-05   -0.59983E-05  7269   0.112E-02    0.279E-02
RMM:   7    -0.105260731540E+04   -0.35050E-05   -0.29514E-05  7118   0.709E-03    0.167E-02
RMM:   8    -0.105260731664E+04   -0.12436E-05   -0.19863E-05  6991   0.625E-03
  16 F= -.10526073E+04 E0= -.10526027E+04  d E =-.197069E-02  mag=    80.0000
       N       E                     dE             d eps       ncg     rms          rms(c)
DAV:   1    -0.105260691549E+04    0.39991E-03   -0.49904E-01 12448   0.802E-01    0.175E-01
RMM:   2    -0.105260818306E+04   -0.12676E-02   -0.12656E-02 12742   0.140E-01    0.120E-01
RMM:   3    -0.105260817913E+04    0.39265E-05   -0.56619E-04 10029   0.429E-02    0.732E-02
RMM:   4    -0.105260815529E+04    0.23835E-04   -0.98569E-05  7211   0.138E-02    0.513E-02
RMM:   5    -0.105260814864E+04    0.66541E-05   -0.56460E-05  7089   0.997E-03    0.230E-02
RMM:   6    -0.105260815142E+04   -0.27826E-05   -0.19311E-05  6744   0.652E-03    0.129E-02
RMM:   7    -0.105260815233E+04   -0.90974E-06   -0.96565E-06  5993   0.426E-03    0.909E-03
RMM:   8    -0.105260815268E+04   -0.35181E-06   -0.53231E-06  4984   0.360E-03
  17 F= -.10526082E+04 E0= -.10526036E+04  d E =-.836043E-03  mag=    80.0000
       N       E                     dE             d eps       ncg     rms          rms(c)
DAV:   1    -0.105259862231E+04    0.95300E-02   -0.43321E+00 12464   0.236E+00    0.516E-01
RMM:   2    -0.105260942327E+04   -0.10801E-01   -0.10782E-01 12699   0.412E-01    0.350E-01
RMM:   3    -0.105260948465E+04   -0.61377E-04   -0.51611E-03 12689   0.129E-01    0.212E-01
RMM:   4    -0.105260928068E+04    0.20396E-03   -0.10747E-03 12986   0.373E-02    0.139E-01
RMM:   5    -0.105260921519E+04    0.65487E-04   -0.40251E-04 10476   0.211E-02    0.545E-02
RMM:   6    -0.105260922574E+04   -0.10548E-04   -0.63844E-05  7288   0.111E-02    0.267E-02
RMM:   7    -0.105260922828E+04   -0.25365E-05   -0.29260E-05  7133   0.723E-03    0.167E-02
RMM:   8    -0.105260922890E+04   -0.62209E-06   -0.19587E-05  6915   0.612E-03
  18 F= -.10526092E+04 E0= -.10526048E+04  d E =-.191226E-02  mag=    80.0000
       N       E                     dE             d eps       ncg     rms          rms(c)
DAV:   1    -0.105260869777E+04    0.53051E-03   -0.49775E-01 12512   0.801E-01    0.168E-01
RMM:   2    -0.105260995023E+04   -0.12525E-02   -0.12473E-02 12812   0.139E-01    0.105E-01
RMM:   3    -0.105260994364E+04    0.65889E-05   -0.54153E-04  9792   0.418E-02    0.628E-02
RMM:   4    -0.105260992220E+04    0.21442E-04   -0.97340E-05  7190   0.137E-02    0.393E-02
RMM:   5    -0.105260991930E+04    0.29060E-05   -0.50149E-05  7071   0.950E-03    0.196E-02
RMM:   6    -0.105260992170E+04   -0.24048E-05   -0.17566E-05  6735   0.621E-03    0.952E-03
RMM:   7    -0.105260992258E+04   -0.87511E-06   -0.95193E-06  5935   0.414E-03    0.718E-03
RMM:   8    -0.105260992292E+04   -0.34699E-06   -0.53102E-06  5057   0.358E-03
  19 F= -.10526099E+04 E0= -.10526055E+04  d E =-.694023E-03  mag=    80.0000
       N       E                     dE             d eps       ncg     rms          rms(c)
DAV:   1    -0.105260036470E+04    0.95579E-02   -0.44746E+00 12384   0.240E+00    0.501E-01
RMM:   2    -0.105261143215E+04   -0.11067E-01   -0.11030E-01 12844   0.415E-01    0.312E-01
RMM:   3    -0.105261143714E+04   -0.49944E-05   -0.50392E-03 12840   0.125E-01    0.187E-01
RMM:   4    -0.105261123264E+04    0.20450E-03   -0.10540E-03 12814   0.367E-02    0.106E-01
RMM:   5    -0.105261119345E+04    0.39185E-04   -0.35048E-04  9999   0.202E-02    0.404E-02
RMM:   6    -0.105261120022E+04   -0.67693E-05   -0.53984E-05  7238   0.108E-02    0.230E-02
RMM:   7    -0.105261120336E+04   -0.31364E-05   -0.30019E-05  7069   0.693E-03    0.140E-02
RMM:   8    -0.105261120407E+04   -0.70960E-06   -0.19221E-05  6921   0.617E-03
  20 F= -.10526112E+04 E0= -.10526068E+04  d E =-.197517E-02  mag=    80.0000
       N       E                     dE             d eps       ncg     rms          rms(c)
DAV:   1    -0.105260886511E+04    0.23382E-02   -0.10678E+00 12384   0.117E+00    0.245E-01
RMM:   2    -0.105261153225E+04   -0.26671E-02   -0.26594E-02 12848   0.203E-01    0.153E-01
RMM:   3    -0.105261152519E+04    0.70558E-05   -0.12156E-03 11340   0.610E-02    0.918E-02
RMM:   4    -0.105261147328E+04    0.51913E-04   -0.22059E-04  8173   0.188E-02    0.560E-02
RMM:   5    -0.105261146455E+04    0.87266E-05   -0.92131E-05  7194   0.128E-02    0.252E-02
RMM:   6    -0.105261146858E+04   -0.40231E-05   -0.27494E-05  7010   0.793E-03    0.131E-02
RMM:   7    -0.105261146997E+04   -0.13931E-05   -0.14897E-05  6454   0.497E-03    0.890E-03
RMM:   8    -0.105261147047E+04   -0.49899E-06   -0.88006E-06  5977   0.450E-03
  21 F= -.10526115E+04 E0= -.10526071E+04  d E =-.224157E-02  mag=    80.0000
       N       E                     dE             d eps       ncg     rms          rms(c)
DAV:   1    -0.105261118215E+04    0.28782E-03   -0.48263E-01 12536   0.794E-01    0.207E-01
RMM:   2    -0.105261250303E+04   -0.13209E-02   -0.12348E-02 12622   0.141E-01    0.138E-01
RMM:   3    -0.105261252989E+04   -0.26869E-04   -0.58165E-04 10163   0.441E-02    0.808E-02
RMM:   4    -0.105261250223E+04    0.27661E-04   -0.10779E-04  7265   0.142E-02    0.541E-02
RMM:   5    -0.105261249395E+04    0.82839E-05   -0.54750E-05  7136   0.101E-02    0.271E-02
RMM:   6    -0.105261249675E+04   -0.27998E-05   -0.19733E-05  6786   0.659E-03    0.151E-02
RMM:   7    -0.105261249782E+04   -0.10685E-05   -0.93440E-06  6185   0.445E-03    0.111E-02
RMM:   8    -0.105261249831E+04   -0.49364E-06   -0.51617E-06  5016   0.350E-03
  22 F= -.10526125E+04 E0= -.10526081E+04  d E =-.102784E-02  mag=    80.0000
       N       E                     dE             d eps       ncg     rms          rms(c)
DAV:   1    -0.105261036743E+04    0.21304E-02   -0.99847E-01 12432   0.114E+00    0.299E-01
RMM:   2    -0.105261307879E+04   -0.27114E-02   -0.25333E-02 12547   0.202E-01    0.199E-01
RMM:   3    -0.105261315004E+04   -0.71249E-04   -0.12676E-03 11474   0.649E-02    0.115E-01
RMM:   4    -0.105261309298E+04    0.57057E-04   -0.24872E-04  8366   0.196E-02    0.784E-02
RMM:   5    -0.105261307274E+04    0.20245E-04   -0.95869E-05  7275   0.135E-02    0.414E-02
RMM:   6    -0.105261307772E+04   -0.49815E-05   -0.32886E-05  7076   0.859E-03    0.220E-02
RMM:   7    -0.105261307948E+04   -0.17631E-05   -0.14940E-05  6866   0.565E-03    0.151E-02
RMM:   8    -0.105261308027E+04   -0.79292E-06   -0.85679E-06  6137   0.444E-03
  23 F= -.10526131E+04 E0= -.10526086E+04  d E =-.160981E-02  mag=    80.0000
       N       E                     dE             d eps       ncg     rms          rms(c)
DAV:   1    -0.105261230124E+04    0.77824E-03   -0.66052E-01 12392   0.933E-01    0.222E-01
RMM:   2    -0.105261403785E+04   -0.17366E-02   -0.16808E-02 12620   0.166E-01    0.143E-01
RMM:   3    -0.105261406845E+04   -0.30596E-04   -0.82409E-04 11041   0.517E-02    0.889E-02
RMM:   4    -0.105261403462E+04    0.33832E-04   -0.13174E-04  7362   0.158E-02    0.586E-02
RMM:   5    -0.105261402159E+04    0.13023E-04   -0.71850E-05  7148   0.114E-02    0.290E-02
RMM:   6    -0.105261402478E+04   -0.31878E-05   -0.22982E-05  6964   0.731E-03    0.156E-02
RMM:   7    -0.105261402583E+04   -0.10473E-05   -0.11316E-05  6441   0.469E-03    0.118E-02
RMM:   8    -0.105261402618E+04   -0.34730E-06   -0.61428E-06  5412   0.395E-03
  24 F= -.10526140E+04 E0= -.10526096E+04  d E =-.945903E-03  mag=    80.0000
       N       E                     dE             d eps       ncg     rms          rms(c)
DAV:   1    -0.105261195768E+04    0.20681E-02   -0.96422E-01 12352   0.113E+00    0.268E-01
RMM:   2    -0.105261447890E+04   -0.25212E-02   -0.24405E-02 12566   0.200E-01    0.171E-01
RMM:   3    -0.105261452680E+04   -0.47893E-04   -0.12111E-03 11439   0.633E-02    0.105E-01
RMM:   4    -0.105261447655E+04    0.50242E-04   -0.22169E-04  8086   0.189E-02    0.666E-02
RMM:   5    -0.105261445909E+04    0.17464E-04   -0.94359E-05  7231   0.132E-02    0.388E-02
RMM:   6    -0.105261446298E+04   -0.38928E-05   -0.29689E-05  7041   0.851E-03    0.214E-02
RMM:   7    -0.105261446441E+04   -0.14297E-05   -0.14840E-05  6732   0.539E-03    0.134E-02
RMM:   8    -0.105261446487E+04   -0.46159E-06   -0.86137E-06  6190   0.472E-03
  25 F= -.10526145E+04 E0= -.10526100E+04  d E =-.138460E-02  mag=    80.0000
       N       E                     dE             d eps       ncg     rms          rms(c)
DAV:   1    -0.105261389384E+04    0.57057E-03   -0.58501E-01 12536   0.876E-01    0.191E-01
RMM:   2    -0.105261536977E+04   -0.14759E-02   -0.14828E-02 12558   0.155E-01    0.127E-01
RMM:   3    -0.105261538477E+04   -0.15001E-04   -0.72241E-04 10741   0.495E-02    0.791E-02
RMM:   4    -0.105261535914E+04    0.25632E-04   -0.11968E-04  7296   0.148E-02    0.538E-02
RMM:   5    -0.105261534854E+04    0.10596E-04   -0.62221E-05  7116   0.107E-02    0.268E-02
RMM:   6    -0.105261535145E+04   -0.29083E-05   -0.21946E-05  6933   0.699E-03    0.142E-02
RMM:   7    -0.105261535254E+04   -0.10936E-05   -0.10645E-05  6237   0.460E-03    0.105E-02
RMM:   8    -0.105261535295E+04   -0.41114E-06   -0.58463E-06  5178   0.378E-03
  26 F= -.10526154E+04 E0= -.10526110E+04  d E =-.888078E-03  mag=    80.0000
       N       E                     dE             d eps       ncg     rms          rms(c)
DAV:   1    -0.105261104089E+04    0.43117E-02   -0.19859E+00 12416   0.161E+00    0.352E-01
RMM:   2    -0.105261600940E+04   -0.49685E-02   -0.49898E-02 12487   0.284E-01    0.232E-01
RMM:   3    -0.105261608290E+04   -0.73497E-04   -0.25293E-03 12089   0.931E-02    0.145E-01
RMM:   4    -0.105261600336E+04    0.79535E-04   -0.50410E-04 10723   0.262E-02    0.972E-02
RMM:   5    -0.105261596026E+04    0.43099E-04   -0.18213E-04  7605   0.172E-02    0.507E-02
RMM:   6    -0.105261596762E+04   -0.73604E-05   -0.53958E-05  7145   0.111E-02    0.311E-02
RMM:   7    -0.105261597039E+04   -0.27695E-05   -0.24844E-05  7056   0.731E-03    0.165E-02
RMM:   8    -0.105261597118E+04   -0.78876E-06   -0.14366E-05  6656   0.580E-03
  27 F= -.10526160E+04 E0= -.10526116E+04  d E =-.150631E-02  mag=    80.0000
       N       E                     dE             d eps       ncg     rms          rms(c)
DAV:   1    -0.105261442189E+04    0.15485E-02   -0.98395E-01 12696   0.113E+00    0.253E-01
RMM:   2    -0.105261691369E+04   -0.24918E-02   -0.24850E-02 12728   0.199E-01    0.158E-01
RMM:   3    -0.105261693334E+04   -0.19658E-04   -0.11891E-03 11285   0.614E-02    0.977E-02
RMM:   4    -0.105261688860E+04    0.44748E-04   -0.20671E-04  7972   0.186E-02    0.619E-02
RMM:   5    -0.105261687371E+04    0.14891E-04   -0.97327E-05  7209   0.132E-02    0.306E-02
RMM:   6    -0.105261687866E+04   -0.49507E-05   -0.30538E-05  7110   0.849E-03    0.191E-02
RMM:   7    -0.105261688057E+04   -0.19112E-05   -0.15399E-05  6752   0.536E-03    0.107E-02
RMM:   8    -0.105261688170E+04   -0.11286E-05   -0.89501E-06  6215   0.470E-03
  28 F= -.10526169E+04 E0= -.10526125E+04  d E =-.910515E-03  mag=    80.0000
