<?xml version="1.0" encoding="ISO-8859-1"?>
<modeling>
 <generator>
  <i name="program" type="string">vasp </i>
  <i name="version" type="string">5.4.1  </i>
  <i name="subversion" type="string">05Feb16 (build Jan 25 2017 20:16:33) complex                          parallel </i>
  <i name="platform" type="string">BWXE6 </i>
  <i name="date" type="string">2019 06 22 </i>
  <i name="time" type="string">04:19:15 </i>
 </generator>
 <incar>
  <i type="string" name="SYSTEM"> STF</i>
  <i type="string" name="PREC">normal</i>
  <i type="string" name="ALGO"> Fast</i>
  <i type="int" name="ISPIN">     2</i>
  <i type="int" name="NELM">    40</i>
  <i type="int" name="NELMIN">     8</i>
  <i type="int" name="IBRION">     2</i>
  <i name="EDIFF">      0.00010000</i>
  <i name="EDIFFG">     -0.03000000</i>
  <i type="int" name="NSW">    30</i>
  <i type="int" name="ISIF">     3</i>
  <i name="ENCUT">    520.00000000</i>
  <i type="int" name="NBANDS">   768</i>
  <v name="MAGMOM">      0.60000000      0.60000000      0.60000000      0.60000000      0.60000000      0.60000000      0.60000000      0.60000000      0.60000000      0.60000000      0.60000000      0.60000000      0.60000000      0.60000000      0.60000000      0.60000000      0.60000000      0.60000000      0.60000000      0.60000000
      0.60000000      0.60000000      0.60000000      0.60000000      0.60000000      0.60000000      0.60000000      0.60000000      0.60000000      0.60000000      0.60000000      0.60000000      0.60000000      0.60000000      0.60000000      0.60000000      0.60000000      0.60000000      0.60000000      0.60000000
      0.60000000      0.60000000      0.60000000      0.60000000      0.60000000      0.60000000      0.60000000      0.60000000      0.60000000      0.60000000      0.60000000      0.60000000      0.60000000      0.60000000      0.60000000      0.60000000      5.00000000      5.00000000      5.00000000      5.00000000
      5.00000000      5.00000000      5.00000000      5.00000000      0.60000000      0.60000000      0.60000000      0.60000000      0.60000000      0.60000000      0.60000000      0.60000000      0.60000000      0.60000000      0.60000000      0.60000000      0.60000000      0.60000000      0.60000000      0.60000000
      0.60000000      0.60000000      0.60000000      0.60000000      0.60000000      0.60000000      0.60000000      0.60000000      0.60000000      0.60000000      0.60000000      0.60000000      0.60000000      0.60000000      0.60000000      0.60000000      0.60000000      0.60000000      0.60000000      0.60000000
      0.60000000      0.60000000      0.60000000      0.60000000      0.60000000      0.60000000      0.60000000      0.60000000      0.60000000      0.60000000      0.60000000      0.60000000      0.60000000      0.60000000      0.60000000      0.60000000      0.60000000      0.60000000      0.60000000      0.60000000
      0.60000000      0.60000000      0.60000000      0.60000000      0.60000000      0.60000000      0.60000000      0.60000000      0.60000000      0.60000000      0.60000000      0.60000000      0.60000000      0.60000000      0.60000000      0.60000000      0.60000000      0.60000000      0.60000000      0.60000000
      0.60000000      0.60000000      0.60000000      0.60000000      0.60000000      0.60000000      0.60000000      0.60000000      0.60000000      0.60000000      0.60000000      0.60000000      0.60000000      0.60000000      0.60000000      0.60000000</v>
  <i type="string" name="LREAL"> Auto</i>
  <i type="int" name="ISMEAR">     0</i>
  <i name="SIGMA">      0.05000000</i>
  <i type="int" name="LMAXMIX">     4</i>
  <v type="int" name="KPOINT_BSE">    -1     0     0     0</v>
  <i type="int" name="NELM">    40</i>
  <i type="logical" name="LDAU"> T  </i>
  <v type="int" name="LDAUTYPE">     2</v>
  <v type="int" name="LDAUL">     0     2     2     0</v>
  <v name="LDAUU">      0.00000000      3.00000000      5.00000000      0.00000000</v>
  <v name="LDAUJ">      0.00000000      0.00000000      0.00000000      0.00000000</v>
  <i type="int" name="LDAUPRINT">     1</i>
 </incar>
 <kpoints>
  <generation param="Monkhorst-Pack">
   <v type="int" name="divisions">       2        2        2 </v>
   <v name="usershift">      0.00000000       0.00000000       0.00000000 </v>
   <v name="genvec1">      0.50000000       0.00000000       0.00000000 </v>
   <v name="genvec2">     -0.00000000       0.50000000       0.00000000 </v>
   <v name="genvec3">      0.00000000      -0.00000000       0.50000000 </v>
   <v name="shift">      0.50000000       0.50000000       0.50000000 </v>
  </generation>
  <varray name="kpointlist" >
   <v>       0.25000000       0.25000000       0.25000000 </v>
   <v>      -0.25000000       0.25000000       0.25000000 </v>
   <v>       0.25000000      -0.25000000       0.25000000 </v>
   <v>      -0.25000000      -0.25000000       0.25000000 </v>
  </varray>
  <varray name="weights" >
   <v>       0.25000000 </v>
   <v>       0.25000000 </v>
   <v>       0.25000000 </v>
   <v>       0.25000000 </v>
  </varray>
 </kpoints>
 <parameters>
  <separator name="general" >
   <i type="string" name="SYSTEM">STF</i>
   <i type="logical" name="LCOMPAT"> F  </i>
  </separator>
  <separator name="electronic" >
   <i type="string" name="PREC">normal</i>
   <i name="ENMAX">    520.00000000</i>
   <i name="ENAUG">    605.39200000</i>
   <i name="EDIFF">      0.00010000</i>
   <i type="int" name="IALGO">    68</i>
   <i type="int" name="IWAVPR">    11</i>
   <i type="int" name="NBANDS">   768</i>
   <i name="NELECT">   1032.00000000</i>
   <i type="int" name="TURBO">     0</i>
   <i type="int" name="IRESTART">     0</i>
   <i type="int" name="NREBOOT">     0</i>
   <i type="int" name="NMIN">     0</i>
   <i name="EREF">      0.00000000</i>
   <separator name="electronic smearing" >
    <i type="int" name="ISMEAR">     0</i>
    <i name="SIGMA">      0.05000000</i>
    <i name="KSPACING">      0.50000000</i>
    <i type="logical" name="KGAMMA"> T  </i>
   </separator>
   <separator name="electronic projectors" >
    <i type="logical" name="LREAL"> T  </i>
    <v name="ROPT">     -0.00050000     -0.00050000     -0.00050000     -0.00050000</v>
    <i type="int" name="LMAXPAW">  -100</i>
    <i type="int" name="LMAXMIX">     4</i>
    <i type="logical" name="NLSPLINE"> F  </i>
   </separator>
   <separator name="electronic startup" >
    <i type="int" name="ISTART">     1</i>
    <i type="int" name="ICHARG">     0</i>
    <i type="int" name="INIWAV">     1</i>
   </separator>
   <separator name="electronic spin" >
    <i type="int" name="ISPIN">     2</i>
    <i type="logical" name="LNONCOLLINEAR"> F  </i>
    <v name="MAGMOM">      0.60000000      0.60000000      0.60000000      0.60000000      0.60000000      0.60000000      0.60000000      0.60000000      0.60000000      0.60000000      0.60000000      0.60000000      0.60000000      0.60000000      0.60000000      0.60000000      0.60000000      0.60000000      0.60000000      0.60000000
      0.60000000      0.60000000      0.60000000      0.60000000      0.60000000      0.60000000      0.60000000      0.60000000      0.60000000      0.60000000      0.60000000      0.60000000      0.60000000      0.60000000      0.60000000      0.60000000      0.60000000      0.60000000      0.60000000      0.60000000
      0.60000000      0.60000000      0.60000000      0.60000000      0.60000000      0.60000000      0.60000000      0.60000000      0.60000000      0.60000000      0.60000000      0.60000000      0.60000000      0.60000000      0.60000000      0.60000000      5.00000000      5.00000000      5.00000000      5.00000000
      5.00000000      5.00000000      5.00000000      5.00000000      0.60000000      0.60000000      0.60000000      0.60000000      0.60000000      0.60000000      0.60000000      0.60000000      0.60000000      0.60000000      0.60000000      0.60000000      0.60000000      0.60000000      0.60000000      0.60000000
      0.60000000      0.60000000      0.60000000      0.60000000      0.60000000      0.60000000      0.60000000      0.60000000      0.60000000      0.60000000      0.60000000      0.60000000      0.60000000      0.60000000      0.60000000      0.60000000      0.60000000      0.60000000      0.60000000      0.60000000
      0.60000000      0.60000000      0.60000000      0.60000000      0.60000000      0.60000000      0.60000000      0.60000000      0.60000000      0.60000000      0.60000000      0.60000000      0.60000000      0.60000000      0.60000000      0.60000000      0.60000000      0.60000000      0.60000000      0.60000000
      0.60000000      0.60000000      0.60000000      0.60000000      0.60000000      0.60000000      0.60000000      0.60000000      0.60000000      0.60000000      0.60000000      0.60000000      0.60000000      0.60000000      0.60000000      0.60000000      0.60000000      0.60000000      0.60000000      0.60000000
      0.60000000      0.60000000      0.60000000      0.60000000      0.60000000      0.60000000      0.60000000      0.60000000      0.60000000      0.60000000      0.60000000      0.60000000      0.60000000      0.60000000      0.60000000      0.60000000</v>
    <i name="NUPDOWN">     -1.00000000</i>
    <i type="logical" name="LSORBIT"> F  </i>
    <v name="SAXIS">      0.00000000      0.00000000      1.00000000</v>
    <i type="logical" name="LSPIRAL"> F  </i>
    <v name="QSPIRAL">      0.00000000      0.00000000      0.00000000</v>
    <i type="logical" name="LZEROZ"> F  </i>
   </separator>
   <separator name="electronic exchange-correlation" >
    <i type="logical" name="LASPH"> F  </i>
    <i type="logical" name="LMETAGGA"> F  </i>
   </separator>
   <separator name="electronic convergence" >
    <i type="int" name="NELM">    40</i>
    <i type="int" name="NELMDL">     0</i>
    <i type="int" name="NELMIN">     8</i>
    <i name="ENINI">    520.00000000</i>
    <separator name="electronic convergence detail" >
     <i type="logical" name="LDIAG"> T  </i>
     <i type="logical" name="LSUBROT"> F  </i>
     <i name="WEIMIN">      0.00100000</i>
     <i name="EBREAK">      0.00000003</i>
     <i name="DEPER">      0.30000000</i>
     <i type="int" name="NRMM">     4</i>
     <i name="TIME">      0.40000000</i>
    </separator>
   </separator>
   <separator name="electronic mixer" >
    <i name="AMIX">      0.40000000</i>
    <i name="BMIX">      1.00000000</i>
    <i name="AMIN">      0.10000000</i>
    <i name="AMIX_MAG">      1.60000000</i>
    <i name="BMIX_MAG">      1.00000000</i>
    <separator name="electronic mixer details" >
     <i type="int" name="IMIX">     4</i>
     <i type="logical" name="MIXFIRST"> F  </i>
     <i type="int" name="MAXMIX">   -45</i>
     <i name="WC">    100.00000000</i>
     <i type="int" name="INIMIX">     1</i>
     <i type="int" name="MIXPRE">     1</i>
     <i type="int" name="MREMOVE">     5</i>
    </separator>
   </separator>
   <separator name="electronic dipolcorrection" >
    <i type="logical" name="LDIPOL"> F  </i>
    <i type="logical" name="LMONO"> F  </i>
    <i type="int" name="IDIPOL">     0</i>
    <i name="EPSILON">      1.00000000</i>
    <v name="DIPOL">   -100.00000000   -100.00000000   -100.00000000</v>
    <i name="EFIELD">      0.00000000</i>
   </separator>
  </separator>
  <separator name="grids" >
   <i type="int" name="NGX">    64</i>
   <i type="int" name="NGY">    64</i>
   <i type="int" name="NGZ">    90</i>
   <i type="int" name="NGXF">   128</i>
   <i type="int" name="NGYF">   128</i>
   <i type="int" name="NGZF">   180</i>
   <i type="logical" name="ADDGRID"> F  </i>
  </separator>
  <separator name="ionic" >
   <i type="int" name="NSW">    30</i>
   <i type="int" name="IBRION">     2</i>
   <i type="int" name="ISIF">     3</i>
   <i name="PSTRESS">      0.00000000</i>
   <i name="EDIFFG">     -0.03000000</i>
   <i type="int" name="NFREE">     1</i>
   <i name="POTIM">      0.50000000</i>
   <i name="SMASS">     -3.00000000</i>
   <i name="SCALEE">      1.00000000</i>
  </separator>
  <separator name="ionic md" >
   <i name="TEBEG">      0.00010000</i>
   <i name="TEEND">      0.00010000</i>
   <i type="int" name="NBLOCK">     1</i>
   <i type="int" name="KBLOCK">    30</i>
   <i type="int" name="NPACO">   256</i>
   <i name="APACO">     16.00000000</i>
  </separator>
  <separator name="symmetry" >
   <i type="int" name="ISYM">     2</i>
   <i name="SYMPREC">      0.00001000</i>
  </separator>
  <separator name="dos" >
   <i type="logical" name="LORBIT"> F  </i>
   <v name="RWIGS">     -1.00000000     -1.00000000     -1.00000000     -1.00000000</v>
   <i type="int" name="NEDOS">   301</i>
   <i name="EMIN">     10.00000000</i>
   <i name="EMAX">    -10.00000000</i>
   <i name="EFERMI">      0.00000000</i>
  </separator>
  <separator name="writing" >
   <i type="int" name="NWRITE">     2</i>
   <i type="logical" name="LWAVE"> T  </i>
   <i type="logical" name="LCHARG"> T  </i>
   <i type="logical" name="LPARD"> F  </i>
   <i type="logical" name="LVTOT"> F  </i>
   <i type="logical" name="LVHAR"> F  </i>
   <i type="logical" name="LELF"> F  </i>
   <i type="logical" name="LOPTICS"> F  </i>
   <v name="STM">      0.00000000      0.00000000      0.00000000      0.00000000      0.00000000      0.00000000      0.00000000</v>
  </separator>
  <separator name="performance" >
   <i type="int" name="NPAR">     2</i>
   <i type="int" name="NSIM">     4</i>
   <i type="int" name="NBLK">    -1</i>
   <i type="logical" name="LPLANE"> T  </i>
   <i type="logical" name="LSCALAPACK"> T  </i>
   <i type="logical" name="LSCAAWARE"> F  </i>
   <i type="logical" name="LSCALU"> F  </i>
   <i type="logical" name="LASYNC"> F  </i>
   <i type="logical" name="LORBITALREAL"> F  </i>
  </separator>
  <separator name="miscellaneous" >
   <i type="int" name="IDIOT">     3</i>
   <i type="logical" name="LMUSIC"> F  </i>
   <v name="POMASS">     87.62000000     47.88000000     55.84700000     16.00000000</v>
   <v name="DARWINR">      0.00000000      0.00000000      0.00000000      0.00000000</v>
   <v name="DARWINV">      1.00000000      1.00000000      1.00000000      1.00000000</v>
   <i type="logical" name="LCORR"> T  </i>
  </separator>
  <i type="logical" name="GGA_COMPAT"> T  </i>
  <i type="logical" name="LBERRY"> F  </i>
  <i type="int" name="ICORELEVEL">     0</i>
  <i type="logical" name="LDAU"> T  </i>
  <v type="int" name="LDAUTYPE">     2</v>
  <v type="int" name="LDAUL">     0</v>
  <v name="LDAUU">      0.00000000</v>
  <v name="LDAUJ">      0.00000000</v>
  <i type="int" name="LDAUPRINT">     1</i>
  <i type="int" name="I_CONSTRAINED_M">     0</i>
  <separator name="electronic exchange-correlation" >
   <i type="string" name="GGA">--</i>
   <i type="int" name="VOSKOWN">     0</i>
   <i type="logical" name="LHFCALC"> F  </i>
   <i type="string" name="PRECFOCK"></i>
   <i type="logical" name="LSYMGRAD"> F  </i>
   <i type="logical" name="LHFONE"> F  </i>
   <i type="logical" name="LRHFCALC"> F  </i>
   <i type="logical" name="LTHOMAS"> F  </i>
   <i type="logical" name="LMODELHF"> F  </i>
   <i name="ENCUT4O">     -1.00000000</i>
   <i type="int" name="EXXOEP">     0</i>
   <i type="int" name="FOURORBIT">     0</i>
   <i name="AEXX">      0.00000000</i>
   <i name="HFALPHA">      0.00000000</i>
   <i name="MCALPHA">      0.00000000</i>
   <i name="ALDAX">      1.00000000</i>
   <i name="AGGAX">      1.00000000</i>
   <i name="ALDAC">      1.00000000</i>
   <i name="AGGAC">      1.00000000</i>
   <i type="int" name="NKREDX">     1</i>
   <i type="int" name="NKREDY">     1</i>
   <i type="int" name="NKREDZ">     1</i>
   <i type="logical" name="SHIFTRED"> F  </i>
   <i type="logical" name="ODDONLY"> F  </i>
   <i type="logical" name="EVENONLY"> F  </i>
   <i type="int" name="LMAXFOCK">     0</i>
   <i type="int" name="NMAXFOCKAE">     0</i>
   <i type="logical" name="LFOCKAEDFT"> F  </i>
   <i name="HFSCREEN">      0.00000000</i>
   <i name="HFSCREENC">      0.00000000</i>
   <i type="int" name="NBANDSGWLOW">     0</i>
  </separator>
  <separator name="vdW DFT" >
   <i type="logical" name="LUSE_VDW"> F  </i>
   <i name="Zab_VDW">     -0.84910000</i>
   <i name="PARAM1">      0.12340000</i>
   <i name="PARAM2">      1.00000000</i>
   <i name="PARAM3">      0.00000000</i>
  </separator>
  <separator name="model GW" >
   <i type="int" name="MODEL_GW">     0</i>
   <i name="MODEL_EPS0">      7.68891307</i>
   <i name="MODEL_ALPHA">      1.00000000</i>
  </separator>
  <separator name="linear response parameters" >
   <i type="logical" name="LEPSILON"> F  </i>
   <i type="logical" name="LRPA"> F  </i>
   <i type="logical" name="LNABLA"> F  </i>
   <i type="logical" name="LVEL"> F  </i>
   <i type="int" name="KINTER">     0</i>
   <i name="CSHIFT">      0.10000000</i>
   <i name="OMEGAMAX">     -1.00000000</i>
   <i name="DEG_THRESHOLD">      0.00200000</i>
  </separator>
  <separator name="orbital magnetization" >
   <i type="logical" name="NUCIND"> F  </i>
   <v name="MAGPOS">      0.00000000      0.00000000      0.00000000</v>
   <i type="logical" name="LNICSALL"> T  </i>
   <i type="logical" name="ORBITALMAG"> F  </i>
   <i type="logical" name="LMAGBLOCH"> F  </i>
   <i type="logical" name="LCHIMAG"> F  </i>
   <i type="logical" name="LGAUGE"> T  </i>
   <i type="int" name="MAGATOM">     0</i>
   <v name="MAGDIPOL">      0.00000000      0.00000000      0.00000000</v>
   <v name="AVECCONST">      0.00000000      0.00000000      0.00000000</v>
  </separator>
  <separator name="response functions" >
   <i type="logical" name="LADDER"> F  </i>
   <i type="logical" name="LFXC"> F  </i>
   <i type="logical" name="LHARTREE"> T  </i>
   <i type="int" name="IBSE">     0</i>
   <v type="int" name="KPOINT">    -1     0     0     0</v>
   <i type="logical" name="LTCTE"> F  </i>
   <i type="logical" name="LTETE"> F  </i>
   <i type="logical" name="LTRIPLET"> F  </i>
   <i type="logical" name="LFXCEPS"> F  </i>
   <i type="logical" name="LFXHEG"> F  </i>
   <i type="int" name="NATURALO">     0</i>
   <i type="logical" name="L2ORDER"> F  </i>
   <i type="logical" name="LUSEW"> F  </i>
   <i name="ENCUTGW">     -2.00000000</i>
   <i name="ENCUTGWSOFT">     -2.00000000</i>
   <i name="ENCUTLF">     -1.00000000</i>
   <i type="int" name="LMAXMP2">    -1</i>
   <i name="SCISSOR">      0.00000000</i>
   <i type="int" name="NOMEGA">     0</i>
   <i type="int" name="NOMEGAR">     0</i>
   <i type="int" name="NBANDSGW">    -1</i>
   <i type="int" name="NBANDSO">    -1</i>
   <i type="int" name="NBANDSV">    -1</i>
   <i type="int" name="NELM">    40</i>
   <i type="int" name="NELMHF">     1</i>
   <i type="int" name="DIM">     3</i>
   <i type="int" name="ANTIRES">     0</i>
   <i name="OMEGAMAX">    -30.00000000</i>
   <i name="OMEGAMIN">    -30.00000000</i>
   <i name="OMEGATL">   -200.00000000</i>
   <i type="int" name="OMEGAGRID">     0</i>
   <i name="CSHIFT">     -0.10000000</i>
   <i type="logical" name="SELFENERGY"> F  </i>
   <i type="logical" name="LSPECTRAL"> F  </i>
   <i type="logical" name="LSPECTRALGW"> F  </i>
   <i type="logical" name="LSINGLES"> F  </i>
   <i type="logical" name="LFERMIGW"> F  </i>
   <i type="logical" name="ODDONLYGW"> F  </i>
   <i type="logical" name="EVENONLYGW"> F  </i>
   <i type="int" name="NKREDLFX">     1</i>
   <i type="int" name="NKREDLFY">     1</i>
   <i type="int" name="NKREDLFZ">     1</i>
   <i type="int" name="MAXMEM">  1800</i>
   <i type="int" name="TELESCOPE">     0</i>
   <i type="int" name="TAUPAR">     1</i>
   <i type="int" name="OMEGAPAR">    -1</i>
   <i name="LAMBDA">      1.00000000</i>
  </separator>
  <separator name="External order field" >
   <i name="OFIELD_KAPPA">      0.00000000</i>
   <v name="OFIELD_K">      0.00000000      0.00000000      0.00000000</v>
   <i name="OFIELD_Q6_NEAR">      0.00000000</i>
   <i name="OFIELD_Q6_FAR">      0.00000000</i>
   <i name="OFIELD_A">      0.00000000</i>
  </separator>
 </parameters>
 <atominfo>
  <atoms>     156 </atoms>
  <types>       4 </types>
  <array name="atoms" >
   <dimension dim="1">ion</dimension>
   <field type="string">element</field>
   <field type="int">atomtype</field>
   <set>
    <rc><c>Sr</c><c>   1</c></rc>
    <rc><c>Sr</c><c>   1</c></rc>
    <rc><c>Sr</c><c>   1</c></rc>
    <rc><c>Sr</c><c>   1</c></rc>
    <rc><c>Sr</c><c>   1</c></rc>
    <rc><c>Sr</c><c>   1</c></rc>
    <rc><c>Sr</c><c>   1</c></rc>
    <rc><c>Sr</c><c>   1</c></rc>
    <rc><c>Sr</c><c>   1</c></rc>
    <rc><c>Sr</c><c>   1</c></rc>
    <rc><c>Sr</c><c>   1</c></rc>
    <rc><c>Sr</c><c>   1</c></rc>
    <rc><c>Sr</c><c>   1</c></rc>
    <rc><c>Sr</c><c>   1</c></rc>
    <rc><c>Sr</c><c>   1</c></rc>
    <rc><c>Sr</c><c>   1</c></rc>
    <rc><c>Sr</c><c>   1</c></rc>
    <rc><c>Sr</c><c>   1</c></rc>
    <rc><c>Sr</c><c>   1</c></rc>
    <rc><c>Sr</c><c>   1</c></rc>
    <rc><c>Sr</c><c>   1</c></rc>
    <rc><c>Sr</c><c>   1</c></rc>
    <rc><c>Sr</c><c>   1</c></rc>
    <rc><c>Sr</c><c>   1</c></rc>
    <rc><c>Sr</c><c>   1</c></rc>
    <rc><c>Sr</c><c>   1</c></rc>
    <rc><c>Sr</c><c>   1</c></rc>
    <rc><c>Sr</c><c>   1</c></rc>
    <rc><c>Sr</c><c>   1</c></rc>
    <rc><c>Sr</c><c>   1</c></rc>
    <rc><c>Sr</c><c>   1</c></rc>
    <rc><c>Sr</c><c>   1</c></rc>
    <rc><c>Ti</c><c>   2</c></rc>
    <rc><c>Ti</c><c>   2</c></rc>
    <rc><c>Ti</c><c>   2</c></rc>
    <rc><c>Ti</c><c>   2</c></rc>
    <rc><c>Ti</c><c>   2</c></rc>
    <rc><c>Ti</c><c>   2</c></rc>
    <rc><c>Ti</c><c>   2</c></rc>
    <rc><c>Ti</c><c>   2</c></rc>
    <rc><c>Ti</c><c>   2</c></rc>
    <rc><c>Ti</c><c>   2</c></rc>
    <rc><c>Ti</c><c>   2</c></rc>
    <rc><c>Ti</c><c>   2</c></rc>
    <rc><c>Ti</c><c>   2</c></rc>
    <rc><c>Ti</c><c>   2</c></rc>
    <rc><c>Ti</c><c>   2</c></rc>
    <rc><c>Ti</c><c>   2</c></rc>
    <rc><c>Ti</c><c>   2</c></rc>
    <rc><c>Ti</c><c>   2</c></rc>
    <rc><c>Ti</c><c>   2</c></rc>
    <rc><c>Ti</c><c>   2</c></rc>
    <rc><c>Ti</c><c>   2</c></rc>
    <rc><c>Ti</c><c>   2</c></rc>
    <rc><c>Ti</c><c>   2</c></rc>
    <rc><c>Ti</c><c>   2</c></rc>
    <rc><c>Fe</c><c>   3</c></rc>
    <rc><c>Fe</c><c>   3</c></rc>
    <rc><c>Fe</c><c>   3</c></rc>
    <rc><c>Fe</c><c>   3</c></rc>
    <rc><c>Fe</c><c>   3</c></rc>
    <rc><c>Fe</c><c>   3</c></rc>
    <rc><c>Fe</c><c>   3</c></rc>
    <rc><c>Fe</c><c>   3</c></rc>
    <rc><c>O </c><c>   4</c></rc>
    <rc><c>O </c><c>   4</c></rc>
    <rc><c>O </c><c>   4</c></rc>
    <rc><c>O </c><c>   4</c></rc>
    <rc><c>O </c><c>   4</c></rc>
    <rc><c>O </c><c>   4</c></rc>
    <rc><c>O </c><c>   4</c></rc>
    <rc><c>O </c><c>   4</c></rc>
    <rc><c>O </c><c>   4</c></rc>
    <rc><c>O </c><c>   4</c></rc>
    <rc><c>O </c><c>   4</c></rc>
    <rc><c>O </c><c>   4</c></rc>
    <rc><c>O </c><c>   4</c></rc>
    <rc><c>O </c><c>   4</c></rc>
    <rc><c>O </c><c>   4</c></rc>
    <rc><c>O </c><c>   4</c></rc>
    <rc><c>O </c><c>   4</c></rc>
    <rc><c>O </c><c>   4</c></rc>
    <rc><c>O </c><c>   4</c></rc>
    <rc><c>O </c><c>   4</c></rc>
    <rc><c>O </c><c>   4</c></rc>
    <rc><c>O </c><c>   4</c></rc>
    <rc><c>O </c><c>   4</c></rc>
    <rc><c>O </c><c>   4</c></rc>
    <rc><c>O </c><c>   4</c></rc>
    <rc><c>O </c><c>   4</c></rc>
    <rc><c>O </c><c>   4</c></rc>
    <rc><c>O </c><c>   4</c></rc>
    <rc><c>O </c><c>   4</c></rc>
    <rc><c>O </c><c>   4</c></rc>
    <rc><c>O </c><c>   4</c></rc>
    <rc><c>O </c><c>   4</c></rc>
    <rc><c>O </c><c>   4</c></rc>
    <rc><c>O </c><c>   4</c></rc>
    <rc><c>O </c><c>   4</c></rc>
    <rc><c>O </c><c>   4</c></rc>
    <rc><c>O </c><c>   4</c></rc>
    <rc><c>O </c><c>   4</c></rc>
    <rc><c>O </c><c>   4</c></rc>
    <rc><c>O </c><c>   4</c></rc>
    <rc><c>O </c><c>   4</c></rc>
    <rc><c>O </c><c>   4</c></rc>
    <rc><c>O </c><c>   4</c></rc>
    <rc><c>O </c><c>   4</c></rc>
    <rc><c>O </c><c>   4</c></rc>
    <rc><c>O </c><c>   4</c></rc>
    <rc><c>O </c><c>   4</c></rc>
    <rc><c>O </c><c>   4</c></rc>
    <rc><c>O </c><c>   4</c></rc>
    <rc><c>O </c><c>   4</c></rc>
    <rc><c>O </c><c>   4</c></rc>
    <rc><c>O </c><c>   4</c></rc>
    <rc><c>O </c><c>   4</c></rc>
    <rc><c>O </c><c>   4</c></rc>
    <rc><c>O </c><c>   4</c></rc>
    <rc><c>O </c><c>   4</c></rc>
    <rc><c>O </c><c>   4</c></rc>
    <rc><c>O </c><c>   4</c></rc>
    <rc><c>O </c><c>   4</c></rc>
    <rc><c>O </c><c>   4</c></rc>
    <rc><c>O </c><c>   4</c></rc>
    <rc><c>O </c><c>   4</c></rc>
    <rc><c>O </c><c>   4</c></rc>
    <rc><c>O </c><c>   4</c></rc>
    <rc><c>O </c><c>   4</c></rc>
    <rc><c>O </c><c>   4</c></rc>
    <rc><c>O </c><c>   4</c></rc>
    <rc><c>O </c><c>   4</c></rc>
    <rc><c>O </c><c>   4</c></rc>
    <rc><c>O </c><c>   4</c></rc>
    <rc><c>O </c><c>   4</c></rc>
    <rc><c>O </c><c>   4</c></rc>
    <rc><c>O </c><c>   4</c></rc>
    <rc><c>O </c><c>   4</c></rc>
    <rc><c>O </c><c>   4</c></rc>
    <rc><c>O </c><c>   4</c></rc>
    <rc><c>O </c><c>   4</c></rc>
    <rc><c>O </c><c>   4</c></rc>
    <rc><c>O </c><c>   4</c></rc>
    <rc><c>O </c><c>   4</c></rc>
    <rc><c>O </c><c>   4</c></rc>
    <rc><c>O </c><c>   4</c></rc>
    <rc><c>O </c><c>   4</c></rc>
    <rc><c>O </c><c>   4</c></rc>
    <rc><c>O </c><c>   4</c></rc>
    <rc><c>O </c><c>   4</c></rc>
    <rc><c>O </c><c>   4</c></rc>
    <rc><c>O </c><c>   4</c></rc>
    <rc><c>O </c><c>   4</c></rc>
    <rc><c>O </c><c>   4</c></rc>
    <rc><c>O </c><c>   4</c></rc>
    <rc><c>O </c><c>   4</c></rc>
   </set>
  </array>
  <array name="atomtypes" >
   <dimension dim="1">type</dimension>
   <field type="int">atomspertype</field>
   <field type="string">element</field>
   <field>mass</field>
   <field>valence</field>
   <field type="string">pseudopotential</field>
   <set>
    <rc><c>  32</c><c>Sr</c><c>     87.62000000</c><c>     10.00000000</c><c>  PAW_PBE Sr_sv 07Sep2000               </c></rc>
    <rc><c>  24</c><c>Ti</c><c>     47.88000000</c><c>      4.00000000</c><c>  PAW_PBE Ti 08Apr2002                  </c></rc>
    <rc><c>   8</c><c>Fe</c><c>     55.84700000</c><c>      8.00000000</c><c>  PAW_PBE Fe 06Sep2000                  </c></rc>
    <rc><c>  92</c><c>O </c><c>     16.00000000</c><c>      6.00000000</c><c>  PAW_PBE O 08Apr2002                   </c></rc>
   </set>
  </array>
 </atominfo>
 <structure name="initialpos" >
  <crystal>
   <varray name="basis" >
    <v>      11.19367245       0.01616695      -0.00283384 </v>
    <v>       0.01619047      11.19011196       0.00038095 </v>
    <v>      -0.00408081       0.00055415      15.95997508 </v>
   </varray>
   <i name="volume">   1999.11739737 </i>
   <varray name="rec_basis" >
    <v>       0.08933638      -0.00012926       0.00002285 </v>
    <v>      -0.00012907       0.08936480      -0.00000314 </v>
    <v>       0.00001587      -0.00000216       0.06265674 </v>
   </varray>
  </crystal>
  <varray name="positions" >
   <v>       0.99834683       0.24971553       0.12204267 </v>
   <v>       0.00790340       0.26101873       0.62652603 </v>
   <v>       0.00250946       0.75018519       0.11890865 </v>
   <v>       0.99441368       0.74082085       0.62705561 </v>
   <v>       0.50005998       0.24952070       0.12396748 </v>
   <v>       0.49962100       0.24356542       0.61735286 </v>
   <v>       0.49504829       0.74805122       0.12414106 </v>
   <v>       0.50370370       0.75726894       0.61828748 </v>
   <v>       0.00529882       0.25682197       0.37455706 </v>
   <v>       0.99901334       0.25310959       0.87799130 </v>
   <v>       0.99647878       0.74631927       0.37802067 </v>
   <v>       0.00180372       0.74897262       0.87641995 </v>
   <v>       0.49570172       0.25140599       0.37933223 </v>
   <v>       0.50391390       0.24273995       0.87826455 </v>
   <v>       0.49841753       0.74687285       0.37906419 </v>
   <v>       0.50037532       0.75738933       0.87760236 </v>
   <v>       0.24945543       0.00112581       0.12096138 </v>
   <v>       0.26044217       0.00692213       0.62585607 </v>
   <v>       0.25473972       0.50207501       0.12300261 </v>
   <v>       0.24872033       0.49992988       0.61915587 </v>
   <v>       0.75034284       0.00536316       0.12126824 </v>
   <v>       0.74278069       0.99629665       0.62607794 </v>
   <v>       0.74425172       0.49289720       0.11927458 </v>
   <v>       0.75466257       0.49762074       0.62264879 </v>
   <v>       0.25775711       0.00574394       0.37726034 </v>
   <v>       0.25294425       0.99970786       0.87533082 </v>
   <v>       0.25663602       0.50098573       0.38052300 </v>
   <v>       0.24479036       0.50288072       0.87865110 </v>
   <v>       0.74115381       0.00038227       0.37705916 </v>
   <v>       0.75055093       0.00014266       0.87575181 </v>
   <v>       0.74221090       0.49513431       0.38603830 </v>
   <v>       0.75788200       0.49697228       0.87514439 </v>
   <v>       0.00038164       0.00007024       0.99879311 </v>
   <v>       0.99970830       0.00105075       0.50064049 </v>
   <v>       0.99868141       0.50163764       0.49988936 </v>
   <v>       0.50052159       0.99931706       0.00127186 </v>
   <v>       0.49862957       0.49838070       0.99887635 </v>
   <v>       0.24906224       0.25325386       0.99863415 </v>
   <v>       0.24921633       0.74907494       0.99952251 </v>
   <v>       0.75136346       0.25069641       0.99939610 </v>
   <v>       0.75258220       0.74652872       0.99884851 </v>
   <v>       0.25248683       0.24658597       0.24998605 </v>
   <v>       0.24853051       0.75330923       0.25238215 </v>
   <v>       0.24865033       0.75111398       0.74731834 </v>
   <v>       0.75034642       0.24823795       0.25281045 </v>
   <v>       0.75172779       0.24745452       0.74742895 </v>
   <v>       0.74251250       0.76106065       0.24903710 </v>
   <v>       0.75394244       0.75355789       0.74910514 </v>
   <v>       0.00166083       0.00071376       0.24915597 </v>
   <v>       0.99999115       0.99914148       0.75025708 </v>
   <v>       0.01219620       0.49369253       0.24888231 </v>
   <v>       0.00378171       0.49929405       0.75273680 </v>
   <v>       0.49621360       0.00236228       0.25079016 </v>
   <v>       0.50060079       0.00096914       0.74889451 </v>
   <v>       0.50075986       0.49943105       0.25238061 </v>
   <v>       0.50720808       0.51245430       0.74924198 </v>
   <v>       0.99874349       0.50140411       0.00107652 </v>
   <v>       0.50026346       0.99907356       0.49851248 </v>
   <v>       0.49866178       0.49816029       0.50279117 </v>
   <v>       0.25340598       0.25288641       0.50093636 </v>
   <v>       0.26021351       0.74315405       0.50082690 </v>
   <v>       0.74059537       0.25571693       0.50054660 </v>
   <v>       0.74813566       0.74729717       0.50066185 </v>
   <v>       0.23740480       0.24256890       0.75057258 </v>
   <v>       0.10420719       0.14637472       0.24964438 </v>
   <v>       0.10271864       0.14149656       0.75079358 </v>
   <v>       0.09924106       0.64715749       0.25017600 </v>
   <v>       0.10523936       0.64482880       0.75122259 </v>
   <v>       0.60814223       0.14139273       0.25192934 </v>
   <v>       0.61171906       0.13933441       0.74858050 </v>
   <v>       0.61705823       0.63736880       0.24692869 </v>
   <v>       0.60528353       0.64434493       0.75031887 </v>
   <v>       0.39188484       0.35801489       0.24799323 </v>
   <v>       0.39482553       0.85614217       0.25110572 </v>
   <v>       0.39054556       0.85879434       0.74877507 </v>
   <v>       0.88922946       0.36547778       0.24966418 </v>
   <v>       0.89066329       0.35915151       0.75055207 </v>
   <v>       0.89583674       0.85035142       0.24917959 </v>
   <v>       0.89397124       0.85599449       0.75039236 </v>
   <v>       0.35534012       0.10554141       0.24813126 </v>
   <v>       0.36614822       0.11851061       0.75209952 </v>
   <v>       0.35691830       0.60998781       0.25205589 </v>
   <v>       0.35337445       0.60346932       0.74823498 </v>
   <v>       0.85829883       0.10427207       0.24864918 </v>
   <v>       0.85804501       0.10477389       0.75081979 </v>
   <v>       0.85635192       0.60812549       0.74831893 </v>
   <v>       0.14520658       0.39627419       0.25021885 </v>
   <v>       0.14596505       0.39553646       0.74946970 </v>
   <v>       0.14524046       0.89813317       0.24927282 </v>
   <v>       0.14257709       0.89567890       0.75122869 </v>
   <v>       0.64188418       0.38827311       0.25398008 </v>
   <v>       0.63386730       0.38592655       0.74860648 </v>
   <v>       0.64464671       0.89390456       0.24840393 </v>
   <v>       0.64215032       0.89196765       0.75215413 </v>
   <v>       0.36086509       0.38968957       0.00573802 </v>
   <v>       0.36892878       0.38693222       0.49426060 </v>
   <v>       0.36229242       0.88848103       0.00035628 </v>
   <v>       0.35307813       0.88906568       0.50103380 </v>
   <v>       0.85959835       0.38685790       0.00063237 </v>
   <v>       0.87557112       0.37027350       0.49944709 </v>
   <v>       0.86118016       0.88830099       0.00281968 </v>
   <v>       0.87311561       0.88213204       0.49643131 </v>
   <v>       0.13870375       0.11293769       0.99432270 </v>
   <v>       0.12563744       0.12136465       0.50421140 </v>
   <v>       0.13944439       0.61354703       0.00284281 </v>
   <v>       0.12308769       0.63156521       0.49761871 </v>
   <v>       0.63892250       0.11049387       0.99894703 </v>
   <v>       0.64725165       0.10979507       0.50145918 </v>
   <v>       0.63740255       0.60785290       0.99284385 </v>
   <v>       0.62959199       0.60945947       0.50783671 </v>
   <v>       0.11136819       0.36226678       0.00420379 </v>
   <v>       0.12117274       0.37677072       0.49308546 </v>
   <v>       0.11254335       0.86301095       0.99985059 </v>
   <v>       0.61016141       0.36001935       0.00043082 </v>
   <v>       0.61323677       0.36578022       0.49856845 </v>
   <v>       0.61245164       0.85855054       0.00717229 </v>
   <v>       0.61458390       0.86033159       0.49222085 </v>
   <v>       0.38922861       0.13847883       0.00016999 </v>
   <v>       0.38672752       0.13559580       0.49952053 </v>
   <v>       0.38999439       0.63864782       0.99772452 </v>
   <v>       0.38703493       0.63265651       0.50276214 </v>
   <v>       0.88889789       0.13809564       0.00055703 </v>
   <v>       0.88764536       0.63954340       0.99362355 </v>
   <v>       0.87651904       0.62696712       0.50626204 </v>
   <v>       0.00287805       0.00210764       0.12444479 </v>
   <v>       0.99775660       0.99687811       0.62255977 </v>
   <v>       0.98221829       0.51437569       0.13111862 </v>
   <v>       0.00243161       0.49790967       0.62464396 </v>
   <v>       0.50037568       0.00190512       0.12603784 </v>
   <v>       0.50174134       0.99637722       0.62604418 </v>
   <v>       0.50175976       0.50248872       0.12401747 </v>
   <v>       0.48406745       0.48001021       0.63252076 </v>
   <v>       0.00305462       0.00259328       0.37776522 </v>
   <v>       0.99677817       0.99715546       0.87511600 </v>
   <v>       0.98191395       0.51308822       0.36972911 </v>
   <v>       0.00065451       0.49791144       0.87415632 </v>
   <v>       0.49932897       0.00120617       0.37215603 </v>
   <v>       0.50170842       0.99619819       0.87629456 </v>
   <v>       0.50130205       0.50465823       0.37285056 </v>
   <v>       0.48439836       0.48150716       0.86989023 </v>
   <v>       0.24999928       0.24803210       0.37181198 </v>
   <v>       0.26031933       0.26297901       0.87338183 </v>
   <v>       0.24067134       0.75879111       0.37620404 </v>
   <v>       0.25001203       0.75160594       0.87465420 </v>
   <v>       0.76491798       0.23766699       0.37699297 </v>
   <v>       0.75064764       0.24918241       0.87471645 </v>
   <v>       0.76186656       0.72874374       0.36760835 </v>
   <v>       0.74766643       0.75390726       0.87488000 </v>
   <v>       0.24790040       0.24690128       0.12522657 </v>
   <v>       0.26053813       0.26197022       0.62904186 </v>
   <v>       0.25206799       0.75084199       0.12583847 </v>
   <v>       0.23588904       0.75865650       0.62383139 </v>
   <v>       0.74912676       0.24776730       0.12587196 </v>
   <v>       0.76349515       0.24242908       0.62362191 </v>
   <v>       0.76266428       0.73087987       0.12821413 </v>
   <v>       0.74692179       0.75560134       0.62716151 </v>
  </varray>
 </structure>
 <calculation>
  <scstep>
   <time name="dav">  592.31  592.31</time>
   <time name="total">  599.48  599.61</time>
   <energy>
    <i name="alphaZ">   5645.16938961 </i>
    <i name="ewald"> -61300.07455473 </i>
    <i name="hartreedc"> -16267.59340272 </i>
    <i name="XCdc">   2962.80235504 </i>
    <i name="pawpsdc"> 112726.84664026 </i>
    <i name="pawaedc">-111626.42072875 </i>
    <i name="eentropy">     -0.00000003 </i>
    <i name="bandstr">  -7041.68704572 </i>
    <i name="atom">  73783.44779670 </i>
    <i name="e_fr_energy">  -1117.50955035 </i>
    <i name="e_wo_entrp">  -1117.50955032 </i>
    <i name="e_0_energy">  -1117.50955033 </i>
   </energy>
  </scstep>
  <scstep>
   <time name="diag">   64.54   64.54</time>
   <time name="diis">   61.99   61.99</time>
   <time name="orth">   33.15   33.15</time>
   <time name="total">  166.90  166.93</time>
   <energy>
    <i name="e_fr_energy">  -1117.50954994 </i>
    <i name="e_wo_entrp">  -1117.50954991 </i>
    <i name="e_0_energy">  -1117.50954992 </i>
   </energy>
  </scstep>
  <scstep>
   <time name="diag">   64.46   64.45</time>
   <time name="diis">   60.19   60.19</time>
   <time name="orth">   33.17   33.17</time>
   <time name="total">  165.04  165.20</time>
   <energy>
    <i name="e_fr_energy">  -1117.50954931 </i>
    <i name="e_wo_entrp">  -1117.50954928 </i>
    <i name="e_0_energy">  -1117.50954930 </i>
   </energy>
  </scstep>
  <scstep>
   <time name="diag">   64.41   64.41</time>
   <time name="diis">   50.78   50.78</time>
   <time name="orth">   33.15   33.15</time>
   <time name="total">  155.55  155.58</time>
   <energy>
    <i name="e_fr_energy">  -1117.50954969 </i>
    <i name="e_wo_entrp">  -1117.50954965 </i>
    <i name="e_0_energy">  -1117.50954967 </i>
   </energy>
  </scstep>
  <scstep>
   <time name="diag">   64.57   64.57</time>
   <time name="diis">   49.62   49.63</time>
   <time name="orth">   33.15   33.15</time>
   <time name="total">  154.55  154.71</time>
   <energy>
    <i name="e_fr_energy">  -1117.50955010 </i>
    <i name="e_wo_entrp">  -1117.50955007 </i>
    <i name="e_0_energy">  -1117.50955009 </i>
   </energy>
  </scstep>
  <scstep>
   <time name="diag">   64.53   64.53</time>
   <time name="diis">   47.60   47.61</time>
   <time name="orth">   33.11   33.10</time>
   <time name="total">  152.48  152.83</time>
   <energy>
    <i name="e_fr_energy">  -1117.50955047 </i>
    <i name="e_wo_entrp">  -1117.50955044 </i>
    <i name="e_0_energy">  -1117.50955045 </i>
   </energy>
  </scstep>
  <scstep>
   <time name="diag">   64.62   64.62</time>
   <time name="diis">   46.71   46.72</time>
   <time name="orth">   33.19   33.20</time>
   <time name="total">  151.72  151.78</time>
   <energy>
    <i name="e_fr_energy">  -1117.50955091 </i>
    <i name="e_wo_entrp">  -1117.50955087 </i>
    <i name="e_0_energy">  -1117.50955089 </i>
   </energy>
  </scstep>
  <scstep>
   <time name="diag">   64.56   64.56</time>
   <time name="diis">   45.41   45.41</time>
   <time name="orth">   33.22   33.22</time>
   <time name="total">  144.23  144.36</time>
   <energy>
    <i name="alphaZ">   5645.16938961 </i>
    <i name="ewald"> -61300.07455473 </i>
    <i name="hartreedc"> -16267.58357404 </i>
    <i name="XCdc">   2962.80188231 </i>
    <i name="pawpsdc"> 112727.08914491 </i>
    <i name="pawaedc">-111626.64353604 </i>
    <i name="eentropy">     -0.00000003 </i>
    <i name="bandstr">  -7041.71609981 </i>
    <i name="atom">  73783.44779670 </i>
    <i name="e_fr_energy">  -1117.50955112 </i>
    <i name="e_wo_entrp">  -1117.50955109 </i>
    <i name="e_0_energy">  -1117.50955111 </i>
   </energy>
  </scstep>
  <structure>
   <crystal>
    <varray name="basis" >
     <v>      11.19367245       0.01616695      -0.00283384 </v>
     <v>       0.01619047      11.19011196       0.00038095 </v>
     <v>      -0.00408081       0.00055415      15.95997508 </v>
    </varray>
    <i name="volume">   1999.11739737 </i>
    <varray name="rec_basis" >
     <v>       0.08933638      -0.00012926       0.00002285 </v>
     <v>      -0.00012907       0.08936480      -0.00000314 </v>
     <v>       0.00001587      -0.00000216       0.06265674 </v>
    </varray>
   </crystal>
   <varray name="positions" >
    <v>       0.99834683       0.24971553       0.12204267 </v>
    <v>       0.00790340       0.26101873       0.62652603 </v>
    <v>       0.00250946       0.75018519       0.11890865 </v>
    <v>       0.99441368       0.74082085       0.62705561 </v>
    <v>       0.50005998       0.24952070       0.12396748 </v>
    <v>       0.49962100       0.24356542       0.61735286 </v>
    <v>       0.49504829       0.74805122       0.12414106 </v>
    <v>       0.50370370       0.75726894       0.61828748 </v>
    <v>       0.00529882       0.25682197       0.37455706 </v>
    <v>       0.99901334       0.25310959       0.87799130 </v>
    <v>       0.99647878       0.74631927       0.37802067 </v>
    <v>       0.00180372       0.74897262       0.87641995 </v>
    <v>       0.49570172       0.25140599       0.37933223 </v>
    <v>       0.50391390       0.24273995       0.87826455 </v>
    <v>       0.49841753       0.74687285       0.37906419 </v>
    <v>       0.50037532       0.75738933       0.87760236 </v>
    <v>       0.24945543       0.00112581       0.12096138 </v>
    <v>       0.26044217       0.00692213       0.62585607 </v>
    <v>       0.25473972       0.50207501       0.12300261 </v>
    <v>       0.24872033       0.49992988       0.61915587 </v>
    <v>       0.75034284       0.00536316       0.12126824 </v>
    <v>       0.74278069       0.99629665       0.62607794 </v>
    <v>       0.74425172       0.49289720       0.11927458 </v>
    <v>       0.75466257       0.49762074       0.62264879 </v>
    <v>       0.25775711       0.00574394       0.37726034 </v>
    <v>       0.25294425       0.99970786       0.87533082 </v>
    <v>       0.25663602       0.50098573       0.38052300 </v>
    <v>       0.24479036       0.50288072       0.87865110 </v>
    <v>       0.74115381       0.00038227       0.37705916 </v>
    <v>       0.75055093       0.00014266       0.87575181 </v>
    <v>       0.74221090       0.49513431       0.38603830 </v>
    <v>       0.75788200       0.49697228       0.87514439 </v>
    <v>       0.00038164       0.00007024       0.99879311 </v>
    <v>       0.99970830       0.00105075       0.50064049 </v>
    <v>       0.99868141       0.50163764       0.49988936 </v>
    <v>       0.50052159       0.99931706       0.00127186 </v>
    <v>       0.49862957       0.49838070       0.99887635 </v>
    <v>       0.24906224       0.25325386       0.99863415 </v>
    <v>       0.24921633       0.74907494       0.99952251 </v>
    <v>       0.75136346       0.25069641       0.99939610 </v>
    <v>       0.75258220       0.74652872       0.99884851 </v>
    <v>       0.25248683       0.24658597       0.24998605 </v>
    <v>       0.24853051       0.75330923       0.25238215 </v>
    <v>       0.24865033       0.75111398       0.74731834 </v>
    <v>       0.75034642       0.24823795       0.25281045 </v>
    <v>       0.75172779       0.24745452       0.74742895 </v>
    <v>       0.74251250       0.76106065       0.24903710 </v>
    <v>       0.75394244       0.75355789       0.74910514 </v>
    <v>       0.00166083       0.00071376       0.24915597 </v>
    <v>       0.99999115       0.99914148       0.75025708 </v>
    <v>       0.01219620       0.49369253       0.24888231 </v>
    <v>       0.00378171       0.49929405       0.75273680 </v>
    <v>       0.49621360       0.00236228       0.25079016 </v>
    <v>       0.50060079       0.00096914       0.74889451 </v>
    <v>       0.50075986       0.49943105       0.25238061 </v>
    <v>       0.50720808       0.51245430       0.74924198 </v>
    <v>       0.99874349       0.50140411       0.00107652 </v>
    <v>       0.50026346       0.99907356       0.49851248 </v>
    <v>       0.49866178       0.49816029       0.50279117 </v>
    <v>       0.25340598       0.25288641       0.50093636 </v>
    <v>       0.26021351       0.74315405       0.50082690 </v>
    <v>       0.74059537       0.25571693       0.50054660 </v>
    <v>       0.74813566       0.74729717       0.50066185 </v>
    <v>       0.23740480       0.24256890       0.75057258 </v>
    <v>       0.10420719       0.14637472       0.24964438 </v>
    <v>       0.10271864       0.14149656       0.75079358 </v>
    <v>       0.09924106       0.64715749       0.25017600 </v>
    <v>       0.10523936       0.64482880       0.75122259 </v>
    <v>       0.60814223       0.14139273       0.25192934 </v>
    <v>       0.61171906       0.13933441       0.74858050 </v>
    <v>       0.61705823       0.63736880       0.24692869 </v>
    <v>       0.60528353       0.64434493       0.75031887 </v>
    <v>       0.39188484       0.35801489       0.24799323 </v>
    <v>       0.39482553       0.85614217       0.25110572 </v>
    <v>       0.39054556       0.85879434       0.74877507 </v>
    <v>       0.88922946       0.36547778       0.24966418 </v>
    <v>       0.89066329       0.35915151       0.75055207 </v>
    <v>       0.89583674       0.85035142       0.24917959 </v>
    <v>       0.89397124       0.85599449       0.75039236 </v>
    <v>       0.35534012       0.10554141       0.24813126 </v>
    <v>       0.36614822       0.11851061       0.75209952 </v>
    <v>       0.35691830       0.60998781       0.25205589 </v>
    <v>       0.35337445       0.60346932       0.74823498 </v>
    <v>       0.85829883       0.10427207       0.24864918 </v>
    <v>       0.85804501       0.10477389       0.75081979 </v>
    <v>       0.85635192       0.60812549       0.74831893 </v>
    <v>       0.14520658       0.39627419       0.25021885 </v>
    <v>       0.14596505       0.39553646       0.74946970 </v>
    <v>       0.14524046       0.89813317       0.24927282 </v>
    <v>       0.14257709       0.89567890       0.75122869 </v>
    <v>       0.64188418       0.38827311       0.25398008 </v>
    <v>       0.63386730       0.38592655       0.74860648 </v>
    <v>       0.64464671       0.89390456       0.24840393 </v>
    <v>       0.64215032       0.89196765       0.75215413 </v>
    <v>       0.36086509       0.38968957       0.00573802 </v>
    <v>       0.36892878       0.38693222       0.49426060 </v>
    <v>       0.36229242       0.88848103       0.00035628 </v>
    <v>       0.35307813       0.88906568       0.50103380 </v>
    <v>       0.85959835       0.38685790       0.00063237 </v>
    <v>       0.87557112       0.37027350       0.49944709 </v>
    <v>       0.86118016       0.88830099       0.00281968 </v>
    <v>       0.87311561       0.88213204       0.49643131 </v>
    <v>       0.13870375       0.11293769       0.99432270 </v>
    <v>       0.12563744       0.12136465       0.50421140 </v>
    <v>       0.13944439       0.61354703       0.00284281 </v>
    <v>       0.12308769       0.63156521       0.49761871 </v>
    <v>       0.63892250       0.11049387       0.99894703 </v>
    <v>       0.64725165       0.10979507       0.50145918 </v>
    <v>       0.63740255       0.60785290       0.99284385 </v>
    <v>       0.62959199       0.60945947       0.50783671 </v>
    <v>       0.11136819       0.36226678       0.00420379 </v>
    <v>       0.12117274       0.37677072       0.49308546 </v>
    <v>       0.11254335       0.86301095       0.99985059 </v>
    <v>       0.61016141       0.36001935       0.00043082 </v>
    <v>       0.61323677       0.36578022       0.49856845 </v>
    <v>       0.61245164       0.85855054       0.00717229 </v>
    <v>       0.61458390       0.86033159       0.49222085 </v>
    <v>       0.38922861       0.13847883       0.00016999 </v>
    <v>       0.38672752       0.13559580       0.49952053 </v>
    <v>       0.38999439       0.63864782       0.99772452 </v>
    <v>       0.38703493       0.63265651       0.50276214 </v>
    <v>       0.88889789       0.13809564       0.00055703 </v>
    <v>       0.88764536       0.63954340       0.99362355 </v>
    <v>       0.87651904       0.62696712       0.50626204 </v>
    <v>       0.00287805       0.00210764       0.12444479 </v>
    <v>       0.99775660       0.99687811       0.62255977 </v>
    <v>       0.98221829       0.51437569       0.13111862 </v>
    <v>       0.00243161       0.49790967       0.62464396 </v>
    <v>       0.50037568       0.00190512       0.12603784 </v>
    <v>       0.50174134       0.99637722       0.62604418 </v>
    <v>       0.50175976       0.50248872       0.12401747 </v>
    <v>       0.48406745       0.48001021       0.63252076 </v>
    <v>       0.00305462       0.00259328       0.37776522 </v>
    <v>       0.99677817       0.99715546       0.87511600 </v>
    <v>       0.98191395       0.51308822       0.36972911 </v>
    <v>       0.00065451       0.49791144       0.87415632 </v>
    <v>       0.49932897       0.00120617       0.37215603 </v>
    <v>       0.50170842       0.99619819       0.87629456 </v>
    <v>       0.50130205       0.50465823       0.37285056 </v>
    <v>       0.48439836       0.48150716       0.86989023 </v>
    <v>       0.24999928       0.24803210       0.37181198 </v>
    <v>       0.26031933       0.26297901       0.87338183 </v>
    <v>       0.24067134       0.75879111       0.37620404 </v>
    <v>       0.25001203       0.75160594       0.87465420 </v>
    <v>       0.76491798       0.23766699       0.37699297 </v>
    <v>       0.75064764       0.24918241       0.87471645 </v>
    <v>       0.76186656       0.72874374       0.36760835 </v>
    <v>       0.74766643       0.75390726       0.87488000 </v>
    <v>       0.24790040       0.24690128       0.12522657 </v>
    <v>       0.26053813       0.26197022       0.62904186 </v>
    <v>       0.25206799       0.75084199       0.12583847 </v>
    <v>       0.23588904       0.75865650       0.62383139 </v>
    <v>       0.74912676       0.24776730       0.12587196 </v>
    <v>       0.76349515       0.24242908       0.62362191 </v>
    <v>       0.76266428       0.73087987       0.12821413 </v>
    <v>       0.74692179       0.75560134       0.62716151 </v>
   </varray>
  </structure>
  <varray name="forces" >
   <v>      -0.00210842      -0.02023571       0.01559520 </v>
   <v>       0.00038874       0.01700884       0.00794099 </v>
   <v>       0.00125325       0.01204792       0.02919543 </v>
   <v>      -0.01376823      -0.01293433       0.00753006 </v>
   <v>      -0.00378260       0.01651613       0.01394695 </v>
   <v>       0.01086961      -0.00081221      -0.00686541 </v>
   <v>      -0.00645680      -0.03348291       0.01254827 </v>
   <v>      -0.01349205      -0.01008145      -0.00511871 </v>
   <v>       0.01653473      -0.00262868      -0.00558351 </v>
   <v>      -0.00963051      -0.00825426      -0.00074454 </v>
   <v>       0.00690431       0.01096558      -0.03674569 </v>
   <v>       0.00012920       0.00281744      -0.02036372 </v>
   <v>       0.01019426      -0.00547972      -0.00724844 </v>
   <v>       0.00953988       0.00765802      -0.00167878 </v>
   <v>      -0.01399199      -0.01466583      -0.00001348 </v>
   <v>      -0.00795447      -0.00738994      -0.00405047 </v>
   <v>      -0.02472128      -0.00831460       0.02400681 </v>
   <v>       0.00736908       0.00402039      -0.00080989 </v>
   <v>      -0.00126253       0.01356663       0.01806703 </v>
   <v>       0.00949909      -0.01000506       0.01967253 </v>
   <v>       0.02767126       0.00959044       0.01794436 </v>
   <v>      -0.00402551      -0.00997291      -0.00424446 </v>
   <v>      -0.01146616      -0.00272989       0.01771894 </v>
   <v>      -0.01437294       0.00260546       0.00475366 </v>
   <v>       0.00405549       0.00236603      -0.01254247 </v>
   <v>      -0.00125642      -0.00159187      -0.00943647 </v>
   <v>       0.01336747       0.00659175      -0.01453023 </v>
   <v>       0.00941397       0.00253743      -0.00198580 </v>
   <v>       0.00717875      -0.00323519      -0.00752039 </v>
   <v>       0.00858704      -0.01294490      -0.01030755 </v>
   <v>      -0.01576833       0.00714756      -0.02624900 </v>
   <v>       0.00269597      -0.00115306      -0.01250311 </v>
   <v>      -0.00530108      -0.00630579       0.02333197 </v>
   <v>       0.00786468       0.00442129      -0.03598424 </v>
   <v>      -0.00619523       0.00664122      -0.00971074 </v>
   <v>      -0.01060816      -0.00548346      -0.03873875 </v>
   <v>       0.00431746      -0.00651181       0.00760396 </v>
   <v>      -0.00731037       0.00759930      -0.00512360 </v>
   <v>      -0.00667012      -0.02555479       0.01979059 </v>
   <v>      -0.00231882       0.03081223       0.01702042 </v>
   <v>       0.01314036      -0.00119225       0.02824875 </v>
   <v>       0.00539738       0.02505654      -0.00472095 </v>
   <v>      -0.02137972      -0.04537347       0.00820794 </v>
   <v>       0.00532842       0.00213895      -0.01606164 </v>
   <v>       0.01637392       0.03258363       0.00512584 </v>
   <v>       0.00063748       0.01480620      -0.01743721 </v>
   <v>       0.00386266      -0.04465121      -0.00176913 </v>
   <v>       0.01818040       0.00482896      -0.01140797 </v>
   <v>      -0.02336663      -0.03336791       0.00222767 </v>
   <v>      -0.02044413      -0.01995241      -0.01389503 </v>
   <v>      -0.02309917       0.03100065       0.03192034 </v>
   <v>       0.01552473      -0.01045619      -0.03613395 </v>
   <v>       0.00154579       0.00885139       0.04158164 </v>
   <v>      -0.01256916       0.00112441       0.00143059 </v>
   <v>       0.02066895       0.02854655      -0.00981477 </v>
   <v>      -0.00570260       0.00674289       0.00906772 </v>
   <v>       0.00950177      -0.00951757       0.01275944 </v>
   <v>      -0.00739254       0.00053161       0.00344508 </v>
   <v>       0.00637850       0.01487839       0.01194286 </v>
   <v>      -0.00052016      -0.00666763      -0.00581935 </v>
   <v>      -0.00186032      -0.01096026       0.00690717 </v>
   <v>      -0.01888967       0.02901743       0.00502497 </v>
   <v>       0.00421534      -0.00460649      -0.00353095 </v>
   <v>       0.00412031       0.00234435      -0.02276713 </v>
   <v>       0.00031184      -0.01054559      -0.00310860 </v>
   <v>       0.01710643       0.02263191       0.00543271 </v>
   <v>       0.00066273       0.00273600      -0.00950841 </v>
   <v>       0.01699190      -0.02539236       0.00881375 </v>
   <v>      -0.01689095       0.00557452      -0.01105033 </v>
   <v>       0.00538169      -0.00130440       0.01055853 </v>
   <v>      -0.00798355      -0.01233883       0.00816144 </v>
   <v>       0.02511592       0.03011413      -0.01063354 </v>
   <v>      -0.00232522      -0.02614296       0.01630014 </v>
   <v>      -0.00635585       0.02965487      -0.02067226 </v>
   <v>      -0.01419665       0.01912360       0.00451185 </v>
   <v>      -0.01080508      -0.00841598      -0.00590116 </v>
   <v>       0.00977181       0.00234956       0.00452122 </v>
   <v>       0.01857057       0.01380269      -0.00077892 </v>
   <v>       0.01065989       0.00995017       0.00610304 </v>
   <v>       0.01344262      -0.00031991       0.00252519 </v>
   <v>      -0.00832364       0.02692155      -0.00038670 </v>
   <v>       0.01499020      -0.00672658      -0.00665901 </v>
   <v>       0.01992290      -0.01152651      -0.00651106 </v>
   <v>       0.01321988       0.00663872      -0.00879056 </v>
   <v>      -0.01959667       0.00291999       0.00538808 </v>
   <v>       0.01064033       0.00140906       0.00318782 </v>
   <v>       0.06556346      -0.05726202       0.01123763 </v>
   <v>       0.02646211      -0.00075727       0.00574686 </v>
   <v>      -0.03711410      -0.01533640      -0.00407637 </v>
   <v>       0.00395243      -0.00739919       0.00658900 </v>
   <v>      -0.00818113       0.00872288       0.00385558 </v>
   <v>      -0.00035701       0.01144356       0.00863337 </v>
   <v>      -0.04636512       0.05791994       0.00160334 </v>
   <v>      -0.00736433      -0.00616640       0.00242018 </v>
   <v>      -0.00410088      -0.00506800      -0.00943243 </v>
   <v>       0.02900037      -0.03491357       0.00603189 </v>
   <v>       0.01901832       0.00971910      -0.00253706 </v>
   <v>       0.00573824      -0.01559217      -0.00273468 </v>
   <v>       0.01849258       0.00184612      -0.00404165 </v>
   <v>       0.02110118      -0.02111547       0.00885917 </v>
   <v>      -0.01252638      -0.00688528      -0.00740800 </v>
   <v>      -0.01345669      -0.00848069       0.00990033 </v>
   <v>      -0.00354007      -0.01106978       0.00202435 </v>
   <v>      -0.02119821      -0.00586209      -0.01230364 </v>
   <v>      -0.01537807       0.00111126      -0.01720327 </v>
   <v>      -0.02263262       0.03769888       0.00612985 </v>
   <v>      -0.01989734      -0.01046169      -0.00747307 </v>
   <v>       0.00079010       0.00733091       0.00053114 </v>
   <v>       0.00739064       0.00951518       0.00631294 </v>
   <v>      -0.02450561       0.03022661       0.00556775 </v>
   <v>      -0.00143789       0.00283900       0.00211129 </v>
   <v>       0.03108509       0.03284975       0.00387725 </v>
   <v>      -0.00768875       0.02607715      -0.00781382 </v>
   <v>      -0.00773951      -0.00136729      -0.00396762 </v>
   <v>       0.04627194      -0.00752034       0.00037052 </v>
   <v>       0.01448819      -0.00087060      -0.01149409 </v>
   <v>      -0.00453968       0.01783411       0.00973284 </v>
   <v>       0.00076103      -0.00408177       0.00228117 </v>
   <v>      -0.01365761      -0.00894407       0.00691723 </v>
   <v>       0.01382014      -0.01670367       0.00575439 </v>
   <v>      -0.05585829       0.00573539      -0.01539773 </v>
   <v>       0.01510483      -0.01869396      -0.00967743 </v>
   <v>      -0.01389861       0.00274102       0.00942230 </v>
   <v>      -0.03082963      -0.03957133      -0.00408133 </v>
   <v>      -0.00094435       0.01195739       0.00876796 </v>
   <v>       0.00157153       0.00684190       0.02592870 </v>
   <v>       0.00922098      -0.01727051      -0.02656648 </v>
   <v>      -0.00436157       0.00598177      -0.01564924 </v>
   <v>      -0.00345814       0.00291602       0.00299398 </v>
   <v>       0.00326458       0.00297087       0.01156627 </v>
   <v>      -0.00692069      -0.00401389      -0.01516537 </v>
   <v>       0.00437528      -0.00437654       0.02547451 </v>
   <v>      -0.00780696      -0.01166730      -0.00476338 </v>
   <v>      -0.00244615       0.00450300       0.00824418 </v>
   <v>       0.00527175      -0.01064875       0.01772362 </v>
   <v>       0.00324248       0.00781767       0.01256574 </v>
   <v>       0.00143058      -0.01030615      -0.02856230 </v>
   <v>      -0.00129609       0.00797797       0.00500713 </v>
   <v>      -0.01606610      -0.00120796      -0.00771382 </v>
   <v>       0.00894812       0.01446120      -0.02370393 </v>
   <v>       0.00055294       0.00074160      -0.03241460 </v>
   <v>      -0.00445279      -0.02211385      -0.00921865 </v>
   <v>       0.01523593      -0.00078156       0.01228601 </v>
   <v>      -0.00796546      -0.00438576      -0.01473249 </v>
   <v>      -0.00717952       0.00517071       0.01320353 </v>
   <v>       0.01361600      -0.00513709      -0.02200816 </v>
   <v>      -0.01353695       0.02346374      -0.00523630 </v>
   <v>       0.01234770      -0.00197112       0.02796064 </v>
   <v>      -0.00111471      -0.00554896       0.01670521 </v>
   <v>       0.00385632      -0.00277721       0.02223388 </v>
   <v>      -0.00192125      -0.00333235      -0.00045352 </v>
   <v>       0.01415873       0.00443842       0.00688194 </v>
   <v>      -0.00213106      -0.00284056       0.00637342 </v>
   <v>      -0.00905266       0.00016437       0.00060747 </v>
   <v>      -0.01645044       0.01489735      -0.02722225 </v>
   <v>       0.00790364      -0.00737777       0.00801528 </v>
  </varray>
  <varray name="stress" >
   <v>       0.24413155      -0.06843915      -0.05524230 </v>
   <v>      -0.06843927       0.30013321       0.00003267 </v>
   <v>      -0.05524232       0.00003283      -0.02299551 </v>
  </varray>
  <energy>
   <i name="e_fr_energy">  -1117.50955112 </i>
   <i name="e_wo_entrp">  -1117.50955111 </i>
   <i name="e_0_energy">     -0.00000003 </i>
  </energy>
  <time name="totalsc"> 1956.59 1959.76</time>
 </calculation>
 <calculation>
  <scstep>
   <time name="dav">  575.81  575.83</time>
   <time name="total">  583.00  583.04</time>
   <energy>
    <i name="alphaZ">   5644.03410933 </i>
    <i name="ewald"> -61296.27507225 </i>
    <i name="hartreedc"> -16266.28056060 </i>
    <i name="XCdc">   2962.53792759 </i>
    <i name="pawpsdc"> 112727.10233725 </i>
    <i name="pawaedc">-111626.65475093 </i>
    <i name="eentropy">     -0.00000004 </i>
    <i name="bandstr">  -7045.42180358 </i>
    <i name="atom">  73783.44779670 </i>
    <i name="e_fr_energy">  -1117.51001653 </i>
    <i name="e_wo_entrp">  -1117.51001649 </i>
    <i name="e_0_energy">  -1117.51001651 </i>
   </energy>
  </scstep>
  <scstep>
   <time name="diag">   64.64   64.64</time>
   <time name="diis">  104.89  104.89</time>
   <time name="orth">   33.13   33.15</time>
   <time name="total">  209.91  209.95</time>
   <energy>
    <i name="e_fr_energy">  -1117.51215890 </i>
    <i name="e_wo_entrp">  -1117.51215885 </i>
    <i name="e_0_energy">  -1117.51215888 </i>
   </energy>
  </scstep>
  <scstep>
   <time name="diag">   64.46   64.47</time>
   <time name="diis">  109.54  109.54</time>
   <time name="orth">   33.22   33.22</time>
   <time name="total">  214.43  214.45</time>
   <energy>
    <i name="e_fr_energy">  -1117.51198075 </i>
    <i name="e_wo_entrp">  -1117.51198070 </i>
    <i name="e_0_energy">  -1117.51198072 </i>
   </energy>
  </scstep>
  <scstep>
   <time name="diag">   64.64   64.64</time>
   <time name="diis">   92.29   92.29</time>
   <time name="orth">   33.17   33.17</time>
   <time name="total">  197.32  197.36</time>
   <energy>
    <i name="e_fr_energy">  -1117.51177393 </i>
    <i name="e_wo_entrp">  -1117.51177389 </i>
    <i name="e_0_energy">  -1117.51177391 </i>
   </energy>
  </scstep>
  <scstep>
   <time name="diag">   64.58   64.57</time>
   <time name="diis">   72.94   72.94</time>
   <time name="orth">   33.21   33.20</time>
   <time name="total">  177.95  177.98</time>
   <energy>
    <i name="e_fr_energy">  -1117.51170652 </i>
    <i name="e_wo_entrp">  -1117.51170647 </i>
    <i name="e_0_energy">  -1117.51170650 </i>
   </energy>
  </scstep>
  <scstep>
   <time name="diag">   64.54   64.54</time>
   <time name="diis">   64.32   64.34</time>
   <time name="orth">   33.18   33.18</time>
   <time name="total">  169.26  169.35</time>
   <energy>
    <i name="e_fr_energy">  -1117.51170902 </i>
    <i name="e_wo_entrp">  -1117.51170897 </i>
    <i name="e_0_energy">  -1117.51170900 </i>
   </energy>
  </scstep>
  <scstep>
   <time name="diag">   64.49   64.49</time>
   <time name="diis">   63.51   63.51</time>
   <time name="orth">   33.17   33.16</time>
   <time name="total">  168.41  168.43</time>
   <energy>
    <i name="e_fr_energy">  -1117.51170766 </i>
    <i name="e_wo_entrp">  -1117.51170761 </i>
    <i name="e_0_energy">  -1117.51170764 </i>
   </energy>
  </scstep>
  <scstep>
   <time name="diag">   64.59   64.59</time>
   <time name="diis">   62.61   62.61</time>
   <time name="orth">   33.18   33.18</time>
   <time name="total">  161.44  161.49</time>
   <energy>
    <i name="alphaZ">   5644.03410933 </i>
    <i name="ewald"> -61296.27507225 </i>
    <i name="hartreedc"> -16269.21145499 </i>
    <i name="XCdc">   2962.73194908 </i>
    <i name="pawpsdc"> 112670.10725936 </i>
    <i name="pawaedc">-111569.62835202 </i>
    <i name="eentropy">     -0.00000005 </i>
    <i name="bandstr">  -7042.71794137 </i>
    <i name="atom">  73783.44779670 </i>
    <i name="e_fr_energy">  -1117.51170622 </i>
    <i name="e_wo_entrp">  -1117.51170617 </i>
    <i name="e_0_energy">  -1117.51170620 </i>
   </energy>
  </scstep>
  <structure>
   <crystal>
    <varray name="basis" >
     <v>      11.19472654       0.01587321      -0.00307242 </v>
     <v>       0.01589648      11.19140746       0.00038074 </v>
     <v>      -0.00442141       0.00055452      15.95983355 </v>
    </varray>
    <i name="volume">   1999.51951375 </i>
    <varray name="rec_basis" >
     <v>       0.08932796      -0.00012688       0.00002475 </v>
     <v>      -0.00012670       0.08935445      -0.00000314 </v>
     <v>       0.00001720      -0.00000216       0.06265730 </v>
    </varray>
   </crystal>
   <varray name="positions" >
    <v>       0.99833789       0.24962830       0.12208981 </v>
    <v>       0.00790498       0.26109205       0.62655003 </v>
    <v>       0.00251482       0.75023712       0.11899690 </v>
    <v>       0.99435443       0.74076518       0.62707836 </v>
    <v>       0.50004359       0.24959193       0.12400963 </v>
    <v>       0.49966785       0.24356185       0.61733211 </v>
    <v>       0.49502069       0.74790690       0.12417899 </v>
    <v>       0.50364561       0.75722557       0.61827199 </v>
    <v>       0.00537009       0.25681053       0.37454020 </v>
    <v>       0.99897188       0.25307406       0.87798904 </v>
    <v>       0.99650843       0.74636651       0.37790960 </v>
    <v>       0.00180424       0.74898477       0.87635839 </v>
    <v>       0.49574568       0.25138230       0.37931033 </v>
    <v>       0.50395497       0.24277291       0.87825949 </v>
    <v>       0.49835732       0.74680971       0.37906414 </v>
    <v>       0.50034108       0.75735752       0.87759011 </v>
    <v>       0.24934897       0.00109011       0.12103393 </v>
    <v>       0.26047390       0.00693942       0.62585363 </v>
    <v>       0.25473421       0.50213350       0.12305722 </v>
    <v>       0.24876136       0.49988669       0.61921534 </v>
    <v>       0.75046206       0.00540433       0.12132250 </v>
    <v>       0.74276339       0.99625368       0.62606510 </v>
    <v>       0.74420234       0.49288550       0.11932813 </v>
    <v>       0.75460061       0.49763206       0.62266315 </v>
    <v>       0.25777456       0.00575412       0.37722243 </v>
    <v>       0.25293884       0.99970100       0.87530229 </v>
    <v>       0.25669357       0.50101407       0.38047909 </v>
    <v>       0.24483092       0.50289161       0.87864510 </v>
    <v>       0.74118476       0.00036828       0.37703644 </v>
    <v>       0.75058801       0.00008680       0.87572066 </v>
    <v>       0.74214287       0.49516523       0.38595894 </v>
    <v>       0.75789361       0.49696730       0.87510660 </v>
    <v>       0.00035886       0.00004309       0.99886364 </v>
    <v>       0.99974212       0.00106977       0.50053172 </v>
    <v>       0.99865466       0.50166631       0.49986000 </v>
    <v>       0.50047586       0.99929349       0.00115475 </v>
    <v>       0.49864823       0.49835260       0.99889934 </v>
    <v>       0.24903068       0.25328667       0.99861866 </v>
    <v>       0.24918777       0.74896481       0.99958233 </v>
    <v>       0.75135329       0.25082926       0.99944754 </v>
    <v>       0.75263887       0.74652349       0.99893391 </v>
    <v>       0.25250993       0.24669396       0.24997178 </v>
    <v>       0.24843866       0.75311374       0.25240695 </v>
    <v>       0.24867326       0.75112317       0.74726979 </v>
    <v>       0.75041680       0.24837832       0.25282595 </v>
    <v>       0.75173043       0.24751835       0.74737624 </v>
    <v>       0.74252942       0.76086812       0.24903176 </v>
    <v>       0.75402075       0.75357860       0.74907067 </v>
    <v>       0.00156033       0.00057005       0.24916269 </v>
    <v>       0.99990315       0.99905559       0.75021506 </v>
    <v>       0.01209649       0.49382632       0.24897878 </v>
    <v>       0.00384864       0.49924888       0.75262759 </v>
    <v>       0.49622025       0.00240043       0.25091585 </v>
    <v>       0.50054661       0.00097406       0.74889882 </v>
    <v>       0.50084875       0.49955400       0.25235095 </v>
    <v>       0.50718347       0.51248341       0.74926939 </v>
    <v>       0.99878452       0.50136301       0.00111509 </v>
    <v>       0.50023160       0.99907589       0.49852289 </v>
    <v>       0.49868919       0.49822439       0.50282727 </v>
    <v>       0.25340377       0.25285767       0.50091877 </v>
    <v>       0.26020557       0.74310680       0.50084777 </v>
    <v>       0.74051379       0.25584215       0.50056177 </v>
    <v>       0.74815386       0.74727729       0.50065118 </v>
    <v>       0.23742252       0.24257899       0.75050376 </v>
    <v>       0.10420859       0.14632925       0.24963498 </v>
    <v>       0.10279223       0.14159402       0.75081001 </v>
    <v>       0.09924389       0.64716928       0.25014726 </v>
    <v>       0.10531276       0.64471922       0.75124924 </v>
    <v>       0.60806939       0.14141687       0.25189593 </v>
    <v>       0.61174228       0.13932875       0.74861242 </v>
    <v>       0.61702391       0.63731565       0.24695335 </v>
    <v>       0.60539157       0.64447460       0.75028674 </v>
    <v>       0.39187500       0.35790219       0.24804250 </v>
    <v>       0.39479793       0.85627006       0.25104322 </v>
    <v>       0.39048426       0.85887687       0.74878869 </v>
    <v>       0.88918294       0.36544157       0.24964633 </v>
    <v>       0.89070540       0.35916157       0.75056574 </v>
    <v>       0.89591669       0.85041081       0.24917724 </v>
    <v>       0.89401713       0.85603732       0.75041081 </v>
    <v>       0.35539806       0.10553995       0.24813890 </v>
    <v>       0.36611218       0.11862673       0.75209834 </v>
    <v>       0.35698294       0.60995872       0.25203577 </v>
    <v>       0.35346038       0.60341950       0.74821531 </v>
    <v>       0.85835576       0.10430061       0.24862262 </v>
    <v>       0.85796054       0.10478660       0.75083606 </v>
    <v>       0.85639777       0.60813150       0.74832857 </v>
    <v>       0.14548951       0.39602691       0.25025287 </v>
    <v>       0.14607910       0.39553303       0.74948709 </v>
    <v>       0.14508060       0.89806728       0.24926047 </v>
    <v>       0.14259418       0.89564698       0.75124861 </v>
    <v>       0.64184887       0.38831076       0.25399172 </v>
    <v>       0.63386570       0.38597588       0.74863257 </v>
    <v>       0.64444652       0.89415456       0.24840873 </v>
    <v>       0.64211862       0.89194112       0.75216144 </v>
    <v>       0.36084744       0.38966775       0.00570951 </v>
    <v>       0.36905399       0.38678152       0.49427886 </v>
    <v>       0.36237432       0.88852281       0.00034862 </v>
    <v>       0.35310295       0.88899843       0.50102554 </v>
    <v>       0.85967803       0.38686574       0.00062017 </v>
    <v>       0.87566221       0.37018233       0.49947388 </v>
    <v>       0.86112621       0.88827138       0.00279728 </v>
    <v>       0.87305768       0.88209556       0.49646122 </v>
    <v>       0.13868856       0.11288999       0.99432882 </v>
    <v>       0.12554610       0.12133951       0.50417420 </v>
    <v>       0.13937809       0.61355192       0.00279080 </v>
    <v>       0.12298991       0.63172788       0.49763721 </v>
    <v>       0.63883680       0.11044889       0.99892443 </v>
    <v>       0.64725501       0.10982667       0.50146078 </v>
    <v>       0.63743435       0.60789388       0.99286294 </v>
    <v>       0.62948620       0.60958994       0.50785351 </v>
    <v>       0.11136198       0.36227903       0.00421017 </v>
    <v>       0.12130651       0.37691215       0.49309720 </v>
    <v>       0.11251004       0.86312342       0.99982697 </v>
    <v>       0.61012806       0.36001350       0.00041882 </v>
    <v>       0.61343624       0.36574751       0.49856960 </v>
    <v>       0.61251407       0.85854670       0.00713756 </v>
    <v>       0.61456424       0.86040850       0.49225026 </v>
    <v>       0.38923191       0.13846123       0.00017689 </v>
    <v>       0.38666873       0.13555733       0.49954143 </v>
    <v>       0.39005407       0.63857572       0.99774193 </v>
    <v>       0.38679414       0.63268159       0.50271555 </v>
    <v>       0.88896310       0.13801496       0.00052780 </v>
    <v>       0.88758545       0.63955530       0.99365202 </v>
    <v>       0.87638641       0.62679671       0.50624969 </v>
    <v>       0.00287391       0.00215919       0.12447129 </v>
    <v>       0.99776336       0.99690759       0.62263814 </v>
    <v>       0.98225811       0.51430118       0.13103833 </v>
    <v>       0.00241276       0.49793549       0.62459665 </v>
    <v>       0.50036076       0.00191772       0.12604689 </v>
    <v>       0.50175540       0.99639000       0.62607915 </v>
    <v>       0.50172994       0.50247146       0.12397163 </v>
    <v>       0.48408636       0.47999131       0.63259776 </v>
    <v>       0.00302104       0.00254303       0.37775081 </v>
    <v>       0.99676761       0.99717489       0.87514091 </v>
    <v>       0.98193676       0.51304228       0.36978268 </v>
    <v>       0.00066845       0.49794512       0.87419430 </v>
    <v>       0.49933517       0.00116173       0.37206970 </v>
    <v>       0.50170279       0.99623259       0.87630970 </v>
    <v>       0.50123281       0.50465312       0.37282724 </v>
    <v>       0.48443681       0.48156945       0.86981858 </v>
    <v>       0.25000162       0.24803530       0.37171400 </v>
    <v>       0.26030026       0.26288370       0.87335396 </v>
    <v>       0.24073702       0.75878764       0.37624119 </v>
    <v>       0.24997772       0.75158708       0.87460966 </v>
    <v>       0.76488702       0.23768933       0.37703287 </v>
    <v>       0.75070633       0.24916019       0.87464993 </v>
    <v>       0.76180807       0.72884498       0.36759251 </v>
    <v>       0.74771968       0.75389868       0.87496453 </v>
    <v>       0.24789565       0.24687736       0.12527706 </v>
    <v>       0.26055480       0.26195822       0.62910907 </v>
    <v>       0.25205973       0.75082763       0.12583710 </v>
    <v>       0.23595004       0.75867555       0.62385221 </v>
    <v>       0.74911760       0.24775507       0.12589122 </v>
    <v>       0.76345614       0.24242985       0.62362374 </v>
    <v>       0.76259326       0.73094420       0.12813183 </v>
    <v>       0.74695590       0.75556948       0.62718574 </v>
   </varray>
  </structure>
  <varray name="forces" >
   <v>       0.00839058      -0.02580998       0.01117507 </v>
   <v>       0.00067312       0.00666426       0.01032711 </v>
   <v>      -0.00021635       0.01465822       0.00104885 </v>
   <v>      -0.00942374      -0.00855701       0.00750100 </v>
   <v>      -0.01083875      -0.01070367       0.01200348 </v>
   <v>       0.00824902      -0.00211300       0.00139124 </v>
   <v>      -0.00555699       0.00080281      -0.00096377 </v>
   <v>      -0.00768840      -0.00433030       0.00149942 </v>
   <v>       0.02037151      -0.00934469      -0.00703935 </v>
   <v>      -0.00531511      -0.01161595      -0.00032096 </v>
   <v>       0.01079359       0.01886538      -0.01782164 </v>
   <v>      -0.00038366      -0.00039154      -0.00893343 </v>
   <v>       0.00625544      -0.00682502      -0.01420401 </v>
   <v>       0.00781564      -0.00152258      -0.00173801 </v>
   <v>      -0.01563959      -0.00066476       0.00203261 </v>
   <v>       0.00118203      -0.00268400       0.00267179 </v>
   <v>      -0.00586980      -0.00109290       0.02358493 </v>
   <v>       0.00181691       0.00584983       0.00569149 </v>
   <v>      -0.00158581      -0.00228852       0.00749032 </v>
   <v>       0.00946384      -0.01092204       0.01588835 </v>
   <v>       0.00141769       0.01017973       0.00757331 </v>
   <v>      -0.00427427      -0.00568659       0.00024767 </v>
   <v>      -0.00492324      -0.00279391      -0.00171061 </v>
   <v>      -0.01427279       0.00501543       0.00656319 </v>
   <v>       0.00661242       0.00413107      -0.01976853 </v>
   <v>      -0.00884822       0.00305439      -0.00115259 </v>
   <v>       0.02038780      -0.01111114      -0.00244447 </v>
   <v>       0.00367946      -0.00021969      -0.00476771 </v>
   <v>       0.00062143       0.00172293      -0.00899660 </v>
   <v>       0.00590756      -0.00953659      -0.00002902 </v>
   <v>      -0.01783228       0.00099577      -0.00448292 </v>
   <v>       0.00842995       0.00575622      -0.00868234 </v>
   <v>       0.00263593       0.00685413      -0.01062415 </v>
   <v>      -0.00736039      -0.01493301       0.02327901 </v>
   <v>       0.00045152      -0.00522879       0.01339610 </v>
   <v>       0.00048764       0.00023319       0.03144156 </v>
   <v>       0.00701547       0.00389210      -0.01887375 </v>
   <v>      -0.00306484      -0.02165487      -0.00749039 </v>
   <v>       0.00421058       0.02300082      -0.02474043 </v>
   <v>      -0.00421567      -0.02510212      -0.02107085 </v>
   <v>      -0.00953417       0.01027108      -0.02039354 </v>
   <v>       0.02187365      -0.03361670      -0.02139922 </v>
   <v>       0.02327202       0.04141070       0.00543921 </v>
   <v>      -0.00661563      -0.00105900       0.01353422 </v>
   <v>      -0.00824040      -0.01940513       0.00631646 </v>
   <v>      -0.00396445       0.00083669       0.00904890 </v>
   <v>      -0.05676693       0.09798880      -0.01603836 </v>
   <v>      -0.01009120      -0.00282256       0.02529399 </v>
   <v>       0.00296333       0.01460735      -0.01030912 </v>
   <v>       0.01268739       0.03403627       0.00578071 </v>
   <v>       0.06429540      -0.07687191      -0.01548801 </v>
   <v>       0.01303784      -0.00694782       0.01655415 </v>
   <v>      -0.00909300       0.01579924      -0.05090537 </v>
   <v>      -0.00204063       0.01582532       0.01378740 </v>
   <v>      -0.01733743      -0.03839477      -0.00228611 </v>
   <v>       0.03319118       0.03153445       0.01421941 </v>
   <v>       0.00092182      -0.00275286      -0.01079138 </v>
   <v>      -0.00214180      -0.00044172       0.00117304 </v>
   <v>      -0.00871718      -0.00290753       0.01444857 </v>
   <v>       0.00240667       0.00359622      -0.00725573 </v>
   <v>      -0.01632542       0.00856451       0.00985263 </v>
   <v>       0.01220642      -0.00348164       0.00421426 </v>
   <v>      -0.00282496       0.00657017       0.01127180 </v>
   <v>       0.00355756      -0.00335545       0.01327804 </v>
   <v>      -0.01125223      -0.02608297       0.00327417 </v>
   <v>      -0.00893790      -0.00650854       0.00001462 </v>
   <v>      -0.01186467      -0.01489265      -0.00279804 </v>
   <v>       0.01769816      -0.01947914      -0.00360741 </v>
[...]
       <r>   -16.2107     0.0000    32.0000 </r>
       <r>   -16.0584     0.0000    32.0000 </r>
       <r>   -15.9060     0.0000    32.0000 </r>
       <r>   -15.7537     0.0000    32.0000 </r>
       <r>   -15.6013     0.0000    32.0000 </r>
       <r>   -15.4490     0.0000    32.0000 </r>
       <r>   -15.2966     0.0113    32.0017 </r>
       <r>   -15.1442     6.3663    32.9717 </r>
       <r>   -14.9919    25.2236    36.8146 </r>
       <r>   -14.8395    42.0435    43.2202 </r>
       <r>   -14.6872    51.6655    51.0917 </r>
       <r>   -14.5348    34.1752    56.2985 </r>
       <r>   -14.3825    32.2416    61.2106 </r>
       <r>   -14.2301    38.7299    67.1114 </r>
       <r>   -14.0778    84.4339    79.9753 </r>
       <r>   -13.9254   124.6444    98.9656 </r>
       <r>   -13.7730   108.0681   115.4303 </r>
       <r>   -13.6207    40.4337   121.5906 </r>
       <r>   -13.4683    13.7639   123.6876 </r>
       <r>   -13.3160     2.0503   124.0000 </r>
       <r>   -13.1636     0.0000   124.0000 </r>
       <r>   -13.0113     0.0000   124.0000 </r>
       <r>   -12.8589     0.0000   124.0000 </r>
       <r>   -12.7066     0.7295   124.1111 </r>
       <r>   -12.5542    37.1861   129.7766 </r>
       <r>   -12.4019   134.6007   150.2838 </r>
       <r>   -12.2495   157.7355   174.3157 </r>
       <r>   -12.0971   127.5672   193.7512 </r>
       <r>   -11.9448   117.1731   211.6032 </r>
       <r>   -11.7924    52.8807   219.6599 </r>
       <r>   -11.6401     2.2326   220.0000 </r>
       <r>   -11.4877     0.0000   220.0000 </r>
       <r>   -11.3354     0.0000   220.0000 </r>
       <r>   -11.1830     0.0000   220.0000 </r>
       <r>   -11.0307     0.0000   220.0000 </r>
       <r>   -10.8783     0.0000   220.0000 </r>
       <r>   -10.7259     0.0000   220.0000 </r>
       <r>   -10.5736     0.0000   220.0000 </r>
       <r>   -10.4212     0.0000   220.0000 </r>
       <r>   -10.2689     0.0000   220.0000 </r>
       <r>   -10.1165     0.0000   220.0000 </r>
       <r>    -9.9642     0.0000   220.0000 </r>
       <r>    -9.8118     0.0000   220.0000 </r>
       <r>    -9.6595     0.0000   220.0000 </r>
       <r>    -9.5071     0.0000   220.0000 </r>
       <r>    -9.3547     0.0000   220.0000 </r>
       <r>    -9.2024     0.0000   220.0000 </r>
       <r>    -9.0500     0.0000   220.0000 </r>
       <r>    -8.8977     0.0000   220.0000 </r>
       <r>    -8.7453     0.0000   220.0000 </r>
       <r>    -8.5930     0.0000   220.0000 </r>
       <r>    -8.4406     0.0000   220.0000 </r>
       <r>    -8.2883     0.0000   220.0000 </r>
       <r>    -8.1359     0.0000   220.0000 </r>
       <r>    -7.9835     0.0000   220.0000 </r>
       <r>    -7.8312     0.0000   220.0000 </r>
       <r>    -7.6788     0.0000   220.0000 </r>
       <r>    -7.5265     0.0000   220.0000 </r>
       <r>    -7.3741     0.0000   220.0000 </r>
       <r>    -7.2218     0.0000   220.0000 </r>
       <r>    -7.0694     0.0000   220.0000 </r>
       <r>    -6.9171     0.0000   220.0000 </r>
       <r>    -6.7647     0.0000   220.0000 </r>
       <r>    -6.6123     0.0000   220.0000 </r>
       <r>    -6.4600     0.0000   220.0000 </r>
       <r>    -6.3076     0.0000   220.0000 </r>
       <r>    -6.1553     0.0000   220.0000 </r>
       <r>    -6.0029     0.0000   220.0000 </r>
       <r>    -5.8506     0.0000   220.0000 </r>
       <r>    -5.6982     0.0000   220.0000 </r>
       <r>    -5.5459     0.0000   220.0000 </r>
       <r>    -5.3935     0.0000   220.0000 </r>
       <r>    -5.2411     0.0000   220.0000 </r>
       <r>    -5.0888     0.0000   220.0000 </r>
       <r>    -4.9364     0.0000   220.0000 </r>
       <r>    -4.7841     0.0000   220.0000 </r>
       <r>    -4.6317     0.0000   220.0000 </r>
       <r>    -4.4794     0.0000   220.0000 </r>
       <r>    -4.3270     0.0000   220.0000 </r>
       <r>    -4.1747     0.0000   220.0000 </r>
       <r>    -4.0223     0.0000   220.0000 </r>
       <r>    -3.8699     0.0000   220.0000 </r>
       <r>    -3.7176     0.0000   220.0000 </r>
       <r>    -3.5652     0.0000   220.0000 </r>
       <r>    -3.4129     0.0000   220.0000 </r>
       <r>    -3.2605     0.0000   220.0000 </r>
       <r>    -3.1082     0.0000   220.0000 </r>
       <r>    -2.9558     0.0000   220.0000 </r>
       <r>    -2.8035     0.0000   220.0000 </r>
       <r>    -2.6511     0.9326   220.1421 </r>
       <r>    -2.4987     5.6257   220.9992 </r>
       <r>    -2.3464     0.6866   221.1038 </r>
       <r>    -2.1940    12.4333   222.9981 </r>
       <r>    -2.0417    25.0613   226.8163 </r>
       <r>    -1.8893    26.5437   230.8604 </r>
       <r>    -1.7370    44.6383   237.6613 </r>
       <r>    -1.5846    53.8847   245.8709 </r>
       <r>    -1.4323    52.1740   253.8199 </r>
       <r>    -1.2799    62.1693   263.2917 </r>
       <r>    -1.1275    71.3152   274.1570 </r>
       <r>    -0.9752    72.2729   285.1681 </r>
       <r>    -0.8228    77.9348   297.0419 </r>
       <r>    -0.6705    83.1756   309.7142 </r>
       <r>    -0.5181   110.4095   326.5357 </r>
       <r>    -0.3658   101.5810   342.0121 </r>
       <r>    -0.2134    65.2619   351.9551 </r>
       <r>    -0.0611    47.3404   359.1677 </r>
       <r>     0.0913    52.3024   367.1362 </r>
       <r>     0.2437    48.8073   374.5723 </r>
       <r>     0.3960    47.6249   381.8282 </r>
       <r>     0.5484    54.1317   390.0755 </r>
       <r>     0.7007    52.6696   398.1000 </r>
       <r>     0.8531    44.2073   404.8352 </r>
       <r>     1.0054    51.9877   412.7558 </r>
       <r>     1.1578    64.8452   422.6353 </r>
       <r>     1.3101    87.5006   435.9665 </r>
       <r>     1.4625    85.2614   448.9566 </r>
       <r>     1.6149    89.9454   462.6602 </r>
       <r>     1.7672    73.4416   473.8495 </r>
       <r>     1.9196    62.0331   483.3005 </r>
       <r>     2.0719    38.6025   489.1818 </r>
       <r>     2.2243    31.1663   493.9302 </r>
       <r>     2.3766    13.1453   495.9330 </r>
       <r>     2.5290     0.4401   496.0000 </r>
       <r>     2.6813     0.0000   496.0000 </r>
       <r>     2.8337     0.0000   496.0000 </r>
       <r>     2.9861     0.0000   496.0000 </r>
       <r>     3.1384     0.0000   496.0000 </r>
       <r>     3.2908     0.0000   496.0000 </r>
       <r>     3.4431     0.0000   496.0000 </r>
       <r>     3.5955     0.0000   496.0000 </r>
       <r>     3.7478     0.0000   496.0000 </r>
       <r>     3.9002     0.0000   496.0000 </r>
       <r>     4.0525     0.9407   496.1433 </r>
       <r>     4.2049     2.8281   496.5742 </r>
       <r>     4.3573     5.7433   497.4492 </r>
       <r>     4.5096    14.7375   499.6946 </r>
       <r>     4.6620    21.7843   503.0135 </r>
       <r>     4.8143    42.4222   509.4768 </r>
       <r>     4.9667    36.3582   515.0161 </r>
       <r>     5.1190    47.0945   522.1912 </r>
       <r>     5.2714    45.5192   529.1263 </r>
       <r>     5.4237    74.3795   540.4585 </r>
       <r>     5.5761    64.9694   550.3569 </r>
       <r>     5.7284    57.8642   559.1728 </r>
       <r>     5.8808    79.7601   571.3247 </r>
       <r>     6.0332    87.6201   584.6741 </r>
       <r>     6.1855    82.2175   597.2004 </r>
       <r>     6.3379    56.1772   605.7593 </r>
       <r>     6.4902    35.6467   611.1903 </r>
       <r>     6.6426    25.4936   615.0744 </r>
       <r>     6.7949    23.9990   618.7308 </r>
       <r>     6.9473    20.4389   621.8447 </r>
       <r>     7.0996    23.1631   625.3738 </r>
       <r>     7.2520    17.5950   628.0545 </r>
       <r>     7.4044    20.2127   631.1340 </r>
       <r>     7.5567     6.9457   632.1922 </r>
       <r>     7.7091    10.0191   633.7186 </r>
       <r>     7.8614    17.4736   636.3808 </r>
       <r>     8.0138    21.6623   639.6812 </r>
       <r>     8.1661    20.8890   642.8638 </r>
       <r>     8.3185    25.1280   646.6922 </r>
       <r>     8.4708    28.7971   651.0796 </r>
       <r>     8.6232    20.7748   654.2447 </r>
       <r>     8.7756    26.7459   658.3196 </r>
       <r>     8.9279    27.0976   662.4481 </r>
       <r>     9.0803    32.6319   667.4197 </r>
       <r>     9.2326    41.4826   673.7398 </r>
       <r>     9.3850    38.2705   679.5705 </r>
       <r>     9.5373    40.6808   685.7685 </r>
       <r>     9.6897    41.2215   692.0488 </r>
       <r>     9.8420    53.2081   700.1553 </r>
       <r>     9.9944    63.7919   709.8744 </r>
       <r>    10.1468    69.9141   720.5262 </r>
       <r>    10.2991    67.6230   730.8289 </r>
       <r>    10.4515    59.5427   739.9006 </r>
       <r>    10.6038    58.1296   748.7569 </r>
       <r>    10.7562    58.0258   757.5975 </r>
       <r>    10.9085    51.1051   765.3836 </r>
       <r>    11.0609    17.1603   767.9981 </r>
       <r>    11.2132     0.0125   768.0000 </r>
       <r>    11.3656     0.0000   768.0000 </r>
       <r>    11.5180     0.0000   768.0000 </r>
       <r>    11.6703     0.0000   768.0000 </r>
       <r>    11.8227     0.0000   768.0000 </r>
       <r>    11.9750     0.0000   768.0000 </r>
       <r>    12.1274     0.0000   768.0000 </r>
       <r>    12.2797     0.0000   768.0000 </r>
       <r>    12.4321     0.0000   768.0000 </r>
       <r>    12.5844     0.0000   768.0000 </r>
       <r>    12.7368     0.0000   768.0000 </r>
       <r>    12.8892     0.0000   768.0000 </r>
       <r>    13.0415     0.0000   768.0000 </r>
      </set>
     </set>
    </array>
   </total>
  </dos>
 </calculation>
 <structure name="finalpos" >
  <crystal>
   <varray name="basis" >
    <v>      11.19670530       0.01532903      -0.00384810 </v>
    <v>       0.01535454      11.19204840       0.00114582 </v>
    <v>      -0.00553043       0.00164777      15.95838361 </v>
   </varray>
   <i name="volume">   1999.80594696 </i>
   <varray name="rec_basis" >
    <v>       0.08931217      -0.00012253       0.00003096 </v>
    <v>      -0.00012233       0.08934932      -0.00000927 </v>
    <v>       0.00002154      -0.00000644       0.06266300 </v>
   </varray>
  </crystal>
  <varray name="positions" >
   <v>       0.99862037       0.24909953       0.12218229 </v>
   <v>       0.00798446       0.26140415       0.62636148 </v>
   <v>       0.00253310       0.75037572       0.11910909 </v>
   <v>       0.99374229       0.73995126       0.62691347 </v>
   <v>       0.49978247       0.24979833       0.12388748 </v>
   <v>       0.50000143       0.24347051       0.61683895 </v>
   <v>       0.49480418       0.74775865       0.12393669 </v>
   <v>       0.50247422       0.75736086       0.61824466 </v>
   <v>       0.00644487       0.25671003       0.37488549 </v>
   <v>       0.99880773       0.25267583       0.87815689 </v>
   <v>       0.99670824       0.74681129       0.37709336 </v>
   <v>       0.00192305       0.74845003       0.87625322 </v>
   <v>       0.49660380       0.25101878       0.37961932 </v>
   <v>       0.50436354       0.24286725       0.87845010 </v>
   <v>       0.49709748       0.74692429       0.37961277 </v>
   <v>       0.50007774       0.75739140       0.87758259 </v>
   <v>       0.24904870       0.00039347       0.12155030 </v>
   <v>       0.26088361       0.00717793       0.62579496 </v>
   <v>       0.25424564       0.50203537       0.12267511 </v>
   <v>       0.24902047       0.49939101       0.61938391 </v>
   <v>       0.75060104       0.00578174       0.12123887 </v>
   <v>       0.74226390       0.99596393       0.62585422 </v>
   <v>       0.74454153       0.49285544       0.11927347 </v>
   <v>       0.75380547       0.49822055       0.62259231 </v>
   <v>       0.25806450       0.00546686       0.37690490 </v>
   <v>       0.25267587       0.99983010       0.87534165 </v>
   <v>       0.25822689       0.50019097       0.38077668 </v>
   <v>       0.24516397       0.50304428       0.87854488 </v>
   <v>       0.74093542       0.00025786       0.37715385 </v>
   <v>       0.75085623      -0.00035691       0.87572094 </v>
   <v>       0.74197027       0.49594177       0.38602770 </v>
   <v>       0.75852980       0.49728421       0.87519547 </v>
   <v>       0.00028314      -0.00006156       0.99890943 </v>
   <v>       0.99943987       0.00082435       0.50055188 </v>
   <v>       0.99860912       0.50175305       0.49969667 </v>
   <v>       0.50038689       0.99938108       0.00118743 </v>
   <v>       0.49878322       0.49835400       0.99886418 </v>
   <v>       0.24904631       0.25300537       0.99859051 </v>
   <v>       0.24907515       0.74887558       0.99943073 </v>
   <v>       0.75141161       0.25087595       0.99939663 </v>
   <v>       0.75261721       0.74649548       0.99905520 </v>
   <v>       0.25284456       0.24664817       0.25001964 </v>
   <v>       0.24848995       0.75266251       0.25229309 </v>
   <v>       0.24861089       0.75125371       0.74714165 </v>
   <v>       0.75055426       0.24877298       0.25296049 </v>
   <v>       0.75188988       0.24759339       0.74733607 </v>
   <v>       0.74170100       0.76136382       0.24905920 </v>
   <v>       0.75421621       0.75368319       0.74919286 </v>
   <v>       0.00106395       0.00037144       0.24925915 </v>
   <v>       0.99990837       0.99918094       0.75017452 </v>
   <v>       0.01253989       0.49330442       0.24903938 </v>
   <v>       0.00414107       0.49905063       0.75258121 </v>
   <v>       0.49632816       0.00281686       0.25065950 </v>
   <v>       0.50048498       0.00146814       0.74916078 </v>
   <v>       0.50086780       0.49941159       0.25231023 </v>
   <v>       0.50788859       0.51278541       0.74935338 </v>
   <v>       0.99895144       0.50112312       0.00121899 </v>
   <v>       0.50010344       0.99884730       0.49856361 </v>
   <v>       0.49863842       0.49820880       0.50296808 </v>
   <v>       0.25352280       0.25260278       0.50082014 </v>
   <v>       0.25900950       0.74290593       0.50084371 </v>
   <v>       0.74133568       0.25601565       0.50052691 </v>
   <v>       0.74781347       0.74755380       0.50062545 </v>
   <v>       0.23747032       0.24264379       0.75054217 </v>
   <v>       0.10490908       0.14510997       0.24992588 </v>
   <v>       0.10292719       0.14160070       0.75082642 </v>
   <v>       0.09941031       0.64643699       0.25004185 </v>
   <v>       0.10609467       0.64430290       0.75093459 </v>
   <v>       0.60782655       0.14204798       0.25178825 </v>
   <v>       0.61190488       0.13963817       0.74894928 </v>
   <v>       0.61684233       0.63746592       0.24723771 </v>
   <v>       0.60611436       0.64471362       0.75000203 </v>
   <v>       0.39223508       0.35766921       0.24851308 </v>
   <v>       0.39359040       0.85705694       0.25053699 </v>
   <v>       0.38984648       0.86004819       0.74910811 </v>
   <v>       0.88921165       0.36564369       0.24968567 </v>
   <v>       0.89159778       0.35901584       0.75023671 </v>
   <v>       0.89483588       0.85067065       0.24874026 </v>
   <v>       0.89400171       0.85641498       0.75051003 </v>
   <v>       0.35555859       0.10561212       0.24815628 </v>
   <v>       0.36652284       0.11959050       0.75187624 </v>
   <v>       0.35718848       0.60997094       0.25172512 </v>
   <v>       0.35455161       0.60423367       0.74806864 </v>
   <v>       0.85845288       0.10485775       0.24877557 </v>
   <v>       0.85786122       0.10481147       0.75068161 </v>
   <v>       0.85739858       0.60848245       0.74816528 </v>
   <v>       0.14553723       0.39561787       0.25071414 </v>
   <v>       0.14703444       0.39583139       0.74939380 </v>
   <v>       0.14333142       0.89627977       0.24925711 </v>
   <v>       0.14228667       0.89534825       0.75141233 </v>
   <v>       0.64207099       0.38889377       0.25418841 </v>
   <v>       0.63474715       0.38659098       0.74903455 </v>
   <v>       0.64417675       0.89453568       0.24823887 </v>
   <v>       0.64200652       0.89184952       0.75235954 </v>
   <v>       0.36094296       0.38953202       0.00527798 </v>
   <v>       0.37160677       0.38418487       0.49454134 </v>
   <v>       0.36259417       0.88809673       0.00037982 </v>
   <v>       0.35384869       0.88770056       0.50079802 </v>
   <v>       0.85991504       0.38684475       0.00061386 </v>
   <v>       0.87857790       0.36736893       0.49942782 </v>
   <v>       0.86123825       0.88811142       0.00299256 </v>
   <v>       0.87316472       0.88142935       0.49691485 </v>
   <v>       0.13847924       0.11289434       0.99474005 </v>
   <v>       0.12408040       0.12255477       0.50333201 </v>
   <v>       0.13918695       0.61357719       0.00240971 </v>
   <v>       0.11949029       0.63532283       0.49795007 </v>
   <v>       0.63879625       0.11071486       0.99859345 </v>
   <v>       0.64650968       0.11076254       0.50124134 </v>
   <v>       0.63735104       0.60788994       0.99315576 </v>
   <v>       0.62650547       0.61219302       0.50785755 </v>
   <v>       0.11147089       0.36217603       0.00431162 </v>
   <v>       0.12380298       0.37968932       0.49294119 </v>
   <v>       0.11274307       0.86328253       0.99982659 </v>
   <v>       0.61020688       0.36004188       0.00030652 </v>
   <v>       0.61596324       0.36805625       0.49872453 </v>
   <v>       0.61258410       0.85863047       0.00652864 </v>
   <v>       0.61480137       0.86146678       0.49274997 </v>
   <v>       0.38907910       0.13840538       0.00026690 </v>
   <v>       0.38553703       0.13384090       0.49953972 </v>
   <v>       0.38986209       0.63826524       0.99790372 </v>
   <v>       0.38343117       0.62996649       0.50267781 </v>
   <v>       0.88866775       0.13783263       0.00072419 </v>
   <v>       0.88756678       0.63930907       0.99444286 </v>
   <v>       0.87312584       0.62394102       0.50580906 </v>
   <v>       0.00254885       0.00214751       0.12458760 </v>
   <v>       0.99809790       0.99728545       0.62253994 </v>
   <v>       0.98321351       0.51351453       0.13108007 </v>
   <v>       0.00266002       0.49819006       0.62433869 </v>
   <v>       0.50044598       0.00216380       0.12586140 </v>
   <v>       0.50175905       0.99656289       0.62622052 </v>
   <v>       0.50162384       0.50197365       0.12401186 </v>
   <v>       0.48477585       0.47972536       0.63273466 </v>
   <v>       0.00224714       0.00117275       0.37776219 </v>
   <v>       0.99672304       0.99756595       0.87523861 </v>
   <v>       0.98183802       0.51295213       0.36981430 </v>
   <v>       0.00088638       0.49804468       0.87406390 </v>
   <v>       0.49931048       0.00086822       0.37201894 </v>
   <v>       0.50126521       0.99678609       0.87623828 </v>
   <v>       0.50070855       0.50483732       0.37290481 </v>
   <v>       0.48487555       0.48236104       0.86987472 </v>
   <v>       0.25020705       0.24781190       0.37190413 </v>
   <v>       0.26000818       0.26215837       0.87347896 </v>
   <v>       0.24129371       0.75822181       0.37601237 </v>
   <v>       0.25001719       0.75128650       0.87461833 </v>
   <v>       0.76440815       0.23804044       0.37695183 </v>
   <v>       0.75152814       0.24960967       0.87464316 </v>
   <v>       0.76118098       0.73020050       0.36771763 </v>
   <v>       0.74866493       0.75329479       0.87504323 </v>
   <v>       0.24810775       0.24699879       0.12543178 </v>
   <v>       0.26023080       0.26161123       0.62877534 </v>
   <v>       0.25159391       0.75021869       0.12568899 </v>
   <v>       0.23679583       0.75899554       0.62393156 </v>
   <v>       0.74907953       0.24812785       0.12590968 </v>
   <v>       0.76271718       0.24271299       0.62369451 </v>
   <v>       0.76153999       0.73144475       0.12813781 </v>
   <v>       0.74761404       0.75537257       0.62721636 </v>
  </varray>
 </structure>
</modeling>
