       N       E                     dE             d eps       ncg     rms          rms(c)
DAV:   1    -0.108623608938E+04   -0.10862E+04   -0.39885E-03 13840   0.151E-01    0.387E-02
RMM:   2    -0.108623608683E+04    0.25451E-05   -0.41368E-05  6867   0.106E-02    0.690E-02
RMM:   3    -0.108623608716E+04   -0.32359E-06   -0.11385E-05  6534   0.599E-03    0.572E-03
RMM:   4    -0.108623608728E+04   -0.12304E-06   -0.33724E-06  3490   0.244E-03    0.446E-03
RMM:   5    -0.108623608744E+04   -0.16260E-06   -0.22532E-06  3413   0.259E-03    0.482E-03
RMM:   6    -0.108623608760E+04   -0.15966E-06   -0.12889E-06  2597   0.215E-03    0.983E-04
RMM:   7    -0.108623608769E+04   -0.84183E-07   -0.78200E-07  2298   0.205E-03    0.121E-03
RMM:   8    -0.108623608774E+04   -0.49244E-07   -0.37500E-07  1918   0.193E-03
   1 F= -.10862361E+04 E0= -.10862361E+04  d E =-.108624E+04  mag=    60.0000
       N       E                     dE             d eps       ncg     rms          rms(c)
DAV:   1    -0.108623605881E+04    0.28878E-04   -0.70273E-01 12704   0.990E-01    0.367E-01
RMM:   2    -0.108623827000E+04   -0.22112E-02   -0.20549E-02 12300   0.195E-01    0.262E-01
RMM:   3    -0.108623837495E+04   -0.10495E-03   -0.12038E-03 12218   0.617E-02    0.153E-01
RMM:   4    -0.108623826338E+04    0.11157E-03   -0.32040E-04  9915   0.225E-02    0.826E-02
RMM:   5    -0.108623824069E+04    0.22686E-04   -0.11622E-04  7384   0.151E-02    0.422E-02
RMM:   6    -0.108623824245E+04   -0.17605E-05   -0.28230E-05  7193   0.948E-03    0.308E-02
RMM:   7    -0.108623824259E+04   -0.13206E-06   -0.11953E-05  6989   0.479E-03    0.135E-02
RMM:   8    -0.108623824213E+04    0.45069E-06   -0.61215E-06  6513   0.442E-03
   2 F= -.10862382E+04 E0= -.10862382E+04  d E =-.215440E-02  mag=    60.0000
       N       E                     dE             d eps       ncg     rms          rms(c)
DAV:   1    -0.108623823116E+04    0.11426E-04   -0.13852E-02 13224   0.139E-01    0.513E-02
RMM:   2    -0.108623827309E+04   -0.41935E-04   -0.39395E-04  9723   0.278E-02    0.382E-02
RMM:   3    -0.108623827693E+04   -0.38323E-05   -0.30840E-05  6859   0.108E-02    0.234E-02
RMM:   4    -0.108623827573E+04    0.11942E-05   -0.10345E-05  6486   0.464E-03    0.180E-02
RMM:   5    -0.108623827488E+04    0.85314E-06   -0.50524E-06  5649   0.354E-03    0.903E-03
RMM:   6    -0.108623827487E+04    0.65338E-08   -0.16490E-06  3483   0.235E-03    0.276E-03
RMM:   7    -0.108623827489E+04   -0.16022E-07   -0.56837E-07  2663   0.209E-03    0.180E-03
RMM:   8    -0.108623827486E+04    0.30341E-07   -0.24797E-07  2068   0.190E-03
   3 F= -.10862383E+04 E0= -.10862383E+04  d E =-.218712E-02  mag=    60.0000
       N       E                     dE             d eps       ncg     rms          rms(c)
DAV:   1    -0.108623867942E+04   -0.40453E-03   -0.45050E-01 12608   0.794E-01    0.224E-01
RMM:   2    -0.108623989900E+04   -0.12196E-02   -0.11930E-02 12353   0.147E-01    0.155E-01
RMM:   3    -0.108623994232E+04   -0.43317E-04   -0.64858E-04 10741   0.470E-02    0.911E-02
RMM:   4    -0.108623990238E+04    0.39938E-04   -0.12757E-04  7283   0.154E-02    0.521E-02
RMM:   5    -0.108623989379E+04    0.85962E-05   -0.66522E-05  7150   0.110E-02    0.265E-02
RMM:   6    -0.108623989608E+04   -0.22894E-05   -0.19696E-05  6959   0.757E-03    0.196E-02
RMM:   7    -0.108623989717E+04   -0.10980E-05   -0.10261E-05  6516   0.432E-03    0.868E-03
RMM:   8    -0.108623989787E+04   -0.69378E-06   -0.55535E-06  5885   0.420E-03
   4 F= -.10862399E+04 E0= -.10862399E+04  d E =-.162301E-02  mag=    60.0000
       N       E                     dE             d eps       ncg     rms          rms(c)
DAV:   1    -0.108623834006E+04    0.15571E-02   -0.92267E-01 12528   0.114E+00    0.321E-01
RMM:   2    -0.108624083724E+04   -0.24972E-02   -0.24438E-02 12349   0.209E-01    0.223E-01
RMM:   3    -0.108624093420E+04   -0.96959E-04   -0.14259E-03 12279   0.675E-02    0.130E-01
RMM:   4    -0.108624084927E+04    0.84933E-04   -0.27902E-04  8726   0.209E-02    0.755E-02
RMM:   5    -0.108624082790E+04    0.21367E-04   -0.13351E-04  7323   0.153E-02    0.440E-02
RMM:   6    -0.108624083125E+04   -0.33501E-05   -0.36752E-05  7133   0.108E-02    0.286E-02
RMM:   7    -0.108624083308E+04   -0.18232E-05   -0.18564E-05  6968   0.561E-03    0.121E-02
RMM:   8    -0.108624083425E+04   -0.11787E-05   -0.10311E-05  6764   0.575E-03
   5 F= -.10862408E+04 E0= -.10862408E+04  d E =-.255940E-02  mag=    60.0000
       N       E                     dE             d eps       ncg     rms          rms(c)
DAV:   1    -0.108624094671E+04   -0.11363E-03   -0.56850E-01 12520   0.892E-01    0.234E-01
RMM:   2    -0.108624249435E+04   -0.15476E-02   -0.14872E-02 12531   0.159E-01    0.152E-01
RMM:   3    -0.108624254464E+04   -0.50290E-04   -0.77999E-04 11080   0.515E-02    0.883E-02
RMM:   4    -0.108624250587E+04    0.38774E-04   -0.14761E-04  7376   0.164E-02    0.511E-02
RMM:   5    -0.108624249946E+04    0.64100E-05   -0.73258E-05  7162   0.115E-02    0.260E-02
RMM:   6    -0.108624250171E+04   -0.22527E-05   -0.22585E-05  6975   0.794E-03    0.183E-02
RMM:   7    -0.108624250298E+04   -0.12685E-05   -0.12724E-05  6440   0.467E-03    0.853E-03
RMM:   8    -0.108624250362E+04   -0.63470E-06   -0.70154E-06  5988   0.462E-03
   6 F= -.10862425E+04 E0= -.10862425E+04  d E =-.166936E-02  mag=    60.0000
       N       E                     dE             d eps       ncg     rms          rms(c)
DAV:   1    -0.108623689947E+04    0.56035E-02   -0.26216E+00 12456   0.192E+00    0.502E-01
RMM:   2    -0.108624398755E+04   -0.70881E-02   -0.68087E-02 12482   0.342E-01    0.325E-01
RMM:   3    -0.108624424689E+04   -0.25934E-03   -0.36966E-03 12654   0.112E-01    0.189E-01
RMM:   4    -0.108624407890E+04    0.16800E-03   -0.84143E-04 12840   0.340E-02    0.107E-01
RMM:   5    -0.108624403811E+04    0.40782E-04   -0.32365E-04  9434   0.206E-02    0.502E-02
RMM:   6    -0.108624404078E+04   -0.26674E-05   -0.58638E-05  7242   0.124E-02    0.299E-02
RMM:   7    -0.108624404369E+04   -0.29070E-05   -0.31638E-05  7135   0.742E-03    0.161E-02
RMM:   8    -0.108624404511E+04   -0.14212E-05   -0.18373E-05  6999   0.682E-03
   7 F= -.10862440E+04 E0= -.10862440E+04  d E =-.321086E-02  mag=    60.0000
       N       E                     dE             d eps       ncg     rms          rms(c)
DAV:   1    -0.108624407229E+04   -0.28603E-04   -0.51312E-01 12608   0.840E-01    0.203E-01
RMM:   2    -0.108624542682E+04   -0.13545E-02   -0.13302E-02 12521   0.151E-01    0.133E-01
RMM:   3    -0.108624546158E+04   -0.34765E-04   -0.69110E-04 10772   0.481E-02    0.790E-02
RMM:   4    -0.108624543438E+04    0.27200E-04   -0.12164E-04  7266   0.149E-02    0.481E-02
RMM:   5    -0.108624542730E+04    0.70817E-05   -0.69893E-05  7124   0.109E-02    0.189E-02
RMM:   6    -0.108624542991E+04   -0.26101E-05   -0.21065E-05  6936   0.749E-03    0.160E-02
RMM:   7    -0.108624543112E+04   -0.12090E-05   -0.12194E-05  6365   0.450E-03    0.666E-03
RMM:   8    -0.108624543169E+04   -0.56683E-06   -0.67821E-06  5825   0.445E-03
   8 F= -.10862454E+04 E0= -.10862454E+04  d E =-.138658E-02  mag=    60.0000
       N       E                     dE             d eps       ncg     rms          rms(c)
DAV:   1    -0.108623539339E+04    0.10038E-01   -0.46141E+00 12480   0.252E+00    0.609E-01
RMM:   2    -0.108624739660E+04   -0.12003E-01   -0.11798E-01 12456   0.450E-01    0.398E-01
RMM:   3    -0.108624777276E+04   -0.37616E-03   -0.64021E-03 12772   0.146E-01    0.235E-01
RMM:   4    -0.108624753589E+04    0.23687E-03   -0.13076E-03 14079   0.418E-02    0.141E-01
RMM:   5    -0.108624745590E+04    0.79987E-04   -0.63824E-04 11435   0.252E-02    0.531E-02
RMM:   6    -0.108624745897E+04   -0.30661E-05   -0.75717E-05  7290   0.135E-02    0.377E-02
RMM:   7    -0.108624746259E+04   -0.36226E-05   -0.40980E-05  7176   0.806E-03    0.172E-02
RMM:   8    -0.108624746398E+04   -0.13841E-05   -0.25727E-05  7080   0.799E-03
   9 F= -.10862475E+04 E0= -.10862475E+04  d E =-.341887E-02  mag=    60.0000
       N       E                     dE             d eps       ncg     rms          rms(c)
DAV:   1    -0.108624706240E+04    0.40019E-03   -0.76200E-01 12752   0.101E+00    0.226E-01
RMM:   2    -0.108624899460E+04   -0.19322E-02   -0.19573E-02 12617   0.180E-01    0.144E-01
RMM:   3    -0.108624901743E+04   -0.22828E-04   -0.99836E-04 11521   0.568E-02    0.887E-02
RMM:   4    -0.108624897792E+04    0.39506E-04   -0.17696E-04  7633   0.172E-02    0.550E-02
RMM:   5    -0.108624896597E+04    0.11954E-04   -0.89034E-05  7199   0.124E-02    0.220E-02
RMM:   6    -0.108624896884E+04   -0.28717E-05   -0.27018E-05  7097   0.828E-03    0.194E-02
RMM:   7    -0.108624897009E+04   -0.12497E-05   -0.15262E-05  6694   0.509E-03    0.902E-03
RMM:   8    -0.108624897033E+04   -0.24219E-06   -0.88337E-06  6211   0.489E-03
  10 F= -.10862490E+04 E0= -.10862490E+04  d E =-.150635E-02  mag=    60.0000
       N       E                     dE             d eps       ncg     rms          rms(c)
DAV:   1    -0.108623483718E+04    0.14133E-01   -0.63737E+00 12640   0.293E+00    0.652E-01
RMM:   2    -0.108625078243E+04   -0.15945E-01   -0.16142E-01 12528   0.519E-01    0.416E-01
RMM:   3    -0.108625105866E+04   -0.27622E-03   -0.84484E-03 12848   0.167E-01    0.255E-01
RMM:   4    -0.108625075089E+04    0.30776E-03   -0.17756E-03 14380   0.481E-02    0.154E-01
RMM:   5    -0.108625064552E+04    0.10538E-03   -0.74357E-04 12043   0.271E-02    0.615E-02
RMM:   6    -0.108625065024E+04   -0.47181E-05   -0.97425E-05  7400   0.141E-02    0.387E-02
RMM:   7    -0.108625065428E+04   -0.40434E-05   -0.50264E-05  7249   0.845E-03    0.198E-02
RMM:   8    -0.108625065435E+04   -0.70053E-07   -0.32211E-05  7192   0.850E-03
  11 F= -.10862507E+04 E0= -.10862507E+04  d E =-.319037E-02  mag=    60.0000
       N       E                     dE             d eps       ncg     rms          rms(c)
DAV:   1    -0.108625026128E+04    0.39300E-03   -0.55642E-01 12832   0.859E-01    0.182E-01
RMM:   2    -0.108625167627E+04   -0.14150E-02   -0.14181E-02 12819   0.151E-01    0.112E-01
RMM:   3    -0.108625167652E+04   -0.25355E-06   -0.66016E-04 10544   0.449E-02    0.672E-02
RMM:   4    -0.108625164897E+04    0.27553E-04   -0.11531E-04  7273   0.146E-02    0.406E-02
RMM:   5    -0.108625164338E+04    0.55873E-05   -0.65102E-05  7138   0.105E-02    0.154E-02
RMM:   6    -0.108625164598E+04   -0.25995E-05   -0.20786E-05  6919   0.674E-03    0.843E-03
RMM:   7    -0.108625164703E+04   -0.10455E-05   -0.11876E-05  6230   0.438E-03    0.596E-03
RMM:   8    -0.108625164745E+04   -0.42144E-06   -0.69877E-06  5483   0.407E-03
  12 F= -.10862516E+04 E0= -.10862516E+04  d E =-.993098E-03  mag=    60.0000
       N       E                     dE             d eps       ncg     rms          rms(c)
DAV:   1    -0.108624125938E+04    0.10388E-01   -0.49994E+00 12512   0.257E+00    0.544E-01
RMM:   2    -0.108625365413E+04   -0.12395E-01   -0.12430E-01 12669   0.449E-01    0.333E-01
RMM:   3    -0.108625379056E+04   -0.13643E-03   -0.61478E-03 12856   0.140E-01    0.200E-01
RMM:   4    -0.108625356046E+04    0.23011E-03   -0.12754E-03 13505   0.403E-02    0.115E-01
RMM:   5    -0.108625349572E+04    0.64736E-04   -0.53213E-04 11247   0.235E-02    0.389E-02
RMM:   6    -0.108625350068E+04   -0.49555E-05   -0.69953E-05  7272   0.123E-02    0.279E-02
RMM:   7    -0.108625350429E+04   -0.36108E-05   -0.38388E-05  7109   0.758E-03    0.157E-02
RMM:   8    -0.108625350528E+04   -0.98989E-06   -0.25126E-05  7013   0.736E-03
  13 F= -.10862535E+04 E0= -.10862535E+04  d E =-.285093E-02  mag=    60.0000
       N       E                     dE             d eps       ncg     rms          rms(c)
DAV:   1    -0.108625077745E+04    0.27268E-02   -0.12217E+00 12512   0.127E+00    0.269E-01
RMM:   2    -0.108625383976E+04   -0.30623E-02   -0.30707E-02 12722   0.222E-01    0.165E-01
RMM:   3    -0.108625386086E+04   -0.21108E-04   -0.15015E-03 11906   0.682E-02    0.993E-02
RMM:   4    -0.108625380152E+04    0.59342E-04   -0.28393E-04  8764   0.204E-02    0.586E-02
RMM:   5    -0.108625378551E+04    0.16013E-04   -0.12716E-04  7260   0.146E-02    0.216E-02
RMM:   6    -0.108625378952E+04   -0.40096E-05   -0.35112E-05  7059   0.950E-03    0.226E-02
RMM:   7    -0.108625379141E+04   -0.18942E-05   -0.19719E-05  6795   0.577E-03    0.970E-03
RMM:   8    -0.108625379211E+04   -0.69624E-06   -0.11953E-05  6537   0.561E-03
  14 F= -.10862538E+04 E0= -.10862538E+04  d E =-.313776E-02  mag=    60.0000
       N       E                     dE             d eps       ncg     rms          rms(c)
DAV:   1    -0.108625335821E+04    0.43320E-03   -0.81081E-01 12864   0.103E+00    0.271E-01
RMM:   2    -0.108625555661E+04   -0.21984E-02   -0.20704E-02 12626   0.185E-01    0.174E-01
RMM:   3    -0.108625561368E+04   -0.57069E-04   -0.10740E-03 11625   0.564E-02    0.102E-01
RMM:   4    -0.108625556178E+04    0.51896E-04   -0.18602E-04  7683   0.176E-02    0.623E-02
RMM:   5    -0.108625554941E+04    0.12371E-04   -0.96126E-05  7211   0.128E-02    0.232E-02
RMM:   6    -0.108625555383E+04   -0.44220E-05   -0.25940E-05  7100   0.822E-03    0.181E-02
RMM:   7    -0.108625555564E+04   -0.18137E-05   -0.14190E-05  6749   0.495E-03    0.936E-03
RMM:   8    -0.108625555722E+04   -0.15715E-05   -0.82372E-06  6323   0.477E-03
  15 F= -.10862556E+04 E0= -.10862556E+04  d E =-.176511E-02  mag=    60.0000
       N       E                     dE             d eps       ncg     rms          rms(c)
DAV:   1    -0.108624986879E+04    0.56869E-02   -0.25779E+00 12736   0.184E+00    0.483E-01
RMM:   2    -0.108625681686E+04   -0.69481E-02   -0.65438E-02 12587   0.330E-01    0.310E-01
RMM:   3    -0.108625701169E+04   -0.19483E-03   -0.34021E-03 12627   0.102E-01    0.182E-01
RMM:   4    -0.108625685747E+04    0.15422E-03   -0.71534E-04 12291   0.309E-02    0.106E-01
RMM:   5    -0.108625681354E+04    0.43939E-04   -0.31436E-04  9044   0.205E-02    0.434E-02
RMM:   6    -0.108625681964E+04   -0.61029E-05   -0.56165E-05  7242   0.122E-02    0.370E-02
RMM:   7    -0.108625682324E+04   -0.36040E-05   -0.27907E-05  7153   0.737E-03    0.164E-02
RMM:   8    -0.108625682602E+04   -0.27776E-05   -0.17851E-05  7099   0.695E-03
  16 F= -.10862568E+04 E0= -.10862568E+04  d E =-.303391E-02  mag=    60.0000
       N       E                     dE             d eps       ncg     rms          rms(c)
DAV:   1    -0.108625608912E+04    0.73412E-03   -0.87204E-01 12624   0.107E+00    0.265E-01
RMM:   2    -0.108625832894E+04   -0.22398E-02   -0.22141E-02 12596   0.190E-01    0.181E-01
RMM:   3    -0.108625836205E+04   -0.33119E-04   -0.11445E-03 11667   0.591E-02    0.105E-01
RMM:   4    -0.108625830158E+04    0.60470E-04   -0.22232E-04  8006   0.185E-02    0.627E-02
RMM:   5    -0.108625828554E+04    0.16040E-04   -0.10017E-04  7237   0.133E-02    0.341E-02
RMM:   6    -0.108625828820E+04   -0.26542E-05   -0.28644E-05  7083   0.879E-03    0.226E-02
RMM:   7    -0.108625828927E+04   -0.10681E-05   -0.15287E-05  6794   0.519E-03    0.108E-02
RMM:   8    -0.108625828940E+04   -0.13660E-06   -0.88269E-06  6298   0.493E-03
  17 F= -.10862583E+04 E0= -.10862583E+04  d E =-.146338E-02  mag=    60.0000
       N       E                     dE             d eps       ncg     rms          rms(c)
DAV:   1    -0.108625548009E+04    0.28092E-02   -0.13799E+00 12480   0.134E+00    0.333E-01
RMM:   2    -0.108625901675E+04   -0.35367E-02   -0.34922E-02 12586   0.239E-01    0.227E-01
RMM:   3    -0.108625907350E+04   -0.56747E-04   -0.18090E-03 12221   0.740E-02    0.133E-01
RMM:   4    -0.108625898158E+04    0.91918E-04   -0.38272E-04  9905   0.228E-02    0.776E-02
RMM:   5    -0.108625895287E+04    0.28715E-04   -0.14716E-04  7363   0.160E-02    0.451E-02
RMM:   6    -0.108625895621E+04   -0.33476E-05   -0.39754E-05  7153   0.107E-02    0.299E-02
RMM:   7    -0.108625895765E+04   -0.14395E-05   -0.19924E-05  7009   0.595E-03    0.131E-02
RMM:   8    -0.108625895775E+04   -0.96465E-07   -0.11529E-05  6659   0.573E-03
  18 F= -.10862590E+04 E0= -.10862590E+04  d E =-.213173E-02  mag=    60.0000
       N       E                     dE             d eps       ncg     rms          rms(c)
DAV:   1    -0.108625814756E+04    0.81010E-03   -0.85823E-01 12768   0.106E+00    0.224E-01
RMM:   2    -0.108626026990E+04   -0.21223E-02   -0.21630E-02 12750   0.185E-01    0.148E-01
RMM:   3    -0.108626027211E+04   -0.22071E-05   -0.10439E-03 11350   0.563E-02    0.905E-02
RMM:   4    -0.108626022523E+04    0.46880E-04   -0.20099E-04  7811   0.177E-02    0.530E-02
RMM:   5    -0.108626021744E+04    0.77846E-05   -0.86862E-05  7188   0.124E-02    0.160E-02
RMM:   6    -0.108626022057E+04   -0.31322E-05   -0.24819E-05  6959   0.781E-03    0.147E-02
RMM:   7    -0.108626022190E+04   -0.13253E-05   -0.13880E-05  6412   0.479E-03    0.755E-03
RMM:   8    -0.108626022257E+04   -0.67409E-06   -0.81305E-06  5984   0.453E-03
  19 F= -.10862602E+04 E0= -.10862602E+04  d E =-.126482E-02  mag=    60.0000
       N       E                     dE             d eps       ncg     rms          rms(c)
DAV:   1    -0.108625358193E+04    0.66400E-02   -0.32033E+00 12632   0.204E+00    0.433E-01
RMM:   2    -0.108626142471E+04   -0.78428E-02   -0.79952E-02 12650   0.357E-01    0.284E-01
RMM:   3    -0.108626146522E+04   -0.40509E-04   -0.39486E-03 12616   0.111E-01    0.173E-01
RMM:   4    -0.108626130246E+04    0.16276E-03   -0.90373E-04 12702   0.334E-02    0.959E-02
RMM:   5    -0.108626127081E+04    0.31646E-04   -0.29919E-04  9359   0.195E-02    0.391E-02
RMM:   6    -0.108626127564E+04   -0.48270E-05   -0.57470E-05  7239   0.112E-02    0.265E-02
RMM:   7    -0.108626127850E+04   -0.28628E-05   -0.29663E-05  7084   0.707E-03    0.144E-02
RMM:   8    -0.108626127981E+04   -0.13035E-05   -0.19312E-05  6929   0.673E-03
  20 F= -.10862613E+04 E0= -.10862613E+04  d E =-.232206E-02  mag=    60.0000
       N       E                     dE             d eps       ncg     rms          rms(c)
DAV:   1    -0.108625936889E+04    0.19096E-02   -0.14743E+00 12664   0.138E+00    0.302E-01
RMM:   2    -0.108626301711E+04   -0.36482E-02   -0.37303E-02 12763   0.243E-01    0.199E-01
RMM:   3    -0.108626300946E+04    0.76445E-05   -0.17992E-03 12092   0.738E-02    0.122E-01
RMM:   4    -0.108626292717E+04    0.82288E-04   -0.38622E-04  9847   0.229E-02    0.693E-02
RMM:   5    -0.108626291138E+04    0.15794E-04   -0.13029E-04  7317   0.153E-02    0.258E-02
RMM:   6    -0.108626291623E+04   -0.48530E-05   -0.37840E-05  7157   0.996E-03    0.252E-02
RMM:   7    -0.108626291838E+04   -0.21479E-05   -0.20918E-05  7044   0.606E-03    0.118E-02
RMM:   8    -0.108626291978E+04   -0.13953E-05   -0.12567E-05  6696   0.575E-03
  21 F= -.10862629E+04 E0= -.10862629E+04  d E =-.163997E-02  mag=    60.0000
       N       E                     dE             d eps       ncg     rms          rms(c)
DAV:   1    -0.108625887291E+04    0.40455E-02   -0.19648E+00 12632   0.160E+00    0.350E-01
RMM:   2    -0.108626374270E+04   -0.48698E-02   -0.49788E-02 12826   0.281E-01    0.231E-01
RMM:   3    -0.108626372729E+04    0.15413E-04   -0.23619E-03 12498   0.835E-02    0.143E-01
RMM:   4    -0.108626361794E+04    0.10935E-03   -0.50240E-04 11011   0.261E-02    0.807E-02
RMM:   5    -0.108626359529E+04    0.22651E-04   -0.16971E-04  7524   0.167E-02    0.253E-02
RMM:   6    -0.108626360118E+04   -0.58919E-05   -0.43226E-05  7191   0.107E-02    0.243E-02
RMM:   7    -0.108626360353E+04   -0.23432E-05   -0.23491E-05  7115   0.641E-03    0.131E-02
RMM:   8    -0.108626360502E+04   -0.14921E-05   -0.14085E-05  6903   0.605E-03
  22 F= -.10862636E+04 E0= -.10862636E+04  d E =-.232521E-02  mag=    60.0000
       N       E                     dE             d eps       ncg     rms          rms(c)
DAV:   1    -0.108626097533E+04    0.26282E-02   -0.16912E+00 12288   0.148E+00    0.326E-01
RMM:   2    -0.108626519467E+04   -0.42193E-02   -0.42317E-02 12648   0.261E-01    0.213E-01
RMM:   3    -0.108626523299E+04   -0.38325E-04   -0.21136E-03 12195   0.809E-02    0.127E-01
RMM:   4    -0.108626513455E+04    0.98444E-04   -0.46932E-04 10659   0.249E-02    0.695E-02
RMM:   5    -0.108626511530E+04    0.19253E-04   -0.14988E-04  7382   0.164E-02    0.340E-02
RMM:   6    -0.108626511858E+04   -0.32896E-05   -0.40713E-05  7136   0.104E-02    0.244E-02
RMM:   7    -0.108626512046E+04   -0.18722E-05   -0.21920E-05  6879   0.604E-03    0.119E-02
RMM:   8    -0.108626512072E+04   -0.26083E-06   -0.13095E-05  6584   0.579E-03
  23 F= -.10862651E+04 E0= -.10862651E+04  d E =-.151570E-02  mag=    60.0000
       N       E                     dE             d eps       ncg     rms          rms(c)
DAV:   1    -0.108626043665E+04    0.46838E-02   -0.21745E+00 12288   0.168E+00    0.370E-01
RMM:   2    -0.108626586763E+04   -0.54310E-02   -0.54446E-02 12679   0.296E-01    0.241E-01
RMM:   3    -0.108626591537E+04   -0.47742E-04   -0.27126E-03 12495   0.908E-02    0.144E-01
RMM:   4    -0.108626578943E+04    0.12594E-03   -0.60150E-04 11693   0.280E-02    0.791E-02
RMM:   5    -0.108626576451E+04    0.24922E-04   -0.19944E-04  7820   0.176E-02    0.330E-02
RMM:   6    -0.108626576770E+04   -0.31943E-05   -0.45989E-05  7197   0.108E-02    0.263E-02
RMM:   7    -0.108626576975E+04   -0.20537E-05   -0.24458E-05  6949   0.635E-03    0.129E-02
RMM:   8    -0.108626576982E+04   -0.68409E-07   -0.14655E-05  6750   0.612E-03
  24 F= -.10862658E+04 E0= -.10862658E+04  d E =-.216480E-02  mag=    60.0000
       N       E                     dE             d eps       ncg     rms          rms(c)
DAV:   1    -0.108626136080E+04    0.44090E-02   -0.24220E+00 12432   0.177E+00    0.389E-01
RMM:   2    -0.108626738690E+04   -0.60261E-02   -0.61117E-02 12675   0.313E-01    0.251E-01
RMM:   3    -0.108626742431E+04   -0.37409E-04   -0.30200E-03 12527   0.968E-02    0.153E-01
RMM:   4    -0.108626729984E+04    0.12447E-03   -0.65312E-04 12070   0.293E-02    0.872E-02
RMM:   5    -0.108626727183E+04    0.28017E-04   -0.24401E-04  8278   0.187E-02    0.429E-02
RMM:   6    -0.108626727636E+04   -0.45390E-05   -0.50975E-05  7199   0.113E-02    0.299E-02
RMM:   7    -0.108626727949E+04   -0.31234E-05   -0.25630E-05  7068   0.661E-03    0.144E-02
RMM:   8    -0.108626728138E+04   -0.18891E-05   -0.15779E-05  6926   0.640E-03
  25 F= -.10862673E+04 E0= -.10862673E+04  d E =-.151156E-02  mag=    60.0000
       N       E                     dE             d eps       ncg     rms          rms(c)
DAV:   1    -0.108626574081E+04    0.15387E-02   -0.74120E-01 12552   0.982E-01    0.215E-01
RMM:   2    -0.108626760251E+04   -0.18617E-02   -0.18854E-02 12718   0.173E-01    0.140E-01
RMM:   3    -0.108626760783E+04   -0.53179E-05   -0.91332E-04 11227   0.528E-02    0.857E-02
RMM:   4    -0.108626756752E+04    0.40305E-04   -0.16340E-04  7548   0.166E-02    0.515E-02
RMM:   5    -0.108626756080E+04    0.67236E-05   -0.79735E-05  7179   0.118E-02    0.182E-02
RMM:   6    -0.108626756417E+04   -0.33758E-05   -0.23756E-05  6989   0.761E-03    0.164E-02
RMM:   7    -0.108626756561E+04   -0.14366E-05   -0.13195E-05  6364   0.465E-03    0.787E-03
RMM:   8    -0.108626756664E+04   -0.10261E-05   -0.77514E-06  5931   0.442E-03
  26 F= -.10862676E+04 E0= -.10862676E+04  d E =-.179681E-02  mag=    60.0000
       N       E                     dE             d eps       ncg     rms          rms(c)
DAV:   1    -0.108626378257E+04    0.37830E-02   -0.21006E+00 12560   0.165E+00    0.381E-01
RMM:   2    -0.108626913050E+04   -0.53479E-02   -0.52421E-02 12667   0.289E-01    0.252E-01
RMM:   3    -0.108626920232E+04   -0.71821E-04   -0.25625E-03 12461   0.901E-02    0.150E-01
RMM:   4    -0.108626908510E+04    0.11722E-03   -0.56604E-04 11589   0.276E-02    0.853E-02
RMM:   5    -0.108626905603E+04    0.29067E-04   -0.21004E-04  7906   0.180E-02    0.452E-02
RMM:   6    -0.108626906012E+04   -0.40831E-05   -0.48046E-05  7197   0.113E-02    0.297E-02
RMM:   7    -0.108626906269E+04   -0.25756E-05   -0.23881E-05  7026   0.642E-03    0.139E-02
RMM:   8    -0.108626906378E+04   -0.10880E-05   -0.14000E-05  6785   0.617E-03
  27 F= -.10862691E+04 E0= -.10862691E+04  d E =-.149714E-02  mag=    60.0000
       N       E                     dE             d eps       ncg     rms          rms(c)
DAV:   1    -0.108626808020E+04    0.98250E-03   -0.46674E-01 12712   0.780E-01    0.180E-01
RMM:   2    -0.108626929122E+04   -0.12110E-02   -0.11870E-02 12726   0.137E-01    0.120E-01
RMM:   3    -0.108626929619E+04   -0.49780E-05   -0.53312E-04  9919   0.412E-02    0.725E-02
RMM:   4    -0.108626926994E+04    0.26253E-04   -0.10336E-04  7241   0.139E-02    0.436E-02
RMM:   5    -0.108626926483E+04    0.51060E-05   -0.56838E-05  7088   0.995E-03    0.144E-02
RMM:   6    -0.108626926733E+04   -0.24965E-05   -0.17465E-05  6743   0.628E-03    0.914E-03
RMM:   7    -0.108626926825E+04   -0.92284E-06   -0.93888E-06  5927   0.408E-03    0.600E-03
RMM:   8    -0.108626926881E+04   -0.55663E-06   -0.53988E-06  5200   0.367E-03
  28 F= -.10862693E+04 E0= -.10862693E+04  d E =-.170217E-02  mag=    60.0000
       N       E                     dE             d eps       ncg     rms          rms(c)
DAV:   1    -0.108626497288E+04    0.42954E-02   -0.21625E+00 12552   0.169E+00    0.398E-01
RMM:   2    -0.108627065885E+04   -0.56860E-02   -0.53706E-02 12837   0.291E-01    0.245E-01
RMM:   3    -0.108627076094E+04   -0.10209E-03   -0.24994E-03 12626   0.884E-02    0.143E-01
RMM:   4    -0.108627064781E+04    0.11314E-03   -0.51216E-04 11106   0.272E-02    0.791E-02
RMM:   5    -0.108627062144E+04    0.26370E-04   -0.20272E-04  7675   0.179E-02    0.368E-02
RMM:   6    -0.108627062529E+04   -0.38533E-05   -0.47107E-05  7156   0.115E-02    0.301E-02
RMM:   7    -0.108627062751E+04   -0.22262E-05   -0.24209E-05  7000   0.648E-03    0.130E-02
RMM:   8    -0.108627062779E+04   -0.27991E-06   -0.14202E-05  6824   0.631E-03
  29 F= -.10862706E+04 E0= -.10862706E+04  d E =-.135898E-02  mag=    60.0000
