       N       E                     dE             d eps       ncg     rms          rms(c)
DAV:   1    -0.115240770692E+04   -0.11524E+04   -0.21904E-02 13160   0.339E-01    0.146E-02
RMM:   2    -0.115240770740E+04   -0.47947E-06   -0.11420E-05  6823   0.538E-03    0.216E-02
RMM:   3    -0.115240770775E+04   -0.35054E-06   -0.41698E-06  5041   0.388E-03    0.315E-03
RMM:   4    -0.115240770811E+04   -0.35757E-06   -0.20098E-06  3176   0.235E-03    0.191E-03
RMM:   5    -0.115240770835E+04   -0.24243E-06   -0.11383E-06  2839   0.245E-03    0.208E-03
RMM:   6    -0.115240770850E+04   -0.15211E-06   -0.60961E-07  2119   0.200E-03    0.908E-04
RMM:   7    -0.115240770857E+04   -0.67972E-07   -0.37194E-07  2020   0.210E-03    0.420E-04
RMM:   8    -0.115240770860E+04   -0.22672E-07   -0.11095E-07  1452   0.191E-03
   1 F= -.11524077E+04 E0= -.11524077E+04  d E =-.115241E+04  mag=    20.0000
       N       E                     dE             d eps       ncg     rms          rms(c)
DAV:   1    -0.115240828940E+04   -0.58083E-03   -0.33584E-01 12928   0.687E-01    0.252E-01
RMM:   2    -0.115240874885E+04   -0.45945E-03   -0.10944E-02 12301   0.135E-01    0.217E-01
RMM:   3    -0.115240860970E+04    0.13915E-03   -0.53639E-04 11039   0.423E-02    0.134E-01
RMM:   4    -0.115240853599E+04    0.73712E-04   -0.31329E-04  9140   0.204E-02    0.892E-02
RMM:   5    -0.115240851489E+04    0.21102E-04   -0.59914E-05  7168   0.125E-02    0.513E-02
RMM:   6    -0.115240851390E+04    0.98911E-06   -0.29663E-05  7036   0.687E-03    0.191E-02
RMM:   7    -0.115240851246E+04    0.14409E-05   -0.12322E-05  6671   0.551E-03    0.132E-02
RMM:   8    -0.115240851132E+04    0.11382E-05   -0.84703E-06  5923   0.356E-03
   2 F= -.11524085E+04 E0= -.11524085E+04  d E =-.802722E-03  mag=    20.0000
       N       E                     dE             d eps       ncg     rms          rms(c)
DAV:   1    -0.115240854631E+04   -0.33857E-04   -0.13367E-02 12976   0.137E-01    0.496E-02
RMM:   2    -0.115240856340E+04   -0.17092E-04   -0.41202E-04  9730   0.274E-02    0.457E-02
RMM:   3    -0.115240855983E+04    0.35727E-05   -0.31121E-05  6558   0.109E-02    0.276E-02
RMM:   4    -0.115240855711E+04    0.27180E-05   -0.14916E-05  6383   0.528E-03    0.205E-02
RMM:   5    -0.115240855672E+04    0.38971E-06   -0.35091E-06  5056   0.346E-03    0.112E-02
RMM:   6    -0.115240855667E+04    0.56170E-07   -0.83559E-07  2374   0.200E-03    0.402E-03
RMM:   7    -0.115240855678E+04   -0.10693E-06   -0.42822E-07  1943   0.187E-03    0.219E-03
RMM:   8    -0.115240855678E+04   -0.58353E-08   -0.20159E-07  1385   0.180E-03
   3 F= -.11524086E+04 E0= -.11524086E+04  d E =-.848186E-03  mag=    20.0000
       N       E                     dE             d eps       ncg     rms          rms(c)
DAV:   1    -0.115240869050E+04   -0.13373E-03   -0.31710E-01 12904   0.662E-01    0.163E-01
RMM:   2    -0.115240937768E+04   -0.68718E-03   -0.81866E-03 12321   0.115E-01    0.119E-01
RMM:   3    -0.115240935618E+04    0.21506E-04   -0.36421E-04  9526   0.378E-02    0.751E-02
RMM:   4    -0.115240933118E+04    0.24996E-04   -0.12421E-04  7122   0.137E-02    0.510E-02
RMM:   5    -0.115240932673E+04    0.44520E-05   -0.33981E-05  6985   0.866E-03    0.284E-02
RMM:   6    -0.115240932750E+04   -0.77458E-06   -0.14998E-05  6870   0.573E-03    0.923E-03
RMM:   7    -0.115240932749E+04    0.12442E-07   -0.74551E-06  6105   0.409E-03    0.789E-03
RMM:   8    -0.115240932714E+04    0.35646E-06   -0.40998E-06  4826   0.326E-03
   4 F= -.11524093E+04 E0= -.11524093E+04  d E =-.770355E-03  mag=    20.0000
       N       E                     dE             d eps       ncg     rms          rms(c)
DAV:   1    -0.115240927800E+04    0.49497E-04   -0.82715E-02 12416   0.338E-01    0.833E-02
RMM:   2    -0.115240946186E+04   -0.18386E-03   -0.21882E-03 12221   0.589E-02    0.608E-02
RMM:   3    -0.115240945370E+04    0.81598E-05   -0.81998E-05  7044   0.184E-02    0.383E-02
RMM:   4    -0.115240944828E+04    0.54196E-05   -0.39394E-05  6937   0.769E-03    0.288E-02
RMM:   5    -0.115240944706E+04    0.12212E-05   -0.11094E-05  6575   0.540E-03    0.178E-02
RMM:   6    -0.115240944710E+04   -0.46086E-07   -0.58405E-06  5460   0.303E-03    0.485E-03
RMM:   7    -0.115240944706E+04    0.41618E-07   -0.25639E-06  4480   0.315E-03    0.588E-03
RMM:   8    -0.115240944694E+04    0.12032E-06   -0.11844E-06  2983   0.208E-03
   5 F= -.11524094E+04 E0= -.11524094E+04  d E =-.890161E-03  mag=    20.0000
       N       E                     dE             d eps       ncg     rms          rms(c)
DAV:   1    -0.115240954378E+04   -0.96716E-04   -0.35618E-01 12896   0.695E-01    0.170E-01
RMM:   2    -0.115241022229E+04   -0.67851E-03   -0.92784E-03 12334   0.122E-01    0.134E-01
RMM:   3    -0.115241016691E+04    0.55377E-04   -0.44921E-04 10041   0.411E-02    0.819E-02
RMM:   4    -0.115241014092E+04    0.25988E-04   -0.15345E-04  7161   0.153E-02    0.710E-02
RMM:   5    -0.115241013861E+04    0.23153E-05   -0.41264E-05  6964   0.948E-03    0.356E-02
RMM:   6    -0.115241014139E+04   -0.27784E-05   -0.24738E-05  6888   0.694E-03    0.135E-02
RMM:   7    -0.115241014521E+04   -0.38241E-05   -0.12474E-05  6476   0.502E-03    0.956E-03
RMM:   8    -0.115241014767E+04   -0.24580E-05   -0.76583E-06  5086   0.408E-03
   6 F= -.11524101E+04 E0= -.11524101E+04  d E =-.700728E-03  mag=    20.0000
       N       E                     dE             d eps       ncg     rms          rms(c)
DAV:   1    -0.115240990384E+04    0.24137E-03   -0.22986E-01 12400   0.558E-01    0.136E-01
RMM:   2    -0.115241035873E+04   -0.45488E-03   -0.60535E-03 12347   0.977E-02    0.108E-01
RMM:   3    -0.115241032167E+04    0.37051E-04   -0.26519E-04  8992   0.318E-02    0.666E-02
RMM:   4    -0.115241030794E+04    0.13733E-04   -0.97221E-05  7075   0.126E-02    0.637E-02
RMM:   5    -0.115241030638E+04    0.15613E-05   -0.28384E-05  6937   0.819E-03    0.297E-02
RMM:   6    -0.115241030823E+04   -0.18511E-05   -0.17959E-05  6862   0.514E-03    0.105E-02
RMM:   7    -0.115241031046E+04   -0.22326E-05   -0.67288E-06  5894   0.414E-03    0.760E-03
RMM:   8    -0.115241031225E+04   -0.17903E-05   -0.43096E-06  4730   0.308E-03
   7 F= -.11524103E+04 E0= -.11524103E+04  d E =-.865313E-03  mag=    20.0000
       N       E                     dE             d eps       ncg     rms          rms(c)
DAV:   1    -0.115241021724E+04    0.93225E-04   -0.32409E-01 12368   0.654E-01    0.141E-01
RMM:   2    -0.115241090663E+04   -0.68939E-03   -0.79390E-03 12315   0.110E-01    0.101E-01
RMM:   3    -0.115241088808E+04    0.18554E-04   -0.36281E-04  9108   0.370E-02    0.641E-02
RMM:   4    -0.115241087039E+04    0.17686E-04   -0.10416E-04  7078   0.123E-02    0.425E-02
RMM:   5    -0.115241086747E+04    0.29183E-05   -0.31743E-05  6928   0.788E-03    0.191E-02
RMM:   6    -0.115241086844E+04   -0.96700E-06   -0.13486E-05  6493   0.536E-03    0.834E-03
RMM:   7    -0.115241086872E+04   -0.27522E-06   -0.74755E-06  5544   0.378E-03    0.566E-03
RMM:   8    -0.115241086858E+04    0.13337E-06   -0.42093E-06  4506   0.323E-03
   8 F= -.11524109E+04 E0= -.11524109E+04  d E =-.556329E-03  mag=    20.0000
