<?xml version="1.0" encoding="ISO-8859-1"?>
<modeling>
 <generator>
  <i name="program" type="string">vasp </i>
  <i name="version" type="string">5.4.1  </i>
  <i name="subversion" type="string">05Feb16 (build Jan 25 2017 20:16:33) complex                          parallel </i>
  <i name="platform" type="string">BWXE6 </i>
  <i name="date" type="string">2019 06 20 </i>
  <i name="time" type="string">10:29:14 </i>
 </generator>
 <incar>
  <i type="string" name="SYSTEM"> STF</i>
  <i type="string" name="PREC">normal</i>
  <i type="string" name="ALGO"> Fast</i>
  <i type="int" name="ISPIN">     2</i>
  <i type="int" name="NELM">    40</i>
  <i type="int" name="NELMIN">     8</i>
  <i type="int" name="IBRION">     2</i>
  <i name="EDIFF">      0.00010000</i>
  <i name="EDIFFG">     -0.03000000</i>
  <i type="int" name="NSW">    30</i>
  <i type="int" name="ISIF">     3</i>
  <i name="ENCUT">    520.00000000</i>
  <i type="int" name="NBANDS">   768</i>
  <v name="MAGMOM">      0.60000000      0.60000000      0.60000000      0.60000000      0.60000000      0.60000000      0.60000000      0.60000000      0.60000000      0.60000000      0.60000000      0.60000000      0.60000000      0.60000000      0.60000000      0.60000000      0.60000000      0.60000000      0.60000000      0.60000000
      0.60000000      0.60000000      0.60000000      0.60000000      0.60000000      0.60000000      0.60000000      0.60000000      0.60000000      0.60000000      0.60000000      0.60000000      0.60000000      0.60000000      0.60000000      0.60000000      0.60000000      0.60000000      0.60000000      0.60000000
      0.60000000      0.60000000      0.60000000      0.60000000      0.60000000      0.60000000      0.60000000      0.60000000      0.60000000      0.60000000      0.60000000      0.60000000      0.60000000      0.60000000      0.60000000      0.60000000      0.60000000      0.60000000      0.60000000      0.60000000
      5.00000000      5.00000000      5.00000000      5.00000000      0.60000000      0.60000000      0.60000000      0.60000000      0.60000000      0.60000000      0.60000000      0.60000000      0.60000000      0.60000000      0.60000000      0.60000000      0.60000000      0.60000000      0.60000000      0.60000000
      0.60000000      0.60000000      0.60000000      0.60000000      0.60000000      0.60000000      0.60000000      0.60000000      0.60000000      0.60000000      0.60000000      0.60000000      0.60000000      0.60000000      0.60000000      0.60000000      0.60000000      0.60000000      0.60000000      0.60000000
      0.60000000      0.60000000      0.60000000      0.60000000      0.60000000      0.60000000      0.60000000      0.60000000      0.60000000      0.60000000      0.60000000      0.60000000      0.60000000      0.60000000      0.60000000      0.60000000      0.60000000      0.60000000      0.60000000      0.60000000
      0.60000000      0.60000000      0.60000000      0.60000000      0.60000000      0.60000000      0.60000000      0.60000000      0.60000000      0.60000000      0.60000000      0.60000000      0.60000000      0.60000000      0.60000000      0.60000000      0.60000000      0.60000000      0.60000000      0.60000000
      0.60000000      0.60000000      0.60000000      0.60000000      0.60000000      0.60000000      0.60000000      0.60000000      0.60000000      0.60000000      0.60000000      0.60000000      0.60000000      0.60000000      0.60000000      0.60000000      0.60000000      0.60000000</v>
  <i type="string" name="LREAL"> Auto</i>
  <i type="int" name="ISMEAR">     0</i>
  <i name="SIGMA">      0.05000000</i>
  <i type="int" name="LMAXMIX">     4</i>
  <v type="int" name="KPOINT_BSE">    -1     0     0     0</v>
  <i type="int" name="NELM">    40</i>
  <i type="logical" name="LDAU"> T  </i>
  <v type="int" name="LDAUTYPE">     2</v>
  <v type="int" name="LDAUL">     0     2     2     0</v>
  <v name="LDAUU">      0.00000000      3.00000000      5.00000000      0.00000000</v>
  <v name="LDAUJ">      0.00000000      0.00000000      0.00000000      0.00000000</v>
  <i type="int" name="LDAUPRINT">     1</i>
 </incar>
 <kpoints>
  <generation param="Monkhorst-Pack">
   <v type="int" name="divisions">       2        2        2 </v>
   <v name="usershift">      0.00000000       0.00000000       0.00000000 </v>
   <v name="genvec1">      0.50000000       0.00000000       0.00000000 </v>
   <v name="genvec2">      0.00000000       0.50000000       0.00000000 </v>
   <v name="genvec3">     -0.00000000       0.00000000       0.50000000 </v>
   <v name="shift">      0.50000000       0.50000000       0.50000000 </v>
  </generation>
  <varray name="kpointlist" >
   <v>       0.25000000       0.25000000       0.25000000 </v>
   <v>      -0.25000000       0.25000000       0.25000000 </v>
   <v>       0.25000000      -0.25000000       0.25000000 </v>
   <v>      -0.25000000      -0.25000000       0.25000000 </v>
  </varray>
  <varray name="weights" >
   <v>       0.25000000 </v>
   <v>       0.25000000 </v>
   <v>       0.25000000 </v>
   <v>       0.25000000 </v>
  </varray>
 </kpoints>
 <parameters>
  <separator name="general" >
   <i type="string" name="SYSTEM">STF</i>
   <i type="logical" name="LCOMPAT"> F  </i>
  </separator>
  <separator name="electronic" >
   <i type="string" name="PREC">normal</i>
   <i name="ENMAX">    520.00000000</i>
   <i name="ENAUG">    605.39200000</i>
   <i name="EDIFF">      0.00010000</i>
   <i type="int" name="IALGO">    68</i>
   <i type="int" name="IWAVPR">    11</i>
   <i type="int" name="NBANDS">   768</i>
   <i name="NELECT">   1028.00000000</i>
   <i type="int" name="TURBO">     0</i>
   <i type="int" name="IRESTART">     0</i>
   <i type="int" name="NREBOOT">     0</i>
   <i type="int" name="NMIN">     0</i>
   <i name="EREF">      0.00000000</i>
   <separator name="electronic smearing" >
    <i type="int" name="ISMEAR">     0</i>
    <i name="SIGMA">      0.05000000</i>
    <i name="KSPACING">      0.50000000</i>
    <i type="logical" name="KGAMMA"> T  </i>
   </separator>
   <separator name="electronic projectors" >
    <i type="logical" name="LREAL"> T  </i>
    <v name="ROPT">     -0.00050000     -0.00050000     -0.00050000     -0.00050000</v>
    <i type="int" name="LMAXPAW">  -100</i>
    <i type="int" name="LMAXMIX">     4</i>
    <i type="logical" name="NLSPLINE"> F  </i>
   </separator>
   <separator name="electronic startup" >
    <i type="int" name="ISTART">     1</i>
    <i type="int" name="ICHARG">     0</i>
    <i type="int" name="INIWAV">     1</i>
   </separator>
   <separator name="electronic spin" >
    <i type="int" name="ISPIN">     2</i>
    <i type="logical" name="LNONCOLLINEAR"> F  </i>
    <v name="MAGMOM">      0.60000000      0.60000000      0.60000000      0.60000000      0.60000000      0.60000000      0.60000000      0.60000000      0.60000000      0.60000000      0.60000000      0.60000000      0.60000000      0.60000000      0.60000000      0.60000000      0.60000000      0.60000000      0.60000000      0.60000000
      0.60000000      0.60000000      0.60000000      0.60000000      0.60000000      0.60000000      0.60000000      0.60000000      0.60000000      0.60000000      0.60000000      0.60000000      0.60000000      0.60000000      0.60000000      0.60000000      0.60000000      0.60000000      0.60000000      0.60000000
      0.60000000      0.60000000      0.60000000      0.60000000      0.60000000      0.60000000      0.60000000      0.60000000      0.60000000      0.60000000      0.60000000      0.60000000      0.60000000      0.60000000      0.60000000      0.60000000      0.60000000      0.60000000      0.60000000      0.60000000
      5.00000000      5.00000000      5.00000000      5.00000000      0.60000000      0.60000000      0.60000000      0.60000000      0.60000000      0.60000000      0.60000000      0.60000000      0.60000000      0.60000000      0.60000000      0.60000000      0.60000000      0.60000000      0.60000000      0.60000000
      0.60000000      0.60000000      0.60000000      0.60000000      0.60000000      0.60000000      0.60000000      0.60000000      0.60000000      0.60000000      0.60000000      0.60000000      0.60000000      0.60000000      0.60000000      0.60000000      0.60000000      0.60000000      0.60000000      0.60000000
      0.60000000      0.60000000      0.60000000      0.60000000      0.60000000      0.60000000      0.60000000      0.60000000      0.60000000      0.60000000      0.60000000      0.60000000      0.60000000      0.60000000      0.60000000      0.60000000      0.60000000      0.60000000      0.60000000      0.60000000
      0.60000000      0.60000000      0.60000000      0.60000000      0.60000000      0.60000000      0.60000000      0.60000000      0.60000000      0.60000000      0.60000000      0.60000000      0.60000000      0.60000000      0.60000000      0.60000000      0.60000000      0.60000000      0.60000000      0.60000000
      0.60000000      0.60000000      0.60000000      0.60000000      0.60000000      0.60000000      0.60000000      0.60000000      0.60000000      0.60000000      0.60000000      0.60000000      0.60000000      0.60000000      0.60000000      0.60000000      0.60000000      0.60000000</v>
    <i name="NUPDOWN">     -1.00000000</i>
    <i type="logical" name="LSORBIT"> F  </i>
    <v name="SAXIS">      0.00000000      0.00000000      1.00000000</v>
    <i type="logical" name="LSPIRAL"> F  </i>
    <v name="QSPIRAL">      0.00000000      0.00000000      0.00000000</v>
    <i type="logical" name="LZEROZ"> F  </i>
   </separator>
   <separator name="electronic exchange-correlation" >
    <i type="logical" name="LASPH"> F  </i>
    <i type="logical" name="LMETAGGA"> F  </i>
   </separator>
   <separator name="electronic convergence" >
    <i type="int" name="NELM">    40</i>
    <i type="int" name="NELMDL">     0</i>
    <i type="int" name="NELMIN">     8</i>
    <i name="ENINI">    520.00000000</i>
    <separator name="electronic convergence detail" >
     <i type="logical" name="LDIAG"> T  </i>
     <i type="logical" name="LSUBROT"> F  </i>
     <i name="WEIMIN">      0.00100000</i>
     <i name="EBREAK">      0.00000003</i>
     <i name="DEPER">      0.30000000</i>
     <i type="int" name="NRMM">     4</i>
     <i name="TIME">      0.40000000</i>
    </separator>
   </separator>
   <separator name="electronic mixer" >
    <i name="AMIX">      0.40000000</i>
    <i name="BMIX">      1.00000000</i>
    <i name="AMIN">      0.10000000</i>
    <i name="AMIX_MAG">      1.60000000</i>
    <i name="BMIX_MAG">      1.00000000</i>
    <separator name="electronic mixer details" >
     <i type="int" name="IMIX">     4</i>
     <i type="logical" name="MIXFIRST"> F  </i>
     <i type="int" name="MAXMIX">   -45</i>
     <i name="WC">    100.00000000</i>
     <i type="int" name="INIMIX">     1</i>
     <i type="int" name="MIXPRE">     1</i>
     <i type="int" name="MREMOVE">     5</i>
    </separator>
   </separator>
   <separator name="electronic dipolcorrection" >
    <i type="logical" name="LDIPOL"> F  </i>
    <i type="logical" name="LMONO"> F  </i>
    <i type="int" name="IDIPOL">     0</i>
    <i name="EPSILON">      1.00000000</i>
    <v name="DIPOL">   -100.00000000   -100.00000000   -100.00000000</v>
    <i name="EFIELD">      0.00000000</i>
   </separator>
  </separator>
  <separator name="grids" >
   <i type="int" name="NGX">    64</i>
   <i type="int" name="NGY">    64</i>
   <i type="int" name="NGZ">    90</i>
   <i type="int" name="NGXF">   128</i>
   <i type="int" name="NGYF">   128</i>
   <i type="int" name="NGZF">   180</i>
   <i type="logical" name="ADDGRID"> F  </i>
  </separator>
  <separator name="ionic" >
   <i type="int" name="NSW">    30</i>
   <i type="int" name="IBRION">     2</i>
   <i type="int" name="ISIF">     3</i>
   <i name="PSTRESS">      0.00000000</i>
   <i name="EDIFFG">     -0.03000000</i>
   <i type="int" name="NFREE">     1</i>
   <i name="POTIM">      0.50000000</i>
   <i name="SMASS">     -3.00000000</i>
   <i name="SCALEE">      1.00000000</i>
  </separator>
  <separator name="ionic md" >
   <i name="TEBEG">      0.00010000</i>
   <i name="TEEND">      0.00010000</i>
   <i type="int" name="NBLOCK">     1</i>
   <i type="int" name="KBLOCK">    30</i>
   <i type="int" name="NPACO">   256</i>
   <i name="APACO">     16.00000000</i>
  </separator>
  <separator name="symmetry" >
   <i type="int" name="ISYM">     2</i>
   <i name="SYMPREC">      0.00001000</i>
  </separator>
  <separator name="dos" >
   <i type="logical" name="LORBIT"> F  </i>
   <v name="RWIGS">     -1.00000000     -1.00000000     -1.00000000     -1.00000000</v>
   <i type="int" name="NEDOS">   301</i>
   <i name="EMIN">     10.00000000</i>
   <i name="EMAX">    -10.00000000</i>
   <i name="EFERMI">      0.00000000</i>
  </separator>
  <separator name="writing" >
   <i type="int" name="NWRITE">     2</i>
   <i type="logical" name="LWAVE"> T  </i>
   <i type="logical" name="LCHARG"> T  </i>
   <i type="logical" name="LPARD"> F  </i>
   <i type="logical" name="LVTOT"> F  </i>
   <i type="logical" name="LVHAR"> F  </i>
   <i type="logical" name="LELF"> F  </i>
   <i type="logical" name="LOPTICS"> F  </i>
   <v name="STM">      0.00000000      0.00000000      0.00000000      0.00000000      0.00000000      0.00000000      0.00000000</v>
  </separator>
  <separator name="performance" >
   <i type="int" name="NPAR">     2</i>
   <i type="int" name="NSIM">     4</i>
   <i type="int" name="NBLK">    -1</i>
   <i type="logical" name="LPLANE"> T  </i>
   <i type="logical" name="LSCALAPACK"> T  </i>
   <i type="logical" name="LSCAAWARE"> F  </i>
   <i type="logical" name="LSCALU"> F  </i>
   <i type="logical" name="LASYNC"> F  </i>
   <i type="logical" name="LORBITALREAL"> F  </i>
  </separator>
  <separator name="miscellaneous" >
   <i type="int" name="IDIOT">     3</i>
   <i type="logical" name="LMUSIC"> F  </i>
   <v name="POMASS">     87.62000000     47.88000000     55.84700000     16.00000000</v>
   <v name="DARWINR">      0.00000000      0.00000000      0.00000000      0.00000000</v>
   <v name="DARWINV">      1.00000000      1.00000000      1.00000000      1.00000000</v>
   <i type="logical" name="LCORR"> T  </i>
  </separator>
  <i type="logical" name="GGA_COMPAT"> T  </i>
  <i type="logical" name="LBERRY"> F  </i>
  <i type="int" name="ICORELEVEL">     0</i>
  <i type="logical" name="LDAU"> T  </i>
  <v type="int" name="LDAUTYPE">     2</v>
  <v type="int" name="LDAUL">     0</v>
  <v name="LDAUU">      0.00000000</v>
  <v name="LDAUJ">      0.00000000</v>
  <i type="int" name="LDAUPRINT">     1</i>
  <i type="int" name="I_CONSTRAINED_M">     0</i>
  <separator name="electronic exchange-correlation" >
   <i type="string" name="GGA">--</i>
   <i type="int" name="VOSKOWN">     0</i>
   <i type="logical" name="LHFCALC"> F  </i>
   <i type="string" name="PRECFOCK"></i>
   <i type="logical" name="LSYMGRAD"> F  </i>
   <i type="logical" name="LHFONE"> F  </i>
   <i type="logical" name="LRHFCALC"> F  </i>
   <i type="logical" name="LTHOMAS"> F  </i>
   <i type="logical" name="LMODELHF"> F  </i>
   <i name="ENCUT4O">     -1.00000000</i>
   <i type="int" name="EXXOEP">     0</i>
   <i type="int" name="FOURORBIT">     0</i>
   <i name="AEXX">      0.00000000</i>
   <i name="HFALPHA">      0.00000000</i>
   <i name="MCALPHA">      0.00000000</i>
   <i name="ALDAX">      1.00000000</i>
   <i name="AGGAX">      1.00000000</i>
   <i name="ALDAC">      1.00000000</i>
   <i name="AGGAC">      1.00000000</i>
   <i type="int" name="NKREDX">     1</i>
   <i type="int" name="NKREDY">     1</i>
   <i type="int" name="NKREDZ">     1</i>
   <i type="logical" name="SHIFTRED"> F  </i>
   <i type="logical" name="ODDONLY"> F  </i>
   <i type="logical" name="EVENONLY"> F  </i>
   <i type="int" name="LMAXFOCK">     0</i>
   <i type="int" name="NMAXFOCKAE">     0</i>
   <i type="logical" name="LFOCKAEDFT"> F  </i>
   <i name="HFSCREEN">      0.00000000</i>
   <i name="HFSCREENC">      0.00000000</i>
   <i type="int" name="NBANDSGWLOW">     0</i>
  </separator>
  <separator name="vdW DFT" >
   <i type="logical" name="LUSE_VDW"> F  </i>
   <i name="Zab_VDW">     -0.84910000</i>
   <i name="PARAM1">      0.12340000</i>
   <i name="PARAM2">      1.00000000</i>
   <i name="PARAM3">      0.00000000</i>
  </separator>
  <separator name="model GW" >
   <i type="int" name="MODEL_GW">     0</i>
   <i name="MODEL_EPS0">      7.63101390</i>
   <i name="MODEL_ALPHA">      1.00000000</i>
  </separator>
  <separator name="linear response parameters" >
   <i type="logical" name="LEPSILON"> F  </i>
   <i type="logical" name="LRPA"> F  </i>
   <i type="logical" name="LNABLA"> F  </i>
   <i type="logical" name="LVEL"> F  </i>
   <i type="int" name="KINTER">     0</i>
   <i name="CSHIFT">      0.10000000</i>
   <i name="OMEGAMAX">     -1.00000000</i>
   <i name="DEG_THRESHOLD">      0.00200000</i>
  </separator>
  <separator name="orbital magnetization" >
   <i type="logical" name="NUCIND"> F  </i>
   <v name="MAGPOS">      0.00000000      0.00000000      0.00000000</v>
   <i type="logical" name="LNICSALL"> T  </i>
   <i type="logical" name="ORBITALMAG"> F  </i>
   <i type="logical" name="LMAGBLOCH"> F  </i>
   <i type="logical" name="LCHIMAG"> F  </i>
   <i type="logical" name="LGAUGE"> T  </i>
   <i type="int" name="MAGATOM">     0</i>
   <v name="MAGDIPOL">      0.00000000      0.00000000      0.00000000</v>
   <v name="AVECCONST">      0.00000000      0.00000000      0.00000000</v>
  </separator>
  <separator name="response functions" >
   <i type="logical" name="LADDER"> F  </i>
   <i type="logical" name="LFXC"> F  </i>
   <i type="logical" name="LHARTREE"> T  </i>
   <i type="int" name="IBSE">     0</i>
   <v type="int" name="KPOINT">    -1     0     0     0</v>
   <i type="logical" name="LTCTE"> F  </i>
   <i type="logical" name="LTETE"> F  </i>
   <i type="logical" name="LTRIPLET"> F  </i>
   <i type="logical" name="LFXCEPS"> F  </i>
   <i type="logical" name="LFXHEG"> F  </i>
   <i type="int" name="NATURALO">     0</i>
   <i type="logical" name="L2ORDER"> F  </i>
   <i type="logical" name="LUSEW"> F  </i>
   <i name="ENCUTGW">     -2.00000000</i>
   <i name="ENCUTGWSOFT">     -2.00000000</i>
   <i name="ENCUTLF">     -1.00000000</i>
   <i type="int" name="LMAXMP2">    -1</i>
   <i name="SCISSOR">      0.00000000</i>
   <i type="int" name="NOMEGA">     0</i>
   <i type="int" name="NOMEGAR">     0</i>
   <i type="int" name="NBANDSGW">    -1</i>
   <i type="int" name="NBANDSO">    -1</i>
   <i type="int" name="NBANDSV">    -1</i>
   <i type="int" name="NELM">    40</i>
   <i type="int" name="NELMHF">     1</i>
   <i type="int" name="DIM">     3</i>
   <i type="int" name="ANTIRES">     0</i>
   <i name="OMEGAMAX">    -30.00000000</i>
   <i name="OMEGAMIN">    -30.00000000</i>
   <i name="OMEGATL">   -200.00000000</i>
   <i type="int" name="OMEGAGRID">     0</i>
   <i name="CSHIFT">     -0.10000000</i>
   <i type="logical" name="SELFENERGY"> F  </i>
   <i type="logical" name="LSPECTRAL"> F  </i>
   <i type="logical" name="LSPECTRALGW"> F  </i>
   <i type="logical" name="LSINGLES"> F  </i>
   <i type="logical" name="LFERMIGW"> F  </i>
   <i type="logical" name="ODDONLYGW"> F  </i>
   <i type="logical" name="EVENONLYGW"> F  </i>
   <i type="int" name="NKREDLFX">     1</i>
   <i type="int" name="NKREDLFY">     1</i>
   <i type="int" name="NKREDLFZ">     1</i>
   <i type="int" name="MAXMEM">  1800</i>
   <i type="int" name="TELESCOPE">     0</i>
   <i type="int" name="TAUPAR">     1</i>
   <i type="int" name="OMEGAPAR">    -1</i>
   <i name="LAMBDA">      1.00000000</i>
  </separator>
  <separator name="External order field" >
   <i name="OFIELD_KAPPA">      0.00000000</i>
   <v name="OFIELD_K">      0.00000000      0.00000000      0.00000000</v>
   <i name="OFIELD_Q6_NEAR">      0.00000000</i>
   <i name="OFIELD_Q6_FAR">      0.00000000</i>
   <i name="OFIELD_A">      0.00000000</i>
  </separator>
 </parameters>
 <atominfo>
  <atoms>     158 </atoms>
  <types>       4 </types>
  <array name="atoms" >
   <dimension dim="1">ion</dimension>
   <field type="string">element</field>
   <field type="int">atomtype</field>
   <set>
    <rc><c>Sr</c><c>   1</c></rc>
    <rc><c>Sr</c><c>   1</c></rc>
    <rc><c>Sr</c><c>   1</c></rc>
    <rc><c>Sr</c><c>   1</c></rc>
    <rc><c>Sr</c><c>   1</c></rc>
    <rc><c>Sr</c><c>   1</c></rc>
    <rc><c>Sr</c><c>   1</c></rc>
    <rc><c>Sr</c><c>   1</c></rc>
    <rc><c>Sr</c><c>   1</c></rc>
    <rc><c>Sr</c><c>   1</c></rc>
    <rc><c>Sr</c><c>   1</c></rc>
    <rc><c>Sr</c><c>   1</c></rc>
    <rc><c>Sr</c><c>   1</c></rc>
    <rc><c>Sr</c><c>   1</c></rc>
    <rc><c>Sr</c><c>   1</c></rc>
    <rc><c>Sr</c><c>   1</c></rc>
    <rc><c>Sr</c><c>   1</c></rc>
    <rc><c>Sr</c><c>   1</c></rc>
    <rc><c>Sr</c><c>   1</c></rc>
    <rc><c>Sr</c><c>   1</c></rc>
    <rc><c>Sr</c><c>   1</c></rc>
    <rc><c>Sr</c><c>   1</c></rc>
    <rc><c>Sr</c><c>   1</c></rc>
    <rc><c>Sr</c><c>   1</c></rc>
    <rc><c>Sr</c><c>   1</c></rc>
    <rc><c>Sr</c><c>   1</c></rc>
    <rc><c>Sr</c><c>   1</c></rc>
    <rc><c>Sr</c><c>   1</c></rc>
    <rc><c>Sr</c><c>   1</c></rc>
    <rc><c>Sr</c><c>   1</c></rc>
    <rc><c>Sr</c><c>   1</c></rc>
    <rc><c>Sr</c><c>   1</c></rc>
    <rc><c>Ti</c><c>   2</c></rc>
    <rc><c>Ti</c><c>   2</c></rc>
    <rc><c>Ti</c><c>   2</c></rc>
    <rc><c>Ti</c><c>   2</c></rc>
    <rc><c>Ti</c><c>   2</c></rc>
    <rc><c>Ti</c><c>   2</c></rc>
    <rc><c>Ti</c><c>   2</c></rc>
    <rc><c>Ti</c><c>   2</c></rc>
    <rc><c>Ti</c><c>   2</c></rc>
    <rc><c>Ti</c><c>   2</c></rc>
    <rc><c>Ti</c><c>   2</c></rc>
    <rc><c>Ti</c><c>   2</c></rc>
    <rc><c>Ti</c><c>   2</c></rc>
    <rc><c>Ti</c><c>   2</c></rc>
    <rc><c>Ti</c><c>   2</c></rc>
    <rc><c>Ti</c><c>   2</c></rc>
    <rc><c>Ti</c><c>   2</c></rc>
    <rc><c>Ti</c><c>   2</c></rc>
    <rc><c>Ti</c><c>   2</c></rc>
    <rc><c>Ti</c><c>   2</c></rc>
    <rc><c>Ti</c><c>   2</c></rc>
    <rc><c>Ti</c><c>   2</c></rc>
    <rc><c>Ti</c><c>   2</c></rc>
    <rc><c>Ti</c><c>   2</c></rc>
    <rc><c>Ti</c><c>   2</c></rc>
    <rc><c>Ti</c><c>   2</c></rc>
    <rc><c>Ti</c><c>   2</c></rc>
    <rc><c>Ti</c><c>   2</c></rc>
    <rc><c>Fe</c><c>   3</c></rc>
    <rc><c>Fe</c><c>   3</c></rc>
    <rc><c>Fe</c><c>   3</c></rc>
    <rc><c>Fe</c><c>   3</c></rc>
    <rc><c>O </c><c>   4</c></rc>
    <rc><c>O </c><c>   4</c></rc>
    <rc><c>O </c><c>   4</c></rc>
    <rc><c>O </c><c>   4</c></rc>
    <rc><c>O </c><c>   4</c></rc>
    <rc><c>O </c><c>   4</c></rc>
    <rc><c>O </c><c>   4</c></rc>
    <rc><c>O </c><c>   4</c></rc>
    <rc><c>O </c><c>   4</c></rc>
    <rc><c>O </c><c>   4</c></rc>
    <rc><c>O </c><c>   4</c></rc>
    <rc><c>O </c><c>   4</c></rc>
    <rc><c>O </c><c>   4</c></rc>
    <rc><c>O </c><c>   4</c></rc>
    <rc><c>O </c><c>   4</c></rc>
    <rc><c>O </c><c>   4</c></rc>
    <rc><c>O </c><c>   4</c></rc>
    <rc><c>O </c><c>   4</c></rc>
    <rc><c>O </c><c>   4</c></rc>
    <rc><c>O </c><c>   4</c></rc>
    <rc><c>O </c><c>   4</c></rc>
    <rc><c>O </c><c>   4</c></rc>
    <rc><c>O </c><c>   4</c></rc>
    <rc><c>O </c><c>   4</c></rc>
    <rc><c>O </c><c>   4</c></rc>
    <rc><c>O </c><c>   4</c></rc>
    <rc><c>O </c><c>   4</c></rc>
    <rc><c>O </c><c>   4</c></rc>
    <rc><c>O </c><c>   4</c></rc>
    <rc><c>O </c><c>   4</c></rc>
    <rc><c>O </c><c>   4</c></rc>
    <rc><c>O </c><c>   4</c></rc>
    <rc><c>O </c><c>   4</c></rc>
    <rc><c>O </c><c>   4</c></rc>
    <rc><c>O </c><c>   4</c></rc>
    <rc><c>O </c><c>   4</c></rc>
    <rc><c>O </c><c>   4</c></rc>
    <rc><c>O </c><c>   4</c></rc>
    <rc><c>O </c><c>   4</c></rc>
    <rc><c>O </c><c>   4</c></rc>
    <rc><c>O </c><c>   4</c></rc>
    <rc><c>O </c><c>   4</c></rc>
    <rc><c>O </c><c>   4</c></rc>
    <rc><c>O </c><c>   4</c></rc>
    <rc><c>O </c><c>   4</c></rc>
    <rc><c>O </c><c>   4</c></rc>
    <rc><c>O </c><c>   4</c></rc>
    <rc><c>O </c><c>   4</c></rc>
    <rc><c>O </c><c>   4</c></rc>
    <rc><c>O </c><c>   4</c></rc>
    <rc><c>O </c><c>   4</c></rc>
    <rc><c>O </c><c>   4</c></rc>
    <rc><c>O </c><c>   4</c></rc>
    <rc><c>O </c><c>   4</c></rc>
    <rc><c>O </c><c>   4</c></rc>
    <rc><c>O </c><c>   4</c></rc>
    <rc><c>O </c><c>   4</c></rc>
    <rc><c>O </c><c>   4</c></rc>
    <rc><c>O </c><c>   4</c></rc>
    <rc><c>O </c><c>   4</c></rc>
    <rc><c>O </c><c>   4</c></rc>
    <rc><c>O </c><c>   4</c></rc>
    <rc><c>O </c><c>   4</c></rc>
    <rc><c>O </c><c>   4</c></rc>
    <rc><c>O </c><c>   4</c></rc>
    <rc><c>O </c><c>   4</c></rc>
    <rc><c>O </c><c>   4</c></rc>
    <rc><c>O </c><c>   4</c></rc>
    <rc><c>O </c><c>   4</c></rc>
    <rc><c>O </c><c>   4</c></rc>
    <rc><c>O </c><c>   4</c></rc>
    <rc><c>O </c><c>   4</c></rc>
    <rc><c>O </c><c>   4</c></rc>
    <rc><c>O </c><c>   4</c></rc>
    <rc><c>O </c><c>   4</c></rc>
    <rc><c>O </c><c>   4</c></rc>
    <rc><c>O </c><c>   4</c></rc>
    <rc><c>O </c><c>   4</c></rc>
    <rc><c>O </c><c>   4</c></rc>
    <rc><c>O </c><c>   4</c></rc>
    <rc><c>O </c><c>   4</c></rc>
    <rc><c>O </c><c>   4</c></rc>
    <rc><c>O </c><c>   4</c></rc>
    <rc><c>O </c><c>   4</c></rc>
    <rc><c>O </c><c>   4</c></rc>
    <rc><c>O </c><c>   4</c></rc>
    <rc><c>O </c><c>   4</c></rc>
    <rc><c>O </c><c>   4</c></rc>
    <rc><c>O </c><c>   4</c></rc>
    <rc><c>O </c><c>   4</c></rc>
    <rc><c>O </c><c>   4</c></rc>
    <rc><c>O </c><c>   4</c></rc>
    <rc><c>O </c><c>   4</c></rc>
    <rc><c>O </c><c>   4</c></rc>
   </set>
  </array>
  <array name="atomtypes" >
   <dimension dim="1">type</dimension>
   <field type="int">atomspertype</field>
   <field type="string">element</field>
   <field>mass</field>
   <field>valence</field>
   <field type="string">pseudopotential</field>
   <set>
    <rc><c>  32</c><c>Sr</c><c>     87.62000000</c><c>     10.00000000</c><c>  PAW_PBE Sr_sv 07Sep2000               </c></rc>
    <rc><c>  28</c><c>Ti</c><c>     47.88000000</c><c>      4.00000000</c><c>  PAW_PBE Ti 08Apr2002                  </c></rc>
    <rc><c>   4</c><c>Fe</c><c>     55.84700000</c><c>      8.00000000</c><c>  PAW_PBE Fe 06Sep2000                  </c></rc>
    <rc><c>  94</c><c>O </c><c>     16.00000000</c><c>      6.00000000</c><c>  PAW_PBE O 08Apr2002                   </c></rc>
   </set>
  </array>
 </atominfo>
 <structure name="initialpos" >
  <crystal>
   <varray name="basis" >
    <v>      11.22298573       0.01731019      -0.00022331 </v>
    <v>       0.01729798      11.21822324       0.00042506 </v>
    <v>      -0.00030969       0.00062336      15.96087241 </v>
   </varray>
   <i name="volume">   2009.50032611 </i>
   <varray name="rec_basis" >
    <v>       0.08910306      -0.00013739       0.00000173 </v>
    <v>      -0.00013749       0.08914089      -0.00000348 </v>
    <v>       0.00000125      -0.00000238       0.06265322 </v>
   </varray>
  </crystal>
  <varray name="positions" >
   <v>       0.00112662       0.25002514       0.13243284 </v>
   <v>       0.99899866       0.24860017       0.62471559 </v>
   <v>       0.99760970       0.75361169       0.12892118 </v>
   <v>       0.99967915       0.75008143       0.62559753 </v>
   <v>       0.49499920       0.25283825       0.13345045 </v>
   <v>       0.50412885       0.24632051       0.62598905 </v>
   <v>       0.49760380       0.75188434       0.12936954 </v>
   <v>       0.50033292       0.75200886       0.62595438 </v>
   <v>       0.00306649       0.24926519       0.37547913 </v>
   <v>       0.99628202       0.24989324       0.86806500 </v>
   <v>       0.00010780       0.75000369       0.37433303 </v>
   <v>       0.99779496       0.75340541       0.87113869 </v>
   <v>       0.49873192       0.25157973       0.37454225 </v>
   <v>       0.50086781       0.24782663       0.86680259 </v>
   <v>       0.49976631       0.74798784       0.37388264 </v>
   <v>       0.49782651       0.75634415       0.87021701 </v>
   <v>       0.25010143       0.99724782       0.13230530 </v>
   <v>       0.25283823       0.00034855       0.62559451 </v>
   <v>       0.25286459       0.50241536       0.13706156 </v>
   <v>       0.25046051       0.49901698       0.62376413 </v>
   <v>       0.74944996       0.99505626       0.13160908 </v>
   <v>       0.74712738       0.00351003       0.62713018 </v>
   <v>       0.74670883       0.50522744       0.13541795 </v>
   <v>       0.75016837       0.49692022       0.62457992 </v>
   <v>       0.25041671       0.00269388       0.37434001 </v>
   <v>       0.25220847       0.99494858       0.86746975 </v>
   <v>       0.25349179       0.49603101       0.37386592 </v>
   <v>       0.24938628       0.50583148       0.86496890 </v>
   <v>       0.74983641       0.00074492       0.37516775 </v>
   <v>       0.74669059       0.99817119       0.86646149 </v>
   <v>       0.74790918       0.49932288       0.37531358 </v>
   <v>       0.74962261       0.50297269       0.86454056 </v>
   <v>       0.99578172       0.99819619       0.99988317 </v>
   <v>       0.00019280       0.00012171       0.50029813 </v>
   <v>       0.01471153       0.50845232       0.00036724 </v>
   <v>       0.00083487       0.50072849       0.49979383 </v>
   <v>       0.49611698       0.99862551       0.99929145 </v>
   <v>       0.50021651       0.00017747       0.50101216 </v>
   <v>       0.51437551       0.50904107       0.99951720 </v>
   <v>       0.50083216       0.50062129       0.49883602 </v>
   <v>       0.24034775       0.23454133       0.99954372 </v>
   <v>       0.24989632       0.24932964       0.49900323 </v>
   <v>       0.25182751       0.75481539       0.00020114 </v>
   <v>       0.24939967       0.74947705       0.49967342 </v>
   <v>       0.74053965       0.23545937       0.00054134 </v>
   <v>       0.74974605       0.24937561       0.50104560 </v>
   <v>       0.75131472       0.75485163       0.99968733 </v>
   <v>       0.74941925       0.74964776       0.50021003 </v>
   <v>       0.25199635       0.24998113       0.74869883 </v>
   <v>       0.25053398       0.74910646       0.25078894 </v>
   <v>       0.25033850       0.75116852       0.74877824 </v>
   <v>       0.74965888       0.25276351       0.25115698 </v>
   <v>       0.74803797       0.74935699       0.25095776 </v>
   <v>       0.74810577       0.75133231       0.74920847 </v>
   <v>       0.00092256       0.00205942       0.25041620 </v>
   <v>       0.99866616       0.00193907       0.74984319 </v>
   <v>       0.99995473       0.49807839       0.25147302 </v>
   <v>       0.99791183       0.49786062       0.74852244 </v>
   <v>       0.49850207       0.00224320       0.25036436 </v>
   <v>       0.50024261       0.49804979       0.74804325 </v>
   <v>       0.25188072       0.25240236       0.25125503 </v>
   <v>       0.75023303       0.25072874       0.74901775 </v>
   <v>       0.50103655       0.00198856       0.74956633 </v>
   <v>       0.49800011       0.49830336       0.25172426 </v>
   <v>       0.11454813       0.13517015       0.24498788 </v>
   <v>       0.11543454       0.13727916       0.75642688 </v>
   <v>       0.11164462       0.63551892       0.24197379 </v>
   <v>       0.11176255       0.63524772       0.75754948 </v>
   <v>       0.61641292       0.13671132       0.24338555 </v>
   <v>       0.61713400       0.13671723       0.75530286 </v>
   <v>       0.61412830       0.63621093       0.24291371 </v>
   <v>       0.61201980       0.63515859       0.75835166 </v>
   <v>       0.38610748       0.36420055       0.25598414 </v>
   <v>       0.38671433       0.36354747       0.74340416 </v>
   <v>       0.38575187       0.86418575       0.25046754 </v>
   <v>       0.38340532       0.86263659       0.74907606 </v>
   <v>       0.88755756       0.36281884       0.25617625 </v>
   <v>       0.88824105       0.36472240       0.74448121 </v>
   <v>       0.88602352       0.86360884       0.25042965 </v>
   <v>       0.88615899       0.86346587       0.74973026 </v>
   <v>       0.36471195       0.11312077       0.24712228 </v>
   <v>       0.36194592       0.11575162       0.75295246 </v>
   <v>       0.36226566       0.61603104       0.25052519 </v>
   <v>       0.36223721       0.61306056       0.74993439 </v>
   <v>       0.86321700       0.11355466       0.24682241 </v>
   <v>       0.86604796       0.11354220       0.75294592 </v>
   <v>       0.86321287       0.61297069       0.24991168 </v>
   <v>       0.86262341       0.61336973       0.74994116 </v>
   <v>       0.13398673       0.38813469       0.24782250 </v>
   <v>       0.13689867       0.38806204       0.75200538 </v>
   <v>       0.13579399       0.88576221       0.25005619 </v>
   <v>       0.13523105       0.88618974       0.74988629 </v>
   <v>       0.63828746       0.38624694       0.24827166 </v>
   <v>       0.63558061       0.38889247       0.75188843 </v>
   <v>       0.63637938       0.88628694       0.25038158 </v>
   <v>       0.63639400       0.88356451       0.74969994 </v>
   <v>       0.36001104       0.39039413       0.50115249 </v>
   <v>       0.35399281       0.89560311       0.00064128 </v>
   <v>       0.35841592       0.89013770       0.49897830 </v>
   <v>       0.86062563       0.39096961       0.49866791 </v>
   <v>       0.85449902       0.89545444       0.99946821 </v>
   <v>       0.85891971       0.89060892       0.50081088 </v>
   <v>       0.14873871       0.09826967       0.99968948 </v>
   <v>       0.14027467       0.10803393       0.50090829 </v>
   <v>       0.14887019       0.60257954       0.00115975 </v>
   <v>       0.14140624       0.60902822       0.49931101 </v>
   <v>       0.64859099       0.09933697       0.99991154 </v>
   <v>       0.64076563       0.10884738       0.49940673 </v>
   <v>       0.64859410       0.60384144       0.99952760 </v>
   <v>       0.64209098       0.60950405       0.50086311 </v>
   <v>       0.10324309       0.35311683       0.99874196 </v>
   <v>       0.10903696       0.35989375       0.50109803 </v>
   <v>       0.10389782       0.85172972       0.00008377 </v>
   <v>       0.10788963       0.85890779       0.50004162 </v>
   <v>       0.60665498       0.35449464       0.00045692 </v>
   <v>       0.60991047       0.35986525       0.50003905 </v>
   <v>       0.60469305       0.85214934       0.00060828 </v>
   <v>       0.60886693       0.85868355       0.49903823 </v>
   <v>       0.39823131       0.15027116       0.99977257 </v>
   <v>       0.39019274       0.14077813       0.50036004 </v>
   <v>       0.39164094       0.63749859       0.99846600 </v>
   <v>       0.39026094       0.64157757       0.50102907 </v>
   <v>       0.89893970       0.14900895       0.00122797 </v>
   <v>       0.89099695       0.14065251       0.49901253 </v>
   <v>       0.89173380       0.63594443       0.99998577 </v>
   <v>       0.89118656       0.64128064       0.49994293 </v>
   <v>       0.99985255       0.99638361       0.12339056 </v>
   <v>       0.00074688       0.00323387       0.62585808 </v>
   <v>       0.98314365       0.48601444       0.11977426 </v>
   <v>       0.00346289       0.50469152       0.62495276 </v>
   <v>       0.50012953       0.99683475       0.12365203 </v>
   <v>       0.50016722       0.00155216       0.62344990 </v>
   <v>       0.48368910       0.48725405       0.11726480 </v>
   <v>       0.50391541       0.50474951       0.62579668 </v>
   <v>       0.00038850       0.00236244       0.37463663 </v>
   <v>       0.00003500       0.99714245       0.87664438 </v>
   <v>       0.00376509       0.50421941       0.37447429 </v>
   <v>       0.98548299       0.48816972       0.88010244 </v>
   <v>       0.50115027       0.00371608       0.37389747 </v>
   <v>       0.49911878       0.99641271       0.87808903 </v>
   <v>       0.50358864       0.50457219       0.37729400 </v>
   <v>       0.48342456       0.48497461       0.87980227 </v>
   <v>       0.24559597       0.24757055       0.37713929 </v>
   <v>       0.26368407       0.26839229       0.88049170 </v>
   <v>       0.24596956       0.74810018       0.37445397 </v>
   <v>       0.25096602       0.75168236       0.87646419 </v>
   <v>       0.74688695       0.24692032       0.37390404 </v>
   <v>       0.76598645       0.26960523       0.88389042 </v>
   <v>       0.74795051       0.74758562       0.37484191 </v>
   <v>       0.75272661       0.75172475       0.87623669 </v>
   <v>       0.26211297       0.26841888       0.11637923 </v>
   <v>       0.24535195       0.24734617       0.62609399 </v>
   <v>       0.25235609       0.75204914       0.12381882 </v>
   <v>       0.24512899       0.74757334       0.62504758 </v>
   <v>       0.76481279       0.26782542       0.11964372 </v>
   <v>       0.74897904       0.24852130       0.62293157 </v>
   <v>       0.75328092       0.75209014       0.12355891 </v>
   <v>       0.74734082       0.74714785       0.62561291 </v>
  </varray>
 </structure>
 <calculation>
  <scstep>
   <time name="dav">  590.12  590.16</time>
   <time name="total">  597.34  597.47</time>
   <energy>
    <i name="alphaZ">   5621.43609731 </i>
    <i name="ewald"> -60787.38721883 </i>
    <i name="hartreedc"> -15688.08024454 </i>
    <i name="XCdc">   2852.13279505 </i>
    <i name="pawpsdc"> 112185.87639388 </i>
    <i name="pawaedc">-110933.62333799 </i>
    <i name="eentropy">     -0.00000000 </i>
    <i name="bandstr">  -7052.33095393 </i>
    <i name="atom">  72650.08363186 </i>
    <i name="e_fr_energy">  -1151.89283719 </i>
    <i name="e_wo_entrp">  -1151.89283719 </i>
    <i name="e_0_energy">  -1151.89283719 </i>
   </energy>
  </scstep>
  <scstep>
   <time name="diag">   65.05   65.05</time>
   <time name="diis">   63.19   63.19</time>
   <time name="orth">   33.45   33.44</time>
   <time name="total">  168.91  168.98</time>
   <energy>
    <i name="e_fr_energy">  -1151.89283757 </i>
    <i name="e_wo_entrp">  -1151.89283757 </i>
    <i name="e_0_energy">  -1151.89283757 </i>
   </energy>
  </scstep>
  <scstep>
   <time name="diag">   65.08   65.08</time>
   <time name="diis">   60.96   60.97</time>
   <time name="orth">   33.41   33.41</time>
   <time name="total">  166.67  166.71</time>
   <energy>
    <i name="e_fr_energy">  -1151.89283790 </i>
    <i name="e_wo_entrp">  -1151.89283790 </i>
    <i name="e_0_energy">  -1151.89283790 </i>
   </energy>
  </scstep>
  <scstep>
   <time name="diag">   65.02   65.03</time>
   <time name="diis">   52.85   52.85</time>
   <time name="orth">   33.42   33.42</time>
   <time name="total">  158.51  158.56</time>
   <energy>
    <i name="e_fr_energy">  -1151.89283865 </i>
    <i name="e_wo_entrp">  -1151.89283865 </i>
    <i name="e_0_energy">  -1151.89283865 </i>
   </energy>
  </scstep>
  <scstep>
   <time name="diag">   65.22   65.23</time>
   <time name="diis">   52.15   52.15</time>
   <time name="orth">   33.43   33.44</time>
   <time name="total">  158.03  158.06</time>
   <energy>
    <i name="e_fr_energy">  -1151.89283939 </i>
    <i name="e_wo_entrp">  -1151.89283939 </i>
    <i name="e_0_energy">  -1151.89283939 </i>
   </energy>
  </scstep>
  <scstep>
   <time name="diag">   65.05   65.05</time>
   <time name="diis">   48.76   48.77</time>
   <time name="orth">   33.37   33.37</time>
   <time name="total">  154.41  154.55</time>
   <energy>
    <i name="e_fr_energy">  -1151.89283979 </i>
    <i name="e_wo_entrp">  -1151.89283979 </i>
    <i name="e_0_energy">  -1151.89283979 </i>
   </energy>
  </scstep>
  <scstep>
   <time name="diag">   65.11   65.12</time>
   <time name="diis">   47.09   47.09</time>
   <time name="orth">   33.37   33.37</time>
   <time name="total">  152.79  152.87</time>
   <energy>
    <i name="e_fr_energy">  -1151.89283995 </i>
    <i name="e_wo_entrp">  -1151.89283995 </i>
    <i name="e_0_energy">  -1151.89283995 </i>
   </energy>
  </scstep>
  <scstep>
   <time name="diag">   65.11   65.12</time>
   <time name="diis">   44.85   44.86</time>
   <time name="orth">   33.42   33.42</time>
   <time name="total">  144.44  144.48</time>
   <energy>
    <i name="alphaZ">   5621.43609731 </i>
    <i name="ewald"> -60787.38721883 </i>
    <i name="hartreedc"> -15688.06908794 </i>
    <i name="XCdc">   2852.13168249 </i>
    <i name="pawpsdc"> 112183.61865622 </i>
    <i name="pawaedc">-110931.34184200 </i>
    <i name="eentropy">     -0.00000000 </i>
    <i name="bandstr">  -7052.36475911 </i>
    <i name="atom">  72650.08363186 </i>
    <i name="e_fr_energy">  -1151.89284000 </i>
    <i name="e_wo_entrp">  -1151.89284000 </i>
    <i name="e_0_energy">  -1151.89284000 </i>
   </energy>
  </scstep>
  <structure>
   <crystal>
    <varray name="basis" >
     <v>      11.22298573       0.01731019      -0.00022331 </v>
     <v>       0.01729798      11.21822324       0.00042506 </v>
     <v>      -0.00030969       0.00062336      15.96087241 </v>
    </varray>
    <i name="volume">   2009.50032611 </i>
    <varray name="rec_basis" >
     <v>       0.08910306      -0.00013739       0.00000173 </v>
     <v>      -0.00013749       0.08914089      -0.00000348 </v>
     <v>       0.00000125      -0.00000238       0.06265322 </v>
    </varray>
   </crystal>
   <varray name="positions" >
    <v>       0.00112662       0.25002514       0.13243284 </v>
    <v>       0.99899866       0.24860017       0.62471559 </v>
    <v>       0.99760970       0.75361169       0.12892118 </v>
    <v>       0.99967915       0.75008143       0.62559753 </v>
    <v>       0.49499920       0.25283825       0.13345045 </v>
    <v>       0.50412885       0.24632051       0.62598905 </v>
    <v>       0.49760380       0.75188434       0.12936954 </v>
    <v>       0.50033292       0.75200886       0.62595438 </v>
    <v>       0.00306649       0.24926519       0.37547913 </v>
    <v>       0.99628202       0.24989324       0.86806500 </v>
    <v>       0.00010780       0.75000369       0.37433303 </v>
    <v>       0.99779496       0.75340541       0.87113869 </v>
    <v>       0.49873192       0.25157973       0.37454225 </v>
    <v>       0.50086781       0.24782663       0.86680259 </v>
    <v>       0.49976631       0.74798784       0.37388264 </v>
    <v>       0.49782651       0.75634415       0.87021701 </v>
    <v>       0.25010143       0.99724782       0.13230530 </v>
    <v>       0.25283823       0.00034855       0.62559451 </v>
    <v>       0.25286459       0.50241536       0.13706156 </v>
    <v>       0.25046051       0.49901698       0.62376413 </v>
    <v>       0.74944996       0.99505626       0.13160908 </v>
    <v>       0.74712738       0.00351003       0.62713018 </v>
    <v>       0.74670883       0.50522744       0.13541795 </v>
    <v>       0.75016837       0.49692022       0.62457992 </v>
    <v>       0.25041671       0.00269388       0.37434001 </v>
    <v>       0.25220847       0.99494858       0.86746975 </v>
    <v>       0.25349179       0.49603101       0.37386592 </v>
    <v>       0.24938628       0.50583148       0.86496890 </v>
    <v>       0.74983641       0.00074492       0.37516775 </v>
    <v>       0.74669059       0.99817119       0.86646149 </v>
    <v>       0.74790918       0.49932288       0.37531358 </v>
    <v>       0.74962261       0.50297269       0.86454056 </v>
    <v>       0.99578172       0.99819619       0.99988317 </v>
    <v>       0.00019280       0.00012171       0.50029813 </v>
    <v>       0.01471153       0.50845232       0.00036724 </v>
    <v>       0.00083487       0.50072849       0.49979383 </v>
    <v>       0.49611698       0.99862551       0.99929145 </v>
    <v>       0.50021651       0.00017747       0.50101216 </v>
    <v>       0.51437551       0.50904107       0.99951720 </v>
    <v>       0.50083216       0.50062129       0.49883602 </v>
    <v>       0.24034775       0.23454133       0.99954372 </v>
    <v>       0.24989632       0.24932964       0.49900323 </v>
    <v>       0.25182751       0.75481539       0.00020114 </v>
    <v>       0.24939967       0.74947705       0.49967342 </v>
    <v>       0.74053965       0.23545937       0.00054134 </v>
    <v>       0.74974605       0.24937561       0.50104560 </v>
    <v>       0.75131472       0.75485163       0.99968733 </v>
    <v>       0.74941925       0.74964776       0.50021003 </v>
    <v>       0.25199635       0.24998113       0.74869883 </v>
    <v>       0.25053398       0.74910646       0.25078894 </v>
    <v>       0.25033850       0.75116852       0.74877824 </v>
    <v>       0.74965888       0.25276351       0.25115698 </v>
    <v>       0.74803797       0.74935699       0.25095776 </v>
    <v>       0.74810577       0.75133231       0.74920847 </v>
    <v>       0.00092256       0.00205942       0.25041620 </v>
    <v>       0.99866616       0.00193907       0.74984319 </v>
    <v>       0.99995473       0.49807839       0.25147302 </v>
    <v>       0.99791183       0.49786062       0.74852244 </v>
    <v>       0.49850207       0.00224320       0.25036436 </v>
    <v>       0.50024261       0.49804979       0.74804325 </v>
    <v>       0.25188072       0.25240236       0.25125503 </v>
    <v>       0.75023303       0.25072874       0.74901775 </v>
    <v>       0.50103655       0.00198856       0.74956633 </v>
    <v>       0.49800011       0.49830336       0.25172426 </v>
    <v>       0.11454813       0.13517015       0.24498788 </v>
    <v>       0.11543454       0.13727916       0.75642688 </v>
    <v>       0.11164462       0.63551892       0.24197379 </v>
    <v>       0.11176255       0.63524772       0.75754948 </v>
    <v>       0.61641292       0.13671132       0.24338555 </v>
    <v>       0.61713400       0.13671723       0.75530286 </v>
    <v>       0.61412830       0.63621093       0.24291371 </v>
    <v>       0.61201980       0.63515859       0.75835166 </v>
    <v>       0.38610748       0.36420055       0.25598414 </v>
    <v>       0.38671433       0.36354747       0.74340416 </v>
    <v>       0.38575187       0.86418575       0.25046754 </v>
    <v>       0.38340532       0.86263659       0.74907606 </v>
    <v>       0.88755756       0.36281884       0.25617625 </v>
    <v>       0.88824105       0.36472240       0.74448121 </v>
    <v>       0.88602352       0.86360884       0.25042965 </v>
    <v>       0.88615899       0.86346587       0.74973026 </v>
    <v>       0.36471195       0.11312077       0.24712228 </v>
    <v>       0.36194592       0.11575162       0.75295246 </v>
    <v>       0.36226566       0.61603104       0.25052519 </v>
    <v>       0.36223721       0.61306056       0.74993439 </v>
    <v>       0.86321700       0.11355466       0.24682241 </v>
    <v>       0.86604796       0.11354220       0.75294592 </v>
    <v>       0.86321287       0.61297069       0.24991168 </v>
    <v>       0.86262341       0.61336973       0.74994116 </v>
    <v>       0.13398673       0.38813469       0.24782250 </v>
    <v>       0.13689867       0.38806204       0.75200538 </v>
    <v>       0.13579399       0.88576221       0.25005619 </v>
    <v>       0.13523105       0.88618974       0.74988629 </v>
    <v>       0.63828746       0.38624694       0.24827166 </v>
    <v>       0.63558061       0.38889247       0.75188843 </v>
    <v>       0.63637938       0.88628694       0.25038158 </v>
    <v>       0.63639400       0.88356451       0.74969994 </v>
    <v>       0.36001104       0.39039413       0.50115249 </v>
    <v>       0.35399281       0.89560311       0.00064128 </v>
    <v>       0.35841592       0.89013770       0.49897830 </v>
    <v>       0.86062563       0.39096961       0.49866791 </v>
    <v>       0.85449902       0.89545444       0.99946821 </v>
    <v>       0.85891971       0.89060892       0.50081088 </v>
    <v>       0.14873871       0.09826967       0.99968948 </v>
    <v>       0.14027467       0.10803393       0.50090829 </v>
    <v>       0.14887019       0.60257954       0.00115975 </v>
    <v>       0.14140624       0.60902822       0.49931101 </v>
    <v>       0.64859099       0.09933697       0.99991154 </v>
    <v>       0.64076563       0.10884738       0.49940673 </v>
    <v>       0.64859410       0.60384144       0.99952760 </v>
    <v>       0.64209098       0.60950405       0.50086311 </v>
    <v>       0.10324309       0.35311683       0.99874196 </v>
    <v>       0.10903696       0.35989375       0.50109803 </v>
    <v>       0.10389782       0.85172972       0.00008377 </v>
    <v>       0.10788963       0.85890779       0.50004162 </v>
    <v>       0.60665498       0.35449464       0.00045692 </v>
    <v>       0.60991047       0.35986525       0.50003905 </v>
    <v>       0.60469305       0.85214934       0.00060828 </v>
    <v>       0.60886693       0.85868355       0.49903823 </v>
    <v>       0.39823131       0.15027116       0.99977257 </v>
    <v>       0.39019274       0.14077813       0.50036004 </v>
    <v>       0.39164094       0.63749859       0.99846600 </v>
    <v>       0.39026094       0.64157757       0.50102907 </v>
    <v>       0.89893970       0.14900895       0.00122797 </v>
    <v>       0.89099695       0.14065251       0.49901253 </v>
    <v>       0.89173380       0.63594443       0.99998577 </v>
    <v>       0.89118656       0.64128064       0.49994293 </v>
    <v>       0.99985255       0.99638361       0.12339056 </v>
    <v>       0.00074688       0.00323387       0.62585808 </v>
    <v>       0.98314365       0.48601444       0.11977426 </v>
    <v>       0.00346289       0.50469152       0.62495276 </v>
    <v>       0.50012953       0.99683475       0.12365203 </v>
    <v>       0.50016722       0.00155216       0.62344990 </v>
    <v>       0.48368910       0.48725405       0.11726480 </v>
    <v>       0.50391541       0.50474951       0.62579668 </v>
    <v>       0.00038850       0.00236244       0.37463663 </v>
    <v>       0.00003500       0.99714245       0.87664438 </v>
    <v>       0.00376509       0.50421941       0.37447429 </v>
    <v>       0.98548299       0.48816972       0.88010244 </v>
    <v>       0.50115027       0.00371608       0.37389747 </v>
    <v>       0.49911878       0.99641271       0.87808903 </v>
    <v>       0.50358864       0.50457219       0.37729400 </v>
    <v>       0.48342456       0.48497461       0.87980227 </v>
    <v>       0.24559597       0.24757055       0.37713929 </v>
    <v>       0.26368407       0.26839229       0.88049170 </v>
    <v>       0.24596956       0.74810018       0.37445397 </v>
    <v>       0.25096602       0.75168236       0.87646419 </v>
    <v>       0.74688695       0.24692032       0.37390404 </v>
    <v>       0.76598645       0.26960523       0.88389042 </v>
    <v>       0.74795051       0.74758562       0.37484191 </v>
    <v>       0.75272661       0.75172475       0.87623669 </v>
    <v>       0.26211297       0.26841888       0.11637923 </v>
    <v>       0.24535195       0.24734617       0.62609399 </v>
    <v>       0.25235609       0.75204914       0.12381882 </v>
    <v>       0.24512899       0.74757334       0.62504758 </v>
    <v>       0.76481279       0.26782542       0.11964372 </v>
    <v>       0.74897904       0.24852130       0.62293157 </v>
    <v>       0.75328092       0.75209014       0.12355891 </v>
    <v>       0.74734082       0.74714785       0.62561291 </v>
   </varray>
  </structure>
  <varray name="forces" >
   <v>      -0.01692871       0.00984898      -0.02162182 </v>
   <v>      -0.00909139       0.00772546      -0.00720674 </v>
   <v>      -0.00804824       0.01015543      -0.00631386 </v>
   <v>       0.00401622      -0.00711035      -0.00206307 </v>
   <v>      -0.01704881       0.01658386      -0.02249265 </v>
   <v>       0.00733821      -0.00421238       0.00233390 </v>
   <v>       0.00274687       0.00040281      -0.00086328 </v>
   <v>      -0.00788542       0.00449705      -0.01111166 </v>
   <v>       0.00962332       0.00614983       0.00375568 </v>
   <v>      -0.02266791       0.00478708       0.02678486 </v>
   <v>      -0.00793571      -0.00331844       0.00196748 </v>
   <v>      -0.00302631       0.00093246       0.00208570 </v>
   <v>      -0.00876980       0.01146561      -0.00228341 </v>
   <v>      -0.01870218       0.00163569       0.02073264 </v>
   <v>      -0.00046251      -0.01428574       0.00342314 </v>
   <v>      -0.00250344       0.01440392       0.01056459 </v>
   <v>      -0.00808644      -0.00293236      -0.00010096 </v>
   <v>       0.01272792       0.00567309      -0.00342261 </v>
   <v>       0.01391057      -0.01127862      -0.00560829 </v>
   <v>       0.00076636       0.00125285      -0.01474568 </v>
   <v>      -0.01012270       0.00065920      -0.00946810 </v>
   <v>      -0.00710914       0.00937596       0.01243290 </v>
   <v>       0.00761033       0.00931870      -0.00862817 </v>
   <v>      -0.00405766      -0.00971950      -0.01314572 </v>
   <v>      -0.00254248       0.01693400       0.00092607 </v>
   <v>       0.00071427      -0.00790909       0.00509926 </v>
   <v>       0.00840011      -0.00223633       0.00235334 </v>
   <v>       0.00983235      -0.00986181       0.02202680 </v>
   <v>      -0.00299651       0.00110976       0.01289631 </v>
   <v>      -0.00747520       0.00320572      -0.00199634 </v>
   <v>      -0.01391814       0.00195620       0.00354725 </v>
   <v>       0.01829401      -0.00758501       0.01997743 </v>
   <v>      -0.03938504      -0.00891439      -0.00098183 </v>
   <v>      -0.00199847      -0.00307256      -0.00088983 </v>
   <v>       0.02411503      -0.00385576       0.00276626 </v>
   <v>      -0.00168238       0.00995464      -0.00600964 </v>
   <v>      -0.03386535       0.00118376      -0.01735269 </v>
   <v>      -0.00911398      -0.00634738       0.01364673 </v>
   <v>       0.01831798      -0.00240106       0.00618642 </v>
   <v>      -0.00085583       0.00802844       0.00347044 </v>
   <v>      -0.00068680       0.04863305      -0.00500364 </v>
   <v>       0.02345162      -0.00713670      -0.00254785 </v>
   <v>       0.01924982      -0.02062172      -0.00446118 </v>
   <v>       0.01194622      -0.00300001       0.00167801 </v>
   <v>      -0.00295616       0.03503390      -0.00226382 </v>
   <v>       0.00718378       0.00193352       0.00740984 </v>
   <v>       0.04513986      -0.02160160       0.00665132 </v>
   <v>      -0.00460818      -0.01190166       0.00292045 </v>
   <v>       0.00572498      -0.01446469       0.00241728 </v>
   <v>      -0.01352072      -0.00746038       0.01126889 </v>
   <v>      -0.01291618       0.04581672      -0.01606154 </v>
   <v>      -0.01478252       0.01608281      -0.00022051 </v>
   <v>      -0.00071940      -0.01079900       0.01186925 </v>
   <v>       0.01615470       0.02369455      -0.01499869 </v>
   <v>       0.02553464      -0.02614230       0.00054813 </v>
   <v>      -0.02171811      -0.01915222      -0.01047834 </v>
   <v>       0.00983674       0.00770796      -0.01210436 </v>
   <v>      -0.02280316       0.01597503      -0.00840207 </v>
   <v>      -0.01183806      -0.01617908      -0.00149073 </v>
   <v>       0.02521835      -0.01070806      -0.01171871 </v>
   <v>      -0.00956159       0.00507847       0.00743630 </v>
   <v>       0.00318403      -0.00329529       0.00242677 </v>
   <v>       0.00786613      -0.00653773      -0.01479037 </v>
   <v>      -0.00463186       0.00718815       0.00820452 </v>
   <v>       0.02398284      -0.00862585      -0.00592814 </v>
   <v>       0.02902972       0.00596737       0.00946114 </v>
   <v>       0.01190613      -0.01483195       0.00834326 </v>
   <v>       0.01138516      -0.02309049      -0.00984721 </v>
   <v>       0.01268593      -0.00223475      -0.01244460 </v>
   <v>       0.00586184      -0.02050484       0.00524510 </v>
   <v>       0.00846392      -0.01075539       0.00143775 </v>
   <v>      -0.01379184      -0.02254107      -0.00354025 </v>
   <v>      -0.01102439       0.01170348      -0.00686494 </v>
   <v>      -0.00622084       0.01701934       0.01038136 </v>
   <v>      -0.00050004      -0.00003932      -0.00106178 </v>
   <v>      -0.00039177       0.01270395       0.00641268 </v>
   <v>      -0.01441115       0.00140457      -0.00650529 </v>
   <v>      -0.00140894       0.02374663       0.01255620 </v>
   <v>      -0.01108204       0.01179588      -0.00397227 </v>
   <v>       0.00070222       0.01107137      -0.00407461 </v>
   <v>       0.01655112       0.01451033      -0.00714536 </v>
   <v>      -0.00799072       0.03167875      -0.00638740 </v>
   <v>       0.01115143       0.00273095       0.01036156 </v>
   <v>       0.01791095      -0.00656694      -0.00665227 </v>
   <v>      -0.00021854       0.03401959       0.00055368 </v>
   <v>       0.01370139       0.01095482       0.00406357 </v>
   <v>       0.00434776       0.00819181       0.00843197 </v>
   <v>       0.02379921      -0.00863037      -0.00491730 </v>
   <v>      -0.01053680      -0.00759577       0.01084118 </v>
   <v>       0.00149341      -0.01612318      -0.01373881 </v>
   <v>      -0.01332132      -0.01023342       0.00671729 </v>
   <v>      -0.00175408      -0.02125885      -0.00838767 </v>
   <v>       0.00265549      -0.03048202       0.00599559 </v>
   <v>      -0.03437546       0.01435159      -0.00844893 </v>
   <v>      -0.00810534      -0.00312675       0.00155229 </v>
   <v>      -0.01100255      -0.01228012       0.00159645 </v>
   <v>      -0.00744970       0.00269700       0.00407478 </v>
   <v>      -0.00303659      -0.01911470      -0.00084188 </v>
   <v>       0.00082953      -0.00211416      -0.00656654 </v>
   <v>      -0.00108119       0.00626430      -0.00596583 </v>
   <v>       0.01084252      -0.00707130       0.00442808 </v>
   <v>       0.00220676       0.00285047       0.00047336 </v>
   <v>      -0.05755574      -0.05060486       0.00089893 </v>
   <v>       0.00377436      -0.00163085      -0.00448777 </v>
   <v>       0.04409397       0.01663194       0.00093974 </v>
   <v>       0.00142697      -0.02198043      -0.00122709 </v>
   <v>      -0.04746945      -0.05366035      -0.00045640 </v>
   <v>       0.00818053      -0.00448689      -0.00076939 </v>
   <v>       0.03460846       0.02408934       0.00058332 </v>
   <v>       0.01068989       0.00069340       0.00394825 </v>
   <v>      -0.00192192      -0.00426575       0.00418859 </v>
   <v>      -0.01037270       0.00393238      -0.00410861 </v>
   <v>      -0.01713893       0.00452024       0.00385853 </v>
   <v>       0.00280519       0.00196692      -0.00192517 </v>
   <v>      -0.00688265      -0.00337323       0.00346332 </v>
   <v>       0.00141047      -0.01404996       0.00225809 </v>
   <v>      -0.02147766      -0.00467820      -0.00551742 </v>
   <v>       0.00396907      -0.00066481      -0.00460842 </v>
   <v>       0.00007795      -0.01014845       0.00511555 </v>
   <v>       0.00413853       0.00333191      -0.00186590 </v>
   <v>       0.00386081       0.02238534       0.00318551 </v>
   <v>       0.00992355       0.00488155      -0.00106267 </v>
   <v>       0.00326668      -0.02402428      -0.00980095 </v>
   <v>       0.00074829      -0.00234016      -0.00365803 </v>
   <v>       0.00412108       0.02581940      -0.00254224 </v>
   <v>       0.00709011      -0.00584940      -0.00044733 </v>
   <v>      -0.01164730       0.00280030      -0.02156687 </v>
   <v>       0.00715572      -0.01189309      -0.00568977 </v>
   <v>       0.00683359      -0.00206017       0.01400415 </v>
   <v>      -0.00846963      -0.01095353       0.00943444 </v>
   <v>      -0.01256468      -0.01301800       0.00008599 </v>
   <v>      -0.00243446      -0.01335829      -0.00358805 </v>
   <v>       0.00049147       0.01548375       0.00441356 </v>
   <v>      -0.00650918       0.00169875       0.02467911 </v>
   <v>      -0.01132323      -0.01260498       0.00492194 </v>
   <v>      -0.00536723      -0.01177773       0.02303401 </v>
   <v>      -0.00482739      -0.00009710       0.00372313 </v>
   <v>       0.00624929       0.00580074      -0.01454998 </v>
   <v>       0.00064597      -0.01275716      -0.01268264 </v>
   <v>      -0.00735008       0.00047975       0.02332785 </v>
   <v>      -0.01452801      -0.00922858      -0.01323765 </v>
   <v>       0.00199778       0.00038104      -0.01914617 </v>
   <v>       0.01365327       0.01515152       0.00505774 </v>
   <v>      -0.00215222       0.00672141      -0.01230389 </v>
   <v>       0.00367500       0.00295648       0.00066803 </v>
   <v>      -0.00216484       0.00424086      -0.00435763 </v>
   <v>       0.01107577       0.00442772      -0.01961247 </v>
   <v>       0.00031368       0.00518491       0.00568618 </v>
   <v>       0.01505122       0.00868861       0.00144242 </v>
   <v>       0.00135379       0.00838509       0.00687338 </v>
   <v>      -0.00716051      -0.00117281       0.00432033 </v>
   <v>      -0.00219849       0.01079414       0.02313793 </v>
   <v>       0.00408334       0.01695912       0.00023292 </v>
   <v>       0.01127180      -0.00308095       0.00983779 </v>
   <v>       0.01330289       0.00126110       0.01538202 </v>
   <v>       0.01714606       0.01508625       0.00306642 </v>
   <v>      -0.00722024       0.00836119      -0.00706937 </v>
   <v>       0.00656402       0.00386050      -0.00408322 </v>
  </varray>
  <varray name="stress" >
   <v>       0.47359547       0.23273474       0.00695521 </v>
   <v>       0.23273398       0.47631233       0.00328980 </v>
   <v>       0.00695470       0.00328968       0.12424117 </v>
  </varray>
  <energy>
   <i name="e_fr_energy">  -1151.89284000 </i>
   <i name="e_wo_entrp">  -1151.89284000 </i>
   <i name="e_0_energy">     -0.00000000 </i>
  </energy>
  <time name="totalsc"> 1967.71 1969.96</time>
 </calculation>
 <calculation>
  <scstep>
   <time name="dav">  562.68  562.72</time>
   <time name="total">  569.89  570.01</time>
   <energy>
    <i name="alphaZ">   5619.12440743 </i>
    <i name="ewald"> -60779.80356692 </i>
    <i name="hartreedc"> -15685.26914865 </i>
    <i name="XCdc">   2851.59573707 </i>
    <i name="pawpsdc"> 112183.60728080 </i>
    <i name="pawaedc">-110931.32973254 </i>
    <i name="eentropy">     -0.00000000 </i>
    <i name="bandstr">  -7059.90289577 </i>
    <i name="atom">  72650.08363186 </i>
    <i name="e_fr_energy">  -1151.89428672 </i>
    <i name="e_wo_entrp">  -1151.89428672 </i>
    <i name="e_0_energy">  -1151.89428672 </i>
   </energy>
  </scstep>
  <scstep>
   <time name="diag">   65.00   65.00</time>
   <time name="diis">  104.69  104.70</time>
   <time name="orth">   33.39   33.39</time>
   <time name="total">  210.32  210.40</time>
   <energy>
    <i name="e_fr_energy">  -1151.89500681 </i>
    <i name="e_wo_entrp">  -1151.89500681 </i>
    <i name="e_0_energy">  -1151.89500681 </i>
   </energy>
  </scstep>
  <scstep>
   <time name="diag">   64.91   64.91</time>
   <time name="diis">  106.10  106.11</time>
   <time name="orth">   33.45   33.45</time>
   <time name="total">  211.72  211.77</time>
   <energy>
    <i name="e_fr_energy">  -1151.89453744 </i>
    <i name="e_wo_entrp">  -1151.89453744 </i>
    <i name="e_0_energy">  -1151.89453744 </i>
   </energy>
  </scstep>
  <scstep>
   <time name="diag">   64.88   64.88</time>
   <time name="diis">  100.17  100.17</time>
   <time name="orth">   33.37   33.37</time>
   <time name="total">  205.66  205.74</time>
   <energy>
    <i name="e_fr_energy">  -1151.89436835 </i>
    <i name="e_wo_entrp">  -1151.89436835 </i>
    <i name="e_0_energy">  -1151.89436835 </i>
   </energy>
  </scstep>
  <scstep>
   <time name="diag">   64.95   64.95</time>
   <time name="diis">   71.62   71.63</time>
   <time name="orth">   33.37   33.38</time>
   <time name="total">  177.20  177.25</time>
   <energy>
    <i name="e_fr_energy">  -1151.89427939 </i>
    <i name="e_wo_entrp">  -1151.89427939 </i>
    <i name="e_0_energy">  -1151.89427939 </i>
   </energy>
  </scstep>
  <scstep>
   <time name="diag">   64.89   64.90</time>
   <time name="diis">   63.63   63.63</time>
   <time name="orth">   33.39   33.39</time>
   <time name="total">  169.16  169.22</time>
   <energy>
    <i name="e_fr_energy">  -1151.89427284 </i>
    <i name="e_wo_entrp">  -1151.89427284 </i>
    <i name="e_0_energy">  -1151.89427284 </i>
   </energy>
  </scstep>
  <scstep>
   <time name="diag">   64.85   64.85</time>
   <time name="diis">   63.26   63.26</time>
   <time name="orth">   33.39   33.39</time>
   <time name="total">  168.68  168.78</time>
   <energy>
    <i name="e_fr_energy">  -1151.89426998 </i>
    <i name="e_wo_entrp">  -1151.89426998 </i>
    <i name="e_0_energy">  -1151.89426998 </i>
   </energy>
  </scstep>
  <scstep>
   <time name="diag">   64.86   64.86</time>
   <time name="diis">   61.40   61.40</time>
   <time name="orth">   33.41   33.41</time>
   <time name="total">  160.71  160.76</time>
   <energy>
    <i name="alphaZ">   5619.12440743 </i>
    <i name="ewald"> -60779.80356692 </i>
    <i name="hartreedc"> -15690.90976045 </i>
    <i name="XCdc">   2851.98145811 </i>
    <i name="pawpsdc"> 112086.87685990 </i>
    <i name="pawaedc">-110834.55418146 </i>
    <i name="eentropy">     -0.00000000 </i>
    <i name="bandstr">  -7054.69311618 </i>
    <i name="atom">  72650.08363186 </i>
    <i name="e_fr_energy">  -1151.89426770 </i>
    <i name="e_wo_entrp">  -1151.89426770 </i>
    <i name="e_0_energy">  -1151.89426770 </i>
   </energy>
  </scstep>
  <structure>
   <crystal>
    <varray name="basis" >
     <v>      11.22502275       0.01831363      -0.00019341 </v>
     <v>       0.01830097      11.22027108       0.00043926 </v>
     <v>      -0.00026718       0.00064355      15.96163182 </v>
    </varray>
    <i name="volume">   2010.32702815 </i>
    <varray name="rec_basis" >
     <v>       0.08908692      -0.00014531       0.00000150 </v>
     <v>      -0.00014541       0.08912464      -0.00000360 </v>
     <v>       0.00000108      -0.00000245       0.06265024 </v>
    </varray>
   </crystal>
   <varray name="positions" >
    <v>       0.00105379       0.25006761       0.13236748 </v>
    <v>       0.99895953       0.24863346       0.62469380 </v>
    <v>       0.99757504       0.75365541       0.12890210 </v>
    <v>       0.99969646       0.75005083       0.62559130 </v>
    <v>       0.49492580       0.25290968       0.13338246 </v>
    <v>       0.50416042       0.24630235       0.62599610 </v>
    <v>       0.49761560       0.75188605       0.12936693 </v>
    <v>       0.50029899       0.75202825       0.62592080 </v>
    <v>       0.00310781       0.24929158       0.37549048 </v>
    <v>       0.99618455       0.24991398       0.86814596 </v>
    <v>       0.00007371       0.74998948       0.37433898 </v>
    <v>       0.99778194       0.75340943       0.87114499 </v>
    <v>       0.49869415       0.25162910       0.37453534 </v>
    <v>       0.50078741       0.24783378       0.86686526 </v>
    <v>       0.49976442       0.74792641       0.37389299 </v>
    <v>       0.49781565       0.75640611       0.87024894 </v>
    <v>       0.25006669       0.99723526       0.13230499 </v>
    <v>       0.25289291       0.00037286       0.62558417 </v>
    <v>       0.25292446       0.50236677       0.13704461 </v>
    <v>       0.25046379       0.49902236       0.62371956 </v>
    <v>       0.74940644       0.99505916       0.13158046 </v>
    <v>       0.74709676       0.00355040       0.62716776 </v>
    <v>       0.74674148       0.50526746       0.13539187 </v>
    <v>       0.75015099       0.49687845       0.62454019 </v>
    <v>       0.25040567       0.00276672       0.37434281 </v>
    <v>       0.25221159       0.99491457       0.86748516 </v>
    <v>       0.25352791       0.49602133       0.37387304 </v>
    <v>       0.24942861       0.50578900       0.86503548 </v>
    <v>       0.74982353       0.00074971       0.37520673 </v>
    <v>       0.74665844       0.99818503       0.86645546 </v>
    <v>       0.74784934       0.49933139       0.37532430 </v>
    <v>       0.74970130       0.50293995       0.86460095 </v>
    <v>       0.99561248       0.99815811       0.99988020 </v>
    <v>       0.00018423       0.00010851       0.50029544 </v>
    <v>       0.01481521       0.50843558       0.00037560 </v>
    <v>       0.00082757       0.50077131       0.49977566 </v>
    <v>       0.49597140       0.99863082       0.99923900 </v>
    <v>       0.50017738       0.00015024       0.50105341 </v>
    <v>       0.51445427       0.50903062       0.99953590 </v>
    <v>       0.50082843       0.50065582       0.49884651 </v>
    <v>       0.24034447       0.23475047       0.99952859 </v>
    <v>       0.24999718       0.24929879       0.49899553 </v>
    <v>       0.25191040       0.75472658       0.00018766 </v>
    <v>       0.24945104       0.74946407       0.49967850 </v>
    <v>       0.74052671       0.23561005       0.00053449 </v>
    <v>       0.74977692       0.24938388       0.50106800 </v>
    <v>       0.75150890       0.75475844       0.99970744 </v>
    <v>       0.74939952       0.74959661       0.50021886 </v>
    <v>       0.25202106       0.24991889       0.74870614 </v>
    <v>       0.25047591       0.74907447       0.25082300 </v>
    <v>       0.25028267       0.75136564       0.74872969 </v>
    <v>       0.74959523       0.25283277       0.25115632 </v>
    <v>       0.74803495       0.74931055       0.25099364 </v>
    <v>       0.74817506       0.75143410       0.74916314 </v>
    <v>       0.00103250       0.00194683       0.25041786 </v>
    <v>       0.99857293       0.00185685       0.74981152 </v>
    <v>       0.99999696       0.49811147       0.25143644 </v>
    <v>       0.99781370       0.49792947       0.74849704 </v>
    <v>       0.49845129       0.00217370       0.25035985 </v>
    <v>       0.50035108       0.49800357       0.74800783 </v>
    <v>       0.25183959       0.25242426       0.25127751 </v>
    <v>       0.75024674       0.25071455       0.74902508 </v>
    <v>       0.50107040       0.00196039       0.74952162 </v>
    <v>       0.49798015       0.49833430       0.25174905 </v>
    <v>       0.11465128       0.13513289       0.24496997 </v>
    <v>       0.11555929       0.13730463       0.75645548 </v>
    <v>       0.11169590       0.63545506       0.24199901 </v>
    <v>       0.11181164       0.63514835       0.75751972 </v>
    <v>       0.61646747       0.13670163       0.24334794 </v>
    <v>       0.61715934       0.13662901       0.75531872 </v>
    <v>       0.61416475       0.63616462       0.24291806 </v>
    <v>       0.61196066       0.63506175       0.75834096 </v>
    <v>       0.38606002       0.36425095       0.25596339 </v>
    <v>       0.38668747       0.36362070       0.74343553 </v>
    <v>       0.38574972       0.86418559       0.25046433 </v>
    <v>       0.38340355       0.86269122       0.74909544 </v>
    <v>       0.88749561       0.36282498       0.25615659 </v>
    <v>       0.88823484       0.36482453       0.74451916 </v>
    <v>       0.88597580       0.86365964       0.25041765 </v>
    <v>       0.88616194       0.86351347       0.74971794 </v>
    <v>       0.36478300       0.11318306       0.24710068 </v>
    <v>       0.36191136       0.11588790       0.75293315 </v>
    <v>       0.36231358       0.61604270       0.25055651 </v>
    <v>       0.36231424       0.61303221       0.74991428 </v>
    <v>       0.86321583       0.11370096       0.24682408 </v>
    <v>       0.86610678       0.11358922       0.75295820 </v>
    <v>       0.86323150       0.61300589       0.24993716 </v>
    <v>       0.86272577       0.61333246       0.74992630 </v>
    <v>       0.13394149       0.38810209       0.24785527 </v>
    <v>       0.13690519       0.38799270       0.75196386 </v>
    <v>       0.13573680       0.88571829       0.25007649 </v>
    <v>       0.13522365       0.88609834       0.74986094 </v>
    <v>       0.63829907       0.38611584       0.24828979 </v>
    <v>       0.63543275       0.38895442       0.75186289 </v>
    <v>       0.63634456       0.88627355       0.25038628 </v>
    <v>       0.63634678       0.88351177       0.74970476 </v>
    <v>       0.35997900       0.39040578       0.50116480 </v>
    <v>       0.35397989       0.89552093       0.00063873 </v>
    <v>       0.35841950       0.89012861       0.49895845 </v>
    <v>       0.86062094       0.39099656       0.49864988 </v>
    <v>       0.85454567       0.89542396       0.99948159 </v>
    <v>       0.85892918       0.89062116       0.50081231 </v>
    <v>       0.14849163       0.09805243       0.99969220 </v>
    <v>       0.14029091       0.10802689       0.50089473 </v>
    <v>       0.14905963       0.60265077       0.00116259 </v>
    <v>       0.14141252       0.60893369       0.49930731 </v>
    <v>       0.64838729       0.09910652       0.99991016 </v>
    <v>       0.64080082       0.10882803       0.49940441 </v>
    <v>       0.64874270       0.60394481       0.99952936 </v>
    <v>       0.64213693       0.60950696       0.50087505 </v>
    <v>       0.10323486       0.35309849       0.99875462 </v>
    <v>       0.10899234       0.35991073       0.50108561 </v>
    <v>       0.10382411       0.85174928       0.00009544 </v>
    <v>       0.10790167       0.85891623       0.50003581 </v>
    <v>       0.60662542       0.35448018       0.00046739 </v>
    <v>       0.60991663       0.35980482       0.50004587 </v>
    <v>       0.60460075       0.85212937       0.00059160 </v>
    <v>       0.60888399       0.85868067       0.49902430 </v>
    <v>       0.39823171       0.15022751       0.99978803 </v>
    <v>       0.39021051       0.14079243       0.50035440 </v>
    <v>       0.39165739       0.63759483       0.99847563 </v>
    <v>       0.39030357       0.64159849       0.50102586 </v>
    <v>       0.89895390       0.14890562       0.00119835 </v>
    <v>       0.89100018       0.14064244       0.49900148 </v>
    <v>       0.89175134       0.63605544       0.99997809 </v>
    <v>       0.89121708       0.64125544       0.49994158 </v>
    <v>       0.99980246       0.99639573       0.12332537 </v>
    <v>       0.00077771       0.00318268       0.62584089 </v>
    <v>       0.98317304       0.48600553       0.11981659 </v>
    <v>       0.00342656       0.50464447       0.62498127 </v>
    <v>       0.50007561       0.99677885       0.12365230 </v>
    <v>       0.50015685       0.00149473       0.62343906 </v>
    <v>       0.48369111       0.48732063       0.11727814 </v>
    <v>       0.50388742       0.50475686       0.62587128 </v>
    <v>       0.00033992       0.00230831       0.37465151 </v>
    <v>       0.00001201       0.99709183       0.87671401 </v>
    <v>       0.00374434       0.50421902       0.37448554 </v>
    <v>       0.98550981       0.48819463       0.88005846 </v>
    <v>       0.50115313       0.00366122       0.37385914 </v>
    <v>       0.49908719       0.99641482       0.87815954 </v>
    <v>       0.50352625       0.50453261       0.37725399 </v>
    <v>       0.48343315       0.48497624       0.87974440 </v>
    <v>       0.24565456       0.24763561       0.37715458 </v>
    <v>       0.26367478       0.26842121       0.88045451 </v>
    <v>       0.24598533       0.74811287       0.37445599 </v>
    <v>       0.25095668       0.75170061       0.87645102 </v>
    <v>       0.74693453       0.24693929       0.37384476 </v>
    <v>       0.76598777       0.26962752       0.88390760 </v>
    <v>       0.74801515       0.74762289       0.37484627 </v>
    <v>       0.75273238       0.75176080       0.87625747 </v>
    <v>       0.26208220       0.26841388       0.11639229 </v>
    <v>       0.24534243       0.24739260       0.62616392 </v>
    <v>       0.25237353       0.75212204       0.12381953 </v>
    <v>       0.24517746       0.74756002       0.62507732 </v>
    <v>       0.76486996       0.26783075       0.11969022 </v>
    <v>       0.74905265       0.24858607       0.62294084 </v>
    <v>       0.75324983       0.75212614       0.12353754 </v>
    <v>       0.74736901       0.74716441       0.62560056 </v>
   </varray>
  </structure>
  <varray name="forces" >
   <v>      -0.01438947      -0.00985183      -0.00485689 </v>
   <v>       0.00237004       0.01130039       0.00048697 </v>
   <v>      -0.00373006       0.01880005      -0.00950679 </v>
   <v>       0.00517365      -0.01118767      -0.00470748 </v>
   <v>      -0.01040800      -0.00365754      -0.00795672 </v>
   <v>       0.00174694       0.00461635       0.00930171 </v>
   <v>       0.00585070       0.01265259      -0.00638273 </v>
   <v>      -0.00994158      -0.00452292       0.00236092 </v>
   <v>       0.00236895       0.00651736      -0.00340324 </v>
   <v>      -0.00784095      -0.00734756       0.01093405 </v>
   <v>      -0.00834520      -0.00276673       0.00505035 </v>
   <v>       0.00695868       0.00284928       0.00710047 </v>
   <v>      -0.00404769       0.00403570      -0.01019213 </v>
   <v>      -0.01758976      -0.00124312       0.00873860 </v>
   <v>      -0.00146165      -0.00542258      -0.00375107 </v>
   <v>       0.00047795       0.00662771       0.00770550 </v>
   <v>      -0.00654325      -0.00164868      -0.01149790 </v>
   <v>       0.00284945       0.01171901       0.00040668 </v>
   <v>       0.01525092      -0.00203721       0.00488268 </v>
   <v>      -0.00134720      -0.00383857       0.00672877 </v>
   <v>      -0.01613302       0.00390040      -0.00499667 </v>
   <v>      -0.00490733       0.00872305       0.00297617 </v>
   <v>       0.00603119       0.00640970       0.00499179 </v>
   <v>      -0.00393550      -0.00731543      -0.00392293 </v>
   <v>      -0.00059739       0.01684189      -0.00218160 </v>
   <v>      -0.00930758      -0.00406213       0.01461317 </v>
   <v>       0.00182063      -0.00340762       0.00081928 </v>
   <v>       0.01574878       0.00165102      -0.01282724 </v>
   <v>      -0.00279516       0.00693693       0.00243160 </v>
   <v>      -0.01269297      -0.00096088       0.01455727 </v>
   <v>      -0.00645600      -0.00439639      -0.00166209 </v>
   <v>       0.01059649       0.00181163       0.00488835 </v>
   <v>       0.02250586      -0.01097929       0.00079260 </v>
   <v>      -0.00277496      -0.00176192      -0.00510780 </v>
   <v>       0.02800053       0.03951967      -0.01426558 </v>
   <v>       0.01183674      -0.01617653      -0.00156387 </v>
   <v>       0.00024632      -0.02799855       0.01538011 </v>
   <v>       0.01181021      -0.00249851      -0.03123936 </v>
   <v>       0.02840146       0.03730776      -0.01866120 </v>
   <v>      -0.00042260      -0.00759680       0.01353852 </v>
   <v>      -0.05772906      -0.09405895      -0.01598571 </v>
   <v>      -0.02353661       0.01053495       0.02045116 </v>
   <v>      -0.00705444       0.02329109      -0.00487632 </v>
   <v>      -0.00758523      -0.00223032       0.00186339 </v>
   <v>      -0.04330714      -0.08505432       0.02546289 </v>
   <v>       0.00861873       0.00392881      -0.01939587 </v>
   <v>      -0.00500173       0.01536221      -0.00308093 </v>
   <v>       0.01713436       0.00959794      -0.00428215 </v>
   <v>      -0.01089331       0.02687215      -0.00139693 </v>
   <v>       0.01064504      -0.00026917      -0.00629591 </v>
   <v>       0.01947732      -0.03526937       0.01121680 </v>
   <v>       0.00577349      -0.02396314       0.00339757 </v>
   <v>      -0.00068709       0.00976376      -0.00463125 </v>
   <v>      -0.01244922      -0.01631655       0.00742748 </v>
   <v>      -0.02774280       0.01796240      -0.01657009 </v>
   <v>       0.01359918       0.01989562       0.00853798 </v>
   <v>      -0.00815779      -0.01346908       0.00685925 </v>
   <v>       0.02503577       0.00222630      -0.01178646 </v>
[...]
       <r>   -15.7670     0.0000    32.0000 </r>
       <r>   -15.6154     0.0000    32.0000 </r>
       <r>   -15.4637     0.0000    32.0000 </r>
       <r>   -15.3121     0.0109    32.0017 </r>
       <r>   -15.1604     9.0402    33.3726 </r>
       <r>   -15.0088    26.4574    37.3848 </r>
       <r>   -14.8572    47.5531    44.5961 </r>
       <r>   -14.7055    50.0642    52.1883 </r>
       <r>   -14.5539    31.1984    56.9194 </r>
       <r>   -14.4022    35.8993    62.3635 </r>
       <r>   -14.2506    37.2418    68.0111 </r>
       <r>   -14.0989    92.3468    82.0153 </r>
       <r>   -13.9473   140.0604   103.2552 </r>
       <r>   -13.7956   116.3765   120.9035 </r>
       <r>   -13.6440    20.6540   124.0356 </r>
       <r>   -13.4923    12.2316   125.8905 </r>
       <r>   -13.3407     0.7220   126.0000 </r>
       <r>   -13.1890     0.0000   126.0000 </r>
       <r>   -13.0374     0.0000   126.0000 </r>
       <r>   -12.8857     0.0000   126.0000 </r>
       <r>   -12.7341     0.0154   126.0023 </r>
       <r>   -12.5824    18.4595   128.8017 </r>
       <r>   -12.4308   126.4704   147.9807 </r>
       <r>   -12.2791   175.3847   174.5774 </r>
       <r>   -12.1275   139.6431   195.7540 </r>
       <r>   -11.9758   120.0127   213.9537 </r>
       <r>   -11.8242    48.3918   221.2922 </r>
       <r>   -11.6725     4.6673   222.0000 </r>
       <r>   -11.5209     0.0001   222.0000 </r>
       <r>   -11.3692     0.0000   222.0000 </r>
       <r>   -11.2176     0.0000   222.0000 </r>
       <r>   -11.0660     0.0000   222.0000 </r>
       <r>   -10.9143     0.0000   222.0000 </r>
       <r>   -10.7627     0.0000   222.0000 </r>
       <r>   -10.6110     0.0000   222.0000 </r>
       <r>   -10.4594     0.0000   222.0000 </r>
       <r>   -10.3077     0.0000   222.0000 </r>
       <r>   -10.1561     0.0000   222.0000 </r>
       <r>   -10.0044     0.0000   222.0000 </r>
       <r>    -9.8528     0.0000   222.0000 </r>
       <r>    -9.7011     0.0000   222.0000 </r>
       <r>    -9.5495     0.0000   222.0000 </r>
       <r>    -9.3978     0.0000   222.0000 </r>
       <r>    -9.2462     0.0000   222.0000 </r>
       <r>    -9.0945     0.0000   222.0000 </r>
       <r>    -8.9429     0.0000   222.0000 </r>
       <r>    -8.7912     0.0000   222.0000 </r>
       <r>    -8.6396     0.0000   222.0000 </r>
       <r>    -8.4879     0.0000   222.0000 </r>
       <r>    -8.3363     0.0000   222.0000 </r>
       <r>    -8.1846     0.0000   222.0000 </r>
       <r>    -8.0330     0.0000   222.0000 </r>
       <r>    -7.8813     0.0000   222.0000 </r>
       <r>    -7.7297     0.0000   222.0000 </r>
       <r>    -7.5780     0.0000   222.0000 </r>
       <r>    -7.4264     0.0000   222.0000 </r>
       <r>    -7.2748     0.0000   222.0000 </r>
       <r>    -7.1231     0.0000   222.0000 </r>
       <r>    -6.9715     0.0000   222.0000 </r>
       <r>    -6.8198     0.0000   222.0000 </r>
       <r>    -6.6682     0.0000   222.0000 </r>
       <r>    -6.5165     0.0000   222.0000 </r>
       <r>    -6.3649     0.0000   222.0000 </r>
       <r>    -6.2132     0.0000   222.0000 </r>
       <r>    -6.0616     0.0000   222.0000 </r>
       <r>    -5.9099     0.0000   222.0000 </r>
       <r>    -5.7583     0.0000   222.0000 </r>
       <r>    -5.6066     0.0000   222.0000 </r>
       <r>    -5.4550     0.0000   222.0000 </r>
       <r>    -5.3033     0.0000   222.0000 </r>
       <r>    -5.1517     0.0000   222.0000 </r>
       <r>    -5.0000     0.0000   222.0000 </r>
       <r>    -4.8484     0.0000   222.0000 </r>
       <r>    -4.6967     0.0000   222.0000 </r>
       <r>    -4.5451     0.0000   222.0000 </r>
       <r>    -4.3934     0.0000   222.0000 </r>
       <r>    -4.2418     0.0000   222.0000 </r>
       <r>    -4.0901     0.0000   222.0000 </r>
       <r>    -3.9385     0.0000   222.0000 </r>
       <r>    -3.7868     0.0000   222.0000 </r>
       <r>    -3.6352     0.0000   222.0000 </r>
       <r>    -3.4836     0.0000   222.0000 </r>
       <r>    -3.3319     0.0000   222.0000 </r>
       <r>    -3.1803     0.0000   222.0000 </r>
       <r>    -3.0286     0.0000   222.0000 </r>
       <r>    -2.8770     0.0000   222.0000 </r>
       <r>    -2.7253     0.0000   222.0000 </r>
       <r>    -2.5737     0.0000   222.0000 </r>
       <r>    -2.4220     0.0205   222.0031 </r>
       <r>    -2.2704     9.5035   223.4443 </r>
       <r>    -2.1187    19.0644   226.3354 </r>
       <r>    -1.9671    25.7932   230.2469 </r>
       <r>    -1.8154    43.2742   236.8093 </r>
       <r>    -1.6638    63.1121   246.3801 </r>
       <r>    -1.5121    55.2756   254.7626 </r>
       <r>    -1.3605    62.5241   264.2442 </r>
       <r>    -1.2088    70.7440   274.9724 </r>
       <r>    -1.0572    70.0299   285.5923 </r>
       <r>    -0.9055    77.9461   297.4126 </r>
       <r>    -0.7539    73.7586   308.5980 </r>
       <r>    -0.6022   101.4452   323.9820 </r>
       <r>    -0.4506   128.2647   343.4330 </r>
       <r>    -0.2989    76.4399   355.0250 </r>
       <r>    -0.1473    55.0594   363.3746 </r>
       <r>     0.0044    48.8030   370.7755 </r>
       <r>     0.1560    44.0100   377.4495 </r>
       <r>     0.3076    43.4034   384.0316 </r>
       <r>     0.4593    50.0016   391.6142 </r>
       <r>     0.6109    63.9626   401.3140 </r>
       <r>     0.7626    44.1339   408.0068 </r>
       <r>     0.9142    47.4201   415.1980 </r>
       <r>     1.0659    60.0458   424.3038 </r>
       <r>     1.2175    83.0455   436.8975 </r>
       <r>     1.3692    89.5499   450.4776 </r>
       <r>     1.5208   100.6671   465.7435 </r>
       <r>     1.6725    75.3139   477.1647 </r>
       <r>     1.8241    75.4148   488.6012 </r>
       <r>     1.9758    38.0915   494.3777 </r>
       <r>     2.1274    36.5517   499.9207 </r>
       <r>     2.2791    26.2304   503.8985 </r>
       <r>     2.4307     0.6692   504.0000 </r>
       <r>     2.5824     0.0000   504.0000 </r>
       <r>     2.7340     0.0000   504.0000 </r>
       <r>     2.8857     0.0000   504.0000 </r>
       <r>     3.0373     0.0000   504.0000 </r>
       <r>     3.1890     0.0000   504.0000 </r>
       <r>     3.3406     0.0000   504.0000 </r>
       <r>     3.4923     0.0000   504.0000 </r>
       <r>     3.6439     0.0000   504.0000 </r>
       <r>     3.7956     0.0000   504.0000 </r>
       <r>     3.9472     0.0000   504.0000 </r>
       <r>     4.0988     0.0000   504.0000 </r>
       <r>     4.2505     0.0000   504.0000 </r>
       <r>     4.4021     0.0077   504.0012 </r>
       <r>     4.5538     8.0000   505.2144 </r>
       <r>     4.7054    27.1081   509.3252 </r>
       <r>     4.8571    36.0233   514.7881 </r>
       <r>     5.0087    25.0783   518.5912 </r>
       <r>     5.1604    35.2384   523.9350 </r>
       <r>     5.3120    63.2701   533.5298 </r>
       <r>     5.4637    67.0097   543.6917 </r>
       <r>     5.6153    53.9111   551.8672 </r>
       <r>     5.7670    67.2162   562.0604 </r>
       <r>     5.9186    91.9012   575.9970 </r>
       <r>     6.0703   102.8042   591.5871 </r>
       <r>     6.2219    71.9445   602.4973 </r>
       <r>     6.3736    61.5798   611.8358 </r>
       <r>     6.5252    29.0888   616.2470 </r>
       <r>     6.6769    26.4264   620.2545 </r>
       <r>     6.8285    19.3934   623.1955 </r>
       <r>     6.9802    23.2669   626.7239 </r>
       <r>     7.1318    19.6678   629.7065 </r>
       <r>     7.2835    16.2530   632.1712 </r>
       <r>     7.4351    18.9238   635.0410 </r>
       <r>     7.5868    14.1715   637.1900 </r>
       <r>     7.7384    13.1758   639.1881 </r>
       <r>     7.8900    18.4186   641.9813 </r>
       <r>     8.0417    21.4375   645.2322 </r>
       <r>     8.1933    23.8112   648.8431 </r>
       <r>     8.3450    25.7028   652.7409 </r>
       <r>     8.4966    27.3480   656.8882 </r>
       <r>     8.6483    26.7904   660.9509 </r>
       <r>     8.7999    14.1907   663.1029 </r>
       <r>     8.9516    30.0141   667.6545 </r>
       <r>     9.1032    41.3448   673.9243 </r>
       <r>     9.2549    41.2264   680.1762 </r>
       <r>     9.4065    38.3854   685.9973 </r>
       <r>     9.5582    40.2081   692.0948 </r>
       <r>     9.7098    46.2861   699.1140 </r>
       <r>     9.8615    55.9618   707.6005 </r>
       <r>    10.0131    72.4567   718.5884 </r>
       <r>    10.1648    67.8213   728.8734 </r>
       <r>    10.3164    71.7926   739.7606 </r>
       <r>    10.4681    53.1565   747.8216 </r>
       <r>    10.6197    62.2812   757.2665 </r>
       <r>    10.7714    51.0762   765.0121 </r>
       <r>    10.9230    19.6891   767.9979 </r>
       <r>    11.0747     0.0141   768.0000 </r>
       <r>    11.2263     0.0000   768.0000 </r>
       <r>    11.3780     0.0000   768.0000 </r>
       <r>    11.5296     0.0000   768.0000 </r>
       <r>    11.6812     0.0000   768.0000 </r>
       <r>    11.8329     0.0000   768.0000 </r>
       <r>    11.9845     0.0000   768.0000 </r>
       <r>    12.1362     0.0000   768.0000 </r>
       <r>    12.2878     0.0000   768.0000 </r>
       <r>    12.4395     0.0000   768.0000 </r>
       <r>    12.5911     0.0000   768.0000 </r>
       <r>    12.7428     0.0000   768.0000 </r>
       <r>    12.8944     0.0000   768.0000 </r>
      </set>
     </set>
    </array>
   </total>
  </dos>
 </calculation>
 <structure name="finalpos" >
  <crystal>
   <varray name="basis" >
    <v>      11.22614118       0.01988425      -0.00055798 </v>
    <v>       0.01987199      11.22075047       0.00047147 </v>
    <v>      -0.00078564       0.00069042      15.95710967 </v>
   </varray>
   <i name="volume">   2010.04263599 </i>
   <varray name="rec_basis" >
    <v>       0.08907808      -0.00015776       0.00000439 </v>
    <v>      -0.00015786       0.08912088      -0.00000386 </v>
    <v>       0.00000312      -0.00000264       0.06266799 </v>
   </varray>
  </crystal>
  <varray name="positions" >
   <v>       0.00065939       0.25005915       0.13220374 </v>
   <v>       0.99885221       0.24889641       0.62471339 </v>
   <v>       0.99748010       0.75401145       0.12886290 </v>
   <v>       0.99982369       0.74986895       0.62554729 </v>
   <v>       0.49450227       0.25309315       0.13316700 </v>
   <v>       0.50431319       0.24627891       0.62613372 </v>
   <v>       0.49773494       0.75200264       0.12935309 </v>
   <v>       0.50011545       0.75203209       0.62586299 </v>
   <v>       0.00323774       0.24945236       0.37543385 </v>
   <v>       0.99572931       0.24986154       0.86838937 </v>
   <v>      -0.00008915       0.74995353       0.37437431 </v>
   <v>       0.99788041       0.75347552       0.87113416 </v>
   <v>       0.49850808       0.25186204       0.37437436 </v>
   <v>       0.50034205       0.24779592       0.86706122 </v>
   <v>       0.49971619       0.74769908       0.37388618 </v>
   <v>       0.49786692       0.75663457       0.87032164 </v>
   <v>       0.24984475       0.99714242       0.13227025 </v>
   <v>       0.25306783       0.00062506       0.62557999 </v>
   <v>       0.25333068       0.50216638       0.13712223 </v>
   <v>       0.25046801       0.49899737       0.62370069 </v>
   <v>       0.74904033       0.99508019       0.13153037 </v>
   <v>       0.74694046       0.00376719       0.62730943 </v>
   <v>       0.74696065       0.50539156       0.13545766 </v>
   <v>       0.75003696       0.49668188       0.62444627 </v>
   <v>       0.25039027       0.00311584       0.37427904 </v>
   <v>       0.25203950       0.99475594       0.86752633 </v>
   <v>       0.25363224       0.49597111       0.37387615 </v>
   <v>       0.24983455       0.50568932       0.86496383 </v>
   <v>       0.74974435       0.00082747       0.37532619 </v>
   <v>       0.74634489       0.99816547       0.86653681 </v>
   <v>       0.74760670       0.49930303       0.37530441 </v>
   <v>       0.75009260       0.50285532       0.86467072 </v>
   <v>       0.99541206       0.99789838       0.99980911 </v>
   <v>       0.00022870       0.00005030       0.50029470 </v>
   <v>       0.01529245       0.50867434       0.00032414 </v>
   <v>       0.00089104       0.50077570       0.49962212 </v>
   <v>       0.49568444       0.99820784       0.99922558 </v>
   <v>       0.50022719       0.00010187       0.50090008 </v>
   <v>       0.51484186       0.50935652       0.99952220 </v>
   <v>       0.50082878       0.50063343       0.49893797 </v>
   <v>       0.23993800       0.23442188       0.99952060 </v>
   <v>       0.25002207       0.24940647       0.49914419 </v>
   <v>       0.25189334       0.75464661       0.00021791 </v>
   <v>       0.24949216       0.74953908       0.49962802 </v>
   <v>       0.74009569       0.23530658       0.00057662 </v>
   <v>       0.74989461       0.24945289       0.50101041 </v>
   <v>       0.75171872       0.75464414       0.99966176 </v>
   <v>       0.74948845       0.74965942       0.50026809 </v>
   <v>       0.25184209       0.25010510       0.74877816 </v>
   <v>       0.25045997       0.74901013       0.25090923 </v>
   <v>       0.25042234       0.75135613       0.74869333 </v>
   <v>       0.74955735       0.25275389       0.25114187 </v>
   <v>       0.74808788       0.74935400       0.25106267 </v>
   <v>       0.74817593       0.75139190       0.74912566 </v>
   <v>       0.00087460       0.00191826       0.25037330 </v>
   <v>       0.99858865       0.00190228       0.74977458 </v>
   <v>      -0.00000455       0.49805723       0.25134914 </v>
   <v>       0.99790372       0.49804709       0.74839377 </v>
   <v>       0.49833617       0.00208471       0.25025706 </v>
   <v>       0.50033738       0.49810777       0.74802359 </v>
   <v>       0.25174164       0.25246473       0.25129617 </v>
   <v>       0.75024451       0.25085933       0.74910359 </v>
   <v>       0.50099694       0.00193803       0.74945115 </v>
   <v>       0.49795327       0.49836851       0.25181642 </v>
   <v>       0.11512211       0.13467535       0.24490552 </v>
   <v>       0.11588616       0.13691691       0.75672117 </v>
   <v>       0.11204577       0.63510663       0.24210386 </v>
   <v>       0.11224670       0.63474895       0.75730536 </v>
   <v>       0.61663654       0.13648465       0.24305156 </v>
   <v>       0.61748713       0.13620701       0.75541795 </v>
   <v>       0.61450439       0.63580477       0.24300854 </v>
   <v>       0.61228363       0.63491430       0.75827471 </v>
   <v>       0.38564198       0.36466580       0.25577855 </v>
   <v>       0.38647557       0.36394852       0.74364963 </v>
   <v>       0.38557325       0.86421836       0.25053330 </v>
   <v>       0.38322859       0.86314617       0.74917851 </v>
   <v>       0.88724586       0.36321749       0.25601719 </v>
   <v>       0.88782087       0.36522526       0.74484545 </v>
   <v>       0.88568774       0.86398774       0.25033815 </v>
   <v>       0.88600512       0.86371492       0.74960502 </v>
   <v>       0.36512920       0.11359302       0.24700541 </v>
   <v>       0.36224915       0.11625907       0.75286176 </v>
   <v>       0.36255200       0.61620066       0.25074112 </v>
   <v>       0.36256205       0.61331440       0.74983591 </v>
   <v>       0.86372674       0.11421765       0.24682403 </v>
   <v>       0.86634587       0.11387412       0.75301523 </v>
   <v>       0.86342992       0.61328165       0.25002723 </v>
   <v>       0.86296380       0.61356797       0.74985763 </v>
   <v>       0.13372724       0.38781356       0.24803557 </v>
   <v>       0.13663629       0.38770395       0.75177338 </v>
   <v>       0.13538764       0.88539523       0.25018339 </v>
   <v>       0.13498137       0.88578152       0.74973314 </v>
   <v>       0.63791439       0.38581176       0.24830621 </v>
   <v>       0.63524271       0.38861959       0.75179054 </v>
   <v>       0.63614877       0.88599587       0.25040091 </v>
   <v>       0.63609233       0.88322115       0.74972341 </v>
   <v>       0.35993939       0.39050540       0.50121841 </v>
   <v>       0.35386123       0.89523804       0.00055988 </v>
   <v>       0.35848617       0.89013050       0.49887777 </v>
   <v>       0.86049582       0.39105583       0.49855542 </v>
   <v>       0.85453713       0.89509338       0.99957448 </v>
   <v>       0.85898759       0.89060088       0.50088270 </v>
   <v>       0.14795174       0.09815902       0.99969478 </v>
   <v>       0.14041359       0.10803263       0.50082882 </v>
   <v>       0.14976344       0.60241245       0.00123642 </v>
   <v>       0.14171558       0.60867831       0.49934628 </v>
   <v>       0.64798829       0.09903030       0.99991299 </v>
   <v>       0.64096257       0.10873674       0.49950976 </v>
   <v>       0.64924931       0.60390861       0.99950535 </v>
   <v>       0.64223835       0.60934350       0.50088859 </v>
   <v>       0.10306864       0.35316808       0.99878789 </v>
   <v>       0.10892044       0.35982082       0.50104871 </v>
   <v>       0.10363879       0.85152889       0.00014996 </v>
   <v>       0.10806108       0.85881191       0.50002824 </v>
   <v>       0.60640174       0.35442628       0.00056970 </v>
   <v>       0.60981939       0.35965532       0.50010995 </v>
   <v>       0.60443871       0.85184143       0.00051081 </v>
   <v>       0.60894157       0.85861299       0.49896270 </v>
   <v>       0.39777851       0.15010338       0.99986150 </v>
   <v>       0.39034256       0.14084216       0.50038959 </v>
   <v>       0.39210367       0.63799047       0.99851059 </v>
   <v>       0.39058688       0.64169482       0.50099690 </v>
   <v>       0.89843895       0.14857451       0.00100194 </v>
   <v>       0.89107804       0.14063550       0.49897924 </v>
   <v>       0.89235736       0.63642756       0.99998099 </v>
   <v>       0.89132786       0.64126790       0.49996950 </v>
   <v>       0.99948623       0.99638086       0.12333822 </v>
   <v>       0.00091266       0.00297558       0.62584154 </v>
   <v>       0.98342660       0.48610620       0.11972573 </v>
   <v>       0.00309689       0.50438408       0.62491248 </v>
   <v>       0.49961026       0.99636425       0.12366487 </v>
   <v>       0.50011276       0.00118036       0.62340092 </v>
   <v>       0.48380535       0.48770283       0.11718370 </v>
   <v>       0.50378348       0.50474572       0.62576504 </v>
   <v>       0.00013555       0.00202028       0.37467654 </v>
   <v>      -0.00024968       0.99673129       0.87667093 </v>
   <v>       0.00359468       0.50423674       0.37450297 </v>
   <v>       0.98575084       0.48840970       0.88019579 </v>
   <v>       0.50115257       0.00345124       0.37382177 </v>
   <v>       0.49872777       0.99644742       0.87817107 </v>
   <v>       0.50325970       0.50426126       0.37729200 </v>
   <v>       0.48359041       0.48503560       0.87989508 </v>
   <v>       0.24604318       0.24795896       0.37724562 </v>
   <v>       0.26362638       0.26864477       0.88058225 </v>
   <v>       0.24607312       0.74813048       0.37455804 </v>
   <v>       0.25086660       0.75181711       0.87637851 </v>
   <v>       0.74705743       0.24706054       0.37389040 </v>
   <v>       0.76589783       0.26983606       0.88410374 </v>
   <v>       0.74835659       0.74773994       0.37492074 </v>
   <v>       0.75296802       0.75193176       0.87619977 </v>
   <v>       0.26185062       0.26856592       0.11623136 </v>
   <v>       0.24535833       0.24756758       0.62611844 </v>
   <v>       0.25244791       0.75243507       0.12388429 </v>
   <v>       0.24552378       0.74757486       0.62501022 </v>
   <v>       0.76515577       0.26796258       0.11950024 </v>
   <v>       0.74948475       0.24888084       0.62298737 </v>
   <v>       0.75315347       0.75222515       0.12354644 </v>
   <v>       0.74754983       0.74726600       0.62555197 </v>
  </varray>
 </structure>
</modeling>
