       N       E                     dE             d eps       ncg     rms          rms(c)
DAV:   1    -0.105437259753E+04   -0.10544E+04   -0.45471E-03 13632   0.159E-01    0.278E-02
RMM:   2    -0.105437259751E+04    0.23923E-07   -0.23795E-05  6820   0.835E-03    0.444E-02
RMM:   3    -0.105437259793E+04   -0.42254E-06   -0.77967E-06  6404   0.507E-03    0.659E-03
RMM:   4    -0.105437259835E+04   -0.42019E-06   -0.34628E-06  3641   0.253E-03    0.558E-03
RMM:   5    -0.105437259862E+04   -0.26922E-06   -0.21182E-06  3485   0.269E-03    0.404E-03
RMM:   6    -0.105437259894E+04   -0.32020E-06   -0.13785E-06  2681   0.214E-03    0.247E-03
RMM:   7    -0.105437259916E+04   -0.21353E-06   -0.81671E-07  2392   0.214E-03    0.183E-03
RMM:   8    -0.105437259936E+04   -0.20801E-06   -0.55415E-07  2224   0.202E-03
   1 F= -.10543726E+04 E0= -.10543724E+04  d E =-.105437E+04  mag=    78.0000
       N       E                     dE             d eps       ncg     rms          rms(c)
DAV:   1    -0.105437178126E+04    0.81790E-03   -0.56864E-01 12416   0.882E-01    0.384E-01
RMM:   2    -0.105437390278E+04   -0.21215E-02   -0.16914E-02 12347   0.181E-01    0.298E-01
RMM:   3    -0.105437404859E+04   -0.14581E-03   -0.97524E-04 11885   0.551E-02    0.165E-01
RMM:   4    -0.105437395276E+04    0.95824E-04   -0.19365E-04  8132   0.198E-02    0.104E-01
RMM:   5    -0.105437392767E+04    0.25095E-04   -0.16281E-04  7714   0.158E-02    0.555E-02
RMM:   6    -0.105437392898E+04   -0.13174E-05   -0.28947E-05  7145   0.101E-02    0.252E-02
RMM:   7    -0.105437392928E+04   -0.29655E-06   -0.11349E-05  6758   0.420E-03    0.161E-02
RMM:   8    -0.105437392966E+04   -0.38106E-06   -0.45846E-06  6055   0.408E-03
   2 F= -.10543739E+04 E0= -.10543737E+04  d E =-.133030E-02  mag=    78.0000
       N       E                     dE             d eps       ncg     rms          rms(c)
DAV:   1    -0.105437392647E+04    0.28115E-05   -0.65091E-03 13384   0.944E-02    0.400E-02
RMM:   2    -0.105437394830E+04   -0.21835E-04   -0.16823E-04  7517   0.196E-02    0.372E-02
RMM:   3    -0.105437395167E+04   -0.33690E-05   -0.18783E-05  6365   0.857E-03    0.185E-02
RMM:   4    -0.105437395132E+04    0.35335E-06   -0.47045E-06  5623   0.357E-03    0.160E-02
RMM:   5    -0.105437395081E+04    0.51525E-06   -0.18071E-06  4184   0.271E-03    0.686E-03
RMM:   6    -0.105437395078E+04    0.20911E-07   -0.82254E-07  2482   0.196E-03    0.321E-03
RMM:   7    -0.105437395078E+04    0.29395E-08   -0.76986E-09  1320   0.168E-03    0.236E-03
RMM:   8    -0.105437395078E+04    0.78580E-09   -0.96893E-09  1143   0.167E-03
   3 F= -.10543740E+04 E0= -.10543737E+04  d E =-.135142E-02  mag=    78.0000
       N       E                     dE             d eps       ncg     rms          rms(c)
DAV:   1    -0.105437340418E+04    0.54660E-03   -0.54397E-01 12424   0.872E-01    0.274E-01
RMM:   2    -0.105437506136E+04   -0.16572E-02   -0.14685E-02 12404   0.165E-01    0.181E-01
RMM:   3    -0.105437514400E+04   -0.82640E-04   -0.78153E-04 11087   0.522E-02    0.104E-01
RMM:   4    -0.105437509485E+04    0.49149E-04   -0.14570E-04  7437   0.169E-02    0.619E-02
RMM:   5    -0.105437508379E+04    0.11068E-04   -0.76163E-05  7212   0.119E-02    0.287E-02
RMM:   6    -0.105437508632E+04   -0.25332E-05   -0.18515E-05  7010   0.757E-03    0.188E-02
RMM:   7    -0.105437508730E+04   -0.98387E-06   -0.92320E-06  6379   0.426E-03    0.959E-03
RMM:   8    -0.105437508782E+04   -0.51831E-06   -0.46713E-06  5858   0.393E-03
   4 F= -.10543751E+04 E0= -.10543749E+04  d E =-.113704E-02  mag=    78.0000
       N       E                     dE             d eps       ncg     rms          rms(c)
DAV:   1    -0.105437491418E+04    0.17312E-03   -0.86555E-02 12416   0.348E-01    0.109E-01
RMM:   2    -0.105437518172E+04   -0.26754E-03   -0.23694E-03 12318   0.658E-02    0.726E-02
RMM:   3    -0.105437519211E+04   -0.10384E-04   -0.10228E-04  7238   0.213E-02    0.422E-02
RMM:   4    -0.105437518671E+04    0.53970E-05   -0.34369E-05  7038   0.857E-03    0.248E-02
RMM:   5    -0.105437518562E+04    0.10925E-05   -0.16462E-05  6626   0.596E-03    0.198E-02
RMM:   6    -0.105437518623E+04   -0.61280E-06   -0.62615E-06  5951   0.407E-03    0.909E-03
RMM:   7    -0.105437518656E+04   -0.32363E-06   -0.24468E-06  4536   0.277E-03    0.356E-03
RMM:   8    -0.105437518672E+04   -0.16128E-06   -0.11896E-06  3375   0.229E-03
   5 F= -.10543752E+04 E0= -.10543750E+04  d E =-.123594E-02  mag=    78.0000
       N       E                     dE             d eps       ncg     rms          rms(c)
DAV:   1    -0.105437491073E+04    0.27582E-03   -0.45288E-01 12608   0.791E-01    0.203E-01
RMM:   2    -0.105437612872E+04   -0.12180E-02   -0.11880E-02 12503   0.146E-01    0.133E-01
RMM:   3    -0.105437616308E+04   -0.34353E-04   -0.60964E-04 10397   0.458E-02    0.823E-02
RMM:   4    -0.105437613605E+04    0.27028E-04   -0.10817E-04  7251   0.148E-02    0.529E-02
RMM:   5    -0.105437612781E+04    0.82355E-05   -0.56784E-05  7129   0.105E-02    0.272E-02
RMM:   6    -0.105437613027E+04   -0.24629E-05   -0.18512E-05  6929   0.681E-03    0.132E-02
RMM:   7    -0.105437613109E+04   -0.81740E-06   -0.91169E-06  6163   0.451E-03    0.838E-03
RMM:   8    -0.105437613145E+04   -0.36233E-06   -0.49571E-06  5219   0.365E-03
   6 F= -.10543761E+04 E0= -.10543759E+04  d E =-.944738E-03  mag=    78.0000
       N       E                     dE             d eps       ncg     rms          rms(c)
DAV:   1    -0.105437498368E+04    0.11474E-02   -0.55476E-01 12624   0.876E-01    0.225E-01
RMM:   2    -0.105437647588E+04   -0.14922E-02   -0.14559E-02 12495   0.160E-01    0.147E-01
RMM:   3    -0.105437651762E+04   -0.41735E-04   -0.76024E-04 10897   0.511E-02    0.906E-02
RMM:   4    -0.105437648317E+04    0.34448E-04   -0.13336E-04  7363   0.161E-02    0.579E-02
RMM:   5    -0.105437647358E+04    0.95956E-05   -0.67312E-05  7181   0.113E-02    0.319E-02
RMM:   6    -0.105437647644E+04   -0.28662E-05   -0.21552E-05  7033   0.761E-03    0.155E-02
RMM:   7    -0.105437647748E+04   -0.10377E-05   -0.11274E-05  6550   0.480E-03    0.103E-02
RMM:   8    -0.105437647792E+04   -0.44247E-06   -0.61524E-06  5720   0.428E-03
   7 F= -.10543765E+04 E0= -.10543763E+04  d E =-.129120E-02  mag=    78.0000
       N       E                     dE             d eps       ncg     rms          rms(c)
DAV:   1    -0.105437595279E+04    0.52468E-03   -0.52807E-01 12576   0.850E-01    0.212E-01
RMM:   2    -0.105437739117E+04   -0.14384E-02   -0.13627E-02 12515   0.153E-01    0.132E-01
RMM:   3    -0.105437743897E+04   -0.47802E-04   -0.70758E-04 10773   0.492E-02    0.770E-02
RMM:   4    -0.105437741040E+04    0.28573E-04   -0.11875E-04  7290   0.154E-02    0.498E-02
RMM:   5    -0.105437740242E+04    0.79767E-05   -0.59938E-05  7126   0.107E-02    0.307E-02
RMM:   6    -0.105437740483E+04   -0.24091E-05   -0.20362E-05  6912   0.726E-03    0.153E-02
RMM:   7    -0.105437740583E+04   -0.99330E-06   -0.10619E-05  6378   0.466E-03    0.892E-03
RMM:   8    -0.105437740623E+04   -0.40019E-06   -0.58295E-06  5530   0.406E-03
   8 F= -.10543774E+04 E0= -.10543772E+04  d E =-.928306E-03  mag=    78.0000
       N       E                     dE             d eps       ncg     rms          rms(c)
DAV:   1    -0.105437476285E+04    0.26430E-02   -0.11531E+00 12544   0.126E+00    0.314E-01
RMM:   2    -0.105437789599E+04   -0.31331E-02   -0.29686E-02 12517   0.226E-01    0.195E-01
RMM:   3    -0.105437800862E+04   -0.11264E-03   -0.16033E-03 12062   0.728E-02    0.113E-01
RMM:   4    -0.105437794599E+04    0.62635E-04   -0.28919E-04  8598   0.215E-02    0.722E-02
RMM:   5    -0.105437792453E+04    0.21452E-04   -0.11825E-04  7299   0.151E-02    0.446E-02
RMM:   6    -0.105437792901E+04   -0.44800E-05   -0.35733E-05  7134   0.996E-03    0.219E-02
RMM:   7    -0.105437793076E+04   -0.17410E-05   -0.18108E-05  6928   0.611E-03    0.133E-02
RMM:   8    -0.105437793143E+04   -0.67624E-06   -0.10411E-05  6599   0.549E-03
   9 F= -.10543779E+04 E0= -.10543777E+04  d E =-.145351E-02  mag=    78.0000
       N       E                     dE             d eps       ncg     rms          rms(c)
DAV:   1    -0.105437685048E+04    0.10803E-02   -0.70258E-01 12528   0.974E-01    0.260E-01
RMM:   2    -0.105437883418E+04   -0.19837E-02   -0.17992E-02 12628   0.177E-01    0.166E-01
RMM:   3    -0.105437891221E+04   -0.78034E-04   -0.96358E-04 11381   0.542E-02    0.936E-02
RMM:   4    -0.105437886944E+04    0.42769E-04   -0.13930E-04  7456   0.166E-02    0.589E-02
RMM:   5    -0.105437885607E+04    0.13375E-04   -0.89250E-05  7203   0.123E-02    0.264E-02
RMM:   6    -0.105437885989E+04   -0.38215E-05   -0.24061E-05  7020   0.808E-03    0.155E-02
RMM:   7    -0.105437886136E+04   -0.14724E-05   -0.12649E-05  6571   0.477E-03    0.109E-02
RMM:   8    -0.105437886203E+04   -0.66849E-06   -0.67204E-06  5906   0.444E-03
  10 F= -.10543789E+04 E0= -.10543787E+04  d E =-.930596E-03  mag=    78.0000
