       N       E                     dE             d eps       ncg     rms          rms(c)
DAV:   1    -0.111999012286E+04   -0.11200E+04   -0.17090E-01  6400   0.946E-01    0.829E-02
RMM:   2    -0.111999050219E+04   -0.37934E-03   -0.18989E-04  3885   0.251E-02    0.909E-02
RMM:   3    -0.111999058885E+04   -0.86655E-04   -0.34002E-05  3405   0.105E-02    0.894E-02
RMM:   4    -0.111999053272E+04    0.56129E-04   -0.89512E-06  3294   0.633E-03    0.891E-02
RMM:   5    -0.111999041933E+04    0.11338E-03   -0.88496E-06  3152   0.525E-03    0.899E-02
RMM:   6    -0.111999155886E+04   -0.11395E-02   -0.70549E-04  4224   0.362E-02    0.891E-02
RMM:   7    -0.111999216414E+04   -0.60528E-03   -0.40173E-04  3771   0.238E-02    0.842E-02
RMM:   8    -0.111999311075E+04   -0.94661E-03   -0.76912E-04  4140   0.325E-02    0.913E-02
RMM:   9    -0.111999169423E+04    0.14165E-02   -0.80230E-04  4355   0.419E-02    0.871E-02
RMM:  10    -0.111999090699E+04    0.78725E-03   -0.56215E-04  3817   0.295E-02    0.894E-02
RMM:  11    -0.111999697772E+04   -0.60707E-02   -0.50440E-02  5952   0.299E-01    0.189E-01
RMM:  12    -0.111999899139E+04   -0.20137E-02   -0.62646E-03  5495   0.866E-02    0.164E-01
RMM:  13    -0.111999908597E+04   -0.94576E-04   -0.66953E-04  4326   0.371E-02
   1 F= -.11199991E+04 E0= -.11199991E+04  d E =-.112000E+04  mag=    28.0000
       N       E                     dE             d eps       ncg     rms          rms(c)
DAV:   1    -0.111999383762E+04    0.51538E-02   -0.98271E+00  6272   0.357E+00    0.143E+00
RMM:   2    -0.112001932589E+04   -0.25488E-01   -0.30909E-01  6147   0.776E-01    0.135E+00
RMM:   3    -0.112001968919E+04   -0.36331E-03   -0.19406E-02  6760   0.245E-01    0.926E-01
RMM:   4    -0.112001835453E+04    0.13347E-02   -0.34139E-03  6584   0.780E-02    0.647E-01
RMM:   5    -0.112001808750E+04    0.26703E-03   -0.46828E-03  6139   0.798E-02    0.239E-01
RMM:   6    -0.112001836019E+04   -0.27269E-03   -0.54399E-04  5133   0.452E-02    0.143E-01
RMM:   7    -0.112001860515E+04   -0.24496E-03   -0.21741E-04  4277   0.179E-02    0.113E-01
RMM:   8    -0.112001923293E+04   -0.62778E-03   -0.35868E-04  4273   0.250E-02    0.880E-02
RMM:   9    -0.112001961439E+04   -0.38147E-03   -0.20426E-04  3985   0.191E-02    0.768E-02
RMM:  10    -0.112001994113E+04   -0.32673E-03   -0.16647E-04  3894   0.158E-02    0.742E-02
RMM:  11    -0.112002069901E+04   -0.75788E-03   -0.54614E-04  4290   0.286E-02    0.676E-02
RMM:  12    -0.112002189572E+04   -0.11967E-02   -0.17216E-03  4820   0.501E-02    0.583E-02
RMM:  13    -0.112002277376E+04   -0.87804E-03   -0.13959E-03  4578   0.443E-02    0.535E-02
RMM:  14    -0.112002345345E+04   -0.67969E-03   -0.11040E-03  4422   0.375E-02    0.444E-02
RMM:  15    -0.112002422214E+04   -0.76869E-03   -0.15984E-03  4658   0.468E-02    0.447E-02
RMM:  16    -0.112002468399E+04   -0.46186E-03   -0.90530E-04  4211   0.339E-02    0.373E-02
RMM:  17    -0.112002516155E+04   -0.47755E-03   -0.11249E-03  4390   0.373E-02    0.332E-02
RMM:  18    -0.112002580411E+04   -0.64256E-03   -0.44424E-03  5129   0.799E-02    0.333E-02
RMM:  19    -0.112002610529E+04   -0.30118E-03   -0.10235E-03  4255   0.345E-02    0.170E-02
RMM:  20    -0.112002625575E+04   -0.15047E-03   -0.11226E-03  4393   0.372E-02    0.187E-02
RMM:  21    -0.112002634056E+04   -0.84807E-04   -0.47258E-04  3910   0.243E-02
   2 F= -.11200263E+04 E0= -.11200263E+04  d E =-.272546E-01  mag=    28.0000
       N       E                     dE             d eps       ncg     rms          rms(c)
DAV:   1    -0.112002678758E+04   -0.53183E-03   -0.81733E-02  6536   0.328E-01    0.128E-01
RMM:   2    -0.112002700616E+04   -0.21858E-03   -0.25991E-03  6027   0.726E-02    0.121E-01
RMM:   3    -0.112002700614E+04    0.20242E-07   -0.13461E-04  3731   0.246E-02    0.811E-02
RMM:   4    -0.112002699632E+04    0.98153E-05   -0.39441E-05  3454   0.109E-02    0.567E-02
RMM:   5    -0.112002699449E+04    0.18346E-05   -0.45720E-05  3478   0.882E-03    0.516E-02
RMM:   6    -0.112002699404E+04    0.44897E-06   -0.15166E-05  3093   0.714E-03    0.113E-02
RMM:   7    -0.112002699463E+04   -0.59472E-06   -0.48143E-06  2413   0.311E-03    0.985E-03
RMM:   8    -0.112002699556E+04   -0.93132E-06   -0.20754E-06  2201   0.275E-03
   3 F= -.11200270E+04 E0= -.11200270E+04  d E =-.279096E-01  mag=    28.0000
       N       E                     dE             d eps       ncg     rms          rms(c)
DAV:   1    -0.112002067762E+04    0.63170E-02   -0.90483E+00  6144   0.343E+00    0.954E-01
RMM:   2    -0.112004417631E+04   -0.23499E-01   -0.25076E-01  6147   0.671E-01    0.805E-01
RMM:   3    -0.112004444433E+04   -0.26802E-03   -0.15967E-02  6677   0.236E-01    0.555E-01
RMM:   4    -0.112004373180E+04    0.71252E-03   -0.37993E-03  6928   0.784E-02    0.359E-01
RMM:   5    -0.112004363529E+04    0.96520E-04   -0.11876E-03  6074   0.445E-02    0.171E-01
RMM:   6    -0.112004368594E+04   -0.50656E-04   -0.21293E-04  4188   0.247E-02    0.998E-02
RMM:   7    -0.112004370737E+04   -0.21429E-04   -0.84684E-05  3768   0.140E-02    0.480E-02
RMM:   8    -0.112004371956E+04   -0.12186E-04   -0.44573E-05  3651   0.118E-02
   4 F= -.11200437E+04 E0= -.11200437E+04  d E =-.167240E-01  mag=    28.0000
       N       E                     dE             d eps       ncg     rms          rms(c)
DAV:   1    -0.112004200561E+04    0.17018E-02   -0.13317E+00  6160   0.132E+00    0.355E-01
RMM:   2    -0.112004547429E+04   -0.34687E-02   -0.36930E-02  6148   0.258E-01    0.300E-01
RMM:   3    -0.112004551810E+04   -0.43807E-04   -0.24013E-03  6403   0.919E-02    0.209E-01
RMM:   4    -0.112004541501E+04    0.10309E-03   -0.52587E-04  5233   0.307E-02    0.137E-01
RMM:   5    -0.112004540875E+04    0.62552E-05   -0.17672E-04  3864   0.212E-02    0.671E-02
RMM:   6    -0.112004542440E+04   -0.15649E-04   -0.58091E-05  3637   0.141E-02    0.435E-02
RMM:   7    -0.112004543159E+04   -0.71864E-05   -0.25703E-05  3582   0.848E-03    0.216E-02
RMM:   8    -0.112004543903E+04   -0.74385E-05   -0.14988E-05  3541   0.712E-03
   5 F= -.11200454E+04 E0= -.11200454E+04  d E =-.184435E-01  mag=    28.0000
       N       E                     dE             d eps       ncg     rms          rms(c)
DAV:   1    -0.112004019905E+04    0.52325E-02   -0.64309E+00  6144   0.296E+00    0.999E-01
RMM:   2    -0.112005882568E+04   -0.18627E-01   -0.17907E-01  6154   0.587E-01    0.790E-01
RMM:   3    -0.112005984632E+04   -0.10206E-02   -0.11258E-02  6610   0.201E-01    0.522E-01
RMM:   4    -0.112005931060E+04    0.53572E-03   -0.22920E-03  7398   0.602E-02    0.338E-01
RMM:   5    -0.112005910818E+04    0.20242E-03   -0.14449E-03  6033   0.424E-02    0.111E-01
RMM:   6    -0.112005911645E+04   -0.82681E-05   -0.14586E-04  3988   0.253E-02    0.745E-02
RMM:   7    -0.112005912292E+04   -0.64764E-05   -0.63681E-05  3686   0.102E-02    0.394E-02
RMM:   8    -0.112005912879E+04   -0.58726E-05   -0.30417E-05  3617   0.104E-02
   6 F= -.11200591E+04 E0= -.11200591E+04  d E =-.136898E-01  mag=    28.0000
       N       E                     dE             d eps       ncg     rms          rms(c)
DAV:   1    -0.112005906279E+04    0.60135E-04   -0.14784E-01  6704   0.449E-01    0.148E-01
RMM:   2    -0.112005950477E+04   -0.44198E-03   -0.41902E-03  6141   0.902E-02    0.119E-01
RMM:   3    -0.112005952543E+04   -0.20660E-04   -0.21548E-04  4054   0.319E-02    0.816E-02
RMM:   4    -0.112005952091E+04    0.45224E-05   -0.64853E-05  3600   0.138E-02    0.557E-02
RMM:   5    -0.112005952344E+04   -0.25378E-05   -0.48618E-05  3549   0.107E-02    0.499E-02
RMM:   6    -0.112005952652E+04   -0.30730E-05   -0.21102E-05  3422   0.811E-03    0.140E-02
RMM:   7    -0.112005952925E+04   -0.27284E-05   -0.99305E-06  3351   0.480E-03    0.105E-02
RMM:   8    -0.112005953241E+04   -0.31658E-05   -0.58881E-06  2964   0.408E-03
   7 F= -.11200595E+04 E0= -.11200595E+04  d E =-.140934E-01  mag=    28.0000
       N       E                     dE             d eps       ncg     rms          rms(c)
DAV:   1    -0.112005722405E+04    0.23052E-02   -0.47261E+00  6192   0.253E+00    0.669E-01
RMM:   2    -0.112006829743E+04   -0.11073E-01   -0.12052E-01  6169   0.467E-01    0.453E-01
RMM:   3    -0.112006853878E+04   -0.24135E-03   -0.74248E-03  6375   0.172E-01    0.294E-01
RMM:   4    -0.112006818624E+04    0.35254E-03   -0.18429E-03  7431   0.517E-02    0.193E-01
RMM:   5    -0.112006803349E+04    0.15275E-03   -0.63929E-04  5757   0.288E-02    0.122E-01
RMM:   6    -0.112006803033E+04    0.31606E-05   -0.12176E-04  3741   0.180E-02    0.480E-02
RMM:   7    -0.112006803618E+04   -0.58449E-05   -0.54958E-05  3614   0.124E-02    0.267E-02
RMM:   8    -0.112006803973E+04   -0.35591E-05   -0.34476E-05  3583   0.103E-02
   8 F= -.11200680E+04 E0= -.11200680E+04  d E =-.850732E-02  mag=    28.0000
       N       E                     dE             d eps       ncg     rms          rms(c)
DAV:   1    -0.112006716097E+04    0.87520E-03   -0.77877E-01  6184   0.103E+00    0.271E-01
RMM:   2    -0.112006900849E+04   -0.18475E-02   -0.20098E-02  6189   0.190E-01    0.183E-01
RMM:   3    -0.112006905059E+04   -0.42105E-04   -0.12777E-03  6171   0.715E-02    0.119E-01
RMM:   4    -0.112006899198E+04    0.58614E-04   -0.28058E-04  4288   0.216E-02    0.800E-02
RMM:   5    -0.112006897015E+04    0.21824E-04   -0.97970E-05  3632   0.155E-02    0.539E-02
RMM:   6    -0.112006897359E+04   -0.34398E-05   -0.42012E-05  3571   0.119E-02    0.199E-02
RMM:   7    -0.112006897673E+04   -0.31337E-05   -0.21417E-05  3529   0.749E-03    0.127E-02
RMM:   8    -0.112006897933E+04   -0.26007E-05   -0.13430E-05  3452   0.674E-03
   9 F= -.11200690E+04 E0= -.11200690E+04  d E =-.944692E-02  mag=    28.0000
       N       E                     dE             d eps       ncg     rms          rms(c)
DAV:   1    -0.112006643126E+04    0.25455E-02   -0.40798E+00  6192   0.232E+00    0.547E-01
RMM:   2    -0.112007617051E+04   -0.97393E-02   -0.98904E-02  6214   0.409E-01    0.375E-01
RMM:   3    -0.112007636653E+04   -0.19601E-03   -0.54493E-03  6204   0.151E-01    0.228E-01
RMM:   4    -0.112007615009E+04    0.21644E-03   -0.14572E-03  7056   0.443E-02    0.135E-01
RMM:   5    -0.112007608111E+04    0.68979E-04   -0.55918E-04  5613   0.264E-02    0.728E-02
RMM:   6    -0.112007608486E+04   -0.37524E-05   -0.83794E-05  3641   0.159E-02    0.372E-02
RMM:   7    -0.112007609124E+04   -0.63732E-05   -0.43379E-05  3582   0.102E-02    0.184E-02
RMM:   8    -0.112007609730E+04   -0.60588E-05   -0.27789E-05  3548   0.957E-03
  10 F= -.11200761E+04 E0= -.11200761E+04  d E =-.711797E-02  mag=    28.0000
       N       E                     dE             d eps       ncg     rms          rms(c)
DAV:   1    -0.112006672616E+04    0.93651E-02   -0.51570E+00  6184   0.261E+00    0.613E-01
RMM:   2    -0.112007906907E+04   -0.12343E-01   -0.12534E-01  6216   0.460E-01    0.421E-01
RMM:   3    -0.112007931844E+04   -0.24936E-03   -0.69469E-03  6239   0.169E-01    0.256E-01
RMM:   4    -0.112007904745E+04    0.27099E-03   -0.18828E-03  7458   0.501E-02    0.153E-01
RMM:   5    -0.112007896190E+04    0.85551E-04   -0.72547E-04  5990   0.283E-02    0.805E-02
RMM:   6    -0.112007896510E+04   -0.32009E-05   -0.10616E-04  3719   0.171E-02    0.412E-02
RMM:   7    -0.112007897231E+04   -0.72101E-05   -0.53842E-05  3612   0.107E-02    0.203E-02
RMM:   8    -0.112007897879E+04   -0.64746E-05   -0.34442E-05  3579   0.106E-02
  11 F= -.11200790E+04 E0= -.11200790E+04  d E =-.999946E-02  mag=    28.0000
       N       E                     dE             d eps       ncg     rms          rms(c)
DAV:   1    -0.112007368376E+04    0.52885E-02   -0.51500E+00  6288   0.261E+00    0.548E-01
RMM:   2    -0.112008570289E+04   -0.12019E-01   -0.12409E-01  6253   0.452E-01    0.351E-01
RMM:   3    -0.112008586733E+04   -0.16444E-03   -0.66528E-03  6263   0.168E-01    0.214E-01
RMM:   4    -0.112008568687E+04    0.18046E-03   -0.17408E-03  7232   0.481E-02    0.130E-01
RMM:   5    -0.112008561841E+04    0.68463E-04   -0.62308E-04  5783   0.270E-02    0.851E-02
RMM:   6    -0.112008562207E+04   -0.36646E-05   -0.11748E-04  3715   0.167E-02    0.357E-02
RMM:   7    -0.112008562821E+04   -0.61360E-05   -0.51262E-05  3594   0.112E-02    0.164E-02
RMM:   8    -0.112008563168E+04   -0.34671E-05   -0.34771E-05  3552   0.100E-02
  12 F= -.11200856E+04 E0= -.11200856E+04  d E =-.665289E-02  mag=    28.0000
       N       E                     dE             d eps       ncg     rms          rms(c)
DAV:   1    -0.112006893599E+04    0.16692E-01   -0.85337E+00  6288   0.336E+00    0.702E-01
RMM:   2    -0.112008887445E+04   -0.19938E-01   -0.20573E-01  6253   0.582E-01    0.448E-01
RMM:   3    -0.112008914969E+04   -0.27524E-03   -0.10979E-02  6299   0.215E-01    0.274E-01
RMM:   4    -0.112008884597E+04    0.30372E-03   -0.28475E-03  7856   0.619E-02    0.168E-01
RMM:   5    -0.112008873748E+04    0.10849E-03   -0.99474E-04  6520   0.316E-02    0.106E-01
RMM:   6    -0.112008874319E+04   -0.57119E-05   -0.17942E-04  4203   0.195E-02    0.398E-02
RMM:   7    -0.112008875236E+04   -0.91727E-05   -0.79771E-05  3689   0.121E-02    0.219E-02
RMM:   8    -0.112008875663E+04   -0.42707E-05   -0.55495E-05  3620   0.120E-02
  13 F= -.11200888E+04 E0= -.11200888E+04  d E =-.977785E-02  mag=    28.0000
       N       E                     dE             d eps       ncg     rms          rms(c)
DAV:   1    -0.112007946262E+04    0.92897E-02   -0.62533E+00  6272   0.288E+00    0.639E-01
RMM:   2    -0.112009465529E+04   -0.15193E-01   -0.14924E-01  6224   0.496E-01    0.408E-01
RMM:   3    -0.112009508837E+04   -0.43308E-03   -0.81069E-03  6226   0.188E-01    0.236E-01
RMM:   4    -0.112009485444E+04    0.23393E-03   -0.21259E-03  7501   0.534E-02    0.141E-01
RMM:   5    -0.112009477370E+04    0.80739E-04   -0.79837E-04  6234   0.292E-02    0.926E-02
RMM:   6    -0.112009477722E+04   -0.35190E-05   -0.15849E-04  3963   0.183E-02    0.358E-02
RMM:   7    -0.112009478361E+04   -0.63941E-05   -0.58714E-05  3629   0.114E-02    0.178E-02
RMM:   8    -0.112009478881E+04   -0.51932E-05   -0.49865E-05  3617   0.110E-02
  14 F= -.11200948E+04 E0= -.11200948E+04  d E =-.603217E-02  mag=    28.0000
       N       E                     dE             d eps       ncg     rms          rms(c)
DAV:   1    -0.112008542550E+04    0.93581E-02   -0.44847E+00  6272   0.244E+00    0.541E-01
RMM:   2    -0.112009632770E+04   -0.10902E-01   -0.10708E-01  6229   0.420E-01    0.346E-01
RMM:   3    -0.112009663079E+04   -0.30309E-03   -0.57988E-03  6195   0.158E-01    0.200E-01
RMM:   4    -0.112009646398E+04    0.16681E-03   -0.15300E-03  7053   0.453E-02    0.120E-01
RMM:   5    -0.112009640662E+04    0.57360E-04   -0.57897E-04  5744   0.263E-02    0.826E-02
RMM:   6    -0.112009640967E+04   -0.30446E-05   -0.12112E-04  3746   0.166E-02    0.340E-02
RMM:   7    -0.112009641503E+04   -0.53657E-05   -0.47134E-05  3595   0.109E-02    0.151E-02
RMM:   8    -0.112009641928E+04   -0.42449E-05   -0.36418E-05  3566   0.974E-03
  15 F= -.11200964E+04 E0= -.11200964E+04  d E =-.766265E-02  mag=    28.0000
       N       E                     dE             d eps       ncg     rms          rms(c)
DAV:   1    -0.112009084672E+04    0.55683E-02   -0.41247E+00  6352   0.236E+00    0.515E-01
RMM:   2    -0.112010049566E+04   -0.96489E-02   -0.10082E-01  6219   0.406E-01    0.335E-01
RMM:   3    -0.112010063653E+04   -0.14087E-03   -0.54468E-03  6180   0.155E-01    0.210E-01
RMM:   4    -0.112010047628E+04    0.16025E-03   -0.14741E-03  7044   0.444E-02    0.146E-01
RMM:   5    -0.112010039936E+04    0.76923E-04   -0.42935E-04  5088   0.251E-02    0.100E-01
RMM:   6    -0.112010040829E+04   -0.89280E-05   -0.14751E-04  3749   0.169E-02    0.295E-02
RMM:   7    -0.112010041522E+04   -0.69324E-05   -0.49593E-05  3600   0.128E-02    0.167E-02
RMM:   8    -0.112010042141E+04   -0.61968E-05   -0.39933E-05  3581   0.972E-03
  16 F= -.11201004E+04 E0= -.11201004E+04  d E =-.400214E-02  mag=    28.0000
       N       E                     dE             d eps       ncg     rms          rms(c)
DAV:   1    -0.112009757685E+04    0.28384E-02   -0.14601E+00  6408   0.140E+00    0.304E-01
RMM:   2    -0.112010103263E+04   -0.34558E-02   -0.36016E-02  6272   0.243E-01    0.198E-01
RMM:   3    -0.112010108189E+04   -0.49256E-04   -0.19829E-03  6104   0.942E-02    0.126E-01
RMM:   4    -0.112010102506E+04    0.56834E-04   -0.50908E-04  5316   0.269E-02    0.871E-02
RMM:   5    -0.112010099751E+04    0.27549E-04   -0.13956E-04  3722   0.188E-02    0.622E-02
RMM:   6    -0.112010100360E+04   -0.60886E-05   -0.65560E-05  3585   0.141E-02    0.203E-02
RMM:   7    -0.112010100867E+04   -0.50761E-05   -0.32819E-05  3546   0.951E-03    0.116E-02
RMM:   8    -0.112010101163E+04   -0.29535E-05   -0.19680E-05  3497   0.796E-03
  17 F= -.11201010E+04 E0= -.11201010E+04  d E =-.459235E-02  mag=    28.0000
       N       E                     dE             d eps       ncg     rms          rms(c)
DAV:   1    -0.112009639375E+04    0.46149E-02   -0.34689E+00  6304   0.217E+00    0.480E-01
RMM:   2    -0.112010429562E+04   -0.79019E-02   -0.86288E-02  6270   0.378E-01    0.323E-01
RMM:   3    -0.112010431133E+04   -0.15708E-04   -0.45965E-03  6270   0.139E-01    0.210E-01
RMM:   4    -0.112010416618E+04    0.14515E-03   -0.12473E-03  6799   0.411E-02    0.136E-01
RMM:   5    -0.112010409594E+04    0.70236E-04   -0.38991E-04  4843   0.251E-02    0.961E-02
RMM:   6    -0.112010410120E+04   -0.52532E-05   -0.10756E-04  3641   0.168E-02    0.325E-02
RMM:   7    -0.112010410584E+04   -0.46454E-05   -0.49304E-05  3582   0.117E-02    0.170E-02
RMM:   8    -0.112010410728E+04   -0.14392E-05   -0.29996E-05  3552   0.960E-03
  18 F= -.11201041E+04 E0= -.11201041E+04  d E =-.309565E-02  mag=    28.0000
       N       E                     dE             d eps       ncg     rms          rms(c)
DAV:   1    -0.112010282207E+04    0.12838E-02   -0.74534E-01  6392   0.100E+00    0.220E-01
RMM:   2    -0.112010455425E+04   -0.17322E-02   -0.18893E-02  6349   0.177E-01    0.149E-01
RMM:   3    -0.112010455143E+04    0.28231E-05   -0.10080E-03  5705   0.658E-02    0.977E-02
RMM:   4    -0.112010451725E+04    0.34180E-04   -0.23064E-04  3954   0.199E-02    0.651E-02
RMM:   5    -0.112010450317E+04    0.14078E-04   -0.83987E-05  3588   0.149E-02    0.346E-02
RMM:   6    -0.112010450663E+04   -0.34634E-05   -0.35892E-05  3540   0.112E-02    0.128E-02
RMM:   7    -0.112010450862E+04   -0.19936E-05   -0.20452E-05  3506   0.727E-03    0.848E-03
RMM:   8    -0.112010450935E+04   -0.72848E-06   -0.12602E-05  3414   0.652E-03
  19 F= -.11201045E+04 E0= -.11201045E+04  d E =-.349773E-02  mag=    28.0000
       N       E                     dE             d eps       ncg     rms          rms(c)
DAV:   1    -0.112010071132E+04    0.37973E-02   -0.24492E+00  6416   0.183E+00    0.456E-01
RMM:   2    -0.112010655421E+04   -0.58429E-02   -0.62708E-02  6175   0.326E-01    0.347E-01
RMM:   3    -0.112010660735E+04   -0.53137E-04   -0.33839E-03  6079   0.119E-01    0.208E-01
RMM:   4    -0.112010645902E+04    0.14833E-03   -0.97039E-04  6373   0.363E-02    0.135E-01
RMM:   5    -0.112010640475E+04    0.54267E-04   -0.28945E-04  4413   0.241E-02    0.817E-02
RMM:   6    -0.112010641613E+04   -0.11381E-04   -0.88536E-05  3618   0.165E-02    0.249E-02
RMM:   7    -0.112010642247E+04   -0.63390E-05   -0.43493E-05  3572   0.113E-02    0.158E-02
RMM:   8    -0.112010642718E+04   -0.47072E-05   -0.26118E-05  3541   0.927E-03
  20 F= -.11201064E+04 E0= -.11201064E+04  d E =-.191783E-02  mag=    28.0000
       N       E                     dE             d eps       ncg     rms          rms(c)
DAV:   1    -0.112010638627E+04    0.36199E-04   -0.21188E-02  6720   0.171E-01    0.423E-02
RMM:   2    -0.112010644346E+04   -0.57193E-04   -0.59130E-04  5463   0.334E-02    0.334E-02
RMM:   3    -0.112010644593E+04   -0.24702E-05   -0.39187E-05  3483   0.136E-02    0.203E-02
RMM:   4    -0.112010644694E+04   -0.10019E-05   -0.15733E-05  3392   0.638E-03    0.139E-02
RMM:   5    -0.112010644812E+04   -0.11836E-05   -0.88803E-06  3327   0.505E-03    0.119E-02
RMM:   6    -0.112010644914E+04   -0.10187E-05   -0.52001E-06  2784   0.372E-03    0.380E-03
RMM:   7    -0.112010644986E+04   -0.71633E-06   -0.32729E-06  2454   0.318E-03    0.262E-03
RMM:   8    -0.112010645036E+04   -0.50008E-06   -0.18046E-06  1947   0.271E-03
  21 F= -.11201065E+04 E0= -.11201065E+04  d E =-.194100E-02  mag=    28.0000
       N       E                     dE             d eps       ncg     rms          rms(c)
DAV:   1    -0.112010436726E+04    0.20826E-02   -0.12726E+00  6400   0.132E+00    0.334E-01
RMM:   2    -0.112010761738E+04   -0.32501E-02   -0.32127E-02  6212   0.235E-01    0.210E-01
RMM:   3    -0.112010772027E+04   -0.10289E-03   -0.17653E-03  6114   0.865E-02    0.124E-01
RMM:   4    -0.112010765195E+04    0.68316E-04   -0.47945E-04  5162   0.263E-02    0.693E-02
RMM:   5    -0.112010763453E+04    0.17424E-04   -0.11347E-04  3642   0.180E-02    0.437E-02
RMM:   6    -0.112010763900E+04   -0.44743E-05   -0.44505E-05  3564   0.123E-02    0.148E-02
RMM:   7    -0.112010764102E+04   -0.20159E-05   -0.23817E-05  3526   0.810E-03    0.933E-03
RMM:   8    -0.112010764170E+04   -0.67566E-06   -0.14233E-05  3466   0.677E-03
  22 F= -.11201076E+04 E0= -.11201076E+04  d E =-.119134E-02  mag=    28.0000
       N       E                     dE             d eps       ncg     rms          rms(c)
DAV:   1    -0.112010746209E+04    0.17893E-03   -0.90092E-02  6208   0.352E-01    0.887E-02
RMM:   2    -0.112010770180E+04   -0.23971E-03   -0.23739E-03  6264   0.648E-02    0.562E-02
RMM:   3    -0.112010770652E+04   -0.47201E-05   -0.11308E-04  3584   0.244E-02    0.333E-02
RMM:   4    -0.112010770381E+04    0.27147E-05   -0.41430E-05  3501   0.916E-03    0.195E-02
RMM:   5    -0.112010770355E+04    0.25697E-06   -0.15757E-05  3412   0.693E-03    0.159E-02
RMM:   6    -0.112010770423E+04   -0.68069E-06   -0.87786E-06  3301   0.457E-03    0.467E-03
RMM:   7    -0.112010770461E+04   -0.38571E-06   -0.47004E-06  3017   0.389E-03    0.305E-03
RMM:   8    -0.112010770482E+04   -0.20050E-06   -0.25323E-06  2094   0.275E-03
  23 F= -.11201077E+04 E0= -.11201077E+04  d E =-.125446E-02  mag=    28.0000
       N       E                     dE             d eps       ncg     rms          rms(c)
DAV:   1    -0.112010611735E+04    0.15873E-02   -0.10269E+00  6304   0.118E+00    0.295E-01
RMM:   2    -0.112010867295E+04   -0.25556E-02   -0.25724E-02  6214   0.211E-01    0.204E-01
RMM:   3    -0.112010874900E+04   -0.76046E-04   -0.14372E-03  6026   0.796E-02    0.124E-01
RMM:   4    -0.112010869078E+04    0.58217E-04   -0.36149E-04  4525   0.234E-02    0.740E-02
RMM:   5    -0.112010867047E+04    0.20309E-04   -0.11478E-04  3646   0.169E-02    0.431E-02
RMM:   6    -0.112010867436E+04   -0.38836E-05   -0.41420E-05  3545   0.126E-02    0.168E-02
RMM:   7    -0.112010867658E+04   -0.22173E-05   -0.21864E-05  3487   0.702E-03    0.875E-03
RMM:   8    -0.112010867752E+04   -0.94499E-06   -0.11993E-05  3370   0.677E-03
  24 F= -.11201087E+04 E0= -.11201087E+04  d E =-.972705E-03  mag=    28.0000
