       N       E                     dE             d eps       ncg     rms          rms(c)
DAV:   1    -0.105409819239E+04   -0.10541E+04   -0.20779E-02 13872   0.342E-01    0.368E-02
RMM:   2    -0.105409819054E+04    0.18497E-05   -0.48830E-05  6902   0.113E-02    0.670E-02
RMM:   3    -0.105409819121E+04   -0.66888E-06   -0.15444E-05  6614   0.668E-03    0.630E-03
RMM:   4    -0.105409819182E+04   -0.60764E-06   -0.75013E-06  4602   0.313E-03    0.855E-03
RMM:   5    -0.105409819207E+04   -0.25670E-06   -0.45471E-06  4360   0.346E-03    0.657E-03
RMM:   6    -0.105409819236E+04   -0.28784E-06   -0.29974E-06  3187   0.236E-03    0.220E-03
RMM:   7    -0.105409819248E+04   -0.11825E-06   -0.17945E-06  3026   0.242E-03    0.246E-03
RMM:   8    -0.105409819260E+04   -0.11882E-06   -0.13350E-06  2868   0.210E-03
   1 F= -.10540982E+04 E0= -.10540982E+04  d E =-.105410E+04  mag=    80.0000
       N       E                     dE             d eps       ncg     rms          rms(c)
DAV:   1    -0.105409738457E+04    0.80791E-03   -0.80294E-01 12816   0.105E+00    0.488E-01
RMM:   2    -0.105410024375E+04   -0.28592E-02   -0.25199E-02 12368   0.220E-01    0.349E-01
RMM:   3    -0.105410040249E+04   -0.15874E-03   -0.15008E-03 12426   0.666E-02    0.193E-01
RMM:   4    -0.105410024491E+04    0.15758E-03   -0.40544E-04 10298   0.260E-02    0.110E-01
RMM:   5    -0.105410020331E+04    0.41598E-04   -0.18248E-04  7858   0.185E-02    0.612E-02
RMM:   6    -0.105410020542E+04   -0.21055E-05   -0.43297E-05  7274   0.117E-02    0.393E-02
RMM:   7    -0.105410020474E+04    0.68102E-06   -0.18592E-05  7151   0.578E-03    0.170E-02
RMM:   8    -0.105410020307E+04    0.16609E-05   -0.10045E-05  6923   0.521E-03
   2 F= -.10541002E+04 E0= -.10541002E+04  d E =-.201048E-02  mag=    80.0000
       N       E                     dE             d eps       ncg     rms          rms(c)
DAV:   1    -0.105410019432E+04    0.10417E-04   -0.82721E-03 13496   0.107E-01    0.496E-02
RMM:   2    -0.105410022082E+04   -0.26501E-04   -0.23066E-04  8226   0.227E-02    0.403E-02
RMM:   3    -0.105410022437E+04   -0.35459E-05   -0.25628E-05  6578   0.101E-02    0.217E-02
RMM:   4    -0.105410022332E+04    0.10469E-05   -0.76486E-06  6070   0.435E-03    0.171E-02
RMM:   5    -0.105410022249E+04    0.82552E-06   -0.38544E-06  5584   0.335E-03    0.819E-03
RMM:   6    -0.105410022242E+04    0.70722E-07   -0.58757E-07  2383   0.187E-03    0.343E-03
RMM:   7    -0.105410022245E+04   -0.29744E-07   -0.12033E-07  1539   0.167E-03    0.198E-03
RMM:   8    -0.105410022246E+04   -0.70140E-08   -0.97574E-08  1400   0.171E-03
   3 F= -.10541002E+04 E0= -.10541002E+04  d E =-.202986E-02  mag=    80.0000
       N       E                     dE             d eps       ncg     rms          rms(c)
DAV:   1    -0.105409898967E+04    0.12328E-02   -0.78464E-01 12576   0.105E+00    0.388E-01
RMM:   2    -0.105410171812E+04   -0.27285E-02   -0.20771E-02 12406   0.199E-01    0.250E-01
RMM:   3    -0.105410194101E+04   -0.22289E-03   -0.12171E-03 12147   0.617E-02    0.134E-01
RMM:   4    -0.105410185659E+04    0.84425E-04   -0.22641E-04  8447   0.202E-02    0.777E-02
RMM:   5    -0.105410183848E+04    0.18105E-04   -0.13294E-04  7438   0.148E-02    0.463E-02
RMM:   6    -0.105410184001E+04   -0.15254E-05   -0.32206E-05  7172   0.104E-02    0.285E-02
RMM:   7    -0.105410184059E+04   -0.57870E-06   -0.13364E-05  6933   0.476E-03    0.119E-02
RMM:   8    -0.105410184086E+04   -0.27509E-06   -0.67292E-06  6484   0.469E-03
   4 F= -.10541018E+04 E0= -.10541018E+04  d E =-.161840E-02  mag=    80.0000
       N       E                     dE             d eps       ncg     rms          rms(c)
DAV:   1    -0.105410174781E+04    0.92780E-04   -0.44335E-02 12432   0.249E-01    0.929E-02
RMM:   2    -0.105410190541E+04   -0.15761E-03   -0.12003E-03 12138   0.478E-02    0.602E-02
RMM:   3    -0.105410191654E+04   -0.11130E-04   -0.55958E-05  7081   0.154E-02    0.335E-02
RMM:   4    -0.105410191387E+04    0.26762E-05   -0.20259E-05  6951   0.671E-03    0.190E-02
RMM:   5    -0.105410191297E+04    0.90298E-06   -0.11338E-05  6321   0.480E-03    0.190E-02
RMM:   6    -0.105410191330E+04   -0.33928E-06   -0.45540E-06  5738   0.374E-03    0.784E-03
RMM:   7    -0.105410191340E+04   -0.93278E-07   -0.12573E-06  3542   0.218E-03    0.304E-03
RMM:   8    -0.105410191343E+04   -0.29075E-07   -0.63978E-07  3046   0.214E-03
   5 F= -.10541019E+04 E0= -.10541019E+04  d E =-.169097E-02  mag=    80.0000
       N       E                     dE             d eps       ncg     rms          rms(c)
DAV:   1    -0.105410066480E+04    0.12486E-02   -0.84345E-01 12808   0.109E+00    0.319E-01
RMM:   2    -0.105410316203E+04   -0.24972E-02   -0.22506E-02 12442   0.202E-01    0.201E-01
RMM:   3    -0.105410328809E+04   -0.12606E-03   -0.12582E-03 11941   0.640E-02    0.117E-01
RMM:   4    -0.105410322542E+04    0.62676E-04   -0.24046E-04  8128   0.199E-02    0.653E-02
RMM:   5    -0.105410321398E+04    0.11438E-04   -0.10362E-04  7304   0.139E-02    0.326E-02
RMM:   6    -0.105410321697E+04   -0.29871E-05   -0.28953E-05  7156   0.927E-03    0.238E-02
RMM:   7    -0.105410321858E+04   -0.16148E-05   -0.14866E-05  6922   0.522E-03    0.112E-02
RMM:   8    -0.105410321966E+04   -0.10801E-05   -0.82651E-06  6539   0.498E-03
   6 F= -.10541032E+04 E0= -.10541032E+04  d E =-.130623E-02  mag=    80.0000
       N       E                     dE             d eps       ncg     rms          rms(c)
DAV:   1    -0.105410294764E+04    0.27094E-03   -0.13213E-01 12704   0.432E-01    0.126E-01
RMM:   2    -0.105410334509E+04   -0.39745E-03   -0.35761E-03 12339   0.801E-02    0.805E-02
RMM:   3    -0.105410336009E+04   -0.14999E-04   -0.16060E-04  7624   0.259E-02    0.473E-02
RMM:   4    -0.105410335361E+04    0.64818E-05   -0.49855E-05  7095   0.104E-02    0.265E-02
RMM:   5    -0.105410335332E+04    0.28452E-06   -0.24212E-05  6928   0.710E-03    0.216E-02
RMM:   6    -0.105410335437E+04   -0.10468E-05   -0.97775E-06  6281   0.490E-03    0.104E-02
RMM:   7    -0.105410335496E+04   -0.59171E-06   -0.45302E-06  5140   0.336E-03    0.424E-03
RMM:   8    -0.105410335534E+04   -0.37596E-06   -0.26113E-06  4252   0.277E-03
   7 F= -.10541034E+04 E0= -.10541034E+04  d E =-.144191E-02  mag=    80.0000
       N       E                     dE             d eps       ncg     rms          rms(c)
DAV:   1    -0.105410179337E+04    0.15616E-02   -0.98473E-01 12688   0.117E+00    0.329E-01
RMM:   2    -0.105410455083E+04   -0.27575E-02   -0.25890E-02 12595   0.214E-01    0.219E-01
RMM:   3    -0.105410465157E+04   -0.10074E-03   -0.14169E-03 12180   0.662E-02    0.127E-01
RMM:   4    -0.105410458078E+04    0.70798E-04   -0.27017E-04  8480   0.207E-02    0.737E-02
RMM:   5    -0.105410456263E+04    0.18146E-04   -0.11572E-04  7306   0.145E-02    0.359E-02
RMM:   6    -0.105410456519E+04   -0.25551E-05   -0.30173E-05  7153   0.952E-03    0.226E-02
RMM:   7    -0.105410456629E+04   -0.11011E-05   -0.15709E-05  6864   0.520E-03    0.113E-02
RMM:   8    -0.105410456645E+04   -0.16506E-06   -0.87603E-06  6519   0.512E-03
   8 F= -.10541046E+04 E0= -.10541046E+04  d E =-.121112E-02  mag=    80.0000
       N       E                     dE             d eps       ncg     rms          rms(c)
DAV:   1    -0.105410428950E+04    0.27679E-03   -0.13553E-01 12800   0.435E-01    0.122E-01
RMM:   2    -0.105410467645E+04   -0.38695E-03   -0.36407E-03 12584   0.797E-02    0.818E-02
RMM:   3    -0.105410468372E+04   -0.72646E-05   -0.15493E-04  7558   0.245E-02    0.476E-02
RMM:   4    -0.105410467633E+04    0.73878E-05   -0.45347E-05  7081   0.101E-02    0.271E-02
RMM:   5    -0.105410467475E+04    0.15814E-05   -0.22721E-05  6916   0.659E-03    0.173E-02
RMM:   6    -0.105410467544E+04   -0.69350E-06   -0.83976E-06  6214   0.461E-03    0.100E-02
RMM:   7    -0.105410467576E+04   -0.31687E-06   -0.41178E-06  5052   0.311E-03    0.370E-03
RMM:   8    -0.105410467580E+04   -0.39130E-07   -0.21821E-06  4130   0.269E-03
   9 F= -.10541047E+04 E0= -.10541047E+04  d E =-.132046E-02  mag=    80.0000
       N       E                     dE             d eps       ncg     rms          rms(c)
DAV:   1    -0.105410354031E+04    0.11354E-02   -0.82701E-01 12608   0.106E+00    0.263E-01
RMM:   2    -0.105410566502E+04   -0.21247E-02   -0.21324E-02 12513   0.194E-01    0.184E-01
RMM:   3    -0.105410571216E+04   -0.47142E-04   -0.11685E-03 11671   0.609E-02    0.112E-01
RMM:   4    -0.105410565976E+04    0.52398E-04   -0.19467E-04  7777   0.182E-02    0.686E-02
RMM:   5    -0.105410564419E+04    0.15571E-04   -0.10873E-04  7251   0.133E-02    0.286E-02
RMM:   6    -0.105410564781E+04   -0.36197E-05   -0.26840E-05  7082   0.875E-03    0.208E-02
RMM:   7    -0.105410564907E+04   -0.12651E-05   -0.14278E-05  6456   0.478E-03    0.873E-03
RMM:   8    -0.105410564968E+04   -0.60932E-06   -0.79783E-06  6164   0.478E-03
  10 F= -.10541056E+04 E0= -.10541056E+04  d E =-.973888E-03  mag=    80.0000
