<?xml version="1.0" encoding="ISO-8859-1"?>
<modeling>
 <generator>
  <i name="program" type="string">vasp </i>
  <i name="version" type="string">5.4.1  </i>
  <i name="subversion" type="string">05Feb16 (build Jan 25 2017 20:16:33) complex                          parallel </i>
  <i name="platform" type="string">BWXE6 </i>
  <i name="date" type="string">2019 06 22 </i>
  <i name="time" type="string">03:06:36 </i>
 </generator>
 <incar>
  <i type="string" name="SYSTEM"> STF</i>
  <i type="string" name="PREC">normal</i>
  <i type="string" name="ALGO"> Fast</i>
  <i type="int" name="ISPIN">     2</i>
  <i type="int" name="NELM">    40</i>
  <i type="int" name="NELMIN">     8</i>
  <i type="int" name="IBRION">     2</i>
  <i name="EDIFF">      0.00010000</i>
  <i name="EDIFFG">     -0.03000000</i>
  <i type="int" name="NSW">    30</i>
  <i type="int" name="ISIF">     3</i>
  <i name="ENCUT">    520.00000000</i>
  <i type="int" name="NBANDS">   768</i>
  <v name="MAGMOM">      0.60000000      0.60000000      0.60000000      0.60000000      0.60000000      0.60000000      0.60000000      0.60000000      0.60000000      0.60000000      0.60000000      0.60000000      0.60000000      0.60000000      0.60000000      0.60000000      0.60000000      0.60000000      0.60000000      0.60000000
      0.60000000      0.60000000      0.60000000      0.60000000      0.60000000      0.60000000      0.60000000      0.60000000      0.60000000      0.60000000      0.60000000      0.60000000      0.60000000      0.60000000      0.60000000      0.60000000      0.60000000      0.60000000      0.60000000      0.60000000
      0.60000000      0.60000000      0.60000000      0.60000000      0.60000000      0.60000000      0.60000000      0.60000000      0.60000000      0.60000000      0.60000000      0.60000000      0.60000000      0.60000000      0.60000000      0.60000000      5.00000000      5.00000000      5.00000000      5.00000000
      5.00000000      5.00000000      5.00000000      5.00000000      0.60000000      0.60000000      0.60000000      0.60000000      0.60000000      0.60000000      0.60000000      0.60000000      0.60000000      0.60000000      0.60000000      0.60000000      0.60000000      0.60000000      0.60000000      0.60000000
      0.60000000      0.60000000      0.60000000      0.60000000      0.60000000      0.60000000      0.60000000      0.60000000      0.60000000      0.60000000      0.60000000      0.60000000      0.60000000      0.60000000      0.60000000      0.60000000      0.60000000      0.60000000      0.60000000      0.60000000
      0.60000000      0.60000000      0.60000000      0.60000000      0.60000000      0.60000000      0.60000000      0.60000000      0.60000000      0.60000000      0.60000000      0.60000000      0.60000000      0.60000000      0.60000000      0.60000000      0.60000000      0.60000000      0.60000000      0.60000000
      0.60000000      0.60000000      0.60000000      0.60000000      0.60000000      0.60000000      0.60000000      0.60000000      0.60000000      0.60000000      0.60000000      0.60000000      0.60000000      0.60000000      0.60000000      0.60000000      0.60000000      0.60000000      0.60000000      0.60000000
      0.60000000      0.60000000      0.60000000      0.60000000      0.60000000      0.60000000      0.60000000      0.60000000      0.60000000      0.60000000      0.60000000      0.60000000      0.60000000      0.60000000      0.60000000      0.60000000</v>
  <i type="string" name="LREAL"> Auto</i>
  <i type="int" name="ISMEAR">     0</i>
  <i name="SIGMA">      0.05000000</i>
  <i type="int" name="LMAXMIX">     4</i>
  <v type="int" name="KPOINT_BSE">    -1     0     0     0</v>
  <i type="int" name="NELM">    40</i>
  <i type="logical" name="LDAU"> T  </i>
  <v type="int" name="LDAUTYPE">     2</v>
  <v type="int" name="LDAUL">     0     2     2     0</v>
  <v name="LDAUU">      0.00000000      3.00000000      5.00000000      0.00000000</v>
  <v name="LDAUJ">      0.00000000      0.00000000      0.00000000      0.00000000</v>
  <i type="int" name="LDAUPRINT">     1</i>
 </incar>
 <kpoints>
  <generation param="Monkhorst-Pack">
   <v type="int" name="divisions">       2        2        2 </v>
   <v name="usershift">      0.00000000       0.00000000       0.00000000 </v>
   <v name="genvec1">      0.50000000       0.00000000      -0.00000000 </v>
   <v name="genvec2">      0.00000000       0.50000000       0.00000000 </v>
   <v name="genvec3">      0.00000000      -0.00000000       0.50000000 </v>
   <v name="shift">      0.50000000       0.50000000       0.50000000 </v>
  </generation>
  <varray name="kpointlist" >
   <v>       0.25000000       0.25000000       0.25000000 </v>
   <v>      -0.25000000       0.25000000       0.25000000 </v>
   <v>       0.25000000      -0.25000000       0.25000000 </v>
   <v>      -0.25000000      -0.25000000       0.25000000 </v>
  </varray>
  <varray name="weights" >
   <v>       0.25000000 </v>
   <v>       0.25000000 </v>
   <v>       0.25000000 </v>
   <v>       0.25000000 </v>
  </varray>
 </kpoints>
 <parameters>
  <separator name="general" >
   <i type="string" name="SYSTEM">STF</i>
   <i type="logical" name="LCOMPAT"> F  </i>
  </separator>
  <separator name="electronic" >
   <i type="string" name="PREC">normal</i>
   <i name="ENMAX">    520.00000000</i>
   <i name="ENAUG">    605.39200000</i>
   <i name="EDIFF">      0.00010000</i>
   <i type="int" name="IALGO">    68</i>
   <i type="int" name="IWAVPR">    11</i>
   <i type="int" name="NBANDS">   768</i>
   <i name="NELECT">   1032.00000000</i>
   <i type="int" name="TURBO">     0</i>
   <i type="int" name="IRESTART">     0</i>
   <i type="int" name="NREBOOT">     0</i>
   <i type="int" name="NMIN">     0</i>
   <i name="EREF">      0.00000000</i>
   <separator name="electronic smearing" >
    <i type="int" name="ISMEAR">     0</i>
    <i name="SIGMA">      0.05000000</i>
    <i name="KSPACING">      0.50000000</i>
    <i type="logical" name="KGAMMA"> T  </i>
   </separator>
   <separator name="electronic projectors" >
    <i type="logical" name="LREAL"> T  </i>
    <v name="ROPT">     -0.00050000     -0.00050000     -0.00050000     -0.00050000</v>
    <i type="int" name="LMAXPAW">  -100</i>
    <i type="int" name="LMAXMIX">     4</i>
    <i type="logical" name="NLSPLINE"> F  </i>
   </separator>
   <separator name="electronic startup" >
    <i type="int" name="ISTART">     1</i>
    <i type="int" name="ICHARG">     0</i>
    <i type="int" name="INIWAV">     1</i>
   </separator>
   <separator name="electronic spin" >
    <i type="int" name="ISPIN">     2</i>
    <i type="logical" name="LNONCOLLINEAR"> F  </i>
    <v name="MAGMOM">      0.60000000      0.60000000      0.60000000      0.60000000      0.60000000      0.60000000      0.60000000      0.60000000      0.60000000      0.60000000      0.60000000      0.60000000      0.60000000      0.60000000      0.60000000      0.60000000      0.60000000      0.60000000      0.60000000      0.60000000
      0.60000000      0.60000000      0.60000000      0.60000000      0.60000000      0.60000000      0.60000000      0.60000000      0.60000000      0.60000000      0.60000000      0.60000000      0.60000000      0.60000000      0.60000000      0.60000000      0.60000000      0.60000000      0.60000000      0.60000000
      0.60000000      0.60000000      0.60000000      0.60000000      0.60000000      0.60000000      0.60000000      0.60000000      0.60000000      0.60000000      0.60000000      0.60000000      0.60000000      0.60000000      0.60000000      0.60000000      5.00000000      5.00000000      5.00000000      5.00000000
      5.00000000      5.00000000      5.00000000      5.00000000      0.60000000      0.60000000      0.60000000      0.60000000      0.60000000      0.60000000      0.60000000      0.60000000      0.60000000      0.60000000      0.60000000      0.60000000      0.60000000      0.60000000      0.60000000      0.60000000
      0.60000000      0.60000000      0.60000000      0.60000000      0.60000000      0.60000000      0.60000000      0.60000000      0.60000000      0.60000000      0.60000000      0.60000000      0.60000000      0.60000000      0.60000000      0.60000000      0.60000000      0.60000000      0.60000000      0.60000000
      0.60000000      0.60000000      0.60000000      0.60000000      0.60000000      0.60000000      0.60000000      0.60000000      0.60000000      0.60000000      0.60000000      0.60000000      0.60000000      0.60000000      0.60000000      0.60000000      0.60000000      0.60000000      0.60000000      0.60000000
      0.60000000      0.60000000      0.60000000      0.60000000      0.60000000      0.60000000      0.60000000      0.60000000      0.60000000      0.60000000      0.60000000      0.60000000      0.60000000      0.60000000      0.60000000      0.60000000      0.60000000      0.60000000      0.60000000      0.60000000
      0.60000000      0.60000000      0.60000000      0.60000000      0.60000000      0.60000000      0.60000000      0.60000000      0.60000000      0.60000000      0.60000000      0.60000000      0.60000000      0.60000000      0.60000000      0.60000000</v>
    <i name="NUPDOWN">     -1.00000000</i>
    <i type="logical" name="LSORBIT"> F  </i>
    <v name="SAXIS">      0.00000000      0.00000000      1.00000000</v>
    <i type="logical" name="LSPIRAL"> F  </i>
    <v name="QSPIRAL">      0.00000000      0.00000000      0.00000000</v>
    <i type="logical" name="LZEROZ"> F  </i>
   </separator>
   <separator name="electronic exchange-correlation" >
    <i type="logical" name="LASPH"> F  </i>
    <i type="logical" name="LMETAGGA"> F  </i>
   </separator>
   <separator name="electronic convergence" >
    <i type="int" name="NELM">    40</i>
    <i type="int" name="NELMDL">     0</i>
    <i type="int" name="NELMIN">     8</i>
    <i name="ENINI">    520.00000000</i>
    <separator name="electronic convergence detail" >
     <i type="logical" name="LDIAG"> T  </i>
     <i type="logical" name="LSUBROT"> F  </i>
     <i name="WEIMIN">      0.00100000</i>
     <i name="EBREAK">      0.00000003</i>
     <i name="DEPER">      0.30000000</i>
     <i type="int" name="NRMM">     4</i>
     <i name="TIME">      0.40000000</i>
    </separator>
   </separator>
   <separator name="electronic mixer" >
    <i name="AMIX">      0.40000000</i>
    <i name="BMIX">      1.00000000</i>
    <i name="AMIN">      0.10000000</i>
    <i name="AMIX_MAG">      1.60000000</i>
    <i name="BMIX_MAG">      1.00000000</i>
    <separator name="electronic mixer details" >
     <i type="int" name="IMIX">     4</i>
     <i type="logical" name="MIXFIRST"> F  </i>
     <i type="int" name="MAXMIX">   -45</i>
     <i name="WC">    100.00000000</i>
     <i type="int" name="INIMIX">     1</i>
     <i type="int" name="MIXPRE">     1</i>
     <i type="int" name="MREMOVE">     5</i>
    </separator>
   </separator>
   <separator name="electronic dipolcorrection" >
    <i type="logical" name="LDIPOL"> F  </i>
    <i type="logical" name="LMONO"> F  </i>
    <i type="int" name="IDIPOL">     0</i>
    <i name="EPSILON">      1.00000000</i>
    <v name="DIPOL">   -100.00000000   -100.00000000   -100.00000000</v>
    <i name="EFIELD">      0.00000000</i>
   </separator>
  </separator>
  <separator name="grids" >
   <i type="int" name="NGX">    64</i>
   <i type="int" name="NGY">    64</i>
   <i type="int" name="NGZ">    90</i>
   <i type="int" name="NGXF">   128</i>
   <i type="int" name="NGYF">   128</i>
   <i type="int" name="NGZF">   180</i>
   <i type="logical" name="ADDGRID"> F  </i>
  </separator>
  <separator name="ionic" >
   <i type="int" name="NSW">    30</i>
   <i type="int" name="IBRION">     2</i>
   <i type="int" name="ISIF">     3</i>
   <i name="PSTRESS">      0.00000000</i>
   <i name="EDIFFG">     -0.03000000</i>
   <i type="int" name="NFREE">     1</i>
   <i name="POTIM">      0.50000000</i>
   <i name="SMASS">     -3.00000000</i>
   <i name="SCALEE">      1.00000000</i>
  </separator>
  <separator name="ionic md" >
   <i name="TEBEG">      0.00010000</i>
   <i name="TEEND">      0.00010000</i>
   <i type="int" name="NBLOCK">     1</i>
   <i type="int" name="KBLOCK">    30</i>
   <i type="int" name="NPACO">   256</i>
   <i name="APACO">     16.00000000</i>
  </separator>
  <separator name="symmetry" >
   <i type="int" name="ISYM">     2</i>
   <i name="SYMPREC">      0.00001000</i>
  </separator>
  <separator name="dos" >
   <i type="logical" name="LORBIT"> F  </i>
   <v name="RWIGS">     -1.00000000     -1.00000000     -1.00000000     -1.00000000</v>
   <i type="int" name="NEDOS">   301</i>
   <i name="EMIN">     10.00000000</i>
   <i name="EMAX">    -10.00000000</i>
   <i name="EFERMI">      0.00000000</i>
  </separator>
  <separator name="writing" >
   <i type="int" name="NWRITE">     2</i>
   <i type="logical" name="LWAVE"> T  </i>
   <i type="logical" name="LCHARG"> T  </i>
   <i type="logical" name="LPARD"> F  </i>
   <i type="logical" name="LVTOT"> F  </i>
   <i type="logical" name="LVHAR"> F  </i>
   <i type="logical" name="LELF"> F  </i>
   <i type="logical" name="LOPTICS"> F  </i>
   <v name="STM">      0.00000000      0.00000000      0.00000000      0.00000000      0.00000000      0.00000000      0.00000000</v>
  </separator>
  <separator name="performance" >
   <i type="int" name="NPAR">     2</i>
   <i type="int" name="NSIM">     4</i>
   <i type="int" name="NBLK">    -1</i>
   <i type="logical" name="LPLANE"> T  </i>
   <i type="logical" name="LSCALAPACK"> T  </i>
   <i type="logical" name="LSCAAWARE"> F  </i>
   <i type="logical" name="LSCALU"> F  </i>
   <i type="logical" name="LASYNC"> F  </i>
   <i type="logical" name="LORBITALREAL"> F  </i>
  </separator>
  <separator name="miscellaneous" >
   <i type="int" name="IDIOT">     3</i>
   <i type="logical" name="LMUSIC"> F  </i>
   <v name="POMASS">     87.62000000     47.88000000     55.84700000     16.00000000</v>
   <v name="DARWINR">      0.00000000      0.00000000      0.00000000      0.00000000</v>
   <v name="DARWINV">      1.00000000      1.00000000      1.00000000      1.00000000</v>
   <i type="logical" name="LCORR"> T  </i>
  </separator>
  <i type="logical" name="GGA_COMPAT"> T  </i>
  <i type="logical" name="LBERRY"> F  </i>
  <i type="int" name="ICORELEVEL">     0</i>
  <i type="logical" name="LDAU"> T  </i>
  <v type="int" name="LDAUTYPE">     2</v>
  <v type="int" name="LDAUL">     0</v>
  <v name="LDAUU">      0.00000000</v>
  <v name="LDAUJ">      0.00000000</v>
  <i type="int" name="LDAUPRINT">     1</i>
  <i type="int" name="I_CONSTRAINED_M">     0</i>
  <separator name="electronic exchange-correlation" >
   <i type="string" name="GGA">--</i>
   <i type="int" name="VOSKOWN">     0</i>
   <i type="logical" name="LHFCALC"> F  </i>
   <i type="string" name="PRECFOCK"></i>
   <i type="logical" name="LSYMGRAD"> F  </i>
   <i type="logical" name="LHFONE"> F  </i>
   <i type="logical" name="LRHFCALC"> F  </i>
   <i type="logical" name="LTHOMAS"> F  </i>
   <i type="logical" name="LMODELHF"> F  </i>
   <i name="ENCUT4O">     -1.00000000</i>
   <i type="int" name="EXXOEP">     0</i>
   <i type="int" name="FOURORBIT">     0</i>
   <i name="AEXX">      0.00000000</i>
   <i name="HFALPHA">      0.00000000</i>
   <i name="MCALPHA">      0.00000000</i>
   <i name="ALDAX">      1.00000000</i>
   <i name="AGGAX">      1.00000000</i>
   <i name="ALDAC">      1.00000000</i>
   <i name="AGGAC">      1.00000000</i>
   <i type="int" name="NKREDX">     1</i>
   <i type="int" name="NKREDY">     1</i>
   <i type="int" name="NKREDZ">     1</i>
   <i type="logical" name="SHIFTRED"> F  </i>
   <i type="logical" name="ODDONLY"> F  </i>
   <i type="logical" name="EVENONLY"> F  </i>
   <i type="int" name="LMAXFOCK">     0</i>
   <i type="int" name="NMAXFOCKAE">     0</i>
   <i type="logical" name="LFOCKAEDFT"> F  </i>
   <i name="HFSCREEN">      0.00000000</i>
   <i name="HFSCREENC">      0.00000000</i>
   <i type="int" name="NBANDSGWLOW">     0</i>
  </separator>
  <separator name="vdW DFT" >
   <i type="logical" name="LUSE_VDW"> F  </i>
   <i name="Zab_VDW">     -0.84910000</i>
   <i name="PARAM1">      0.12340000</i>
   <i name="PARAM2">      1.00000000</i>
   <i name="PARAM3">      0.00000000</i>
  </separator>
  <separator name="model GW" >
   <i type="int" name="MODEL_GW">     0</i>
   <i name="MODEL_EPS0">      7.71728785</i>
   <i name="MODEL_ALPHA">      1.00000000</i>
  </separator>
  <separator name="linear response parameters" >
   <i type="logical" name="LEPSILON"> F  </i>
   <i type="logical" name="LRPA"> F  </i>
   <i type="logical" name="LNABLA"> F  </i>
   <i type="logical" name="LVEL"> F  </i>
   <i type="int" name="KINTER">     0</i>
   <i name="CSHIFT">      0.10000000</i>
   <i name="OMEGAMAX">     -1.00000000</i>
   <i name="DEG_THRESHOLD">      0.00200000</i>
  </separator>
  <separator name="orbital magnetization" >
   <i type="logical" name="NUCIND"> F  </i>
   <v name="MAGPOS">      0.00000000      0.00000000      0.00000000</v>
   <i type="logical" name="LNICSALL"> T  </i>
   <i type="logical" name="ORBITALMAG"> F  </i>
   <i type="logical" name="LMAGBLOCH"> F  </i>
   <i type="logical" name="LCHIMAG"> F  </i>
   <i type="logical" name="LGAUGE"> T  </i>
   <i type="int" name="MAGATOM">     0</i>
   <v name="MAGDIPOL">      0.00000000      0.00000000      0.00000000</v>
   <v name="AVECCONST">      0.00000000      0.00000000      0.00000000</v>
  </separator>
  <separator name="response functions" >
   <i type="logical" name="LADDER"> F  </i>
   <i type="logical" name="LFXC"> F  </i>
   <i type="logical" name="LHARTREE"> T  </i>
   <i type="int" name="IBSE">     0</i>
   <v type="int" name="KPOINT">    -1     0     0     0</v>
   <i type="logical" name="LTCTE"> F  </i>
   <i type="logical" name="LTETE"> F  </i>
   <i type="logical" name="LTRIPLET"> F  </i>
   <i type="logical" name="LFXCEPS"> F  </i>
   <i type="logical" name="LFXHEG"> F  </i>
   <i type="int" name="NATURALO">     0</i>
   <i type="logical" name="L2ORDER"> F  </i>
   <i type="logical" name="LUSEW"> F  </i>
   <i name="ENCUTGW">     -2.00000000</i>
   <i name="ENCUTGWSOFT">     -2.00000000</i>
   <i name="ENCUTLF">     -1.00000000</i>
   <i type="int" name="LMAXMP2">    -1</i>
   <i name="SCISSOR">      0.00000000</i>
   <i type="int" name="NOMEGA">     0</i>
   <i type="int" name="NOMEGAR">     0</i>
   <i type="int" name="NBANDSGW">    -1</i>
   <i type="int" name="NBANDSO">    -1</i>
   <i type="int" name="NBANDSV">    -1</i>
   <i type="int" name="NELM">    40</i>
   <i type="int" name="NELMHF">     1</i>
   <i type="int" name="DIM">     3</i>
   <i type="int" name="ANTIRES">     0</i>
   <i name="OMEGAMAX">    -30.00000000</i>
   <i name="OMEGAMIN">    -30.00000000</i>
   <i name="OMEGATL">   -200.00000000</i>
   <i type="int" name="OMEGAGRID">     0</i>
   <i name="CSHIFT">     -0.10000000</i>
   <i type="logical" name="SELFENERGY"> F  </i>
   <i type="logical" name="LSPECTRAL"> F  </i>
   <i type="logical" name="LSPECTRALGW"> F  </i>
   <i type="logical" name="LSINGLES"> F  </i>
   <i type="logical" name="LFERMIGW"> F  </i>
   <i type="logical" name="ODDONLYGW"> F  </i>
   <i type="logical" name="EVENONLYGW"> F  </i>
   <i type="int" name="NKREDLFX">     1</i>
   <i type="int" name="NKREDLFY">     1</i>
   <i type="int" name="NKREDLFZ">     1</i>
   <i type="int" name="MAXMEM">  1800</i>
   <i type="int" name="TELESCOPE">     0</i>
   <i type="int" name="TAUPAR">     1</i>
   <i type="int" name="OMEGAPAR">    -1</i>
   <i name="LAMBDA">      1.00000000</i>
  </separator>
  <separator name="External order field" >
   <i name="OFIELD_KAPPA">      0.00000000</i>
   <v name="OFIELD_K">      0.00000000      0.00000000      0.00000000</v>
   <i name="OFIELD_Q6_NEAR">      0.00000000</i>
   <i name="OFIELD_Q6_FAR">      0.00000000</i>
   <i name="OFIELD_A">      0.00000000</i>
  </separator>
 </parameters>
 <atominfo>
  <atoms>     156 </atoms>
  <types>       4 </types>
  <array name="atoms" >
   <dimension dim="1">ion</dimension>
   <field type="string">element</field>
   <field type="int">atomtype</field>
   <set>
    <rc><c>Sr</c><c>   1</c></rc>
    <rc><c>Sr</c><c>   1</c></rc>
    <rc><c>Sr</c><c>   1</c></rc>
    <rc><c>Sr</c><c>   1</c></rc>
    <rc><c>Sr</c><c>   1</c></rc>
    <rc><c>Sr</c><c>   1</c></rc>
    <rc><c>Sr</c><c>   1</c></rc>
    <rc><c>Sr</c><c>   1</c></rc>
    <rc><c>Sr</c><c>   1</c></rc>
    <rc><c>Sr</c><c>   1</c></rc>
    <rc><c>Sr</c><c>   1</c></rc>
    <rc><c>Sr</c><c>   1</c></rc>
    <rc><c>Sr</c><c>   1</c></rc>
    <rc><c>Sr</c><c>   1</c></rc>
    <rc><c>Sr</c><c>   1</c></rc>
    <rc><c>Sr</c><c>   1</c></rc>
    <rc><c>Sr</c><c>   1</c></rc>
    <rc><c>Sr</c><c>   1</c></rc>
    <rc><c>Sr</c><c>   1</c></rc>
    <rc><c>Sr</c><c>   1</c></rc>
    <rc><c>Sr</c><c>   1</c></rc>
    <rc><c>Sr</c><c>   1</c></rc>
    <rc><c>Sr</c><c>   1</c></rc>
    <rc><c>Sr</c><c>   1</c></rc>
    <rc><c>Sr</c><c>   1</c></rc>
    <rc><c>Sr</c><c>   1</c></rc>
    <rc><c>Sr</c><c>   1</c></rc>
    <rc><c>Sr</c><c>   1</c></rc>
    <rc><c>Sr</c><c>   1</c></rc>
    <rc><c>Sr</c><c>   1</c></rc>
    <rc><c>Sr</c><c>   1</c></rc>
    <rc><c>Sr</c><c>   1</c></rc>
    <rc><c>Ti</c><c>   2</c></rc>
    <rc><c>Ti</c><c>   2</c></rc>
    <rc><c>Ti</c><c>   2</c></rc>
    <rc><c>Ti</c><c>   2</c></rc>
    <rc><c>Ti</c><c>   2</c></rc>
    <rc><c>Ti</c><c>   2</c></rc>
    <rc><c>Ti</c><c>   2</c></rc>
    <rc><c>Ti</c><c>   2</c></rc>
    <rc><c>Ti</c><c>   2</c></rc>
    <rc><c>Ti</c><c>   2</c></rc>
    <rc><c>Ti</c><c>   2</c></rc>
    <rc><c>Ti</c><c>   2</c></rc>
    <rc><c>Ti</c><c>   2</c></rc>
    <rc><c>Ti</c><c>   2</c></rc>
    <rc><c>Ti</c><c>   2</c></rc>
    <rc><c>Ti</c><c>   2</c></rc>
    <rc><c>Ti</c><c>   2</c></rc>
    <rc><c>Ti</c><c>   2</c></rc>
    <rc><c>Ti</c><c>   2</c></rc>
    <rc><c>Ti</c><c>   2</c></rc>
    <rc><c>Ti</c><c>   2</c></rc>
    <rc><c>Ti</c><c>   2</c></rc>
    <rc><c>Ti</c><c>   2</c></rc>
    <rc><c>Ti</c><c>   2</c></rc>
    <rc><c>Fe</c><c>   3</c></rc>
    <rc><c>Fe</c><c>   3</c></rc>
    <rc><c>Fe</c><c>   3</c></rc>
    <rc><c>Fe</c><c>   3</c></rc>
    <rc><c>Fe</c><c>   3</c></rc>
    <rc><c>Fe</c><c>   3</c></rc>
    <rc><c>Fe</c><c>   3</c></rc>
    <rc><c>Fe</c><c>   3</c></rc>
    <rc><c>O </c><c>   4</c></rc>
    <rc><c>O </c><c>   4</c></rc>
    <rc><c>O </c><c>   4</c></rc>
    <rc><c>O </c><c>   4</c></rc>
    <rc><c>O </c><c>   4</c></rc>
    <rc><c>O </c><c>   4</c></rc>
    <rc><c>O </c><c>   4</c></rc>
    <rc><c>O </c><c>   4</c></rc>
    <rc><c>O </c><c>   4</c></rc>
    <rc><c>O </c><c>   4</c></rc>
    <rc><c>O </c><c>   4</c></rc>
    <rc><c>O </c><c>   4</c></rc>
    <rc><c>O </c><c>   4</c></rc>
    <rc><c>O </c><c>   4</c></rc>
    <rc><c>O </c><c>   4</c></rc>
    <rc><c>O </c><c>   4</c></rc>
    <rc><c>O </c><c>   4</c></rc>
    <rc><c>O </c><c>   4</c></rc>
    <rc><c>O </c><c>   4</c></rc>
    <rc><c>O </c><c>   4</c></rc>
    <rc><c>O </c><c>   4</c></rc>
    <rc><c>O </c><c>   4</c></rc>
    <rc><c>O </c><c>   4</c></rc>
    <rc><c>O </c><c>   4</c></rc>
    <rc><c>O </c><c>   4</c></rc>
    <rc><c>O </c><c>   4</c></rc>
    <rc><c>O </c><c>   4</c></rc>
    <rc><c>O </c><c>   4</c></rc>
    <rc><c>O </c><c>   4</c></rc>
    <rc><c>O </c><c>   4</c></rc>
    <rc><c>O </c><c>   4</c></rc>
    <rc><c>O </c><c>   4</c></rc>
    <rc><c>O </c><c>   4</c></rc>
    <rc><c>O </c><c>   4</c></rc>
    <rc><c>O </c><c>   4</c></rc>
    <rc><c>O </c><c>   4</c></rc>
    <rc><c>O </c><c>   4</c></rc>
    <rc><c>O </c><c>   4</c></rc>
    <rc><c>O </c><c>   4</c></rc>
    <rc><c>O </c><c>   4</c></rc>
    <rc><c>O </c><c>   4</c></rc>
    <rc><c>O </c><c>   4</c></rc>
    <rc><c>O </c><c>   4</c></rc>
    <rc><c>O </c><c>   4</c></rc>
    <rc><c>O </c><c>   4</c></rc>
    <rc><c>O </c><c>   4</c></rc>
    <rc><c>O </c><c>   4</c></rc>
    <rc><c>O </c><c>   4</c></rc>
    <rc><c>O </c><c>   4</c></rc>
    <rc><c>O </c><c>   4</c></rc>
    <rc><c>O </c><c>   4</c></rc>
    <rc><c>O </c><c>   4</c></rc>
    <rc><c>O </c><c>   4</c></rc>
    <rc><c>O </c><c>   4</c></rc>
    <rc><c>O </c><c>   4</c></rc>
    <rc><c>O </c><c>   4</c></rc>
    <rc><c>O </c><c>   4</c></rc>
    <rc><c>O </c><c>   4</c></rc>
    <rc><c>O </c><c>   4</c></rc>
    <rc><c>O </c><c>   4</c></rc>
    <rc><c>O </c><c>   4</c></rc>
    <rc><c>O </c><c>   4</c></rc>
    <rc><c>O </c><c>   4</c></rc>
    <rc><c>O </c><c>   4</c></rc>
    <rc><c>O </c><c>   4</c></rc>
    <rc><c>O </c><c>   4</c></rc>
    <rc><c>O </c><c>   4</c></rc>
    <rc><c>O </c><c>   4</c></rc>
    <rc><c>O </c><c>   4</c></rc>
    <rc><c>O </c><c>   4</c></rc>
    <rc><c>O </c><c>   4</c></rc>
    <rc><c>O </c><c>   4</c></rc>
    <rc><c>O </c><c>   4</c></rc>
    <rc><c>O </c><c>   4</c></rc>
    <rc><c>O </c><c>   4</c></rc>
    <rc><c>O </c><c>   4</c></rc>
    <rc><c>O </c><c>   4</c></rc>
    <rc><c>O </c><c>   4</c></rc>
    <rc><c>O </c><c>   4</c></rc>
    <rc><c>O </c><c>   4</c></rc>
    <rc><c>O </c><c>   4</c></rc>
    <rc><c>O </c><c>   4</c></rc>
    <rc><c>O </c><c>   4</c></rc>
    <rc><c>O </c><c>   4</c></rc>
    <rc><c>O </c><c>   4</c></rc>
    <rc><c>O </c><c>   4</c></rc>
    <rc><c>O </c><c>   4</c></rc>
    <rc><c>O </c><c>   4</c></rc>
    <rc><c>O </c><c>   4</c></rc>
    <rc><c>O </c><c>   4</c></rc>
    <rc><c>O </c><c>   4</c></rc>
    <rc><c>O </c><c>   4</c></rc>
   </set>
  </array>
  <array name="atomtypes" >
   <dimension dim="1">type</dimension>
   <field type="int">atomspertype</field>
   <field type="string">element</field>
   <field>mass</field>
   <field>valence</field>
   <field type="string">pseudopotential</field>
   <set>
    <rc><c>  32</c><c>Sr</c><c>     87.62000000</c><c>     10.00000000</c><c>  PAW_PBE Sr_sv 07Sep2000               </c></rc>
    <rc><c>  24</c><c>Ti</c><c>     47.88000000</c><c>      4.00000000</c><c>  PAW_PBE Ti 08Apr2002                  </c></rc>
    <rc><c>   8</c><c>Fe</c><c>     55.84700000</c><c>      8.00000000</c><c>  PAW_PBE Fe 06Sep2000                  </c></rc>
    <rc><c>  92</c><c>O </c><c>     16.00000000</c><c>      6.00000000</c><c>  PAW_PBE O 08Apr2002                   </c></rc>
   </set>
  </array>
 </atominfo>
 <structure name="initialpos" >
  <crystal>
   <varray name="basis" >
    <v>      11.22964988       0.00548840      -0.00461007 </v>
    <v>       0.00546770      11.23018792      -0.00054877 </v>
    <v>      -0.00660335      -0.00072018      15.91054243 </v>
   </varray>
   <i name="volume">   2006.49484150 </i>
   <varray name="rec_basis" >
    <v>       0.08905001      -0.00004335       0.00003696 </v>
    <v>      -0.00004352       0.08904573       0.00000401 </v>
    <v>       0.00002580       0.00000306       0.06285142 </v>
   </varray>
  </crystal>
  <varray name="positions" >
   <v>       0.99264677       0.25419395       0.12148617 </v>
   <v>       0.00705949       0.24363083       0.62582089 </v>
   <v>       0.00800067       0.74891509       0.12327643 </v>
   <v>       0.99372753       0.75717381       0.62517195 </v>
   <v>       0.50526257       0.24312788       0.12107383 </v>
   <v>       0.49064838       0.25709568       0.62552787 </v>
   <v>       0.49255118       0.75052273       0.12178302 </v>
   <v>       0.50552567       0.74041440       0.62678837 </v>
   <v>       0.99937576       0.24804919       0.37932789 </v>
   <v>       0.00326138       0.24880109       0.87286697 </v>
   <v>       0.01179615       0.75616086       0.37661811 </v>
   <v>       0.99782862       0.74997658       0.87700321 </v>
   <v>       0.49984697       0.24813416       0.37864257 </v>
   <v>       0.49594052       0.25086322       0.87326267 </v>
   <v>       0.48985326       0.74866310       0.37016661 </v>
   <v>       0.50329211       0.74422162       0.87886328 </v>
   <v>       0.25226695       0.99244228       0.12570161 </v>
   <v>       0.23897397       0.01403703       0.62619296 </v>
   <v>       0.24719384       0.50549627       0.12057800 </v>
   <v>       0.25028593       0.48462689       0.62793346 </v>
   <v>       0.74908224       0.00391228       0.12104574 </v>
   <v>       0.76352671       0.00252253       0.62827542 </v>
   <v>       0.75234095       0.49389354       0.12322011 </v>
   <v>       0.74838599       0.49563517       0.62835872 </v>
   <v>       0.24334850       0.00309385       0.37300100 </v>
   <v>       0.24578234       0.00614911       0.87610364 </v>
   <v>       0.24834663       0.49864014       0.37595953 </v>
   <v>       0.25009246       0.49317788       0.87444741 </v>
   <v>       0.75794573       0.01132841       0.37455783 </v>
   <v>       0.75278750       0.99886537       0.87349223 </v>
   <v>       0.74972961       0.48711480       0.37205247 </v>
   <v>       0.75067368       0.49836190       0.87634332 </v>
   <v>       0.99997370       0.00012359       0.99988716 </v>
   <v>       0.99687839       0.49611206       0.50025625 </v>
   <v>       0.49983428       0.99806175       0.99596140 </v>
   <v>       0.51019708       0.00568413       0.50225667 </v>
   <v>       0.49938113       0.49851034       0.00255748 </v>
   <v>       0.49832374       0.49733960       0.49653027 </v>
   <v>       0.24946535       0.25221572       0.00042245 </v>
   <v>       0.24973776       0.74962393       0.99944539 </v>
   <v>       0.24408023       0.74056640       0.50379501 </v>
   <v>       0.75031252       0.25044532       0.99782222 </v>
   <v>       0.75375829       0.25234121       0.50232816 </v>
   <v>       0.75161105       0.74867795       0.99818755 </v>
   <v>       0.74960615       0.74831899       0.50658479 </v>
   <v>       0.23745300       0.24290902       0.24837680 </v>
   <v>       0.23870088       0.74522635       0.74793659 </v>
   <v>       0.74762741       0.24915501       0.25004134 </v>
   <v>       0.75111249       0.24787714       0.74976208 </v>
   <v>       0.75094443       0.75051428       0.24187360 </v>
   <v>       0.74972092       0.75072845       0.75333876 </v>
   <v>       0.99703726       0.99386790       0.25073133 </v>
   <v>       0.00273066       0.50433832       0.25057317 </v>
   <v>       0.99682284       0.49478720       0.75068835 </v>
   <v>       0.49890223       0.99712046       0.25122741 </v>
   <v>       0.50163526       0.49931493       0.75070003 </v>
   <v>       0.00320210       0.00359648       0.49939562 </v>
   <v>       0.99974297       0.50113151       0.99909645 </v>
   <v>       0.24958822       0.25008460       0.50076346 </v>
   <v>       0.24859242       0.24515605       0.74922625 </v>
   <v>       0.25161920       0.74830574       0.24950539 </v>
   <v>       0.00213918       0.00171512       0.74997677 </v>
   <v>       0.50723693       0.01039950       0.74684376 </v>
   <v>       0.50865492       0.51356770       0.25092503 </v>
   <v>       0.10846552       0.14081904       0.24678892 </v>
   <v>       0.10848433       0.14012247       0.74931938 </v>
   <v>       0.10960313       0.64110357       0.25618750 </v>
   <v>       0.11025925       0.64276381       0.74397008 </v>
   <v>       0.61288299       0.13176488       0.25889507 </v>
   <v>       0.61023794       0.14212506       0.74256446 </v>
   <v>       0.61888440       0.64193217       0.26333393 </v>
   <v>       0.61468292       0.63751287       0.75069013 </v>
   <v>       0.38764772       0.36848877       0.74950763 </v>
   <v>       0.38944210       0.86243415       0.24367460 </v>
   <v>       0.88374239       0.36388491       0.24995330 </v>
   <v>       0.88842630       0.36048854       0.74838078 </v>
   <v>       0.88525847       0.85702125       0.26223801 </v>
   <v>       0.88466367       0.86016101       0.75153990 </v>
   <v>       0.36597619       0.11930465       0.24885993 </v>
   <v>       0.36093464       0.10069049       0.74927656 </v>
   <v>       0.35919934       0.60414863       0.25196576 </v>
   <v>       0.36868633       0.62586594       0.74600498 </v>
   <v>       0.86078456       0.11132560       0.24803010 </v>
   <v>       0.85684128       0.11168519       0.75179791 </v>
   <v>       0.85795426       0.61567932       0.26232927 </v>
   <v>       0.85931294       0.61243275       0.75032619 </v>
   <v>       0.14402016       0.39213868       0.24684878 </v>
   <v>       0.13601588       0.39322426       0.74941574 </v>
   <v>       0.13768859       0.89095682       0.25041135 </v>
   <v>       0.14790646       0.89057914       0.74881876 </v>
   <v>       0.62579459       0.37904439       0.24938277 </v>
   <v>       0.63894851       0.38954943       0.75138725 </v>
   <v>       0.64227337       0.88303056       0.26607367 </v>
   <v>       0.62875012       0.88246639       0.74612253 </v>
   <v>       0.36236103       0.39032920       0.99674430 </v>
   <v>       0.36296979       0.39192143       0.50531300 </v>
   <v>       0.36242943       0.88847991       0.00554178 </v>
   <v>       0.85905415       0.38674686       0.00196984 </v>
   <v>       0.85771647       0.39150001       0.49918102 </v>
   <v>       0.85870177       0.88912948       0.99920864 </v>
   <v>       0.85581154       0.88028452       0.48616026 </v>
   <v>       0.13931163       0.11291631       0.01148165 </v>
   <v>       0.13709568       0.11808138       0.49212661 </v>
   <v>       0.14114673       0.61502359       0.99209017 </v>
   <v>       0.14066015       0.61278095       0.50606712 </v>
   <v>       0.63825268       0.10902659       0.99558299 </v>
   <v>       0.64026329       0.10733244       0.50487874 </v>
   <v>       0.63966828       0.61006005       0.00317819 </v>
   <v>       0.64300103       0.61203100       0.48327664 </v>
   <v>       0.11317202       0.36166103       0.00434738 </v>
   <v>       0.10927833       0.36622379       0.50130930 </v>
   <v>       0.11181801       0.86146401       0.99831044 </v>
   <v>       0.12538951       0.86644474       0.50311013 </v>
   <v>       0.60974551       0.35961266       0.99970435 </v>
   <v>       0.60963251       0.35810803       0.49942043 </v>
   <v>       0.61061438       0.85809276       0.00135608 </v>
   <v>       0.60786231       0.85338147       0.49044893 </v>
   <v>       0.39019656       0.13708772       0.00104608 </v>
   <v>       0.38713885       0.12689105       0.50175337 </v>
   <v>       0.39016979       0.63966094       0.00016255 </v>
   <v>       0.39436828       0.64694603       0.50040598 </v>
   <v>       0.88818495       0.13870837       0.00098277 </v>
   <v>       0.88400488       0.13970073       0.49987258 </v>
   <v>       0.88729529       0.64233814       0.00062612 </v>
   <v>       0.88726579       0.64223656       0.48787289 </v>
   <v>       0.99260825       0.99004185       0.12660317 </v>
   <v>       0.99278134       0.99557401       0.62296770 </v>
   <v>       0.99585075       0.50933086       0.12804638 </v>
   <v>       0.99159866       0.50671992       0.62332542 </v>
   <v>       0.51155986       0.99941335       0.12786664 </v>
   <v>       0.47800826       0.96851127       0.61932537 </v>
   <v>       0.49620386       0.49617241       0.12731900 </v>
   <v>       0.50955000       0.50393868       0.62307625 </v>
   <v>       0.00121910       0.00379180       0.37269812 </v>
   <v>       0.00250249       0.00178134       0.87809592 </v>
   <v>       0.00513702       0.49456632       0.37590088 </v>
   <v>       0.99763638       0.50213695       0.87277901 </v>
   <v>       0.47893139       0.98707198       0.38058998 </v>
   <v>       0.49386723       0.98735384       0.87252590 </v>
   <v>       0.48651497       0.48280242       0.37241737 </v>
   <v>       0.50059000       0.50368432       0.87534613 </v>
   <v>       0.26771271       0.26678441       0.36700628 </v>
   <v>       0.24878752       0.24823942       0.87819929 </v>
   <v>       0.26201908       0.76560522       0.38336595 </v>
   <v>       0.26594414       0.76309815       0.86877460 </v>
   <v>       0.75015591       0.24921427       0.37641756 </v>
   <v>       0.74778857       0.25057693       0.87418766 </v>
   <v>       0.74694427       0.75020336       0.87581470 </v>
   <v>       0.27269207       0.26744595       0.13035594 </v>
   <v>       0.25024862       0.25124770       0.62492088 </v>
   <v>       0.24574154       0.74650335       0.12268226 </v>
   <v>       0.27717550       0.77632312       0.62534301 </v>
   <v>       0.74474284       0.24556854       0.12488392 </v>
   <v>       0.75165804       0.25373444       0.62479599 </v>
   <v>       0.74899866       0.75213982       0.12657352 </v>
   <v>       0.75147896       0.74741910       0.62320937 </v>
  </varray>
 </structure>
 <calculation>
  <scstep>
   <time name="dav">  598.25  598.27</time>
   <time name="total">  605.48  605.67</time>
   <energy>
    <i name="alphaZ">   5624.41333235 </i>
    <i name="ewald"> -61293.89289926 </i>
    <i name="hartreedc"> -16234.37468831 </i>
    <i name="XCdc">   2962.68122849 </i>
    <i name="pawpsdc"> 112817.33404241 </i>
    <i name="pawaedc">-111716.52643495 </i>
    <i name="eentropy">     -0.00000000 </i>
    <i name="bandstr">  -7062.23053462 </i>
    <i name="atom">  73783.44779670 </i>
    <i name="e_fr_energy">  -1119.14815720 </i>
    <i name="e_wo_entrp">  -1119.14815720 </i>
    <i name="e_0_energy">  -1119.14815720 </i>
   </energy>
  </scstep>
  <scstep>
   <time name="diag">   64.74   64.74</time>
   <time name="diis">   63.96   63.96</time>
   <time name="orth">   33.40   33.40</time>
   <time name="total">  169.32  169.35</time>
   <energy>
    <i name="e_fr_energy">  -1119.14815601 </i>
    <i name="e_wo_entrp">  -1119.14815601 </i>
    <i name="e_0_energy">  -1119.14815601 </i>
   </energy>
  </scstep>
  <scstep>
   <time name="diag">   64.73   64.73</time>
   <time name="diis">   62.75   62.75</time>
   <time name="orth">   33.40   33.40</time>
   <time name="total">  168.10  168.18</time>
   <energy>
    <i name="e_fr_energy">  -1119.14815667 </i>
    <i name="e_wo_entrp">  -1119.14815667 </i>
    <i name="e_0_energy">  -1119.14815667 </i>
   </energy>
  </scstep>
  <scstep>
   <time name="diag">   64.84   64.84</time>
   <time name="diis">   56.26   56.26</time>
   <time name="orth">   33.38   33.38</time>
   <time name="total">  161.71  161.82</time>
   <energy>
    <i name="e_fr_energy">  -1119.14815802 </i>
    <i name="e_wo_entrp">  -1119.14815802 </i>
    <i name="e_0_energy">  -1119.14815802 </i>
   </energy>
  </scstep>
  <scstep>
   <time name="diag">   64.95   64.95</time>
   <time name="diis">   54.86   54.86</time>
   <time name="orth">   33.41   33.42</time>
   <time name="total">  160.44  160.55</time>
   <energy>
    <i name="e_fr_energy">  -1119.14815894 </i>
    <i name="e_wo_entrp">  -1119.14815894 </i>
    <i name="e_0_energy">  -1119.14815894 </i>
   </energy>
  </scstep>
  <scstep>
   <time name="diag">   64.87   64.87</time>
   <time name="diis">   50.74   50.74</time>
   <time name="orth">   33.39   33.39</time>
   <time name="total">  156.23  156.29</time>
   <energy>
    <i name="e_fr_energy">  -1119.14815962 </i>
    <i name="e_wo_entrp">  -1119.14815962 </i>
    <i name="e_0_energy">  -1119.14815962 </i>
   </energy>
  </scstep>
  <scstep>
   <time name="diag">   64.72   64.72</time>
   <time name="diis">   49.21   49.21</time>
   <time name="orth">   33.47   33.47</time>
   <time name="total">  154.60  154.75</time>
   <energy>
    <i name="e_fr_energy">  -1119.14815986 </i>
    <i name="e_wo_entrp">  -1119.14815986 </i>
    <i name="e_0_energy">  -1119.14815986 </i>
   </energy>
  </scstep>
  <scstep>
   <time name="diag">   64.61   64.61</time>
   <time name="diis">   47.87   47.87</time>
   <time name="orth">   33.47   33.48</time>
   <time name="total">  147.00  147.16</time>
   <energy>
    <i name="alphaZ">   5624.41333235 </i>
    <i name="ewald"> -61293.89289926 </i>
    <i name="hartreedc"> -16234.42077327 </i>
    <i name="XCdc">   2962.68045556 </i>
    <i name="pawpsdc"> 112815.69284875 </i>
    <i name="pawaedc">-111714.87063201 </i>
    <i name="eentropy">     -0.00000000 </i>
    <i name="bandstr">  -7062.19828894 </i>
    <i name="atom">  73783.44779670 </i>
    <i name="e_fr_energy">  -1119.14816013 </i>
    <i name="e_wo_entrp">  -1119.14816013 </i>
    <i name="e_0_energy">  -1119.14816013 </i>
   </energy>
  </scstep>
  <structure>
   <crystal>
    <varray name="basis" >
     <v>      11.22964988       0.00548840      -0.00461007 </v>
     <v>       0.00546770      11.23018792      -0.00054877 </v>
     <v>      -0.00660335      -0.00072018      15.91054243 </v>
    </varray>
    <i name="volume">   2006.49484150 </i>
    <varray name="rec_basis" >
     <v>       0.08905001      -0.00004335       0.00003696 </v>
     <v>      -0.00004352       0.08904573       0.00000401 </v>
     <v>       0.00002580       0.00000306       0.06285142 </v>
    </varray>
   </crystal>
   <varray name="positions" >
    <v>       0.99264677       0.25419395       0.12148617 </v>
    <v>       0.00705949       0.24363083       0.62582089 </v>
    <v>       0.00800067       0.74891509       0.12327643 </v>
    <v>       0.99372753       0.75717381       0.62517195 </v>
    <v>       0.50526257       0.24312788       0.12107383 </v>
    <v>       0.49064838       0.25709568       0.62552787 </v>
    <v>       0.49255118       0.75052273       0.12178302 </v>
    <v>       0.50552567       0.74041440       0.62678837 </v>
    <v>       0.99937576       0.24804919       0.37932789 </v>
    <v>       0.00326138       0.24880109       0.87286697 </v>
    <v>       0.01179615       0.75616086       0.37661811 </v>
    <v>       0.99782862       0.74997658       0.87700321 </v>
    <v>       0.49984697       0.24813416       0.37864257 </v>
    <v>       0.49594052       0.25086322       0.87326267 </v>
    <v>       0.48985326       0.74866310       0.37016661 </v>
    <v>       0.50329211       0.74422162       0.87886328 </v>
    <v>       0.25226695       0.99244228       0.12570161 </v>
    <v>       0.23897397       0.01403703       0.62619296 </v>
    <v>       0.24719384       0.50549627       0.12057800 </v>
    <v>       0.25028593       0.48462689       0.62793346 </v>
    <v>       0.74908224       0.00391228       0.12104574 </v>
    <v>       0.76352671       0.00252253       0.62827542 </v>
    <v>       0.75234095       0.49389354       0.12322011 </v>
    <v>       0.74838599       0.49563517       0.62835872 </v>
    <v>       0.24334850       0.00309385       0.37300100 </v>
    <v>       0.24578234       0.00614911       0.87610364 </v>
    <v>       0.24834663       0.49864014       0.37595953 </v>
    <v>       0.25009246       0.49317788       0.87444741 </v>
    <v>       0.75794573       0.01132841       0.37455783 </v>
    <v>       0.75278750       0.99886537       0.87349223 </v>
    <v>       0.74972961       0.48711480       0.37205247 </v>
    <v>       0.75067368       0.49836190       0.87634332 </v>
    <v>       0.99997370       0.00012359       0.99988716 </v>
    <v>       0.99687839       0.49611206       0.50025625 </v>
    <v>       0.49983428       0.99806175       0.99596140 </v>
    <v>       0.51019708       0.00568413       0.50225667 </v>
    <v>       0.49938113       0.49851034       0.00255748 </v>
    <v>       0.49832374       0.49733960       0.49653027 </v>
    <v>       0.24946535       0.25221572       0.00042245 </v>
    <v>       0.24973776       0.74962393       0.99944539 </v>
    <v>       0.24408023       0.74056640       0.50379501 </v>
    <v>       0.75031252       0.25044532       0.99782222 </v>
    <v>       0.75375829       0.25234121       0.50232816 </v>
    <v>       0.75161105       0.74867795       0.99818755 </v>
    <v>       0.74960615       0.74831899       0.50658479 </v>
    <v>       0.23745300       0.24290902       0.24837680 </v>
    <v>       0.23870088       0.74522635       0.74793659 </v>
    <v>       0.74762741       0.24915501       0.25004134 </v>
    <v>       0.75111249       0.24787714       0.74976208 </v>
    <v>       0.75094443       0.75051428       0.24187360 </v>
    <v>       0.74972092       0.75072845       0.75333876 </v>
    <v>       0.99703726       0.99386790       0.25073133 </v>
    <v>       0.00273066       0.50433832       0.25057317 </v>
    <v>       0.99682284       0.49478720       0.75068835 </v>
    <v>       0.49890223       0.99712046       0.25122741 </v>
    <v>       0.50163526       0.49931493       0.75070003 </v>
    <v>       0.00320210       0.00359648       0.49939562 </v>
    <v>       0.99974297       0.50113151       0.99909645 </v>
    <v>       0.24958822       0.25008460       0.50076346 </v>
    <v>       0.24859242       0.24515605       0.74922625 </v>
    <v>       0.25161920       0.74830574       0.24950539 </v>
    <v>       0.00213918       0.00171512       0.74997677 </v>
    <v>       0.50723693       0.01039950       0.74684376 </v>
    <v>       0.50865492       0.51356770       0.25092503 </v>
    <v>       0.10846552       0.14081904       0.24678892 </v>
    <v>       0.10848433       0.14012247       0.74931938 </v>
    <v>       0.10960313       0.64110357       0.25618750 </v>
    <v>       0.11025925       0.64276381       0.74397008 </v>
    <v>       0.61288299       0.13176488       0.25889507 </v>
    <v>       0.61023794       0.14212506       0.74256446 </v>
    <v>       0.61888440       0.64193217       0.26333393 </v>
    <v>       0.61468292       0.63751287       0.75069013 </v>
    <v>       0.38764772       0.36848877       0.74950763 </v>
    <v>       0.38944210       0.86243415       0.24367460 </v>
    <v>       0.88374239       0.36388491       0.24995330 </v>
    <v>       0.88842630       0.36048854       0.74838078 </v>
    <v>       0.88525847       0.85702125       0.26223801 </v>
    <v>       0.88466367       0.86016101       0.75153990 </v>
    <v>       0.36597619       0.11930465       0.24885993 </v>
    <v>       0.36093464       0.10069049       0.74927656 </v>
    <v>       0.35919934       0.60414863       0.25196576 </v>
    <v>       0.36868633       0.62586594       0.74600498 </v>
    <v>       0.86078456       0.11132560       0.24803010 </v>
    <v>       0.85684128       0.11168519       0.75179791 </v>
    <v>       0.85795426       0.61567932       0.26232927 </v>
    <v>       0.85931294       0.61243275       0.75032619 </v>
    <v>       0.14402016       0.39213868       0.24684878 </v>
    <v>       0.13601588       0.39322426       0.74941574 </v>
    <v>       0.13768859       0.89095682       0.25041135 </v>
    <v>       0.14790646       0.89057914       0.74881876 </v>
    <v>       0.62579459       0.37904439       0.24938277 </v>
    <v>       0.63894851       0.38954943       0.75138725 </v>
    <v>       0.64227337       0.88303056       0.26607367 </v>
    <v>       0.62875012       0.88246639       0.74612253 </v>
    <v>       0.36236103       0.39032920       0.99674430 </v>
    <v>       0.36296979       0.39192143       0.50531300 </v>
    <v>       0.36242943       0.88847991       0.00554178 </v>
    <v>       0.85905415       0.38674686       0.00196984 </v>
    <v>       0.85771647       0.39150001       0.49918102 </v>
    <v>       0.85870177       0.88912948       0.99920864 </v>
    <v>       0.85581154       0.88028452       0.48616026 </v>
    <v>       0.13931163       0.11291631       0.01148165 </v>
    <v>       0.13709568       0.11808138       0.49212661 </v>
    <v>       0.14114673       0.61502359       0.99209017 </v>
    <v>       0.14066015       0.61278095       0.50606712 </v>
    <v>       0.63825268       0.10902659       0.99558299 </v>
    <v>       0.64026329       0.10733244       0.50487874 </v>
    <v>       0.63966828       0.61006005       0.00317819 </v>
    <v>       0.64300103       0.61203100       0.48327664 </v>
    <v>       0.11317202       0.36166103       0.00434738 </v>
    <v>       0.10927833       0.36622379       0.50130930 </v>
    <v>       0.11181801       0.86146401       0.99831044 </v>
    <v>       0.12538951       0.86644474       0.50311013 </v>
    <v>       0.60974551       0.35961266       0.99970435 </v>
    <v>       0.60963251       0.35810803       0.49942043 </v>
    <v>       0.61061438       0.85809276       0.00135608 </v>
    <v>       0.60786231       0.85338147       0.49044893 </v>
    <v>       0.39019656       0.13708772       0.00104608 </v>
    <v>       0.38713885       0.12689105       0.50175337 </v>
    <v>       0.39016979       0.63966094       0.00016255 </v>
    <v>       0.39436828       0.64694603       0.50040598 </v>
    <v>       0.88818495       0.13870837       0.00098277 </v>
    <v>       0.88400488       0.13970073       0.49987258 </v>
    <v>       0.88729529       0.64233814       0.00062612 </v>
    <v>       0.88726579       0.64223656       0.48787289 </v>
    <v>       0.99260825       0.99004185       0.12660317 </v>
    <v>       0.99278134       0.99557401       0.62296770 </v>
    <v>       0.99585075       0.50933086       0.12804638 </v>
    <v>       0.99159866       0.50671992       0.62332542 </v>
    <v>       0.51155986       0.99941335       0.12786664 </v>
    <v>       0.47800826       0.96851127       0.61932537 </v>
    <v>       0.49620386       0.49617241       0.12731900 </v>
    <v>       0.50955000       0.50393868       0.62307625 </v>
    <v>       0.00121910       0.00379180       0.37269812 </v>
    <v>       0.00250249       0.00178134       0.87809592 </v>
    <v>       0.00513702       0.49456632       0.37590088 </v>
    <v>       0.99763638       0.50213695       0.87277901 </v>
    <v>       0.47893139       0.98707198       0.38058998 </v>
    <v>       0.49386723       0.98735384       0.87252590 </v>
    <v>       0.48651497       0.48280242       0.37241737 </v>
    <v>       0.50059000       0.50368432       0.87534613 </v>
    <v>       0.26771271       0.26678441       0.36700628 </v>
    <v>       0.24878752       0.24823942       0.87819929 </v>
    <v>       0.26201908       0.76560522       0.38336595 </v>
    <v>       0.26594414       0.76309815       0.86877460 </v>
    <v>       0.75015591       0.24921427       0.37641756 </v>
    <v>       0.74778857       0.25057693       0.87418766 </v>
    <v>       0.74694427       0.75020336       0.87581470 </v>
    <v>       0.27269207       0.26744595       0.13035594 </v>
    <v>       0.25024862       0.25124770       0.62492088 </v>
    <v>       0.24574154       0.74650335       0.12268226 </v>
    <v>       0.27717550       0.77632312       0.62534301 </v>
    <v>       0.74474284       0.24556854       0.12488392 </v>
    <v>       0.75165804       0.25373444       0.62479599 </v>
    <v>       0.74899866       0.75213982       0.12657352 </v>
    <v>       0.75147896       0.74741910       0.62320937 </v>
   </varray>
  </structure>
  <varray name="forces" >
   <v>      -0.00187357       0.01281569       0.02210550 </v>
   <v>      -0.00104489       0.02041385      -0.01840473 </v>
   <v>       0.00967274      -0.01972632       0.00238318 </v>
   <v>      -0.00110597       0.00800506      -0.00014742 </v>
   <v>       0.00403123      -0.00607515       0.01461051 </v>
   <v>      -0.00672619       0.00240473      -0.01047586 </v>
   <v>      -0.00636301       0.02402276      -0.00543325 </v>
   <v>       0.00850714       0.00776102      -0.03498689 </v>
   <v>       0.00572287       0.01223154       0.00357109 </v>
   <v>       0.00043578       0.00832543      -0.00590677 </v>
   <v>      -0.01026736      -0.01616032       0.01198455 </v>
   <v>      -0.00885275      -0.01656048      -0.00505123 </v>
   <v>       0.00234207      -0.00899963       0.00135043 </v>
   <v>      -0.00450861      -0.01503565      -0.00489008 </v>
   <v>       0.02668101      -0.01950337       0.01758352 </v>
   <v>       0.01525653      -0.00045018      -0.00961541 </v>
   <v>       0.00059282      -0.00958837       0.01649002 </v>
   <v>      -0.01345703       0.02713280       0.00078569 </v>
   <v>      -0.00568632      -0.01067385       0.02686033 </v>
   <v>       0.00042556      -0.02075385      -0.01465819 </v>
   <v>      -0.00839383       0.01841451       0.01003156 </v>
   <v>      -0.00662872      -0.02120510      -0.01494250 </v>
   <v>       0.00857978      -0.01740468       0.00918788 </v>
   <v>       0.02701379       0.00188710       0.00166229 </v>
   <v>       0.01139252       0.00243452       0.02356257 </v>
   <v>       0.02534420      -0.00185209      -0.02373375 </v>
   <v>      -0.00519423      -0.01383525      -0.00206590 </v>
   <v>      -0.00542535       0.00977064      -0.01160346 </v>
   <v>       0.00753651      -0.00913990       0.00966409 </v>
   <v>      -0.01011259       0.00272501      -0.01655876 </v>
   <v>       0.00608462       0.01823402       0.02295937 </v>
   <v>       0.01091571      -0.00369870      -0.02400821 </v>
   <v>       0.01326334      -0.05175869      -0.00680524 </v>
   <v>      -0.01089237       0.03364606       0.01123082 </v>
   <v>      -0.00400056      -0.04631605      -0.03302805 </v>
   <v>       0.03995497       0.01428420      -0.00258798 </v>
   <v>      -0.00077041       0.02922405      -0.04747860 </v>
   <v>       0.02054656       0.03040229       0.00377192 </v>
   <v>       0.01956396       0.00886919       0.03227526 </v>
   <v>       0.02431081      -0.01448158      -0.04514715 </v>
   <v>      -0.01359818      -0.02943415       0.01908607 </v>
   <v>      -0.00539583       0.02977857      -0.03008722 </v>
   <v>      -0.00755893      -0.00385536       0.01039824 </v>
   <v>      -0.04465388       0.01547356      -0.02714866 </v>
   <v>      -0.00212269       0.02106232       0.07848561 </v>
   <v>       0.00665238       0.01878606      -0.00239428 </v>
   <v>       0.00765163      -0.06386272      -0.00836185 </v>
   <v>       0.00885784      -0.02962805       0.01164027 </v>
   <v>      -0.00945854       0.01702012      -0.00675861 </v>
   <v>       0.03250297      -0.00206202      -0.05194818 </v>
   <v>      -0.02656693      -0.04102642      -0.00547173 </v>
   <v>      -0.03842196       0.01969665       0.02089933 </v>
   <v>      -0.02165379       0.01115129       0.02819436 </v>
   <v>      -0.04421418       0.05484487       0.01433325 </v>
   <v>      -0.00239788      -0.00424858       0.03158546 </v>
   <v>       0.02897776       0.08526297      -0.00494742 </v>
   <v>      -0.02193719      -0.01444143      -0.01506287 </v>
   <v>       0.00536788       0.01409344      -0.02600003 </v>
   <v>       0.00922904       0.03806290      -0.01852556 </v>
   <v>       0.00725200       0.03050576       0.02712224 </v>
   <v>      -0.00532681      -0.01426929       0.01806593 </v>
   <v>      -0.04036339      -0.01082156       0.01621636 </v>
   <v>      -0.02008904      -0.01101365       0.02870008 </v>
   <v>      -0.01207533      -0.01721597      -0.00339385 </v>
   <v>       0.01546814      -0.00985938      -0.03523199 </v>
   <v>       0.01702722      -0.01497862       0.01915354 </v>
   <v>       0.02452833      -0.02612361      -0.01360177 </v>
   <v>       0.01874959       0.00637014       0.02524458 </v>
   <v>       0.00872786      -0.03639278       0.01086011 </v>
   <v>      -0.02716048      -0.01457850       0.02333790 </v>
   <v>      -0.00270713      -0.02538887       0.00545771 </v>
   <v>       0.01722500      -0.03486237       0.01068480 </v>
   <v>      -0.03614222      -0.04014092       0.02356930 </v>
   <v>       0.00119658       0.01847936      -0.01315662 </v>
   <v>      -0.02415466       0.01691286      -0.03012753 </v>
   <v>      -0.02536931      -0.01711068       0.01577078 </v>
   <v>      -0.03746449      -0.00417571       0.00425725 </v>
   <v>       0.01848825       0.04859434       0.01081317 </v>
   <v>       0.02940577      -0.02148196       0.00998027 </v>
   <v>      -0.00518166      -0.00149359       0.01706133 </v>
   <v>       0.00705858      -0.00065605      -0.01090333 </v>
   <v>       0.01768319       0.01710920       0.02013378 </v>
   <v>      -0.00106977       0.02749492      -0.01778245 </v>
   <v>       0.02764683       0.01782276       0.00561496 </v>
   <v>      -0.00697379       0.04475594      -0.00342142 </v>
   <v>       0.02208207       0.00647409       0.01676850 </v>
   <v>       0.00443675       0.01181149      -0.01514880 </v>
   <v>       0.01271815      -0.03093646       0.03109615 </v>
   <v>      -0.00264878      -0.03741827      -0.00221156 </v>
   <v>      -0.00754487       0.00294018      -0.00522090 </v>
   <v>      -0.02652951      -0.04595486      -0.01245214 </v>
   <v>      -0.00720869      -0.01105402       0.00132909 </v>
   <v>      -0.01446143      -0.01562936       0.01604336 </v>
   <v>      -0.00091542      -0.01272313       0.00741841 </v>
   <v>      -0.02563687      -0.01701937      -0.03739086 </v>
   <v>      -0.01695864      -0.02848033      -0.02452487 </v>
   <v>       0.01120588       0.01666065       0.01881621 </v>
   <v>       0.01329508       0.00322373       0.02005296 </v>
   <v>       0.03210179      -0.00173889       0.00947369 </v>
   <v>       0.03087296       0.02140217      -0.02041434 </v>
   <v>       0.03561168       0.01809685      -0.01659326 </v>
   <v>      -0.00384631       0.02239668      -0.01713223 </v>
   <v>      -0.02960793       0.02127363       0.02751076 </v>
   <v>      -0.01956780      -0.01665635      -0.01307327 </v>
   <v>      -0.02811256       0.01456960      -0.01986527 </v>
   <v>       0.00932823       0.01029524       0.00531150 </v>
   <v>      -0.05900147       0.00573822      -0.03191409 </v>
   <v>      -0.00184937      -0.00701370      -0.00403504 </v>
   <v>      -0.03432817       0.02061122      -0.01326342 </v>
   <v>       0.02282581      -0.02615373       0.01235159 </v>
   <v>       0.02273597      -0.02067781      -0.00716842 </v>
   <v>       0.00374134       0.03507004       0.00087408 </v>
   <v>       0.04401049       0.02902906       0.00124173 </v>
   <v>       0.01797785      -0.00763560      -0.01006068 </v>
   <v>       0.00829700       0.04790753       0.01420440 </v>
   <v>      -0.00646886       0.02083115       0.00919085 </v>
   <v>      -0.02274939       0.00993412       0.00564570 </v>
   <v>      -0.01376732       0.01802076       0.00225195 </v>
   <v>       0.00400865       0.02461895      -0.02332289 </v>
   <v>      -0.00192213      -0.01117275      -0.00198748 </v>
   <v>      -0.02513037       0.02365194       0.00989303 </v>
   <v>       0.00525492      -0.00830335       0.01049289 </v>
   <v>       0.01533294      -0.00674807       0.00403823 </v>
   <v>       0.00660967      -0.00999927      -0.01525253 </v>
   <v>      -0.03096909      -0.00568560      -0.01332885 </v>
   <v>      -0.00846124      -0.00924413      -0.02626642 </v>
   <v>      -0.00168257      -0.00291903       0.00881141 </v>
   <v>       0.01556982      -0.00252042      -0.00034764 </v>
   <v>       0.00262934      -0.01773746      -0.01567957 </v>
   <v>      -0.00223587      -0.00547412       0.00503310 </v>
   <v>       0.01727513       0.04057881       0.01661383 </v>
   <v>      -0.00633045      -0.01180288      -0.00701723 </v>
   <v>       0.00210066      -0.01036248      -0.00586634 </v>
   <v>       0.01518017      -0.00601357      -0.00508398 </v>
   <v>      -0.01020110       0.00742265       0.00646586 </v>
   <v>      -0.01556558      -0.00768986      -0.00431212 </v>
   <v>       0.00781774      -0.03352606       0.04006944 </v>
   <v>      -0.00695168      -0.01112469       0.01184839 </v>
   <v>       0.00574145      -0.01454848       0.00380960 </v>
   <v>      -0.00155750       0.00823942      -0.02556732 </v>
   <v>       0.02512670      -0.00614247       0.00669741 </v>
   <v>      -0.02228527      -0.01172962       0.01943507 </v>
   <v>      -0.02129976       0.00604288       0.00831001 </v>
   <v>      -0.00882842       0.00737396      -0.04938169 </v>
   <v>       0.02385793       0.00708494      -0.00296227 </v>
   <v>       0.01378400       0.02521390      -0.03435655 </v>
   <v>       0.02194878      -0.01306613       0.03275823 </v>
   <v>       0.00218022       0.00468242       0.04756068 </v>
   <v>       0.00380341       0.01090885      -0.01382879 </v>
   <v>       0.01934962      -0.00537977      -0.00481203 </v>
   <v>      -0.00229002      -0.00591360       0.02662820 </v>
   <v>      -0.02865973      -0.01912004      -0.01548360 </v>
   <v>      -0.01017457      -0.01253379       0.01025058 </v>
   <v>       0.00298878      -0.00294870      -0.01021965 </v>
   <v>       0.00306917       0.00976306       0.05127535 </v>
   <v>       0.01636900      -0.01501105      -0.08090864 </v>
  </varray>
  <varray name="stress" >
   <v>      -0.08950126       0.07034260      -0.01988681 </v>
   <v>       0.07034269       0.06472513       0.04492307 </v>
   <v>      -0.01988683       0.04492301      -0.26614797 </v>
  </varray>
  <energy>
   <i name="e_fr_energy">  -1119.14816013 </i>
   <i name="e_wo_entrp">  -1119.14816013 </i>
   <i name="e_0_energy">     -0.00000000 </i>
  </energy>
  <time name="totalsc"> 1988.95 2036.70</time>
 </calculation>
 <calculation>
  <scstep>
   <time name="dav">  568.72  568.76</time>
   <time name="total">  575.90  576.02</time>
   <energy>
    <i name="alphaZ">   5625.04711994 </i>
    <i name="ewald"> -61295.39954005 </i>
    <i name="hartreedc"> -16235.76351948 </i>
    <i name="XCdc">   2962.82919153 </i>
    <i name="pawpsdc"> 112815.68783433 </i>
    <i name="pawaedc">-111714.86494407 </i>
    <i name="eentropy">     -0.00000000 </i>
    <i name="bandstr">  -7060.13223251 </i>
    <i name="atom">  73783.44779670 </i>
    <i name="e_fr_energy">  -1119.14829362 </i>
    <i name="e_wo_entrp">  -1119.14829362 </i>
    <i name="e_0_energy">  -1119.14829362 </i>
   </energy>
  </scstep>
  <scstep>
   <time name="diag">   64.59   64.59</time>
   <time name="diis">  104.54  104.55</time>
   <time name="orth">   33.38   33.38</time>
   <time name="total">  209.72  209.74</time>
   <energy>
    <i name="e_fr_energy">  -1119.15238887 </i>
    <i name="e_wo_entrp">  -1119.15238887 </i>
    <i name="e_0_energy">  -1119.15238887 </i>
   </energy>
  </scstep>
  <scstep>
   <time name="diag">   64.81   64.81</time>
   <time name="diis">  108.83  108.84</time>
   <time name="orth">   33.34   33.34</time>
   <time name="total">  214.19  214.26</time>
   <energy>
    <i name="e_fr_energy">  -1119.15230672 </i>
    <i name="e_wo_entrp">  -1119.15230672 </i>
    <i name="e_0_energy">  -1119.15230672 </i>
   </energy>
  </scstep>
  <scstep>
   <time name="diag">   64.83   64.84</time>
   <time name="diis">  100.11  100.12</time>
   <time name="orth">   33.38   33.38</time>
   <time name="total">  205.55  205.63</time>
   <energy>
    <i name="e_fr_energy">  -1119.15185886 </i>
    <i name="e_wo_entrp">  -1119.15185886 </i>
    <i name="e_0_energy">  -1119.15185886 </i>
   </energy>
  </scstep>
  <scstep>
   <time name="diag">   64.73   64.74</time>
   <time name="diis">   89.77   89.78</time>
   <time name="orth">   33.34   33.34</time>
   <time name="total">  195.06  195.19</time>
   <energy>
    <i name="e_fr_energy">  -1119.15177169 </i>
    <i name="e_wo_entrp">  -1119.15177169 </i>
    <i name="e_0_energy">  -1119.15177169 </i>
   </energy>
  </scstep>
  <scstep>
   <time name="diag">   64.79   64.79</time>
   <time name="diis">   65.88   65.88</time>
   <time name="orth">   33.36   33.36</time>
   <time name="total">  171.27  171.38</time>
   <energy>
    <i name="e_fr_energy">  -1119.15176772 </i>
    <i name="e_wo_entrp">  -1119.15176772 </i>
    <i name="e_0_energy">  -1119.15176772 </i>
   </energy>
  </scstep>
  <scstep>
   <time name="diag">   64.66   64.66</time>
   <time name="diis">   64.06   64.06</time>
   <time name="orth">   33.38   33.39</time>
   <time name="total">  169.33  169.47</time>
   <energy>
    <i name="e_fr_energy">  -1119.15176847 </i>
    <i name="e_wo_entrp">  -1119.15176847 </i>
    <i name="e_0_energy">  -1119.15176847 </i>
   </energy>
  </scstep>
  <scstep>
   <time name="diag">   64.62   64.62</time>
   <time name="diis">   63.09   63.09</time>
   <time name="orth">   33.33   33.34</time>
   <time name="total">  162.09  162.19</time>
   <energy>
    <i name="alphaZ">   5625.04711994 </i>
    <i name="ewald"> -61295.39954005 </i>
    <i name="hartreedc"> -16234.46939458 </i>
    <i name="XCdc">   2962.72040471 </i>
    <i name="pawpsdc"> 112818.43356697 </i>
    <i name="pawaedc">-111717.62466318 </i>
    <i name="eentropy">     -0.00000000 </i>
    <i name="bandstr">  -7061.30706111 </i>
    <i name="atom">  73783.44779670 </i>
    <i name="e_fr_energy">  -1119.15177062 </i>
    <i name="e_wo_entrp">  -1119.15177062 </i>
    <i name="e_0_energy">  -1119.15177062 </i>
   </energy>
  </scstep>
  <structure>
   <crystal>
    <varray name="basis" >
     <v>      11.22926081       0.00579439      -0.00469599 </v>
     <v>       0.00577346      11.23046957      -0.00035337 </v>
     <v>      -0.00672568      -0.00044356      15.90890248 </v>
    </varray>
    <i name="volume">   2006.26876491 </i>
    <varray name="rec_basis" >
     <v>       0.08905310      -0.00004578       0.00003765 </v>
     <v>      -0.00004595       0.08904350       0.00000246 </v>
     <v>       0.00002629       0.00000196       0.06285790 </v>
    </varray>
   </crystal>
   <varray name="positions" >
    <v>       0.99263873       0.25424901       0.12155319 </v>
    <v>       0.00705493       0.24371852       0.62576508 </v>
    <v>       0.00804227       0.74883033       0.12328367 </v>
    <v>       0.99372277       0.75720820       0.62517150 </v>
    <v>       0.50527992       0.24310177       0.12111814 </v>
    <v>       0.49061946       0.25710602       0.62549610 </v>
    <v>       0.49252379       0.75062594       0.12176654 </v>
    <v>       0.50556214       0.74044771       0.62668230 </v>
    <v>       0.99940032       0.24810173       0.37933873 </v>
    <v>       0.00326322       0.24883685       0.87284906 </v>
    <v>       0.01175210       0.75609146       0.37665443 </v>
    <v>       0.99779062       0.74990546       0.87698788 </v>
    <v>       0.49985705       0.24809549       0.37864667 </v>
    <v>       0.49592117       0.25079864       0.87324783 </v>
    <v>       0.48996796       0.74857926       0.37021996 </v>
    <v>       0.50335764       0.74421965       0.87883414 </v>
    <v>       0.25226955       0.99240109       0.12575161 </v>
    <v>       0.23891610       0.01415361       0.62619533 </v>
    <v>       0.24716949       0.50545043       0.12065943 </v>
    <v>       0.25028777       0.48453773       0.62788901 </v>
    <v>       0.74904615       0.00399140       0.12107615 </v>
    <v>       0.76349825       0.00243145       0.62823010 </v>
    <v>       0.75237787       0.49381876       0.12324797 </v>
    <v>       0.74850204       0.49564322       0.62836380 </v>
    <v>       0.24339748       0.00310429       0.37307246 </v>
    <v>       0.24589118       0.00614109       0.87603170 </v>
    <v>       0.24832434       0.49858072       0.37595326 </v>
    <v>       0.25006911       0.49321987       0.87441222 </v>
    <v>       0.75797815       0.01128914       0.37458714 </v>
    <v>       0.75274402       0.99887710       0.87344201 </v>
    <v>       0.74975575       0.48719312       0.37212209 </v>
    <v>       0.75072054       0.49834598       0.87627054 </v>
    <v>       0.00003078      -0.00009879       0.99986654 </v>
    <v>       0.99683155       0.49625662       0.50029029 </v>
    <v>       0.49981713       0.99786279       0.99586124 </v>
    <v>       0.51036869       0.00574540       0.50224888 </v>
    <v>       0.49937768       0.49863587       0.00241352 </v>
    <v>       0.49841195       0.49747016       0.49654173 </v>
    <v>       0.24954944       0.25225379       0.00052034 </v>
    <v>       0.24984215       0.74956166       0.99930853 </v>
    <v>       0.24402191       0.74043999       0.50385286 </v>
    <v>       0.75028922       0.25057325       0.99773099 </v>
    <v>       0.75372584       0.25232467       0.50235967 </v>
    <v>       0.75141914       0.74874451       0.99810518 </v>
    <v>       0.74959712       0.74840949       0.50682277 </v>
    <v>       0.23748154       0.24298970       0.24836955 </v>
    <v>       0.23873387       0.74495200       0.74791123 </v>
    <v>       0.74766554       0.24902771       0.25007665 </v>
    <v>       0.75107181       0.24795027       0.74974157 </v>
    <v>       0.75108398       0.75050534       0.24171613 </v>
    <v>       0.74960686       0.75055226       0.75332213 </v>
    <v>       0.99687220       0.99395259       0.25079465 </v>
    <v>       0.00263766       0.50438627       0.25065863 </v>
    <v>       0.99663281       0.49502289       0.75073176 </v>
    <v>       0.49889200       0.99710222       0.25132318 </v>
    <v>       0.50175956       0.49968114       0.75068507 </v>
    <v>       0.00310786       0.00353449       0.49934992 </v>
    <v>       0.99976595       0.50119204       0.99901762 </v>
    <v>       0.24962776       0.25024809       0.50070731 </v>
    <v>       0.24862356       0.24528709       0.74930850 </v>
    <v>       0.25159638       0.74824446       0.24956016 </v>
    <v>       0.00196583       0.00166872       0.75002588 </v>
    <v>       0.50715070       0.01035224       0.74693076 </v>
    <v>       0.50860308       0.51349377       0.25091472 </v>
    <v>       0.10853193       0.14077664       0.24668211 </v>
    <v>       0.10855754       0.14005809       0.74937748 </v>
    <v>       0.10970853       0.64099130       0.25614628 </v>
    <v>       0.11033983       0.64279114       0.74404665 </v>
    <v>       0.61292058       0.13160853       0.25892800 </v>
    <v>       0.61012133       0.14206250       0.74263518 </v>
    <v>       0.61887284       0.64182311       0.26335047 </v>
    <v>       0.61475701       0.63736307       0.75072254 </v>
    <v>       0.38749258       0.36831641       0.74957904 </v>
    <v>       0.38944717       0.86251353       0.24363472 </v>
    <v>       0.88363853       0.36395761       0.24986192 </v>
    <v>       0.88831738       0.36041509       0.74842857 </v>
    <v>       0.88509754       0.85700339       0.26225087 </v>
    <v>       0.88474301       0.86036972       0.75157271 </v>
    <v>       0.36610258       0.11921231       0.24889022 </v>
    <v>       0.36091241       0.10068409       0.74932828 </v>
    <v>       0.35922964       0.60414580       0.25193271 </v>
    <v>       0.36876229       0.62593941       0.74606605 </v>
    <v>       0.86077987       0.11144371       0.24797619 </v>
    <v>       0.85696002       0.11176170       0.75181498 </v>
    <v>       0.85792420       0.61587160       0.26231890 </v>
    <v>       0.85940782       0.61246052       0.75037706 </v>
    <v>       0.14403917       0.39218941       0.24680285 </v>
    <v>       0.13607064       0.39309134       0.74951004 </v>
    <v>       0.13767729       0.89079609       0.25040464 </v>
    <v>       0.14787403       0.89059178       0.74880292 </v>
    <v>       0.62568069       0.37884703       0.24934497 </v>
    <v>       0.63891757       0.38950196       0.75139127 </v>
    <v>       0.64221130       0.88296345       0.26612229 </v>
    <v>       0.62874623       0.88241174       0.74614502 </v>
    <v>       0.36225086       0.39025614       0.99663089 </v>
    <v>       0.36289696       0.39179912       0.50523861 </v>
    <v>       0.36247757       0.88855146       0.00559885 </v>
    <v>       0.85911130       0.38676068       0.00203066 </v>
    <v>       0.85785440       0.39149247       0.49920978 </v>
    <v>       0.85883432       0.88922135       0.99914678 </v>
    <v>       0.85596446       0.88036218       0.48611000 </v>
    <v>       0.13929502       0.11301253       0.01142970 </v>
    <v>       0.13696849       0.11817283       0.49221000 </v>
    <v>       0.14106268       0.61495207       0.99205050 </v>
    <v>       0.14053931       0.61284359       0.50600685 </v>
    <v>       0.63829274       0.10907080       0.99559911 </v>
    <v>       0.64000975       0.10735720       0.50478190 </v>
    <v>       0.63966034       0.61002993       0.00316595 </v>
    <v>       0.64285349       0.61211962       0.48323638 </v>
    <v>       0.11327015       0.36154863       0.00438486 </v>
    <v>       0.10937603       0.36613491       0.50128759 </v>
    <v>       0.11183401       0.86161466       0.99831310 </v>
    <v>       0.12557852       0.86656935       0.50311396 </v>
    <v>       0.60982274       0.35957982       0.99967387 </v>
    <v>       0.60966808       0.35831382       0.49946352 </v>
    <v>       0.61058656       0.85818226       0.00138394 </v>
    <v>       0.60776456       0.85342419       0.49046602 </v>
    <v>       0.39013738       0.13716516       0.00105289 </v>
    <v>       0.38715597       0.12699680       0.50168266 </v>
    <v>       0.39016156       0.63961295       0.00015652 </v>
    <v>       0.39426029       0.64704769       0.50043595 </v>
    <v>       0.88820756       0.13867269       0.00101459 </v>
    <v>       0.88407077       0.13967171       0.49988484 </v>
    <v>       0.88732368       0.64229517       0.00057988 </v>
    <v>       0.88713273       0.64221220       0.48783244 </v>
    <v>       0.99257188       0.99000215       0.12652352 </v>
    <v>       0.99277414       0.99556147       0.62299442 </v>
    <v>       0.99591764       0.50932000       0.12804534 </v>
    <v>       0.99160996       0.50664371       0.62327788 </v>
    <v>       0.51155027       0.99938984       0.12788190 </v>
    <v>       0.47808241       0.96868556       0.61937577 </v>
    <v>       0.49617668       0.49612172       0.12729771 </v>
    <v>       0.50955903       0.50389416       0.62305846 </v>
    <v>       0.00128431       0.00376594       0.37268272 </v>
    <v>       0.00245867       0.00181325       0.87811551 </v>
    <v>       0.00507016       0.49453332       0.37588778 </v>
    <v>       0.99767011       0.50199292       0.87290051 </v>
    <v>       0.47890157       0.98702420       0.38062589 </v>
    <v>       0.49389193       0.98729133       0.87253746 </v>
    <v>       0.48650821       0.48283782       0.37233984 </v>
    <v>       0.50069797       0.50365788       0.87536647 </v>
    <v>       0.26761703       0.26673407       0.36706518 </v>
    <v>       0.24869601       0.24826542       0.87822446 </v>
    <v>       0.26198105       0.76563691       0.38321621 </v>
    <v>       0.26604662       0.76312853       0.86876564 </v>
    <v>       0.75021502       0.24932255       0.37631341 </v>
    <v>       0.74788295       0.25052076       0.87428702 </v>
    <v>       0.74695372       0.75022348       0.87595891 </v>
    <v>       0.27270836       0.26749280       0.13031402 </v>
    <v>       0.25033175       0.25122455       0.62490631 </v>
    <v>       0.24573176       0.74647795       0.12276299 </v>
    <v>       0.27705239       0.77624104       0.62529602 </v>
    <v>       0.74469917       0.24551472       0.12491499 </v>
    <v>       0.75167087       0.25372177       0.62476501 </v>
    <v>       0.74901191       0.75218176       0.12672900 </v>
    <v>       0.75154917       0.74735457       0.62296406 </v>
   </varray>
  </structure>
  <varray name="forces" >
   <v>      -0.00393530       0.00644140       0.00217560 </v>
   <v>       0.01524976       0.00521514      -0.01058908 </v>
   <v>       0.01994914      -0.01661011       0.00333097 </v>
   <v>       0.02101958       0.03158577      -0.00211166 </v>
   <v>       0.01066896      -0.01055498       0.00887797 </v>
   <v>      -0.02211112      -0.00172116      -0.00227346 </v>
   <v>      -0.01246509       0.02400673       0.02174653 </v>
   <v>      -0.01661350       0.02486535      -0.04591233 </v>
   <v>       0.01119346       0.01106653       0.00445746 </v>
   <v>       0.01639952      -0.00658788       0.01090262 </v>
   <v>      -0.00209523      -0.00924775      -0.00600738 </v>
   <v>      -0.00050963       0.00619241       0.01410148 </v>
   <v>      -0.00149494      -0.00676651      -0.00669756 </v>
   <v>      -0.01446461      -0.01060558       0.00413830 </v>
   <v>       0.02319698      -0.01436298      -0.00585835 </v>
   <v>       0.00481650       0.00782989      -0.00003342 </v>
   <v>      -0.00317191      -0.00592391       0.01943832 </v>
   <v>      -0.01897842       0.03279690       0.00214123 </v>
   <v>      -0.00671943      -0.00871034       0.02346767 </v>
   <v>      -0.00046069      -0.04421228      -0.01367014 </v>
   <v>      -0.00820430       0.03036019       0.00161696 </v>
   <v>       0.00435602      -0.00193238      -0.00210082 </v>
   <v>       0.00688302      -0.02785284       0.01400012 </v>
   <v>       0.02105547      -0.02272458      -0.01605990 </v>
   <v>       0.01186938      -0.00096349       0.01926045 </v>
   <v>       0.00267176       0.02032670      -0.01729215 </v>
   <v>       0.00045572      -0.01244745      -0.01050243 </v>
   <v>      -0.00844373      -0.02168955      -0.00142188 </v>
   <v>      -0.00300656      -0.01467014      -0.00758837 </v>
   <v>       0.00407392       0.02173178      -0.00275314 </v>
   <v>      -0.00254393       0.01786755       0.00261748 </v>
   <v>       0.01384275      -0.02193301       0.00648058 </v>
   <v>      -0.02912030       0.06922471       0.00984863 </v>
   <v>       0.01677892      -0.00815109      -0.02070210 </v>
   <v>      -0.00760811       0.04933881       0.02532205 </v>
   <v>      -0.06978608      -0.00811470      -0.01210309 </v>
   <v>       0.00022799      -0.05361118       0.02046619 </v>
   <v>      -0.01164979       0.00198360      -0.03592368 </v>
   <v>      -0.00184010      -0.02023639      -0.00466110 </v>
   <v>      -0.01823242       0.00338440       0.02277829 </v>
   <v>      -0.00269638       0.03007662      -0.03996387 </v>
   <v>       0.01992392      -0.03273355       0.02139525 </v>
   <v>       0.01302706       0.00809106      -0.02446970 </v>
   <v>       0.03338855       0.00499866       0.04665148 </v>
   <v>       0.00007647       0.01559482      -0.12197658 </v>
   <v>      -0.00276953      -0.01113954      -0.01124742 </v>
   <v>      -0.01204411       0.07458902      -0.00214148 </v>
   <v>      -0.02699087       0.02174125      -0.03614205 </v>
   <v>      -0.01116181      -0.02282322       0.03276555 </v>
   <v>      -0.05202018       0.00798247       0.06441971 </v>
   <v>       0.02043955       0.06018871       0.03632615 </v>
   <v>       0.01050279      -0.01499222      -0.03658726 </v>
   <v>      -0.01483798       0.01008954      -0.02894037 </v>
   <v>       0.03843420      -0.04999460       0.02683526 </v>
   <v>       0.00289572      -0.02647766       0.00447638 </v>
   <v>      -0.06088286      -0.08328891      -0.00504826 </v>
   <v>       0.00631105      -0.00088110       0.00371091 </v>
   <v>       0.00644419      -0.01627265       0.01741923 </v>
   <v>       0.00511013       0.00462077      -0.00928922 </v>
   <v>      -0.01124192       0.01312155       0.03338756 </v>
   <v>       0.00752309       0.00290884       0.01732891 </v>
   <v>       0.00604123       0.01425970       0.02083485 </v>
   <v>      -0.03608080       0.01675326       0.00410255 </v>
   <v>       0.00461819      -0.00893709      -0.01940452 </v>
   <v>       0.01962585      -0.00217752      -0.02572771 </v>
   <v>       0.00927671      -0.01914529       0.00695847 </v>
   <v>       0.00273347      -0.02910941       0.00144560 </v>
   <v>      -0.02990607      -0.04013924       0.02123030 </v>
[...]
       <r>   -16.3337     0.0000    32.0000 </r>
       <r>   -16.1810     0.0000    32.0000 </r>
       <r>   -16.0283     0.0000    32.0000 </r>
       <r>   -15.8755     0.0000    32.0000 </r>
       <r>   -15.7228     0.0000    32.0000 </r>
       <r>   -15.5701     0.0000    32.0000 </r>
       <r>   -15.4173     0.0000    32.0000 </r>
       <r>   -15.2646     0.3754    32.0573 </r>
       <r>   -15.1119    15.7437    34.4619 </r>
       <r>   -14.9591    32.3936    39.4096 </r>
       <r>   -14.8064    40.7402    45.6320 </r>
       <r>   -14.6537    45.6357    52.6022 </r>
       <r>   -14.5009    39.6082    58.6517 </r>
       <r>   -14.3482    32.5045    63.6163 </r>
       <r>   -14.1955    48.6769    71.0509 </r>
       <r>   -14.0427    94.6090    85.5010 </r>
       <r>   -13.8900   111.7592   102.5705 </r>
       <r>   -13.7372    89.0587   116.1728 </r>
       <r>   -13.5845    23.9732   119.8344 </r>
       <r>   -13.4318    23.1891   123.3762 </r>
       <r>   -13.2790     4.0844   124.0000 </r>
       <r>   -13.1263     0.0000   124.0000 </r>
       <r>   -12.9736     0.0000   124.0000 </r>
       <r>   -12.8208     0.1533   124.0234 </r>
       <r>   -12.6681    17.0676   126.6302 </r>
       <r>   -12.5154    86.8199   139.8906 </r>
       <r>   -12.3626   155.6515   163.6640 </r>
       <r>   -12.2099   124.1852   182.6314 </r>
       <r>   -12.0572   121.3262   201.1621 </r>
       <r>   -11.9044    87.6285   214.5460 </r>
       <r>   -11.7517    27.0720   218.6809 </r>
       <r>   -11.5990     8.6336   219.9995 </r>
       <r>   -11.4462     0.0032   220.0000 </r>
       <r>   -11.2935     0.0000   220.0000 </r>
       <r>   -11.1408     0.0000   220.0000 </r>
       <r>   -10.9880     0.0000   220.0000 </r>
       <r>   -10.8353     0.0000   220.0000 </r>
       <r>   -10.6826     0.0000   220.0000 </r>
       <r>   -10.5298     0.0000   220.0000 </r>
       <r>   -10.3771     0.0000   220.0000 </r>
       <r>   -10.2244     0.0000   220.0000 </r>
       <r>   -10.0716     0.0000   220.0000 </r>
       <r>    -9.9189     0.0000   220.0000 </r>
       <r>    -9.7661     0.0000   220.0000 </r>
       <r>    -9.6134     0.0000   220.0000 </r>
       <r>    -9.4607     0.0000   220.0000 </r>
       <r>    -9.3079     0.0000   220.0000 </r>
       <r>    -9.1552     0.0000   220.0000 </r>
       <r>    -9.0025     0.0000   220.0000 </r>
       <r>    -8.8497     0.0000   220.0000 </r>
       <r>    -8.6970     0.0000   220.0000 </r>
       <r>    -8.5443     0.0000   220.0000 </r>
       <r>    -8.3915     0.0000   220.0000 </r>
       <r>    -8.2388     0.0000   220.0000 </r>
       <r>    -8.0861     0.0000   220.0000 </r>
       <r>    -7.9333     0.0000   220.0000 </r>
       <r>    -7.7806     0.0000   220.0000 </r>
       <r>    -7.6279     0.0000   220.0000 </r>
       <r>    -7.4751     0.0000   220.0000 </r>
       <r>    -7.3224     0.0000   220.0000 </r>
       <r>    -7.1697     0.0000   220.0000 </r>
       <r>    -7.0169     0.0000   220.0000 </r>
       <r>    -6.8642     0.0000   220.0000 </r>
       <r>    -6.7115     0.0000   220.0000 </r>
       <r>    -6.5587     0.0000   220.0000 </r>
       <r>    -6.4060     0.0000   220.0000 </r>
       <r>    -6.2533     0.0000   220.0000 </r>
       <r>    -6.1005     0.0000   220.0000 </r>
       <r>    -5.9478     0.0000   220.0000 </r>
       <r>    -5.7950     0.0000   220.0000 </r>
       <r>    -5.6423     0.0000   220.0000 </r>
       <r>    -5.4896     0.0000   220.0000 </r>
       <r>    -5.3368     0.0000   220.0000 </r>
       <r>    -5.1841     0.0000   220.0000 </r>
       <r>    -5.0314     0.0000   220.0000 </r>
       <r>    -4.8786     0.0000   220.0000 </r>
       <r>    -4.7259     0.0000   220.0000 </r>
       <r>    -4.5732     0.0000   220.0000 </r>
       <r>    -4.4204     0.0000   220.0000 </r>
       <r>    -4.2677     0.0000   220.0000 </r>
       <r>    -4.1150     0.0000   220.0000 </r>
       <r>    -3.9622     0.0000   220.0000 </r>
       <r>    -3.8095     0.0000   220.0000 </r>
       <r>    -3.6568     0.0000   220.0000 </r>
       <r>    -3.5040     0.0000   220.0000 </r>
       <r>    -3.3513     0.0000   220.0000 </r>
       <r>    -3.1986     0.0000   220.0000 </r>
       <r>    -3.0458     0.0000   220.0000 </r>
       <r>    -2.8931     0.0000   220.0000 </r>
       <r>    -2.7404     0.0000   220.0000 </r>
       <r>    -2.5876     0.0000   220.0000 </r>
       <r>    -2.4349     0.0148   220.0023 </r>
       <r>    -2.2822     7.6202   221.1661 </r>
       <r>    -2.1294    22.2816   224.5693 </r>
       <r>    -1.9767    28.7029   228.9532 </r>
       <r>    -1.8239    31.5829   233.7770 </r>
       <r>    -1.6712    50.0497   241.4213 </r>
       <r>    -1.5185    54.3833   249.7276 </r>
       <r>    -1.3657    59.1282   258.7585 </r>
       <r>    -1.2130    67.5706   269.0789 </r>
       <r>    -1.0603    70.3415   279.8224 </r>
       <r>    -0.9075    71.9485   290.8115 </r>
       <r>    -0.7548    78.0871   302.7381 </r>
       <r>    -0.6021    96.3485   317.4538 </r>
       <r>    -0.4493   111.6424   334.5055 </r>
       <r>    -0.2966    88.2620   347.9862 </r>
       <r>    -0.1439    55.7512   356.5013 </r>
       <r>     0.0089    50.4283   364.2035 </r>
       <r>     0.1616    49.6504   371.7868 </r>
       <r>     0.3143    47.6047   379.0577 </r>
       <r>     0.4671    48.4414   386.4564 </r>
       <r>     0.6198    54.9344   394.8467 </r>
       <r>     0.7725    51.1086   402.6528 </r>
       <r>     0.9253    47.0110   409.8330 </r>
       <r>     1.0780    59.0324   418.8493 </r>
       <r>     1.2307    73.8430   430.1277 </r>
       <r>     1.3835    86.5584   443.3482 </r>
       <r>     1.5362    85.2408   456.3674 </r>
       <r>     1.6890    74.0191   467.6727 </r>
       <r>     1.8417    71.3505   478.5704 </r>
       <r>     1.9944    45.9424   485.5874 </r>
       <r>     2.1472    42.6823   492.1064 </r>
       <r>     2.2999    16.5746   494.6379 </r>
       <r>     2.4526     8.9107   495.9989 </r>
       <r>     2.6054     0.0071   496.0000 </r>
       <r>     2.7581     0.0000   496.0000 </r>
       <r>     2.9108     0.0000   496.0000 </r>
       <r>     3.0636     0.0000   496.0000 </r>
       <r>     3.2163     0.0000   496.0000 </r>
       <r>     3.3690     0.0000   496.0000 </r>
       <r>     3.5218     0.0000   496.0000 </r>
       <r>     3.6745     0.0000   496.0000 </r>
       <r>     3.8272     0.0000   496.0000 </r>
       <r>     3.9800     0.0000   496.0000 </r>
       <r>     4.1327     0.0000   496.0000 </r>
       <r>     4.2854     0.0000   496.0000 </r>
       <r>     4.4382     0.0787   496.0120 </r>
       <r>     4.5909    18.9760   498.9103 </r>
       <r>     4.7436    37.9551   504.7074 </r>
       <r>     4.8964    34.5063   509.9777 </r>
       <r>     5.0491    39.9878   516.0852 </r>
       <r>     5.2018    48.5033   523.4933 </r>
       <r>     5.3546    65.8590   533.5523 </r>
       <r>     5.5073    66.5254   543.7130 </r>
       <r>     5.6601    68.2848   554.1425 </r>
       <r>     5.8128    71.5611   565.0723 </r>
       <r>     5.9655    80.3606   577.3462 </r>
       <r>     6.1183    95.5685   591.9428 </r>
       <r>     6.2710    74.4639   603.3160 </r>
       <r>     6.4237    54.6068   611.6563 </r>
       <r>     6.5765    21.7846   614.9836 </r>
       <r>     6.7292    14.5390   617.2042 </r>
       <r>     6.8819    17.5765   619.8888 </r>
       <r>     7.0347    18.9367   622.7811 </r>
       <r>     7.1874    20.7365   625.9482 </r>
       <r>     7.3401    17.6216   628.6397 </r>
       <r>     7.4929    16.4300   631.1491 </r>
       <r>     7.6456    14.3788   633.3452 </r>
       <r>     7.7983    16.4029   635.8505 </r>
       <r>     7.9511    19.6287   638.8485 </r>
       <r>     8.1038    20.9614   642.0501 </r>
       <r>     8.2565    28.0486   646.3341 </r>
       <r>     8.4093    21.9027   649.6794 </r>
       <r>     8.5620    24.0471   653.3522 </r>
       <r>     8.7147    24.3131   657.0656 </r>
       <r>     8.8675    35.3376   662.4629 </r>
       <r>     9.0202    31.0294   667.2022 </r>
       <r>     9.1729    42.0544   673.6253 </r>
       <r>     9.3257    38.0490   679.4367 </r>
       <r>     9.4784    42.6292   685.9477 </r>
       <r>     9.6312    45.4167   692.8844 </r>
       <r>     9.7839    51.8299   700.8006 </r>
       <r>     9.9366    65.9126   710.8677 </r>
       <r>    10.0894    69.0721   721.4174 </r>
       <r>    10.2421    61.6967   730.8407 </r>
       <r>    10.3948    56.4077   739.4561 </r>
       <r>    10.5476    56.6427   748.1074 </r>
       <r>    10.7003    58.0894   756.9796 </r>
       <r>    10.8530    54.2375   765.2636 </r>
       <r>    11.0058    17.9064   767.9985 </r>
       <r>    11.1585     0.0097   768.0000 </r>
       <r>    11.3112     0.0000   768.0000 </r>
       <r>    11.4640     0.0000   768.0000 </r>
       <r>    11.6167     0.0000   768.0000 </r>
       <r>    11.7694     0.0000   768.0000 </r>
       <r>    11.9222     0.0000   768.0000 </r>
       <r>    12.0749     0.0000   768.0000 </r>
       <r>    12.2276     0.0000   768.0000 </r>
       <r>    12.3804     0.0000   768.0000 </r>
       <r>    12.5331     0.0000   768.0000 </r>
       <r>    12.6858     0.0000   768.0000 </r>
       <r>    12.8386     0.0000   768.0000 </r>
       <r>    12.9913     0.0000   768.0000 </r>
      </set>
     </set>
    </array>
   </total>
  </dos>
 </calculation>
 <structure name="finalpos" >
  <crystal>
   <varray name="basis" >
    <v>      11.23419981       0.00211700      -0.00602869 </v>
    <v>       0.00209392      11.23739541       0.00055335 </v>
    <v>      -0.00862686       0.00084476      15.89093387 </v>
   </varray>
   <i name="volume">   2006.12081584 </i>
   <varray name="rec_basis" >
    <v>       0.08901393      -0.00001659       0.00004832 </v>
    <v>      -0.00001677       0.08898860      -0.00000474 </v>
    <v>       0.00003377      -0.00000311       0.06292898 </v>
   </varray>
  </crystal>
  <varray name="positions" >
   <v>       0.99222817       0.25430726       0.12186274 </v>
   <v>       0.00737709       0.24382235       0.62521021 </v>
   <v>       0.00843554       0.74838481       0.12327233 </v>
   <v>       0.99523458       0.75824254       0.62628926 </v>
   <v>       0.50582445       0.24243724       0.12131969 </v>
   <v>       0.49062161       0.25760908       0.62579035 </v>
   <v>       0.49203072       0.75039194       0.12174887 </v>
   <v>       0.50565518       0.74130944       0.62630722 </v>
   <v>       0.00007064       0.24851299       0.37907031 </v>
   <v>       0.00331780       0.24899593       0.87270209 </v>
   <v>       0.01121678       0.75611206       0.37627862 </v>
   <v>       0.99742575       0.74991791       0.87702452 </v>
   <v>       0.49992110       0.24886033       0.37824881 </v>
   <v>       0.49564966       0.25068578       0.87354304 </v>
   <v>       0.49132541       0.74733497       0.37005116 </v>
   <v>       0.50400486       0.74407435       0.87817937 </v>
   <v>       0.25164246       0.99146640       0.12669237 </v>
   <v>       0.23839775       0.01511137       0.62641522 </v>
   <v>       0.24714050       0.50497119       0.12031937 </v>
   <v>       0.24946504       0.48437095       0.62703400 </v>
   <v>       0.74940231       0.00408011       0.12058937 </v>
   <v>       0.76288537       0.00336600       0.62726912 </v>
   <v>       0.75206224       0.49340832       0.12365748 </v>
   <v>       0.74893927       0.49595254       0.62918476 </v>
   <v>       0.24265183       0.00316842       0.37440229 </v>
   <v>       0.24568581       0.00615167       0.87637455 </v>
   <v>       0.24759803       0.49867919       0.37560796 </v>
   <v>       0.24963152       0.49272708       0.87374914 </v>
   <v>       0.75886367       0.01098177       0.37407840 </v>
   <v>       0.75230751       0.99934433       0.87275819 </v>
   <v>       0.75069167       0.48844434       0.37270816 </v>
   <v>       0.75097756       0.49793467       0.87648972 </v>
   <v>      -0.00007972       0.00003842       0.99986183 </v>
   <v>       0.99655678       0.49690429       0.50024219 </v>
   <v>       0.49974759       0.99729612       0.99605600 </v>
   <v>       0.50916175       0.00636955       0.50186113 </v>
   <v>       0.49976715       0.49861932       0.00192272 </v>
   <v>       0.49823222       0.49812194       0.49625108 </v>
   <v>       0.24978649       0.25223854       0.00080234 </v>
   <v>       0.24999705       0.74952423       0.99913661 </v>
   <v>       0.24408478       0.74144438       0.50305352 </v>
   <v>       0.75040365       0.25034025       0.99788429 </v>
   <v>       0.75346313       0.25269926       0.50198015 </v>
   <v>       0.75135060       0.74882659       0.99823838 </v>
   <v>       0.75006286       0.74893203       0.50648797 </v>
   <v>       0.23835693       0.24250563       0.24794711 </v>
   <v>       0.23961557       0.74530267       0.74838515 </v>
   <v>       0.74707895       0.24866762       0.25013776 </v>
   <v>       0.75059838       0.24790956       0.74964555 </v>
   <v>       0.75082083       0.75028232       0.24239600 </v>
   <v>       0.74968403       0.75080493       0.75333450 </v>
   <v>       0.99691531       0.99386983       0.25063360 </v>
   <v>       0.00252897       0.50430836       0.25043698 </v>
   <v>       0.99680388       0.49503599       0.75091210 </v>
   <v>       0.49861034       0.99585319       0.25207020 </v>
   <v>       0.50166000       0.49982285       0.75048869 </v>
   <v>       0.00290162       0.00419863       0.49934933 </v>
   <v>       0.00004934       0.50100741       0.99928761 </v>
   <v>       0.25000634       0.25093698       0.50076142 </v>
   <v>       0.24828716       0.24562732       0.74964562 </v>
   <v>       0.25155759       0.74741595       0.24986697 </v>
   <v>       0.00139118       0.00203355       0.75012362 </v>
   <v>       0.50619802       0.00989403       0.74734291 </v>
   <v>       0.50817332       0.51197957       0.25039955 </v>
   <v>       0.11154950       0.13810671       0.24409725 </v>
   <v>       0.10928789       0.13906913       0.74850448 </v>
   <v>       0.11152134       0.63869515       0.25744856 </v>
   <v>       0.11300151       0.64066617       0.74606616 </v>
   <v>       0.61655516       0.12668117       0.26186883 </v>
   <v>       0.61074417       0.14029318       0.74446971 </v>
   <v>       0.62182087       0.63709030       0.26276159 </v>
   <v>       0.61800038       0.63489942       0.74899516 </v>
   <v>       0.38637781       0.36975949       0.75082770 </v>
   <v>       0.38753050       0.86304469       0.24249861 </v>
   <v>       0.87992410       0.36741312       0.24740677 </v>
   <v>       0.88646857       0.36211670       0.74688052 </v>
   <v>       0.88170418       0.86047544       0.26421368 </v>
   <v>       0.88300392       0.86213441       0.75231670 </v>
   <v>       0.36885130       0.12066161       0.24990521 </v>
   <v>       0.36104484       0.10130961       0.75063071 </v>
   <v>       0.36029328       0.60426750       0.25083218 </v>
   <v>       0.37148669       0.62801255       0.74697353 </v>
   <v>       0.86387162       0.11450111       0.24800095 </v>
   <v>       0.85775076       0.11301107       0.75105748 </v>
   <v>       0.86112919       0.61907486       0.26324091 </v>
   <v>       0.86238622       0.61444759       0.75214120 </v>
   <v>       0.14218146       0.39007443       0.24592942 </v>
   <v>       0.13480458       0.39168906       0.74879451 </v>
   <v>       0.13525965       0.88811004       0.25068486 </v>
   <v>       0.14583357       0.88887101       0.74874005 </v>
   <v>       0.62019292       0.37348624       0.24936892 </v>
   <v>       0.63731029       0.38768951       0.75069109 </v>
   <v>       0.63880384       0.87828159       0.26888361 </v>
   <v>       0.62664291       0.87990505       0.74525957 </v>
   <v>       0.36329129       0.38974804       0.99448511 </v>
   <v>       0.36366915       0.39142539       0.50458716 </v>
   <v>       0.36294382       0.88820116       0.00719762 </v>
   <v>       0.85972365       0.38606414       0.00379411 </v>
   <v>       0.85932261       0.39047187       0.50120609 </v>
   <v>       0.85917520       0.88874882       0.99800981 </v>
   <v>       0.85862196       0.87902149       0.48549580 </v>
   <v>       0.13873922       0.11372643       0.01266422 </v>
   <v>       0.13425974       0.12157158       0.49407840 </v>
   <v>       0.14079266       0.61565965       0.99048401 </v>
   <v>       0.13738932       0.61634507       0.50454861 </v>
   <v>       0.63765700       0.10918181       0.99448887 </v>
   <v>       0.63743469       0.11012853       0.50150898 </v>
   <v>       0.63981115       0.61050858       0.00387629 </v>
   <v>       0.64034050       0.61502216       0.48230386 </v>
   <v>       0.11425059       0.36207595       0.00598925 </v>
   <v>       0.11123628       0.36923371       0.50233093 </v>
   <v>       0.11255874       0.86231252       0.99792337 </v>
   <v>       0.12979876       0.87075874       0.50219652 </v>
   <v>       0.61064106       0.35985686       0.99927411 </v>
   <v>       0.61110238       0.36089288       0.49922336 </v>
   <v>       0.61093134       0.85839537       0.00192585 </v>
   <v>       0.60975443       0.85584051       0.49211328 </v>
   <v>       0.38976809       0.13632124       0.00082259 </v>
   <v>       0.38557594       0.12709984       0.50089893 </v>
   <v>       0.38993332       0.63917868      -0.00032650 </v>
   <v>       0.39295732       0.64681519       0.50065793 </v>
   <v>       0.88776338       0.13803222       0.00176436 </v>
   <v>       0.88209638       0.13839450       0.49969285 </v>
   <v>       0.88692827       0.64195339      -0.00010034 </v>
   <v>       0.88420079       0.64018453       0.48536034 </v>
   <v>       0.99107716       0.98792426       0.12660397 </v>
   <v>       0.99183946       0.99451498       0.62282956 </v>
   <v>       0.99711677       0.51153794       0.12783510 </v>
   <v>       0.99201557       0.50989724       0.62341643 </v>
   <v>       0.51313408       0.99955898       0.12870280 </v>
   <v>       0.47776675       0.97113301       0.61968617 </v>
   <v>       0.49633165       0.49554149       0.12658827 </v>
   <v>       0.50844757       0.50408429       0.62287446 </v>
   <v>       0.00295228       0.00586038       0.37271981 </v>
   <v>       0.00267376       0.00339764       0.87804188 </v>
   <v>       0.00371341       0.49130618       0.37565941 </v>
   <v>       0.99779516       0.49816427       0.87329434 </v>
   <v>       0.47538081       0.98294399       0.38161887 </v>
   <v>       0.49352145       0.98494184       0.87263462 </v>
   <v>       0.48533882       0.48353721       0.37215100 </v>
   <v>       0.50365401       0.50497302       0.87502728 </v>
   <v>       0.26551381       0.26627055       0.36713412 </v>
   <v>       0.24658371       0.24796841       0.87846062 </v>
   <v>       0.26240721       0.76451118       0.38235356 </v>
   <v>       0.26798970       0.76553090       0.86878322 </v>
   <v>       0.75260294       0.25230347       0.37604248 </v>
   <v>       0.75006006       0.25143000       0.87429960 </v>
   <v>       0.74528751       0.75027870       0.87585796 </v>
   <v>       0.27610675       0.26888353       0.13054411 </v>
   <v>       0.25241691       0.25199015       0.62521602 </v>
   <v>       0.24421564       0.74525208       0.12255684 </v>
   <v>       0.27616760       0.77542245       0.62539280 </v>
   <v>       0.74274923       0.24342695       0.12507952 </v>
   <v>       0.74920954       0.25150521       0.62443161 </v>
   <v>       0.75012575       0.75381567       0.12712917 </v>
   <v>       0.75434884       0.74611663       0.62289710 </v>
  </varray>
 </structure>
</modeling>
