       N       E                     dE             d eps       ncg     rms          rms(c)
DAV:   1    -0.115244730364E+04   -0.11524E+04   -0.21982E-02 13120   0.340E-01    0.843E-03
RMM:   2    -0.115244730420E+04   -0.55770E-06   -0.86498E-06  6173   0.482E-03    0.104E-02
RMM:   3    -0.115244730453E+04   -0.32687E-06   -0.40412E-06  4665   0.367E-03    0.269E-03
RMM:   4    -0.115244730479E+04   -0.26710E-06   -0.24220E-06  3416   0.244E-03    0.158E-03
RMM:   5    -0.115244730489E+04   -0.99870E-07   -0.13436E-06  2862   0.252E-03    0.142E-03
RMM:   6    -0.115244730495E+04   -0.61220E-07   -0.73810E-07  2032   0.204E-03    0.640E-04
RMM:   7    -0.115244730498E+04   -0.24113E-07   -0.43941E-07  1906   0.211E-03    0.400E-04
RMM:   8    -0.115244730499E+04   -0.11569E-07   -0.16357E-07  1397   0.192E-03
   1 F= -.11524473E+04 E0= -.11524473E+04  d E =-.115245E+04  mag=    20.0000
       N       E                     dE             d eps       ncg     rms          rms(c)
DAV:   1    -0.115244760208E+04   -0.29710E-03   -0.28358E-01 12672   0.623E-01    0.210E-01
RMM:   2    -0.115244818979E+04   -0.58771E-03   -0.86438E-03 12308   0.121E-01    0.180E-01
RMM:   3    -0.115244813471E+04    0.55083E-04   -0.38843E-04 10072   0.361E-02    0.109E-01
RMM:   4    -0.115244806609E+04    0.68619E-04   -0.21653E-04  7960   0.173E-02    0.633E-02
RMM:   5    -0.115244805203E+04    0.14061E-04   -0.48290E-05  7133   0.105E-02    0.412E-02
RMM:   6    -0.115244805176E+04    0.27017E-06   -0.17919E-05  6982   0.612E-03    0.159E-02
RMM:   7    -0.115244805107E+04    0.68368E-06   -0.80021E-06  6248   0.438E-03    0.129E-02
RMM:   8    -0.115244805023E+04    0.84350E-06   -0.49633E-06  5832   0.336E-03
   2 F= -.11524481E+04 E0= -.11524481E+04  d E =-.745240E-03  mag=    20.0000
       N       E                     dE             d eps       ncg     rms          rms(c)
DAV:   1    -0.115244805271E+04   -0.16363E-05   -0.31996E-03 12752   0.663E-02    0.223E-02
RMM:   2    -0.115244805894E+04   -0.62349E-05   -0.87293E-05  6735   0.135E-02    0.216E-02
RMM:   3    -0.115244805957E+04   -0.62223E-06   -0.97958E-06  6257   0.572E-03    0.111E-02
RMM:   4    -0.115244805895E+04    0.62116E-06   -0.23328E-06  4468   0.286E-03    0.932E-03
RMM:   5    -0.115244805855E+04    0.39491E-06   -0.15487E-06  4109   0.232E-03    0.378E-03
RMM:   6    -0.115244805850E+04    0.47090E-07   -0.44707E-07  1695   0.179E-03    0.163E-03
RMM:   7    -0.115244805852E+04   -0.17055E-07   -0.81031E-08  1128   0.165E-03    0.919E-04
RMM:   8    -0.115244805853E+04   -0.13242E-07   -0.28759E-08  1030   0.163E-03
   3 F= -.11524481E+04 E0= -.11524481E+04  d E =-.753544E-03  mag=    20.0000
       N       E                     dE             d eps       ncg     rms          rms(c)
DAV:   1    -0.115244796757E+04    0.90948E-04   -0.32818E-01 12696   0.671E-01    0.161E-01
RMM:   2    -0.115244875598E+04   -0.78841E-03   -0.84072E-03 12326   0.118E-01    0.117E-01
RMM:   3    -0.115244875484E+04    0.11348E-05   -0.38049E-04  9360   0.385E-02    0.736E-02
RMM:   4    -0.115244872706E+04    0.27783E-04   -0.12310E-04  7164   0.138E-02    0.419E-02
RMM:   5    -0.115244872728E+04   -0.21711E-06   -0.35530E-05  6958   0.863E-03    0.295E-02
RMM:   6    -0.115244872910E+04   -0.18227E-05   -0.13366E-05  6730   0.569E-03    0.957E-03
RMM:   7    -0.115244873009E+04   -0.98345E-06   -0.70314E-06  5890   0.376E-03    0.741E-03
RMM:   8    -0.115244873076E+04   -0.67630E-06   -0.39756E-06  4753   0.331E-03
   4 F= -.11524487E+04 E0= -.11524487E+04  d E =-.672228E-03  mag=    20.0000
