<?xml version="1.0" encoding="ISO-8859-1"?>
<modeling>
 <generator>
  <i name="program" type="string">vasp </i>
  <i name="version" type="string">5.4.1  </i>
  <i name="subversion" type="string">05Feb16 (build Jan 25 2017 20:16:33) complex                          parallel </i>
  <i name="platform" type="string">BWXE6 </i>
  <i name="date" type="string">2019 06 20 </i>
  <i name="time" type="string">11:07:01 </i>
 </generator>
 <incar>
  <i type="string" name="SYSTEM"> STF</i>
  <i type="string" name="PREC">normal</i>
  <i type="string" name="ALGO"> Fast</i>
  <i type="int" name="ISPIN">     2</i>
  <i type="int" name="NELM">    40</i>
  <i type="int" name="NELMIN">     8</i>
  <i type="int" name="IBRION">     2</i>
  <i name="EDIFF">      0.00010000</i>
  <i name="EDIFFG">     -0.03000000</i>
  <i type="int" name="NSW">    30</i>
  <i type="int" name="ISIF">     3</i>
  <i name="ENCUT">    520.00000000</i>
  <i type="int" name="NBANDS">   768</i>
  <v name="MAGMOM">      0.60000000      0.60000000      0.60000000      0.60000000      0.60000000      0.60000000      0.60000000      0.60000000      0.60000000      0.60000000      0.60000000      0.60000000      0.60000000      0.60000000      0.60000000      0.60000000      0.60000000      0.60000000      0.60000000      0.60000000
      0.60000000      0.60000000      0.60000000      0.60000000      0.60000000      0.60000000      0.60000000      0.60000000      0.60000000      0.60000000      0.60000000      0.60000000      0.60000000      0.60000000      0.60000000      0.60000000      0.60000000      0.60000000      0.60000000      0.60000000
      0.60000000      0.60000000      0.60000000      0.60000000      0.60000000      0.60000000      0.60000000      0.60000000      0.60000000      0.60000000      0.60000000      0.60000000      0.60000000      0.60000000      0.60000000      0.60000000      0.60000000      0.60000000      0.60000000      0.60000000
      5.00000000      5.00000000      5.00000000      5.00000000      0.60000000      0.60000000      0.60000000      0.60000000      0.60000000      0.60000000      0.60000000      0.60000000      0.60000000      0.60000000      0.60000000      0.60000000      0.60000000      0.60000000      0.60000000      0.60000000
      0.60000000      0.60000000      0.60000000      0.60000000      0.60000000      0.60000000      0.60000000      0.60000000      0.60000000      0.60000000      0.60000000      0.60000000      0.60000000      0.60000000      0.60000000      0.60000000      0.60000000      0.60000000      0.60000000      0.60000000
      0.60000000      0.60000000      0.60000000      0.60000000      0.60000000      0.60000000      0.60000000      0.60000000      0.60000000      0.60000000      0.60000000      0.60000000      0.60000000      0.60000000      0.60000000      0.60000000      0.60000000      0.60000000      0.60000000      0.60000000
      0.60000000      0.60000000      0.60000000      0.60000000      0.60000000      0.60000000      0.60000000      0.60000000      0.60000000      0.60000000      0.60000000      0.60000000      0.60000000      0.60000000      0.60000000      0.60000000      0.60000000      0.60000000      0.60000000      0.60000000
      0.60000000      0.60000000      0.60000000      0.60000000      0.60000000      0.60000000      0.60000000      0.60000000      0.60000000      0.60000000      0.60000000      0.60000000      0.60000000      0.60000000      0.60000000      0.60000000      0.60000000      0.60000000</v>
  <i type="string" name="LREAL"> Auto</i>
  <i type="int" name="ISMEAR">     0</i>
  <i name="SIGMA">      0.05000000</i>
  <i type="int" name="LMAXMIX">     4</i>
  <v type="int" name="KPOINT_BSE">    -1     0     0     0</v>
  <i type="int" name="NELM">    40</i>
  <i type="logical" name="LDAU"> T  </i>
  <v type="int" name="LDAUTYPE">     2</v>
  <v type="int" name="LDAUL">     0     2     2     0</v>
  <v name="LDAUU">      0.00000000      3.00000000      5.00000000      0.00000000</v>
  <v name="LDAUJ">      0.00000000      0.00000000      0.00000000      0.00000000</v>
  <i type="int" name="LDAUPRINT">     1</i>
 </incar>
 <kpoints>
  <generation param="Monkhorst-Pack">
   <v type="int" name="divisions">       2        2        2 </v>
   <v name="usershift">      0.00000000       0.00000000       0.00000000 </v>
   <v name="genvec1">      0.50000000       0.00000000      -0.00000000 </v>
   <v name="genvec2">     -0.00000000       0.50000000       0.00000000 </v>
   <v name="genvec3">      0.00000000      -0.00000000       0.50000000 </v>
   <v name="shift">      0.50000000       0.50000000       0.50000000 </v>
  </generation>
  <varray name="kpointlist" >
   <v>       0.25000000       0.25000000       0.25000000 </v>
   <v>      -0.25000000       0.25000000       0.25000000 </v>
   <v>       0.25000000      -0.25000000       0.25000000 </v>
   <v>      -0.25000000      -0.25000000       0.25000000 </v>
  </varray>
  <varray name="weights" >
   <v>       0.25000000 </v>
   <v>       0.25000000 </v>
   <v>       0.25000000 </v>
   <v>       0.25000000 </v>
  </varray>
 </kpoints>
 <parameters>
  <separator name="general" >
   <i type="string" name="SYSTEM">STF</i>
   <i type="logical" name="LCOMPAT"> F  </i>
  </separator>
  <separator name="electronic" >
   <i type="string" name="PREC">normal</i>
   <i name="ENMAX">    520.00000000</i>
   <i name="ENAUG">    605.39200000</i>
   <i name="EDIFF">      0.00010000</i>
   <i type="int" name="IALGO">    68</i>
   <i type="int" name="IWAVPR">    11</i>
   <i type="int" name="NBANDS">   768</i>
   <i name="NELECT">   1028.00000000</i>
   <i type="int" name="TURBO">     0</i>
   <i type="int" name="IRESTART">     0</i>
   <i type="int" name="NREBOOT">     0</i>
   <i type="int" name="NMIN">     0</i>
   <i name="EREF">      0.00000000</i>
   <separator name="electronic smearing" >
    <i type="int" name="ISMEAR">     0</i>
    <i name="SIGMA">      0.05000000</i>
    <i name="KSPACING">      0.50000000</i>
    <i type="logical" name="KGAMMA"> T  </i>
   </separator>
   <separator name="electronic projectors" >
    <i type="logical" name="LREAL"> T  </i>
    <v name="ROPT">     -0.00050000     -0.00050000     -0.00050000     -0.00050000</v>
    <i type="int" name="LMAXPAW">  -100</i>
    <i type="int" name="LMAXMIX">     4</i>
    <i type="logical" name="NLSPLINE"> F  </i>
   </separator>
   <separator name="electronic startup" >
    <i type="int" name="ISTART">     1</i>
    <i type="int" name="ICHARG">     0</i>
    <i type="int" name="INIWAV">     1</i>
   </separator>
   <separator name="electronic spin" >
    <i type="int" name="ISPIN">     2</i>
    <i type="logical" name="LNONCOLLINEAR"> F  </i>
    <v name="MAGMOM">      0.60000000      0.60000000      0.60000000      0.60000000      0.60000000      0.60000000      0.60000000      0.60000000      0.60000000      0.60000000      0.60000000      0.60000000      0.60000000      0.60000000      0.60000000      0.60000000      0.60000000      0.60000000      0.60000000      0.60000000
      0.60000000      0.60000000      0.60000000      0.60000000      0.60000000      0.60000000      0.60000000      0.60000000      0.60000000      0.60000000      0.60000000      0.60000000      0.60000000      0.60000000      0.60000000      0.60000000      0.60000000      0.60000000      0.60000000      0.60000000
      0.60000000      0.60000000      0.60000000      0.60000000      0.60000000      0.60000000      0.60000000      0.60000000      0.60000000      0.60000000      0.60000000      0.60000000      0.60000000      0.60000000      0.60000000      0.60000000      0.60000000      0.60000000      0.60000000      0.60000000
      5.00000000      5.00000000      5.00000000      5.00000000      0.60000000      0.60000000      0.60000000      0.60000000      0.60000000      0.60000000      0.60000000      0.60000000      0.60000000      0.60000000      0.60000000      0.60000000      0.60000000      0.60000000      0.60000000      0.60000000
      0.60000000      0.60000000      0.60000000      0.60000000      0.60000000      0.60000000      0.60000000      0.60000000      0.60000000      0.60000000      0.60000000      0.60000000      0.60000000      0.60000000      0.60000000      0.60000000      0.60000000      0.60000000      0.60000000      0.60000000
      0.60000000      0.60000000      0.60000000      0.60000000      0.60000000      0.60000000      0.60000000      0.60000000      0.60000000      0.60000000      0.60000000      0.60000000      0.60000000      0.60000000      0.60000000      0.60000000      0.60000000      0.60000000      0.60000000      0.60000000
      0.60000000      0.60000000      0.60000000      0.60000000      0.60000000      0.60000000      0.60000000      0.60000000      0.60000000      0.60000000      0.60000000      0.60000000      0.60000000      0.60000000      0.60000000      0.60000000      0.60000000      0.60000000      0.60000000      0.60000000
      0.60000000      0.60000000      0.60000000      0.60000000      0.60000000      0.60000000      0.60000000      0.60000000      0.60000000      0.60000000      0.60000000      0.60000000      0.60000000      0.60000000      0.60000000      0.60000000      0.60000000      0.60000000</v>
    <i name="NUPDOWN">     -1.00000000</i>
    <i type="logical" name="LSORBIT"> F  </i>
    <v name="SAXIS">      0.00000000      0.00000000      1.00000000</v>
    <i type="logical" name="LSPIRAL"> F  </i>
    <v name="QSPIRAL">      0.00000000      0.00000000      0.00000000</v>
    <i type="logical" name="LZEROZ"> F  </i>
   </separator>
   <separator name="electronic exchange-correlation" >
    <i type="logical" name="LASPH"> F  </i>
    <i type="logical" name="LMETAGGA"> F  </i>
   </separator>
   <separator name="electronic convergence" >
    <i type="int" name="NELM">    40</i>
    <i type="int" name="NELMDL">     0</i>
    <i type="int" name="NELMIN">     8</i>
    <i name="ENINI">    520.00000000</i>
    <separator name="electronic convergence detail" >
     <i type="logical" name="LDIAG"> T  </i>
     <i type="logical" name="LSUBROT"> F  </i>
     <i name="WEIMIN">      0.00100000</i>
     <i name="EBREAK">      0.00000003</i>
     <i name="DEPER">      0.30000000</i>
     <i type="int" name="NRMM">     4</i>
     <i name="TIME">      0.40000000</i>
    </separator>
   </separator>
   <separator name="electronic mixer" >
    <i name="AMIX">      0.40000000</i>
    <i name="BMIX">      1.00000000</i>
    <i name="AMIN">      0.10000000</i>
    <i name="AMIX_MAG">      1.60000000</i>
    <i name="BMIX_MAG">      1.00000000</i>
    <separator name="electronic mixer details" >
     <i type="int" name="IMIX">     4</i>
     <i type="logical" name="MIXFIRST"> F  </i>
     <i type="int" name="MAXMIX">   -45</i>
     <i name="WC">    100.00000000</i>
     <i type="int" name="INIMIX">     1</i>
     <i type="int" name="MIXPRE">     1</i>
     <i type="int" name="MREMOVE">     5</i>
    </separator>
   </separator>
   <separator name="electronic dipolcorrection" >
    <i type="logical" name="LDIPOL"> F  </i>
    <i type="logical" name="LMONO"> F  </i>
    <i type="int" name="IDIPOL">     0</i>
    <i name="EPSILON">      1.00000000</i>
    <v name="DIPOL">   -100.00000000   -100.00000000   -100.00000000</v>
    <i name="EFIELD">      0.00000000</i>
   </separator>
  </separator>
  <separator name="grids" >
   <i type="int" name="NGX">    64</i>
   <i type="int" name="NGY">    64</i>
   <i type="int" name="NGZ">    90</i>
   <i type="int" name="NGXF">   128</i>
   <i type="int" name="NGYF">   128</i>
   <i type="int" name="NGZF">   180</i>
   <i type="logical" name="ADDGRID"> F  </i>
  </separator>
  <separator name="ionic" >
   <i type="int" name="NSW">    30</i>
   <i type="int" name="IBRION">     2</i>
   <i type="int" name="ISIF">     3</i>
   <i name="PSTRESS">      0.00000000</i>
   <i name="EDIFFG">     -0.03000000</i>
   <i type="int" name="NFREE">     1</i>
   <i name="POTIM">      0.50000000</i>
   <i name="SMASS">     -3.00000000</i>
   <i name="SCALEE">      1.00000000</i>
  </separator>
  <separator name="ionic md" >
   <i name="TEBEG">      0.00010000</i>
   <i name="TEEND">      0.00010000</i>
   <i type="int" name="NBLOCK">     1</i>
   <i type="int" name="KBLOCK">    30</i>
   <i type="int" name="NPACO">   256</i>
   <i name="APACO">     16.00000000</i>
  </separator>
  <separator name="symmetry" >
   <i type="int" name="ISYM">     2</i>
   <i name="SYMPREC">      0.00001000</i>
  </separator>
  <separator name="dos" >
   <i type="logical" name="LORBIT"> F  </i>
   <v name="RWIGS">     -1.00000000     -1.00000000     -1.00000000     -1.00000000</v>
   <i type="int" name="NEDOS">   301</i>
   <i name="EMIN">     10.00000000</i>
   <i name="EMAX">    -10.00000000</i>
   <i name="EFERMI">      0.00000000</i>
  </separator>
  <separator name="writing" >
   <i type="int" name="NWRITE">     2</i>
   <i type="logical" name="LWAVE"> T  </i>
   <i type="logical" name="LCHARG"> T  </i>
   <i type="logical" name="LPARD"> F  </i>
   <i type="logical" name="LVTOT"> F  </i>
   <i type="logical" name="LVHAR"> F  </i>
   <i type="logical" name="LELF"> F  </i>
   <i type="logical" name="LOPTICS"> F  </i>
   <v name="STM">      0.00000000      0.00000000      0.00000000      0.00000000      0.00000000      0.00000000      0.00000000</v>
  </separator>
  <separator name="performance" >
   <i type="int" name="NPAR">     2</i>
   <i type="int" name="NSIM">     4</i>
   <i type="int" name="NBLK">    -1</i>
   <i type="logical" name="LPLANE"> T  </i>
   <i type="logical" name="LSCALAPACK"> T  </i>
   <i type="logical" name="LSCAAWARE"> F  </i>
   <i type="logical" name="LSCALU"> F  </i>
   <i type="logical" name="LASYNC"> F  </i>
   <i type="logical" name="LORBITALREAL"> F  </i>
  </separator>
  <separator name="miscellaneous" >
   <i type="int" name="IDIOT">     3</i>
   <i type="logical" name="LMUSIC"> F  </i>
   <v name="POMASS">     87.62000000     47.88000000     55.84700000     16.00000000</v>
   <v name="DARWINR">      0.00000000      0.00000000      0.00000000      0.00000000</v>
   <v name="DARWINV">      1.00000000      1.00000000      1.00000000      1.00000000</v>
   <i type="logical" name="LCORR"> T  </i>
  </separator>
  <i type="logical" name="GGA_COMPAT"> T  </i>
  <i type="logical" name="LBERRY"> F  </i>
  <i type="int" name="ICORELEVEL">     0</i>
  <i type="logical" name="LDAU"> T  </i>
  <v type="int" name="LDAUTYPE">     2</v>
  <v type="int" name="LDAUL">     0</v>
  <v name="LDAUU">      0.00000000</v>
  <v name="LDAUJ">      0.00000000</v>
  <i type="int" name="LDAUPRINT">     1</i>
  <i type="int" name="I_CONSTRAINED_M">     0</i>
  <separator name="electronic exchange-correlation" >
   <i type="string" name="GGA">--</i>
   <i type="int" name="VOSKOWN">     0</i>
   <i type="logical" name="LHFCALC"> F  </i>
   <i type="string" name="PRECFOCK"></i>
   <i type="logical" name="LSYMGRAD"> F  </i>
   <i type="logical" name="LHFONE"> F  </i>
   <i type="logical" name="LRHFCALC"> F  </i>
   <i type="logical" name="LTHOMAS"> F  </i>
   <i type="logical" name="LMODELHF"> F  </i>
   <i name="ENCUT4O">     -1.00000000</i>
   <i type="int" name="EXXOEP">     0</i>
   <i type="int" name="FOURORBIT">     0</i>
   <i name="AEXX">      0.00000000</i>
   <i name="HFALPHA">      0.00000000</i>
   <i name="MCALPHA">      0.00000000</i>
   <i name="ALDAX">      1.00000000</i>
   <i name="AGGAX">      1.00000000</i>
   <i name="ALDAC">      1.00000000</i>
   <i name="AGGAC">      1.00000000</i>
   <i type="int" name="NKREDX">     1</i>
   <i type="int" name="NKREDY">     1</i>
   <i type="int" name="NKREDZ">     1</i>
   <i type="logical" name="SHIFTRED"> F  </i>
   <i type="logical" name="ODDONLY"> F  </i>
   <i type="logical" name="EVENONLY"> F  </i>
   <i type="int" name="LMAXFOCK">     0</i>
   <i type="int" name="NMAXFOCKAE">     0</i>
   <i type="logical" name="LFOCKAEDFT"> F  </i>
   <i name="HFSCREEN">      0.00000000</i>
   <i name="HFSCREENC">      0.00000000</i>
   <i type="int" name="NBANDSGWLOW">     0</i>
  </separator>
  <separator name="vdW DFT" >
   <i type="logical" name="LUSE_VDW"> F  </i>
   <i name="Zab_VDW">     -0.84910000</i>
   <i name="PARAM1">      0.12340000</i>
   <i name="PARAM2">      1.00000000</i>
   <i name="PARAM3">      0.00000000</i>
  </separator>
  <separator name="model GW" >
   <i type="int" name="MODEL_GW">     0</i>
   <i name="MODEL_EPS0">      7.62630393</i>
   <i name="MODEL_ALPHA">      1.00000000</i>
  </separator>
  <separator name="linear response parameters" >
   <i type="logical" name="LEPSILON"> F  </i>
   <i type="logical" name="LRPA"> F  </i>
   <i type="logical" name="LNABLA"> F  </i>
   <i type="logical" name="LVEL"> F  </i>
   <i type="int" name="KINTER">     0</i>
   <i name="CSHIFT">      0.10000000</i>
   <i name="OMEGAMAX">     -1.00000000</i>
   <i name="DEG_THRESHOLD">      0.00200000</i>
  </separator>
  <separator name="orbital magnetization" >
   <i type="logical" name="NUCIND"> F  </i>
   <v name="MAGPOS">      0.00000000      0.00000000      0.00000000</v>
   <i type="logical" name="LNICSALL"> T  </i>
   <i type="logical" name="ORBITALMAG"> F  </i>
   <i type="logical" name="LMAGBLOCH"> F  </i>
   <i type="logical" name="LCHIMAG"> F  </i>
   <i type="logical" name="LGAUGE"> T  </i>
   <i type="int" name="MAGATOM">     0</i>
   <v name="MAGDIPOL">      0.00000000      0.00000000      0.00000000</v>
   <v name="AVECCONST">      0.00000000      0.00000000      0.00000000</v>
  </separator>
  <separator name="response functions" >
   <i type="logical" name="LADDER"> F  </i>
   <i type="logical" name="LFXC"> F  </i>
   <i type="logical" name="LHARTREE"> T  </i>
   <i type="int" name="IBSE">     0</i>
   <v type="int" name="KPOINT">    -1     0     0     0</v>
   <i type="logical" name="LTCTE"> F  </i>
   <i type="logical" name="LTETE"> F  </i>
   <i type="logical" name="LTRIPLET"> F  </i>
   <i type="logical" name="LFXCEPS"> F  </i>
   <i type="logical" name="LFXHEG"> F  </i>
   <i type="int" name="NATURALO">     0</i>
   <i type="logical" name="L2ORDER"> F  </i>
   <i type="logical" name="LUSEW"> F  </i>
   <i name="ENCUTGW">     -2.00000000</i>
   <i name="ENCUTGWSOFT">     -2.00000000</i>
   <i name="ENCUTLF">     -1.00000000</i>
   <i type="int" name="LMAXMP2">    -1</i>
   <i name="SCISSOR">      0.00000000</i>
   <i type="int" name="NOMEGA">     0</i>
   <i type="int" name="NOMEGAR">     0</i>
   <i type="int" name="NBANDSGW">    -1</i>
   <i type="int" name="NBANDSO">    -1</i>
   <i type="int" name="NBANDSV">    -1</i>
   <i type="int" name="NELM">    40</i>
   <i type="int" name="NELMHF">     1</i>
   <i type="int" name="DIM">     3</i>
   <i type="int" name="ANTIRES">     0</i>
   <i name="OMEGAMAX">    -30.00000000</i>
   <i name="OMEGAMIN">    -30.00000000</i>
   <i name="OMEGATL">   -200.00000000</i>
   <i type="int" name="OMEGAGRID">     0</i>
   <i name="CSHIFT">     -0.10000000</i>
   <i type="logical" name="SELFENERGY"> F  </i>
   <i type="logical" name="LSPECTRAL"> F  </i>
   <i type="logical" name="LSPECTRALGW"> F  </i>
   <i type="logical" name="LSINGLES"> F  </i>
   <i type="logical" name="LFERMIGW"> F  </i>
   <i type="logical" name="ODDONLYGW"> F  </i>
   <i type="logical" name="EVENONLYGW"> F  </i>
   <i type="int" name="NKREDLFX">     1</i>
   <i type="int" name="NKREDLFY">     1</i>
   <i type="int" name="NKREDLFZ">     1</i>
   <i type="int" name="MAXMEM">  1800</i>
   <i type="int" name="TELESCOPE">     0</i>
   <i type="int" name="TAUPAR">     1</i>
   <i type="int" name="OMEGAPAR">    -1</i>
   <i name="LAMBDA">      1.00000000</i>
  </separator>
  <separator name="External order field" >
   <i name="OFIELD_KAPPA">      0.00000000</i>
   <v name="OFIELD_K">      0.00000000      0.00000000      0.00000000</v>
   <i name="OFIELD_Q6_NEAR">      0.00000000</i>
   <i name="OFIELD_Q6_FAR">      0.00000000</i>
   <i name="OFIELD_A">      0.00000000</i>
  </separator>
 </parameters>
 <atominfo>
  <atoms>     158 </atoms>
  <types>       4 </types>
  <array name="atoms" >
   <dimension dim="1">ion</dimension>
   <field type="string">element</field>
   <field type="int">atomtype</field>
   <set>
    <rc><c>Sr</c><c>   1</c></rc>
    <rc><c>Sr</c><c>   1</c></rc>
    <rc><c>Sr</c><c>   1</c></rc>
    <rc><c>Sr</c><c>   1</c></rc>
    <rc><c>Sr</c><c>   1</c></rc>
    <rc><c>Sr</c><c>   1</c></rc>
    <rc><c>Sr</c><c>   1</c></rc>
    <rc><c>Sr</c><c>   1</c></rc>
    <rc><c>Sr</c><c>   1</c></rc>
    <rc><c>Sr</c><c>   1</c></rc>
    <rc><c>Sr</c><c>   1</c></rc>
    <rc><c>Sr</c><c>   1</c></rc>
    <rc><c>Sr</c><c>   1</c></rc>
    <rc><c>Sr</c><c>   1</c></rc>
    <rc><c>Sr</c><c>   1</c></rc>
    <rc><c>Sr</c><c>   1</c></rc>
    <rc><c>Sr</c><c>   1</c></rc>
    <rc><c>Sr</c><c>   1</c></rc>
    <rc><c>Sr</c><c>   1</c></rc>
    <rc><c>Sr</c><c>   1</c></rc>
    <rc><c>Sr</c><c>   1</c></rc>
    <rc><c>Sr</c><c>   1</c></rc>
    <rc><c>Sr</c><c>   1</c></rc>
    <rc><c>Sr</c><c>   1</c></rc>
    <rc><c>Sr</c><c>   1</c></rc>
    <rc><c>Sr</c><c>   1</c></rc>
    <rc><c>Sr</c><c>   1</c></rc>
    <rc><c>Sr</c><c>   1</c></rc>
    <rc><c>Sr</c><c>   1</c></rc>
    <rc><c>Sr</c><c>   1</c></rc>
    <rc><c>Sr</c><c>   1</c></rc>
    <rc><c>Sr</c><c>   1</c></rc>
    <rc><c>Ti</c><c>   2</c></rc>
    <rc><c>Ti</c><c>   2</c></rc>
    <rc><c>Ti</c><c>   2</c></rc>
    <rc><c>Ti</c><c>   2</c></rc>
    <rc><c>Ti</c><c>   2</c></rc>
    <rc><c>Ti</c><c>   2</c></rc>
    <rc><c>Ti</c><c>   2</c></rc>
    <rc><c>Ti</c><c>   2</c></rc>
    <rc><c>Ti</c><c>   2</c></rc>
    <rc><c>Ti</c><c>   2</c></rc>
    <rc><c>Ti</c><c>   2</c></rc>
    <rc><c>Ti</c><c>   2</c></rc>
    <rc><c>Ti</c><c>   2</c></rc>
    <rc><c>Ti</c><c>   2</c></rc>
    <rc><c>Ti</c><c>   2</c></rc>
    <rc><c>Ti</c><c>   2</c></rc>
    <rc><c>Ti</c><c>   2</c></rc>
    <rc><c>Ti</c><c>   2</c></rc>
    <rc><c>Ti</c><c>   2</c></rc>
    <rc><c>Ti</c><c>   2</c></rc>
    <rc><c>Ti</c><c>   2</c></rc>
    <rc><c>Ti</c><c>   2</c></rc>
    <rc><c>Ti</c><c>   2</c></rc>
    <rc><c>Ti</c><c>   2</c></rc>
    <rc><c>Ti</c><c>   2</c></rc>
    <rc><c>Ti</c><c>   2</c></rc>
    <rc><c>Ti</c><c>   2</c></rc>
    <rc><c>Ti</c><c>   2</c></rc>
    <rc><c>Fe</c><c>   3</c></rc>
    <rc><c>Fe</c><c>   3</c></rc>
    <rc><c>Fe</c><c>   3</c></rc>
    <rc><c>Fe</c><c>   3</c></rc>
    <rc><c>O </c><c>   4</c></rc>
    <rc><c>O </c><c>   4</c></rc>
    <rc><c>O </c><c>   4</c></rc>
    <rc><c>O </c><c>   4</c></rc>
    <rc><c>O </c><c>   4</c></rc>
    <rc><c>O </c><c>   4</c></rc>
    <rc><c>O </c><c>   4</c></rc>
    <rc><c>O </c><c>   4</c></rc>
    <rc><c>O </c><c>   4</c></rc>
    <rc><c>O </c><c>   4</c></rc>
    <rc><c>O </c><c>   4</c></rc>
    <rc><c>O </c><c>   4</c></rc>
    <rc><c>O </c><c>   4</c></rc>
    <rc><c>O </c><c>   4</c></rc>
    <rc><c>O </c><c>   4</c></rc>
    <rc><c>O </c><c>   4</c></rc>
    <rc><c>O </c><c>   4</c></rc>
    <rc><c>O </c><c>   4</c></rc>
    <rc><c>O </c><c>   4</c></rc>
    <rc><c>O </c><c>   4</c></rc>
    <rc><c>O </c><c>   4</c></rc>
    <rc><c>O </c><c>   4</c></rc>
    <rc><c>O </c><c>   4</c></rc>
    <rc><c>O </c><c>   4</c></rc>
    <rc><c>O </c><c>   4</c></rc>
    <rc><c>O </c><c>   4</c></rc>
    <rc><c>O </c><c>   4</c></rc>
    <rc><c>O </c><c>   4</c></rc>
    <rc><c>O </c><c>   4</c></rc>
    <rc><c>O </c><c>   4</c></rc>
    <rc><c>O </c><c>   4</c></rc>
    <rc><c>O </c><c>   4</c></rc>
    <rc><c>O </c><c>   4</c></rc>
    <rc><c>O </c><c>   4</c></rc>
    <rc><c>O </c><c>   4</c></rc>
    <rc><c>O </c><c>   4</c></rc>
    <rc><c>O </c><c>   4</c></rc>
    <rc><c>O </c><c>   4</c></rc>
    <rc><c>O </c><c>   4</c></rc>
    <rc><c>O </c><c>   4</c></rc>
    <rc><c>O </c><c>   4</c></rc>
    <rc><c>O </c><c>   4</c></rc>
    <rc><c>O </c><c>   4</c></rc>
    <rc><c>O </c><c>   4</c></rc>
    <rc><c>O </c><c>   4</c></rc>
    <rc><c>O </c><c>   4</c></rc>
    <rc><c>O </c><c>   4</c></rc>
    <rc><c>O </c><c>   4</c></rc>
    <rc><c>O </c><c>   4</c></rc>
    <rc><c>O </c><c>   4</c></rc>
    <rc><c>O </c><c>   4</c></rc>
    <rc><c>O </c><c>   4</c></rc>
    <rc><c>O </c><c>   4</c></rc>
    <rc><c>O </c><c>   4</c></rc>
    <rc><c>O </c><c>   4</c></rc>
    <rc><c>O </c><c>   4</c></rc>
    <rc><c>O </c><c>   4</c></rc>
    <rc><c>O </c><c>   4</c></rc>
    <rc><c>O </c><c>   4</c></rc>
    <rc><c>O </c><c>   4</c></rc>
    <rc><c>O </c><c>   4</c></rc>
    <rc><c>O </c><c>   4</c></rc>
    <rc><c>O </c><c>   4</c></rc>
    <rc><c>O </c><c>   4</c></rc>
    <rc><c>O </c><c>   4</c></rc>
    <rc><c>O </c><c>   4</c></rc>
    <rc><c>O </c><c>   4</c></rc>
    <rc><c>O </c><c>   4</c></rc>
    <rc><c>O </c><c>   4</c></rc>
    <rc><c>O </c><c>   4</c></rc>
    <rc><c>O </c><c>   4</c></rc>
    <rc><c>O </c><c>   4</c></rc>
    <rc><c>O </c><c>   4</c></rc>
    <rc><c>O </c><c>   4</c></rc>
    <rc><c>O </c><c>   4</c></rc>
    <rc><c>O </c><c>   4</c></rc>
    <rc><c>O </c><c>   4</c></rc>
    <rc><c>O </c><c>   4</c></rc>
    <rc><c>O </c><c>   4</c></rc>
    <rc><c>O </c><c>   4</c></rc>
    <rc><c>O </c><c>   4</c></rc>
    <rc><c>O </c><c>   4</c></rc>
    <rc><c>O </c><c>   4</c></rc>
    <rc><c>O </c><c>   4</c></rc>
    <rc><c>O </c><c>   4</c></rc>
    <rc><c>O </c><c>   4</c></rc>
    <rc><c>O </c><c>   4</c></rc>
    <rc><c>O </c><c>   4</c></rc>
    <rc><c>O </c><c>   4</c></rc>
    <rc><c>O </c><c>   4</c></rc>
    <rc><c>O </c><c>   4</c></rc>
    <rc><c>O </c><c>   4</c></rc>
    <rc><c>O </c><c>   4</c></rc>
    <rc><c>O </c><c>   4</c></rc>
   </set>
  </array>
  <array name="atomtypes" >
   <dimension dim="1">type</dimension>
   <field type="int">atomspertype</field>
   <field type="string">element</field>
   <field>mass</field>
   <field>valence</field>
   <field type="string">pseudopotential</field>
   <set>
    <rc><c>  32</c><c>Sr</c><c>     87.62000000</c><c>     10.00000000</c><c>  PAW_PBE Sr_sv 07Sep2000               </c></rc>
    <rc><c>  28</c><c>Ti</c><c>     47.88000000</c><c>      4.00000000</c><c>  PAW_PBE Ti 08Apr2002                  </c></rc>
    <rc><c>   4</c><c>Fe</c><c>     55.84700000</c><c>      8.00000000</c><c>  PAW_PBE Fe 06Sep2000                  </c></rc>
    <rc><c>  94</c><c>O </c><c>     16.00000000</c><c>      6.00000000</c><c>  PAW_PBE O 08Apr2002                   </c></rc>
   </set>
  </array>
 </atominfo>
 <structure name="initialpos" >
  <crystal>
   <varray name="basis" >
    <v>      11.21467830      -0.00922089       0.00029533 </v>
    <v>      -0.00922647      11.21744094      -0.00066200 </v>
    <v>       0.00041082      -0.00094135      15.96392320 </v>
   </varray>
   <i name="volume">   2008.26003601 </i>
   <varray name="rec_basis" >
    <v>       0.08916891       0.00007334      -0.00000229 </v>
    <v>       0.00007330       0.08914695       0.00000525 </v>
    <v>      -0.00000165       0.00000370       0.06264124 </v>
   </varray>
  </crystal>
  <varray name="positions" >
   <v>       0.99312647       0.24876036       0.13159884 </v>
   <v>       0.00405330       0.25313059       0.62124248 </v>
   <v>       0.00033617       0.75040790       0.13040092 </v>
   <v>       0.99773029       0.74776796       0.61971099 </v>
   <v>       0.50642328       0.25621493       0.13380395 </v>
   <v>       0.49811502       0.25230716       0.62174606 </v>
   <v>       0.49874100       0.74386735       0.12984346 </v>
   <v>       0.50395786       0.74981116       0.62298931 </v>
   <v>       0.00437729       0.24891649       0.37440152 </v>
   <v>       0.99572691       0.25399234       0.87279644 </v>
   <v>       0.99969496       0.74977184       0.37320661 </v>
   <v>       0.99776994       0.74765062       0.87733945 </v>
   <v>       0.49492993       0.25045222       0.37470969 </v>
   <v>       0.50524275       0.25816773       0.87002754 </v>
   <v>       0.49896547       0.74944275       0.37553242 </v>
   <v>       0.50386721       0.74346039       0.87182279 </v>
   <v>       0.24748489       0.00000523       0.13236130 </v>
   <v>       0.25498929       0.00878637       0.61668771 </v>
   <v>       0.25253476       0.50189547       0.12930776 </v>
   <v>       0.25124083       0.49075836       0.62078943 </v>
   <v>       0.75321022       0.00399530       0.12908830 </v>
   <v>       0.74385192       0.99960091       0.62105930 </v>
   <v>       0.74965271       0.49786920       0.12879747 </v>
   <v>       0.74829539       0.50100089       0.62266895 </v>
   <v>       0.24893296       0.00552888       0.37511684 </v>
   <v>       0.25109423       0.00241677       0.87303647 </v>
   <v>       0.24989178       0.49295048       0.37365516 </v>
   <v>       0.25526154       0.49676950       0.87607558 </v>
   <v>       0.74935323       0.00199268       0.37272238 </v>
   <v>       0.74736287       0.00344709       0.87693947 </v>
   <v>       0.75008764       0.49750464       0.37393853 </v>
   <v>       0.74797355       0.50055944       0.87482525 </v>
   <v>       0.00119432       0.99803816       0.00042064 </v>
   <v>       0.00161687       0.00015587       0.49986373 </v>
   <v>       0.99742988       0.50372295       0.00085683 </v>
   <v>       0.00168809       0.49850534       0.49937680 </v>
   <v>       0.50685732       0.98647309       0.00057107 </v>
   <v>       0.49966156       0.00053784       0.49861606 </v>
   <v>       0.50093132       0.50025194       0.99925396 </v>
   <v>       0.49895656       0.49905768       0.50155113 </v>
   <v>       0.23704191       0.25710690       0.00147201 </v>
   <v>       0.24780605       0.75149156       0.00070793 </v>
   <v>       0.24919521       0.75071405       0.49988423 </v>
   <v>       0.74994118       0.25122304       0.00082524 </v>
   <v>       0.75029373       0.25012200       0.49836348 </v>
   <v>       0.75397696       0.74729262       0.00096119 </v>
   <v>       0.74984113       0.75049082       0.49894284 </v>
   <v>       0.25399427       0.25026320       0.74811392 </v>
   <v>       0.25056160       0.74993414       0.25171238 </v>
   <v>       0.25845853       0.73608770       0.74929817 </v>
   <v>       0.74603552       0.25633557       0.74803424 </v>
   <v>       0.74967513       0.75065890       0.25003601 </v>
   <v>       0.74953424       0.74840729       0.75003250 </v>
   <v>       0.99936599       0.00311787       0.25089794 </v>
   <v>       0.98637095       0.00739923       0.74961704 </v>
   <v>       0.00092078       0.49699645       0.25000314 </v>
   <v>       0.99962366       0.50060406       0.74995641 </v>
   <v>       0.49894876       0.00371630       0.25027355 </v>
   <v>       0.49902798       0.00224874       0.74933068 </v>
   <v>       0.49983229       0.49857146       0.25184959 </v>
   <v>       0.24946655       0.25055722       0.49692346 </v>
   <v>       0.25134693       0.24881209       0.25066775 </v>
   <v>       0.75046358       0.24995404       0.25200130 </v>
   <v>       0.50388108       0.49813534       0.74848924 </v>
   <v>       0.11156914       0.13570481       0.24666784 </v>
   <v>       0.11495052       0.12752109       0.75361155 </v>
   <v>       0.11271989       0.63830391       0.24913774 </v>
   <v>       0.10595516       0.64777991       0.75027972 </v>
   <v>       0.61165893       0.13670646       0.25049760 </v>
   <v>       0.60866833       0.14111133       0.74982156 </v>
   <v>       0.61211865       0.63961295       0.24991867 </v>
   <v>       0.61014446       0.64378116       0.74947497 </v>
   <v>       0.38859521       0.36478713       0.24938358 </v>
   <v>       0.38964282       0.35812863       0.75024482 </v>
   <v>       0.38858522       0.86117392       0.24778234 </v>
   <v>       0.38126698       0.86370675       0.75335418 </v>
   <v>       0.88841293       0.36436459       0.25047472 </v>
   <v>       0.89275016       0.35703714       0.74903077 </v>
   <v>       0.88790783       0.86211389       0.24908421 </v>
   <v>       0.89922099       0.85497411       0.75029722 </v>
   <v>       0.36351607       0.10966312       0.25453177 </v>
   <v>       0.36087672       0.10930845       0.74443773 </v>
   <v>       0.36198561       0.61316129       0.24979620 </v>
   <v>       0.35763835       0.60662257       0.74952784 </v>
   <v>       0.86340264       0.11110483       0.24926447 </v>
   <v>       0.85596140       0.10681388       0.74991241 </v>
   <v>       0.86184000       0.61327961       0.24972109 </v>
   <v>       0.85790330       0.60682782       0.75025150 </v>
   <v>       0.13701796       0.38782259       0.24297397 </v>
   <v>       0.13988841       0.38725075       0.75762079 </v>
   <v>       0.13739304       0.88647168       0.25071166 </v>
   <v>       0.63619549       0.38899880       0.24845400 </v>
   <v>       0.64305769       0.39142367       0.75173705 </v>
   <v>       0.63737384       0.88895449       0.24377954 </v>
   <v>       0.63891233       0.89187934       0.75694855 </v>
   <v>       0.36242765       0.38347035       0.99943434 </v>
   <v>       0.36298863       0.39019669       0.50006442 </v>
   <v>       0.35289407       0.90114701       0.99938072 </v>
   <v>       0.36008936       0.88922303       0.49996105 </v>
   <v>       0.85933533       0.39193414       0.99867634 </v>
   <v>       0.86114965       0.39022380       0.50159771 </v>
   <v>       0.85504193       0.89338165       0.99830935 </v>
   <v>       0.86023751       0.89029245       0.50186463 </v>
   <v>       0.14785284       0.10385253       0.99879195 </v>
   <v>       0.13655289       0.10942815       0.50065027 </v>
   <v>       0.14360038       0.60583840       0.99785124 </v>
   <v>       0.14040902       0.61170738       0.50296079 </v>
   <v>       0.63051461       0.11301916       0.99907369 </v>
   <v>       0.63933586       0.10986460       0.50046267 </v>
   <v>       0.64224923       0.60947239       0.00000512 </v>
   <v>       0.64031263       0.61192518       0.49992201 </v>
   <v>       0.10490569       0.35584614       0.00072546 </v>
   <v>       0.10924309       0.36355141       0.50068657 </v>
   <v>       0.10425967       0.85432347       0.00411870 </v>
   <v>       0.10928631       0.85924016       0.49550459 </v>
   <v>       0.61065825       0.36085882       0.00033074 </v>
   <v>       0.61156830       0.36089533       0.49906303 </v>
   <v>       0.60496273       0.85467072       0.99877693 </v>
   <v>       0.61056941       0.85975341       0.50082883 </v>
   <v>       0.38991639       0.13551167       0.50245933 </v>
   <v>       0.38902163       0.64425845       0.99435211 </v>
   <v>       0.38787238       0.64190761       0.50617992 </v>
   <v>       0.89212299       0.13832589       0.99355490 </v>
   <v>       0.88981378       0.13731787       0.50695100 </v>
   <v>       0.89347220       0.64356134       0.00037726 </v>
   <v>       0.88903932       0.63975472       0.50008057 </v>
   <v>       0.99752658       0.00079927       0.12303032 </v>
   <v>       0.01484071       0.98728091       0.63001111 </v>
   <v>       0.99830678       0.50230453       0.12296211 </v>
   <v>       0.00344882       0.49901877       0.62697005 </v>
   <v>       0.48858103       0.01342706       0.12000329 </v>
   <v>       0.50384229       0.99432955       0.62643726 </v>
   <v>       0.49737837       0.50495494       0.12363091 </v>
   <v>       0.50263288       0.49898404       0.62453048 </v>
   <v>       0.99762002       0.00187572       0.37559488 </v>
   <v>       0.01172365       0.98595055       0.87132779 </v>
   <v>       0.00298229       0.50117557       0.37494009 </v>
   <v>       0.99871009       0.50022580       0.87580475 </v>
   <v>       0.50268934       0.99572414       0.37506789 </v>
   <v>       0.48791460       0.01522458       0.87940442 </v>
   <v>       0.49935955       0.50407797       0.37566851 </v>
   <v>       0.50015044       0.50107900       0.87577709 </v>
   <v>       0.24734850       0.25153625       0.37445642 </v>
   <v>       0.26681142       0.23673169       0.88056799 </v>
   <v>       0.25244730       0.74811321       0.37582294 </v>
   <v>       0.23687141       0.76293657       0.87090523 </v>
   <v>       0.75363812       0.24852031       0.37745720 </v>
   <v>       0.75068746       0.24921996       0.87386976 </v>
   <v>       0.74937254       0.75407452       0.37447165 </v>
   <v>       0.75087999       0.74883723       0.87600507 </v>
   <v>       0.26903898       0.23448151       0.11794679 </v>
   <v>       0.24501892       0.25275949       0.62731631 </v>
   <v>       0.25188561       0.74812313       0.12349303 </v>
   <v>       0.23813019       0.76705726       0.63003936 </v>
   <v>       0.75382710       0.24738872       0.12213881 </v>
   <v>       0.74763506       0.25086664       0.62590668 </v>
   <v>       0.75066367       0.74978029       0.12325699 </v>
   <v>       0.74898698       0.75380975       0.62631169 </v>
  </varray>
 </structure>
 <calculation>
  <scstep>
   <time name="dav">  590.03  590.06</time>
   <time name="total">  597.25  597.34</time>
   <energy>
    <i name="alphaZ">   5624.90786462 </i>
    <i name="ewald"> -60812.01585993 </i>
    <i name="hartreedc"> -15670.75744617 </i>
    <i name="XCdc">   2852.06376310 </i>
    <i name="pawpsdc"> 112119.06974326 </i>
    <i name="pawaedc">-110866.85841598 </i>
    <i name="eentropy">     -0.00000000 </i>
    <i name="bandstr">  -7048.41906298 </i>
    <i name="atom">  72650.08363186 </i>
    <i name="e_fr_energy">  -1151.92578222 </i>
    <i name="e_wo_entrp">  -1151.92578222 </i>
    <i name="e_0_energy">  -1151.92578222 </i>
   </energy>
  </scstep>
  <scstep>
   <time name="diag">   65.25   65.25</time>
   <time name="diis">   62.72   62.72</time>
   <time name="orth">   33.51   33.51</time>
   <time name="total">  168.71  168.75</time>
   <energy>
    <i name="e_fr_energy">  -1151.92578287 </i>
    <i name="e_wo_entrp">  -1151.92578287 </i>
    <i name="e_0_energy">  -1151.92578287 </i>
   </energy>
  </scstep>
  <scstep>
   <time name="diag">   64.88   64.88</time>
   <time name="diis">   58.90   58.91</time>
   <time name="orth">   33.43   33.43</time>
   <time name="total">  164.43  164.65</time>
   <energy>
    <i name="e_fr_energy">  -1151.92578347 </i>
    <i name="e_wo_entrp">  -1151.92578347 </i>
    <i name="e_0_energy">  -1151.92578347 </i>
   </energy>
  </scstep>
  <scstep>
   <time name="diag">   64.86   64.87</time>
   <time name="diis">   50.48   50.48</time>
   <time name="orth">   33.47   33.47</time>
   <time name="total">  156.03  156.18</time>
   <energy>
    <i name="e_fr_energy">  -1151.92578427 </i>
    <i name="e_wo_entrp">  -1151.92578427 </i>
    <i name="e_0_energy">  -1151.92578427 </i>
   </energy>
  </scstep>
  <scstep>
   <time name="diag">   64.82   64.83</time>
   <time name="diis">   49.46   49.46</time>
   <time name="orth">   33.44   33.44</time>
   <time name="total">  154.95  155.47</time>
   <energy>
    <i name="e_fr_energy">  -1151.92578500 </i>
    <i name="e_wo_entrp">  -1151.92578500 </i>
    <i name="e_0_energy">  -1151.92578500 </i>
   </energy>
  </scstep>
  <scstep>
   <time name="diag">   64.92   64.92</time>
   <time name="diis">   46.06   46.06</time>
   <time name="orth">   33.48   33.48</time>
   <time name="total">  151.68  151.70</time>
   <energy>
    <i name="e_fr_energy">  -1151.92578530 </i>
    <i name="e_wo_entrp">  -1151.92578530 </i>
    <i name="e_0_energy">  -1151.92578530 </i>
   </energy>
  </scstep>
  <scstep>
   <time name="diag">   65.01   65.01</time>
   <time name="diis">   45.02   45.03</time>
   <time name="orth">   33.31   33.31</time>
   <time name="total">  150.62  150.76</time>
   <energy>
    <i name="e_fr_energy">  -1151.92578543 </i>
    <i name="e_wo_entrp">  -1151.92578543 </i>
    <i name="e_0_energy">  -1151.92578543 </i>
   </energy>
  </scstep>
  <scstep>
   <time name="diag">   64.99   64.99</time>
   <time name="diis">   42.75   42.75</time>
   <time name="orth">   33.34   33.34</time>
   <time name="total">  142.13  142.17</time>
   <energy>
    <i name="alphaZ">   5624.90786462 </i>
    <i name="ewald"> -60812.01585993 </i>
    <i name="hartreedc"> -15670.79368909 </i>
    <i name="XCdc">   2852.06602102 </i>
    <i name="pawpsdc"> 112117.73221063 </i>
    <i name="pawaedc">-110865.49750151 </i>
    <i name="eentropy">     -0.00000000 </i>
    <i name="bandstr">  -7048.40846311 </i>
    <i name="atom">  72650.08363186 </i>
    <i name="e_fr_energy">  -1151.92578550 </i>
    <i name="e_wo_entrp">  -1151.92578550 </i>
    <i name="e_0_energy">  -1151.92578550 </i>
   </energy>
  </scstep>
  <structure>
   <crystal>
    <varray name="basis" >
     <v>      11.21467830      -0.00922089       0.00029533 </v>
     <v>      -0.00922647      11.21744094      -0.00066200 </v>
     <v>       0.00041082      -0.00094135      15.96392320 </v>
    </varray>
    <i name="volume">   2008.26003601 </i>
    <varray name="rec_basis" >
     <v>       0.08916891       0.00007334      -0.00000229 </v>
     <v>       0.00007330       0.08914695       0.00000525 </v>
     <v>      -0.00000165       0.00000370       0.06264124 </v>
    </varray>
   </crystal>
   <varray name="positions" >
    <v>       0.99312647       0.24876036       0.13159884 </v>
    <v>       0.00405330       0.25313059       0.62124248 </v>
    <v>       0.00033617       0.75040790       0.13040092 </v>
    <v>       0.99773029       0.74776796       0.61971099 </v>
    <v>       0.50642328       0.25621493       0.13380395 </v>
    <v>       0.49811502       0.25230716       0.62174606 </v>
    <v>       0.49874100       0.74386735       0.12984346 </v>
    <v>       0.50395786       0.74981116       0.62298931 </v>
    <v>       0.00437729       0.24891649       0.37440152 </v>
    <v>       0.99572691       0.25399234       0.87279644 </v>
    <v>       0.99969496       0.74977184       0.37320661 </v>
    <v>       0.99776994       0.74765062       0.87733945 </v>
    <v>       0.49492993       0.25045222       0.37470969 </v>
    <v>       0.50524275       0.25816773       0.87002754 </v>
    <v>       0.49896547       0.74944275       0.37553242 </v>
    <v>       0.50386721       0.74346039       0.87182279 </v>
    <v>       0.24748489       0.00000523       0.13236130 </v>
    <v>       0.25498929       0.00878637       0.61668771 </v>
    <v>       0.25253476       0.50189547       0.12930776 </v>
    <v>       0.25124083       0.49075836       0.62078943 </v>
    <v>       0.75321022       0.00399530       0.12908830 </v>
    <v>       0.74385192       0.99960091       0.62105930 </v>
    <v>       0.74965271       0.49786920       0.12879747 </v>
    <v>       0.74829539       0.50100089       0.62266895 </v>
    <v>       0.24893296       0.00552888       0.37511684 </v>
    <v>       0.25109423       0.00241677       0.87303647 </v>
    <v>       0.24989178       0.49295048       0.37365516 </v>
    <v>       0.25526154       0.49676950       0.87607558 </v>
    <v>       0.74935323       0.00199268       0.37272238 </v>
    <v>       0.74736287       0.00344709       0.87693947 </v>
    <v>       0.75008764       0.49750464       0.37393853 </v>
    <v>       0.74797355       0.50055944       0.87482525 </v>
    <v>       0.00119432       0.99803816       0.00042064 </v>
    <v>       0.00161687       0.00015587       0.49986373 </v>
    <v>       0.99742988       0.50372295       0.00085683 </v>
    <v>       0.00168809       0.49850534       0.49937680 </v>
    <v>       0.50685732       0.98647309       0.00057107 </v>
    <v>       0.49966156       0.00053784       0.49861606 </v>
    <v>       0.50093132       0.50025194       0.99925396 </v>
    <v>       0.49895656       0.49905768       0.50155113 </v>
    <v>       0.23704191       0.25710690       0.00147201 </v>
    <v>       0.24780605       0.75149156       0.00070793 </v>
    <v>       0.24919521       0.75071405       0.49988423 </v>
    <v>       0.74994118       0.25122304       0.00082524 </v>
    <v>       0.75029373       0.25012200       0.49836348 </v>
    <v>       0.75397696       0.74729262       0.00096119 </v>
    <v>       0.74984113       0.75049082       0.49894284 </v>
    <v>       0.25399427       0.25026320       0.74811392 </v>
    <v>       0.25056160       0.74993414       0.25171238 </v>
    <v>       0.25845853       0.73608770       0.74929817 </v>
    <v>       0.74603552       0.25633557       0.74803424 </v>
    <v>       0.74967513       0.75065890       0.25003601 </v>
    <v>       0.74953424       0.74840729       0.75003250 </v>
    <v>       0.99936599       0.00311787       0.25089794 </v>
    <v>       0.98637095       0.00739923       0.74961704 </v>
    <v>       0.00092078       0.49699645       0.25000314 </v>
    <v>       0.99962366       0.50060406       0.74995641 </v>
    <v>       0.49894876       0.00371630       0.25027355 </v>
    <v>       0.49902798       0.00224874       0.74933068 </v>
    <v>       0.49983229       0.49857146       0.25184959 </v>
    <v>       0.24946655       0.25055722       0.49692346 </v>
    <v>       0.25134693       0.24881209       0.25066775 </v>
    <v>       0.75046358       0.24995404       0.25200130 </v>
    <v>       0.50388108       0.49813534       0.74848924 </v>
    <v>       0.11156914       0.13570481       0.24666784 </v>
    <v>       0.11495052       0.12752109       0.75361155 </v>
    <v>       0.11271989       0.63830391       0.24913774 </v>
    <v>       0.10595516       0.64777991       0.75027972 </v>
    <v>       0.61165893       0.13670646       0.25049760 </v>
    <v>       0.60866833       0.14111133       0.74982156 </v>
    <v>       0.61211865       0.63961295       0.24991867 </v>
    <v>       0.61014446       0.64378116       0.74947497 </v>
    <v>       0.38859521       0.36478713       0.24938358 </v>
    <v>       0.38964282       0.35812863       0.75024482 </v>
    <v>       0.38858522       0.86117392       0.24778234 </v>
    <v>       0.38126698       0.86370675       0.75335418 </v>
    <v>       0.88841293       0.36436459       0.25047472 </v>
    <v>       0.89275016       0.35703714       0.74903077 </v>
    <v>       0.88790783       0.86211389       0.24908421 </v>
    <v>       0.89922099       0.85497411       0.75029722 </v>
    <v>       0.36351607       0.10966312       0.25453177 </v>
    <v>       0.36087672       0.10930845       0.74443773 </v>
    <v>       0.36198561       0.61316129       0.24979620 </v>
    <v>       0.35763835       0.60662257       0.74952784 </v>
    <v>       0.86340264       0.11110483       0.24926447 </v>
    <v>       0.85596140       0.10681388       0.74991241 </v>
    <v>       0.86184000       0.61327961       0.24972109 </v>
    <v>       0.85790330       0.60682782       0.75025150 </v>
    <v>       0.13701796       0.38782259       0.24297397 </v>
    <v>       0.13988841       0.38725075       0.75762079 </v>
    <v>       0.13739304       0.88647168       0.25071166 </v>
    <v>       0.63619549       0.38899880       0.24845400 </v>
    <v>       0.64305769       0.39142367       0.75173705 </v>
    <v>       0.63737384       0.88895449       0.24377954 </v>
    <v>       0.63891233       0.89187934       0.75694855 </v>
    <v>       0.36242765       0.38347035       0.99943434 </v>
    <v>       0.36298863       0.39019669       0.50006442 </v>
    <v>       0.35289407       0.90114701       0.99938072 </v>
    <v>       0.36008936       0.88922303       0.49996105 </v>
    <v>       0.85933533       0.39193414       0.99867634 </v>
    <v>       0.86114965       0.39022380       0.50159771 </v>
    <v>       0.85504193       0.89338165       0.99830935 </v>
    <v>       0.86023751       0.89029245       0.50186463 </v>
    <v>       0.14785284       0.10385253       0.99879195 </v>
    <v>       0.13655289       0.10942815       0.50065027 </v>
    <v>       0.14360038       0.60583840       0.99785124 </v>
    <v>       0.14040902       0.61170738       0.50296079 </v>
    <v>       0.63051461       0.11301916       0.99907369 </v>
    <v>       0.63933586       0.10986460       0.50046267 </v>
    <v>       0.64224923       0.60947239       0.00000512 </v>
    <v>       0.64031263       0.61192518       0.49992201 </v>
    <v>       0.10490569       0.35584614       0.00072546 </v>
    <v>       0.10924309       0.36355141       0.50068657 </v>
    <v>       0.10425967       0.85432347       0.00411870 </v>
    <v>       0.10928631       0.85924016       0.49550459 </v>
    <v>       0.61065825       0.36085882       0.00033074 </v>
    <v>       0.61156830       0.36089533       0.49906303 </v>
    <v>       0.60496273       0.85467072       0.99877693 </v>
    <v>       0.61056941       0.85975341       0.50082883 </v>
    <v>       0.38991639       0.13551167       0.50245933 </v>
    <v>       0.38902163       0.64425845       0.99435211 </v>
    <v>       0.38787238       0.64190761       0.50617992 </v>
    <v>       0.89212299       0.13832589       0.99355490 </v>
    <v>       0.88981378       0.13731787       0.50695100 </v>
    <v>       0.89347220       0.64356134       0.00037726 </v>
    <v>       0.88903932       0.63975472       0.50008057 </v>
    <v>       0.99752658       0.00079927       0.12303032 </v>
    <v>       0.01484071       0.98728091       0.63001111 </v>
    <v>       0.99830678       0.50230453       0.12296211 </v>
    <v>       0.00344882       0.49901877       0.62697005 </v>
    <v>       0.48858103       0.01342706       0.12000329 </v>
    <v>       0.50384229       0.99432955       0.62643726 </v>
    <v>       0.49737837       0.50495494       0.12363091 </v>
    <v>       0.50263288       0.49898404       0.62453048 </v>
    <v>       0.99762002       0.00187572       0.37559488 </v>
    <v>       0.01172365       0.98595055       0.87132779 </v>
    <v>       0.00298229       0.50117557       0.37494009 </v>
    <v>       0.99871009       0.50022580       0.87580475 </v>
    <v>       0.50268934       0.99572414       0.37506789 </v>
    <v>       0.48791460       0.01522458       0.87940442 </v>
    <v>       0.49935955       0.50407797       0.37566851 </v>
    <v>       0.50015044       0.50107900       0.87577709 </v>
    <v>       0.24734850       0.25153625       0.37445642 </v>
    <v>       0.26681142       0.23673169       0.88056799 </v>
    <v>       0.25244730       0.74811321       0.37582294 </v>
    <v>       0.23687141       0.76293657       0.87090523 </v>
    <v>       0.75363812       0.24852031       0.37745720 </v>
    <v>       0.75068746       0.24921996       0.87386976 </v>
    <v>       0.74937254       0.75407452       0.37447165 </v>
    <v>       0.75087999       0.74883723       0.87600507 </v>
    <v>       0.26903898       0.23448151       0.11794679 </v>
    <v>       0.24501892       0.25275949       0.62731631 </v>
    <v>       0.25188561       0.74812313       0.12349303 </v>
    <v>       0.23813019       0.76705726       0.63003936 </v>
    <v>       0.75382710       0.24738872       0.12213881 </v>
    <v>       0.74763506       0.25086664       0.62590668 </v>
    <v>       0.75066367       0.74978029       0.12325699 </v>
    <v>       0.74898698       0.75380975       0.62631169 </v>
   </varray>
  </structure>
  <varray name="forces" >
   <v>      -0.00595300       0.00300369      -0.01097281 </v>
   <v>       0.00821028       0.00533794       0.00646203 </v>
   <v>      -0.00272226      -0.00241944      -0.00281004 </v>
   <v>      -0.00806551       0.00071875       0.02455119 </v>
   <v>       0.00306279       0.00188997      -0.00922019 </v>
   <v>       0.00106233      -0.00477221       0.00093395 </v>
   <v>       0.00166679      -0.00182242      -0.00941318 </v>
   <v>       0.01316156       0.00951224       0.00921997 </v>
   <v>      -0.01224570       0.00459419      -0.01110648 </v>
   <v>       0.00817739      -0.00243495       0.01402412 </v>
   <v>      -0.01106818      -0.01063870      -0.00999496 </v>
   <v>      -0.00677678      -0.01208005      -0.00485962 </v>
   <v>       0.00122161       0.00293147      -0.00683135 </v>
   <v>       0.01094170       0.00588923      -0.00417367 </v>
   <v>       0.00517799      -0.00150556      -0.01017820 </v>
   <v>       0.00817544       0.00781683       0.00918830 </v>
   <v>       0.00681311       0.00823576      -0.02199307 </v>
   <v>       0.01581917       0.00696547       0.00846327 </v>
   <v>       0.00460512      -0.00094494      -0.00861610 </v>
   <v>      -0.00624086      -0.00321476      -0.00190828 </v>
   <v>       0.00247334       0.01245840      -0.00388944 </v>
   <v>       0.00010234      -0.00581968      -0.00146147 </v>
   <v>      -0.00532995       0.00311698       0.00450452 </v>
   <v>      -0.00239917      -0.00439801       0.00466724 </v>
   <v>      -0.00209622       0.00270541       0.00137146 </v>
   <v>      -0.00600214       0.00418640       0.00920088 </v>
   <v>       0.00486983      -0.00347742       0.00221894 </v>
   <v>      -0.00742056       0.00395521       0.00320590 </v>
   <v>       0.00426935       0.00830091       0.00142632 </v>
   <v>       0.00467357       0.00239000      -0.00231317 </v>
   <v>      -0.00511273      -0.00347246      -0.00695838 </v>
   <v>       0.00369128      -0.00127548       0.00793384 </v>
   <v>       0.01713853       0.00883793       0.00488267 </v>
   <v>      -0.01087461      -0.02704365      -0.00866812 </v>
   <v>       0.00281232      -0.00917231       0.00307347 </v>
   <v>      -0.01381521       0.02058462      -0.02237973 </v>
   <v>       0.02861197      -0.02713173       0.00753099 </v>
   <v>       0.01020968      -0.01982740       0.00125094 </v>
   <v>      -0.01176682       0.01215719       0.02238437 </v>
   <v>       0.00600140       0.00387508      -0.01993616 </v>
   <v>      -0.02846944       0.01439717       0.00088833 </v>
   <v>       0.01005759       0.01799324      -0.00483528 </v>
   <v>      -0.00140219       0.02390198      -0.00814779 </v>
   <v>       0.00408947      -0.00524228       0.01397652 </v>
   <v>       0.00480215      -0.01085186      -0.02586157 </v>
   <v>      -0.00489572       0.01787411       0.01480828 </v>
   <v>       0.01255551       0.01436887       0.01070792 </v>
   <v>      -0.01423029      -0.01816006       0.00526959 </v>
   <v>       0.00492775       0.00254346      -0.00554818 </v>
   <v>      -0.00732561       0.01661959       0.02443788 </v>
   <v>      -0.00286787      -0.01847150       0.01391709 </v>
   <v>       0.01056944      -0.02070309      -0.04403174 </v>
   <v>       0.00174050       0.00046177      -0.00026287 </v>
   <v>      -0.02579264       0.00456503      -0.00659177 </v>
   <v>      -0.00634193       0.01582836      -0.00317500 </v>
   <v>      -0.02842180      -0.00132237      -0.00438989 </v>
   <v>      -0.00148269       0.01218423       0.03541430 </v>
   <v>       0.00332272       0.00014920      -0.00707680 </v>
   <v>       0.00986836      -0.01064383       0.01864877 </v>
   <v>       0.03461619      -0.01786110      -0.00252584 </v>
   <v>      -0.00145494      -0.00187787       0.00864735 </v>
   <v>       0.00501104      -0.00492515      -0.01220472 </v>
   <v>       0.00698420       0.00364459      -0.00256978 </v>
   <v>       0.01051503       0.01224590      -0.00275069 </v>
   <v>       0.01799988       0.00093227      -0.00111312 </v>
   <v>       0.01782633       0.00633822       0.00435537 </v>
   <v>       0.01886067      -0.00366068       0.00246383 </v>
   <v>       0.02273714      -0.01222516      -0.00754685 </v>
   <v>      -0.01100573      -0.01365649       0.00274867 </v>
   <v>      -0.00612057      -0.00581821       0.00442628 </v>
   <v>       0.01265696       0.00029717       0.00965653 </v>
   <v>      -0.00668065      -0.00855577       0.00510071 </v>
   <v>      -0.01696154      -0.00417572       0.00224685 </v>
   <v>       0.00412139       0.00194137      -0.00438190 </v>
   <v>      -0.01624259      -0.00104084       0.00323647 </v>
   <v>       0.00144085       0.01317719      -0.00343893 </v>
   <v>       0.01510077       0.01142431      -0.00157196 </v>
   <v>      -0.00132183       0.00053828       0.00537610 </v>
   <v>      -0.01664766       0.00317728       0.00918781 </v>
   <v>       0.00288374       0.00363660      -0.00595341 </v>
   <v>      -0.00534313       0.00442033       0.01551524 </v>
   <v>       0.00265796       0.01376009      -0.00240839 </v>
   <v>      -0.01265860       0.01323016       0.00547899 </v>
   <v>       0.01190403       0.00019821      -0.02047239 </v>
   <v>       0.00560677      -0.00181505      -0.00031110 </v>
   <v>       0.00793591       0.00192597      -0.00509081 </v>
   <v>       0.01824224       0.01183808       0.01126522 </v>
   <v>       0.01611902       0.00146669      -0.01067372 </v>
   <v>       0.00825817      -0.01402731       0.00090403 </v>
   <v>       0.00825465      -0.01896150      -0.00219211 </v>
   <v>      -0.01025279      -0.01653860       0.01135254 </v>
   <v>       0.00204822      -0.00107844       0.01334575 </v>
   <v>      -0.00252232      -0.01100226       0.01145752 </v>
   <v>      -0.01460876      -0.00536619       0.00441182 </v>
   <v>      -0.01962630      -0.00018972       0.00024156 </v>
   <v>       0.00456661       0.01318002      -0.00459715 </v>
   <v>      -0.00479293      -0.00258895      -0.00283227 </v>
   <v>      -0.00341047      -0.00619425       0.00310701 </v>
   <v>       0.00012794      -0.01502899      -0.00300780 </v>
   <v>      -0.01926675      -0.00254111       0.00517294 </v>
   <v>      -0.01323048      -0.00806859       0.00213739 </v>
   <v>       0.02714748      -0.00486964      -0.00589971 </v>
   <v>       0.00864024      -0.01026660      -0.00000166 </v>
   <v>      -0.00986590       0.00657896       0.00379181 </v>
   <v>      -0.00007851       0.01915792      -0.00724489 </v>
   <v>      -0.00587310       0.02878630      -0.00501361 </v>
   <v>      -0.00501436       0.00174722       0.01180838 </v>
   <v>       0.00306970       0.00749103      -0.00364346 </v>
   <v>       0.00755654       0.00241478      -0.00617587 </v>
   <v>      -0.01230657      -0.00942654      -0.00501504 </v>
   <v>      -0.01721606      -0.00924017      -0.00391582 </v>
   <v>       0.01696207       0.00544597       0.00169779 </v>
   <v>       0.00371065      -0.01610081      -0.00752450 </v>
   <v>       0.01435064       0.00372373      -0.01195909 </v>
   <v>       0.01844783      -0.00255238       0.00563955 </v>
   <v>      -0.00129031       0.01362438      -0.00847818 </v>
   <v>      -0.00365902      -0.00560995      -0.00741646 </v>
   <v>      -0.00512676       0.01874344      -0.00014044 </v>
   <v>      -0.00196804      -0.00346590      -0.00580027 </v>
   <v>      -0.01486335       0.02234884      -0.00350542 </v>
   <v>      -0.00484731      -0.01154143      -0.00155844 </v>
   <v>      -0.00456748      -0.01216441       0.01053750 </v>
   <v>      -0.02131102       0.00116173       0.00340947 </v>
   <v>      -0.01442647       0.01407929       0.01113986 </v>
   <v>      -0.00983262      -0.01008518      -0.00618976 </v>
   <v>      -0.00305424      -0.01829802      -0.00277304 </v>
   <v>      -0.00099143      -0.01656181      -0.01034622 </v>
   <v>       0.00840014       0.00189444      -0.00778907 </v>
   <v>      -0.00019802       0.01275164       0.01172704 </v>
   <v>      -0.00979076      -0.00691974       0.00206750 </v>
   <v>      -0.00624521      -0.00272502       0.00830944 </v>
   <v>      -0.01017815      -0.00257658       0.01365759 </v>
   <v>       0.00521214       0.00335380      -0.02266015 </v>
   <v>       0.00797848      -0.01109388       0.00262029 </v>
   <v>      -0.00260040       0.01262298       0.00574363 </v>
   <v>      -0.00875816      -0.00617664       0.00054541 </v>
   <v>       0.00657557      -0.00135509       0.01296689 </v>
   <v>      -0.00748116       0.00681407      -0.01609893 </v>
   <v>      -0.00631994       0.00220746       0.00315946 </v>
   <v>       0.00051115       0.00236877      -0.01912098 </v>
   <v>      -0.01432931       0.00153714       0.02179555 </v>
   <v>      -0.00109158       0.00860146      -0.00776066 </v>
   <v>       0.00371591      -0.00233434      -0.00217150 </v>
   <v>       0.01101522       0.00141637      -0.01927282 </v>
   <v>       0.00342966      -0.00645509       0.00855429 </v>
   <v>      -0.00372751      -0.00403583      -0.00652734 </v>
   <v>      -0.00198338      -0.00997218       0.02386593 </v>
   <v>      -0.00036179       0.00478575       0.00014603 </v>
   <v>       0.00029512      -0.00778803      -0.00042445 </v>
   <v>       0.00888370      -0.00313797      -0.00870223 </v>
   <v>       0.00470926      -0.01003091       0.01210974 </v>
   <v>       0.01100799      -0.00496012       0.00553920 </v>
   <v>      -0.01039374       0.00348263      -0.00658127 </v>
   <v>      -0.00654779       0.00499386      -0.00374725 </v>
   <v>      -0.01463176       0.00058849      -0.01410941 </v>
   <v>      -0.00817371       0.01266851      -0.00301209 </v>
   <v>       0.00796172       0.00434053       0.01309507 </v>
   <v>      -0.00056644      -0.01366653       0.00350184 </v>
  </varray>
  <varray name="stress" >
   <v>       0.07945158      -0.07778809      -0.00141457 </v>
   <v>      -0.07778809       0.11071664      -0.00179128 </v>
   <v>      -0.00141433      -0.00179146      -0.03290212 </v>
  </varray>
  <energy>
   <i name="e_fr_energy">  -1151.92578550 </i>
   <i name="e_wo_entrp">  -1151.92578550 </i>
   <i name="e_0_energy">     -0.00000000 </i>
  </energy>
  <time name="totalsc"> 1953.56 1956.43</time>
 </calculation>
 <calculation>
  <scstep>
   <time name="dav">  579.48  579.63</time>
   <time name="total">  586.65  586.84</time>
   <energy>
    <i name="alphaZ">   5624.56932918 </i>
    <i name="ewald"> -60810.80154488 </i>
    <i name="hartreedc"> -15670.45624316 </i>
    <i name="XCdc">   2851.98759469 </i>
    <i name="pawpsdc"> 112117.73183125 </i>
    <i name="pawaedc">-110865.49663313 </i>
    <i name="eentropy">     -0.00000000 </i>
    <i name="bandstr">  -7049.54410910 </i>
    <i name="atom">  72650.08363186 </i>
    <i name="e_fr_energy">  -1151.92614329 </i>
    <i name="e_wo_entrp">  -1151.92614329 </i>
    <i name="e_0_energy">  -1151.92614329 </i>
   </energy>
  </scstep>
  <scstep>
   <time name="diag">   64.80   64.80</time>
   <time name="diis">  104.65  104.66</time>
   <time name="orth">   33.59   33.59</time>
   <time name="total">  210.25  210.29</time>
   <energy>
    <i name="e_fr_energy">  -1151.92673327 </i>
    <i name="e_wo_entrp">  -1151.92673327 </i>
    <i name="e_0_energy">  -1151.92673327 </i>
   </energy>
  </scstep>
  <scstep>
   <time name="diag">   64.84   64.85</time>
   <time name="diis">   94.09   94.09</time>
   <time name="orth">   33.58   33.58</time>
   <time name="total">  199.71  199.77</time>
   <energy>
    <i name="e_fr_energy">  -1151.92663296 </i>
    <i name="e_wo_entrp">  -1151.92663296 </i>
    <i name="e_0_energy">  -1151.92663296 </i>
   </energy>
  </scstep>
  <scstep>
   <time name="diag">   64.87   64.87</time>
   <time name="diis">   89.05   89.05</time>
   <time name="orth">   33.58   33.58</time>
   <time name="total">  194.70  194.77</time>
   <energy>
    <i name="e_fr_energy">  -1151.92650391 </i>
    <i name="e_wo_entrp">  -1151.92650391 </i>
    <i name="e_0_energy">  -1151.92650391 </i>
   </energy>
  </scstep>
  <scstep>
   <time name="diag">   64.86   64.86</time>
   <time name="diis">   68.05   68.05</time>
   <time name="orth">   33.55   33.55</time>
   <time name="total">  173.64  173.70</time>
   <energy>
    <i name="e_fr_energy">  -1151.92647956 </i>
    <i name="e_wo_entrp">  -1151.92647956 </i>
    <i name="e_0_energy">  -1151.92647956 </i>
   </energy>
  </scstep>
  <scstep>
   <time name="diag">   64.83   64.84</time>
   <time name="diis">   63.76   63.77</time>
   <time name="orth">   33.54   33.54</time>
   <time name="total">  169.33  169.42</time>
   <energy>
    <i name="e_fr_energy">  -1151.92647942 </i>
    <i name="e_wo_entrp">  -1151.92647942 </i>
    <i name="e_0_energy">  -1151.92647942 </i>
   </energy>
  </scstep>
  <scstep>
   <time name="diag">   65.02   65.02</time>
   <time name="diis">   61.55   61.55</time>
   <time name="orth">   33.39   33.39</time>
   <time name="total">  167.20  167.26</time>
   <energy>
    <i name="e_fr_energy">  -1151.92647919 </i>
    <i name="e_wo_entrp">  -1151.92647919 </i>
    <i name="e_0_energy">  -1151.92647919 </i>
   </energy>
  </scstep>
  <scstep>
   <time name="diag">   64.91   64.92</time>
   <time name="diis">   59.36   59.37</time>
   <time name="orth">   33.37   33.37</time>
   <time name="total">  158.69  158.76</time>
   <energy>
    <i name="alphaZ">   5624.56932918 </i>
    <i name="ewald"> -60810.80154488 </i>
    <i name="hartreedc"> -15671.38820977 </i>
    <i name="XCdc">   2852.04324651 </i>
    <i name="pawpsdc"> 112094.60472341 </i>
    <i name="pawaedc">-110842.36108231 </i>
    <i name="eentropy">     -0.00000000 </i>
    <i name="bandstr">  -7048.67657312 </i>
    <i name="atom">  72650.08363186 </i>
    <i name="e_fr_energy">  -1151.92647912 </i>
    <i name="e_wo_entrp">  -1151.92647912 </i>
    <i name="e_0_energy">  -1151.92647912 </i>
   </energy>
  </scstep>
  <structure>
   <crystal>
    <varray name="basis" >
     <v>      11.21501959      -0.00955516       0.00028926 </v>
     <v>      -0.00956070      11.21791654      -0.00066968 </v>
     <v>       0.00040222      -0.00095235      15.96372218 </v>
    </varray>
    <i name="volume">   2008.38091055 </i>
    <varray name="rec_basis" >
     <v>       0.08916620       0.00007599      -0.00000224 </v>
     <v>       0.00007595       0.08914318       0.00000532 </v>
     <v>      -0.00000161       0.00000374       0.06264203 </v>
    </varray>
   </crystal>
   <varray name="positions" >
    <v>       0.99310087       0.24877325       0.13156569 </v>
    <v>       0.00408863       0.25315358       0.62126201 </v>
    <v>       0.00032445       0.75039749       0.13039243 </v>
    <v>       0.99769559       0.74777103       0.61978519 </v>
    <v>       0.50643646       0.25622307       0.13377608 </v>
    <v>       0.49811957       0.25228664       0.62174888 </v>
    <v>       0.49874816       0.74385952       0.12981501 </v>
    <v>       0.50401451       0.74985212       0.62301717 </v>
    <v>       0.00432463       0.24893620       0.37436795 </v>
    <v>       0.99576208       0.25398190       0.87283882 </v>
    <v>       0.99964731       0.74972605       0.37317641 </v>
    <v>       0.99774075       0.74759864       0.87732477 </v>
    <v>       0.49493520       0.25046483       0.37468904 </v>
    <v>       0.50528984       0.25819309       0.87001493 </v>
    <v>       0.49898774       0.74943630       0.37550166 </v>
    <v>       0.50390240       0.74349404       0.87185056 </v>
    <v>       0.24751423       0.00004067       0.13229484 </v>
    <v>       0.25505737       0.00881639       0.61671328 </v>
    <v>       0.25255457       0.50189142       0.12928172 </v>
    <v>       0.25121397       0.49074452       0.62078366 </v>
    <v>       0.75322090       0.00404889       0.12907654 </v>
    <v>       0.74385234       0.99957588       0.62105488 </v>
    <v>       0.74962979       0.49788258       0.12881109 </v>
    <v>       0.74828506       0.50098196       0.62268305 </v>
    <v>       0.24892395       0.00554051       0.37512099 </v>
    <v>       0.25106842       0.00243476       0.87306427 </v>
    <v>       0.24991272       0.49293555       0.37366187 </v>
    <v>       0.25522963       0.49678649       0.87608527 </v>
    <v>       0.74937162       0.00202839       0.37272669 </v>
    <v>       0.74738298       0.00345739       0.87693248 </v>
    <v>       0.75006563       0.49748969       0.37391750 </v>
    <v>       0.74798942       0.50055397       0.87484923 </v>
    <v>       0.00126807       0.99807623       0.00043540 </v>
    <v>       0.00156999       0.00003952       0.49983753 </v>
    <v>       0.99744195       0.50368351       0.00086611 </v>
    <v>       0.00162873       0.49859382       0.49930917 </v>
    <v>       0.50698031       0.98635650       0.00059382 </v>
    <v>       0.49970541       0.00045261       0.49861984 </v>
    <v>       0.50088075       0.50030419       0.99932161 </v>
    <v>       0.49898239       0.49907436       0.50149089 </v>
    <v>       0.23691949       0.25716872       0.00147470 </v>
    <v>       0.24784937       0.75156898       0.00069333 </v>
    <v>       0.24918926       0.75081683       0.49985961 </v>
    <v>       0.74995875       0.25120052       0.00086747 </v>
    <v>       0.75031435       0.25007534       0.49828532 </v>
    <v>       0.75395596       0.74736948       0.00100594 </v>
    <v>       0.74989519       0.75055267       0.49897520 </v>
    <v>       0.25393299       0.25018505       0.74812984 </v>
    <v>       0.25058281       0.74994509       0.25169562 </v>
    <v>       0.25842708       0.73615915       0.74937202 </v>
    <v>       0.74602311       0.25625613       0.74807629 </v>
    <v>       0.74972053       0.75056988       0.24990295 </v>
    <v>       0.74954173       0.74840929       0.75003171 </v>
    <v>       0.99925506       0.00313741       0.25087802 </v>
    <v>       0.98634373       0.00746728       0.74960745 </v>
    <v>       0.00079851       0.49699066       0.24998987 </v>
    <v>       0.99961732       0.50065647       0.75006343 </v>
    <v>       0.49896305       0.00371695       0.25025217 </v>
    <v>       0.49907039       0.00220300       0.74938703 </v>
    <v>       0.49998114       0.49849477       0.25184195 </v>
    <v>       0.24946029       0.25054915       0.49694959 </v>
    <v>       0.25136847       0.24879092       0.25063086 </v>
    <v>       0.75049363       0.24996974       0.25199353 </v>
    <v>       0.50392635       0.49818804       0.74848093 </v>
    <v>       0.11164658       0.13570888       0.24666447 </v>
    <v>       0.11502723       0.12754841       0.75362471 </v>
    <v>       0.11280101       0.63828823       0.24914518 </v>
    <v>       0.10605293       0.64772741       0.75025691 </v>
    <v>       0.61161154       0.13664769       0.25050590 </v>
    <v>       0.60864198       0.14108629       0.74983493 </v>
    <v>       0.61217310       0.63961428       0.24994785 </v>
    <v>       0.61011569       0.64374434       0.74949038 </v>
    <v>       0.38852223       0.36476911       0.24939037 </v>
    <v>       0.38966055       0.35813700       0.75023158 </v>
    <v>       0.38851534       0.86116938       0.24779212 </v>
    <v>       0.38127323       0.86376342       0.75334379 </v>
    <v>       0.88847793       0.36441378       0.25046997 </v>
    <v>       0.89274448       0.35703945       0.74904702 </v>
    <v>       0.88783623       0.86212750       0.24911198 </v>
    <v>       0.89923341       0.85498976       0.75027923 </v>
    <v>       0.36349310       0.10968212       0.25457866 </v>
    <v>       0.36088820       0.10936764       0.74443046 </v>
    <v>       0.36193120       0.61321815       0.24981277 </v>
    <v>       0.35768956       0.60662346       0.74946598 </v>
    <v>       0.86342675       0.11109704       0.24926353 </v>
    <v>       0.85599554       0.10682219       0.74989702 </v>
    <v>       0.86191851       0.61333059       0.24975514 </v>
    <v>       0.85797265       0.60683418       0.75021925 </v>
    <v>       0.13705343       0.38776229       0.24297670 </v>
    <v>       0.13992386       0.38716923       0.75761416 </v>
    <v>       0.13734888       0.88640052       0.25074596 </v>
    <v>       0.63620429       0.38899417       0.24849433 </v>
    <v>       0.64304680       0.39137635       0.75177167 </v>
    <v>       0.63731098       0.88893136       0.24379287 </v>
    <v>       0.63882790       0.89187846       0.75694928 </v>
    <v>       0.36244734       0.38352705       0.99942045 </v>
    <v>       0.36296801       0.39018554       0.50005586 </v>
    <v>       0.35287938       0.90112036       0.99939011 </v>
    <v>       0.36008985       0.88915840       0.49995196 </v>
    <v>       0.85925244       0.39192314       0.99869197 </v>
    <v>       0.86109270       0.39018905       0.50160417 </v>
    <v>       0.85515869       0.89336081       0.99829151 </v>
    <v>       0.86027464       0.89024833       0.50186463 </v>
    <v>       0.14781043       0.10388079       0.99880341 </v>
    <v>       0.13655263       0.10951054       0.50062838 </v>
    <v>       0.14357522       0.60596218       0.99783610 </v>
    <v>       0.14038745       0.61171488       0.50299647 </v>
    <v>       0.63052784       0.11305139       0.99906268 </v>
    <v>       0.63936837       0.10987501       0.50044400 </v>
    <v>       0.64219625       0.60943181      -0.00001003 </v>
    <v>       0.64023854       0.61188538       0.49991018 </v>
    <v>       0.10497867       0.35586963       0.00073059 </v>
    <v>       0.10925899       0.36348218       0.50066382 </v>
    <v>       0.10432142       0.85433953       0.00408256 </v>
    <v>       0.10936566       0.85922925       0.49552163 </v>
    <v>       0.61065274       0.36091741       0.00030513 </v>
    <v>       0.61155254       0.36087119       0.49904061 </v>
    <v>       0.60494074       0.85475131       0.99877651 </v>
    <v>       0.61056093       0.85973850       0.50081131 </v>
    <v>       0.38985253       0.13560774       0.50244874 </v>
    <v>       0.38900074       0.64420879       0.99434739 </v>
    <v>       0.38785269       0.64185528       0.50621177 </v>
    <v>       0.89203132       0.13833081       0.99356521 </v>
    <v>       0.88975177       0.13737837       0.50698466 </v>
    <v>       0.89342987       0.64351793       0.00035855 </v>
    <v>       0.88902611       0.63967601       0.50007218 </v>
    <v>       0.99752226       0.00072804       0.12299905 </v>
    <v>       0.01487686       0.98728909       0.62998757 </v>
    <v>       0.99830597       0.50235938       0.12299755 </v>
    <v>       0.00340667       0.49898898       0.62697630 </v>
    <v>       0.48855415       0.01341532       0.12002841 </v>
    <v>       0.50379849       0.99431844       0.62647854 </v>
    <v>       0.49740080       0.50496937       0.12356243 </v>
    <v>       0.50266716       0.49893636       0.62453840 </v>
    <v>       0.99760888       0.00193000       0.37561224 </v>
    <v>       0.01168595       0.98592395       0.87132944 </v>
    <v>       0.00301057       0.50116977       0.37497927 </v>
    <v>       0.99867793       0.50025508       0.87575610 </v>
    <v>       0.50266216       0.99573361       0.37507744 </v>
    <v>       0.48791681       0.01523477       0.87934663 </v>
    <v>       0.49929792       0.50408454       0.37573437 </v>
    <v>       0.50014577       0.50111599       0.87575364 </v>
    <v>       0.24736448       0.25152622       0.37444985 </v>
    <v>       0.26685881       0.23673781       0.88050975 </v>
    <v>       0.25246203       0.74808546       0.37584879 </v>
    <v>       0.23685536       0.76291919       0.87088550 </v>
    <v>       0.75362955       0.24847742       0.37752933 </v>
    <v>       0.75068592       0.24924054       0.87387020 </v>
    <v>       0.74937378       0.75404103       0.37447037 </v>
    <v>       0.75091819       0.74882376       0.87597877 </v>
    <v>       0.26905920       0.23443839       0.11798338 </v>
    <v>       0.24506626       0.25273820       0.62733305 </v>
    <v>       0.25184091       0.74813807       0.12347315 </v>
    <v>       0.23810204       0.76707871       0.63002804 </v>
    <v>       0.75376416       0.24739120       0.12209617 </v>
    <v>       0.74759995       0.25092109       0.62589758 </v>
    <v>       0.75069793       0.74979899       0.12329656 </v>
    <v>       0.74898449       0.75375098       0.62632227 </v>
   </varray>
  </structure>
  <varray name="forces" >
   <v>       0.00369968       0.00181332      -0.00045240 </v>
   <v>       0.00814701       0.01306907      -0.00176417 </v>
   <v>       0.01300785       0.00118043      -0.00237533 </v>
   <v>       0.00181081      -0.00972206       0.01699776 </v>
   <v>      -0.00368176      -0.00170483      -0.01351447 </v>
   <v>      -0.00127699       0.00186509       0.00134945 </v>
   <v>      -0.00941610      -0.00311325       0.00085611 </v>
   <v>       0.00236796      -0.00106826       0.00805879 </v>
   <v>       0.00614480       0.00371516       0.00500766 </v>
   <v>       0.00301940      -0.00350018      -0.00212571 </v>
   <v>      -0.00236705      -0.01194251      -0.01005407 </v>
   <v>      -0.00373979      -0.00747658      -0.00434869 </v>
   <v>      -0.01046704      -0.00182750       0.00733224 </v>
   <v>       0.00400972       0.01195582      -0.01198606 </v>
   <v>       0.00251937      -0.00207299      -0.00455776 </v>
   <v>       0.00454416      -0.00341093      -0.00204799 </v>
   <v>       0.00370036       0.00578907      -0.00725953 </v>
   <v>       0.01640143       0.00997106       0.00390641 </v>
   <v>       0.00406182       0.00310123       0.00269502 </v>
   <v>      -0.00013786      -0.00243149      -0.00093362 </v>
   <v>       0.00214065       0.01155562      -0.00044540 </v>
   <v>      -0.00173638       0.00586243      -0.00213155 </v>
   <v>      -0.00484571       0.00060720      -0.00792260 </v>
   <v>      -0.00119504      -0.01629838       0.00286375 </v>
   <v>      -0.00134991       0.00924986       0.00301516 </v>
   <v>      -0.00031123       0.00753680       0.00073905 </v>
   <v>       0.00420527      -0.00610513       0.00754214 </v>
   <v>       0.00604945       0.00226712      -0.01063535 </v>
   <v>      -0.00193625       0.00040594       0.00357090 </v>
   <v>       0.00770252       0.00591277      -0.00691670 </v>
   <v>      -0.00544446       0.00210489       0.01390708 </v>
   <v>      -0.00503214      -0.00512849       0.00097112 </v>
   <v>       0.01176747       0.00038620      -0.01105388 </v>
   <v>       0.01270861       0.02438193       0.00463094 </v>
   <v>       0.00168897       0.02540763       0.00139368 </v>
   <v>       0.01128132      -0.01096698       0.01819375 </v>
   <v>      -0.01511746       0.03496855      -0.00560178 </v>
   <v>      -0.01336675       0.01698331       0.00510796 </v>
   <v>      -0.00853411      -0.00592347      -0.02887827 </v>
   <v>      -0.02083748      -0.00254133       0.02219333 </v>
   <v>       0.03733713      -0.00773634      -0.00371551 </v>
   <v>      -0.00394269      -0.00419204       0.00060001 </v>
   <v>      -0.00030863      -0.03304660       0.00733619 </v>
   <v>      -0.01736500       0.00371265      -0.02623804 </v>
   <v>      -0.00677369       0.01181723       0.02710187 </v>
   <v>       0.00457231      -0.02070506      -0.02198493 </v>
   <v>      -0.01030302      -0.02769577      -0.01174396 </v>
   <v>       0.01963774       0.00752586      -0.00606404 </v>
   <v>      -0.00608927      -0.00886141       0.00889458 </v>
   <v>       0.02448902      -0.01232711      -0.02267641 </v>
   <v>      -0.00149140       0.01789943      -0.02283301 </v>
   <v>      -0.02208446       0.02687410       0.06717256 </v>
   <v>      -0.00446567      -0.01140562      -0.00087478 </v>
   <v>       0.02541465      -0.00139425       0.00271376 </v>
   <v>       0.01647130       0.00445181      -0.01332637 </v>
   <v>       0.04598331       0.01019905       0.01073358 </v>
   <v>       0.00541916      -0.01532234      -0.06045815 </v>
   <v>      -0.01870514      -0.00861995       0.01083404 </v>
[...]
       <r>   -15.8312     0.0000    32.0000 </r>
       <r>   -15.6791     0.0000    32.0000 </r>
       <r>   -15.5270     0.0000    32.0000 </r>
       <r>   -15.3750     0.0022    32.0003 </r>
       <r>   -15.2229     5.4954    32.8360 </r>
       <r>   -15.0708    18.5308    35.6540 </r>
       <r>   -14.9188    30.3707    40.2725 </r>
       <r>   -14.7667    58.5563    49.1772 </r>
       <r>   -14.6146    41.0130    55.4141 </r>
       <r>   -14.4625    32.4992    60.3563 </r>
       <r>   -14.3105    33.6559    65.4744 </r>
       <r>   -14.1584    61.1532    74.7740 </r>
       <r>   -14.0063   121.9811    93.3238 </r>
       <r>   -13.8543   149.1716   116.0085 </r>
       <r>   -13.7022    50.9220   123.7523 </r>
       <r>   -13.5501     8.4042   125.0303 </r>
       <r>   -13.3980     6.3264   125.9923 </r>
       <r>   -13.2460     0.0503   126.0000 </r>
       <r>   -13.0939     0.0000   126.0000 </r>
       <r>   -12.9418     0.0000   126.0000 </r>
       <r>   -12.7898     0.0018   126.0003 </r>
       <r>   -12.6377    12.8396   127.9528 </r>
       <r>   -12.4856    74.9954   139.3574 </r>
       <r>   -12.3336   171.8556   165.4917 </r>
       <r>   -12.1815   137.6961   186.4313 </r>
       <r>   -12.0294   131.6820   206.4563 </r>
       <r>   -11.8773    88.4052   219.9002 </r>
       <r>   -11.7253    13.7993   221.9986 </r>
       <r>   -11.5732     0.0090   222.0000 </r>
       <r>   -11.4211     0.0000   222.0000 </r>
       <r>   -11.2691     0.0000   222.0000 </r>
       <r>   -11.1170     0.0000   222.0000 </r>
       <r>   -10.9649     0.0000   222.0000 </r>
       <r>   -10.8128     0.0000   222.0000 </r>
       <r>   -10.6608     0.0000   222.0000 </r>
       <r>   -10.5087     0.0000   222.0000 </r>
       <r>   -10.3566     0.0000   222.0000 </r>
       <r>   -10.2046     0.0000   222.0000 </r>
       <r>   -10.0525     0.0000   222.0000 </r>
       <r>    -9.9004     0.0000   222.0000 </r>
       <r>    -9.7483     0.0000   222.0000 </r>
       <r>    -9.5963     0.0000   222.0000 </r>
       <r>    -9.4442     0.0000   222.0000 </r>
       <r>    -9.2921     0.0000   222.0000 </r>
       <r>    -9.1401     0.0000   222.0000 </r>
       <r>    -8.9880     0.0000   222.0000 </r>
       <r>    -8.8359     0.0000   222.0000 </r>
       <r>    -8.6838     0.0000   222.0000 </r>
       <r>    -8.5318     0.0000   222.0000 </r>
       <r>    -8.3797     0.0000   222.0000 </r>
       <r>    -8.2276     0.0000   222.0000 </r>
       <r>    -8.0756     0.0000   222.0000 </r>
       <r>    -7.9235     0.0000   222.0000 </r>
       <r>    -7.7714     0.0000   222.0000 </r>
       <r>    -7.6194     0.0000   222.0000 </r>
       <r>    -7.4673     0.0000   222.0000 </r>
       <r>    -7.3152     0.0000   222.0000 </r>
       <r>    -7.1631     0.0000   222.0000 </r>
       <r>    -7.0111     0.0000   222.0000 </r>
       <r>    -6.8590     0.0000   222.0000 </r>
       <r>    -6.7069     0.0000   222.0000 </r>
       <r>    -6.5549     0.0000   222.0000 </r>
       <r>    -6.4028     0.0000   222.0000 </r>
       <r>    -6.2507     0.0000   222.0000 </r>
       <r>    -6.0986     0.0000   222.0000 </r>
       <r>    -5.9466     0.0000   222.0000 </r>
       <r>    -5.7945     0.0000   222.0000 </r>
       <r>    -5.6424     0.0000   222.0000 </r>
       <r>    -5.4904     0.0000   222.0000 </r>
       <r>    -5.3383     0.0000   222.0000 </r>
       <r>    -5.1862     0.0000   222.0000 </r>
       <r>    -5.0341     0.0000   222.0000 </r>
       <r>    -4.8821     0.0000   222.0000 </r>
       <r>    -4.7300     0.0000   222.0000 </r>
       <r>    -4.5779     0.0000   222.0000 </r>
       <r>    -4.4259     0.0000   222.0000 </r>
       <r>    -4.2738     0.0000   222.0000 </r>
       <r>    -4.1217     0.0000   222.0000 </r>
       <r>    -3.9696     0.0000   222.0000 </r>
       <r>    -3.8176     0.0000   222.0000 </r>
       <r>    -3.6655     0.0000   222.0000 </r>
       <r>    -3.5134     0.0000   222.0000 </r>
       <r>    -3.3614     0.0000   222.0000 </r>
       <r>    -3.2093     0.0000   222.0000 </r>
       <r>    -3.0572     0.0000   222.0000 </r>
       <r>    -2.9052     0.0000   222.0000 </r>
       <r>    -2.7531     0.0000   222.0000 </r>
       <r>    -2.6010     0.0000   222.0000 </r>
       <r>    -2.4489     0.4294   222.0653 </r>
       <r>    -2.2969     6.6722   223.0799 </r>
       <r>    -2.1448    18.3326   225.8678 </r>
       <r>    -1.9927    18.8492   228.7342 </r>
       <r>    -1.8407    43.2274   235.3078 </r>
       <r>    -1.6886    60.4337   244.4981 </r>
       <r>    -1.5365    55.8488   252.9910 </r>
       <r>    -1.3844    59.0908   261.9770 </r>
       <r>    -1.2324    75.4661   273.4532 </r>
       <r>    -1.0803    62.5351   282.9630 </r>
       <r>    -0.9282    81.0140   295.2829 </r>
       <r>    -0.7762    77.0267   306.9964 </r>
       <r>    -0.6241    93.6340   321.2354 </r>
       <r>    -0.4720   120.7362   339.5959 </r>
       <r>    -0.3199    93.8669   353.8703 </r>
       <r>    -0.1679    52.7391   361.8904 </r>
       <r>    -0.0158    52.8484   369.9271 </r>
       <r>     0.1363    44.8959   376.7545 </r>
       <r>     0.2883    42.2027   383.1723 </r>
       <r>     0.4404    45.7048   390.1227 </r>
       <r>     0.5925    61.6965   399.5049 </r>
       <r>     0.7446    47.6133   406.7455 </r>
       <r>     0.8966    45.2839   413.6319 </r>
       <r>     1.0487    62.4006   423.1212 </r>
       <r>     1.2008    79.8883   435.2699 </r>
       <r>     1.3528    87.2160   448.5329 </r>
       <r>     1.5049    93.0143   462.6777 </r>
       <r>     1.6570    86.4503   475.8243 </r>
       <r>     1.8090    69.4180   486.3807 </r>
       <r>     1.9611    54.8423   494.7207 </r>
       <r>     2.1132    29.0818   499.1432 </r>
       <r>     2.2653    28.4944   503.4763 </r>
       <r>     2.4173     3.4430   503.9999 </r>
       <r>     2.5694     0.0006   504.0000 </r>
       <r>     2.7215     0.0000   504.0000 </r>
       <r>     2.8735     0.0000   504.0000 </r>
       <r>     3.0256     0.0000   504.0000 </r>
       <r>     3.1777     0.0000   504.0000 </r>
       <r>     3.3298     0.0000   504.0000 </r>
       <r>     3.4818     0.0000   504.0000 </r>
       <r>     3.6339     0.0000   504.0000 </r>
       <r>     3.7860     0.0000   504.0000 </r>
       <r>     3.9380     0.0000   504.0000 </r>
       <r>     4.0901     0.0000   504.0000 </r>
       <r>     4.2422     0.0000   504.0000 </r>
       <r>     4.3943     0.0007   504.0001 </r>
       <r>     4.5463     5.6038   504.8523 </r>
       <r>     4.6984    28.3699   509.1665 </r>
       <r>     4.8505    38.2883   514.9891 </r>
       <r>     5.0025    20.8268   518.1562 </r>
       <r>     5.1546    32.6162   523.1162 </r>
       <r>     5.3067    52.9490   531.1682 </r>
       <r>     5.4588    68.7993   541.6306 </r>
       <r>     5.6108    65.6999   551.6216 </r>
       <r>     5.7629    71.2439   562.4557 </r>
       <r>     5.9150    82.4656   574.9964 </r>
       <r>     6.0670    96.2375   589.6313 </r>
       <r>     6.2191    77.7009   601.4473 </r>
       <r>     6.3712    58.3107   610.3147 </r>
       <r>     6.5232    42.8191   616.8262 </r>
       <r>     6.6753    19.9938   619.8667 </r>
       <r>     6.8274    21.5839   623.1490 </r>
       <r>     6.9795    22.2467   626.5321 </r>
       <r>     7.1315    18.6276   629.3648 </r>
       <r>     7.2836    17.0817   631.9624 </r>
       <r>     7.4357    15.0762   634.2551 </r>
       <r>     7.5877    18.0108   636.9940 </r>
       <r>     7.7398    12.2990   638.8643 </r>
       <r>     7.8919    19.2691   641.7946 </r>
       <r>     8.0440    20.8240   644.9613 </r>
       <r>     8.1960    23.4657   648.5298 </r>
       <r>     8.3481    27.6137   652.7290 </r>
       <r>     8.5002    26.9784   656.8316 </r>
       <r>     8.6522    26.1897   660.8143 </r>
       <r>     8.8043    21.4272   664.0728 </r>
       <r>     8.9564    26.8703   668.1590 </r>
       <r>     9.1085    36.6836   673.7375 </r>
       <r>     9.2605    43.6023   680.3681 </r>
       <r>     9.4126    39.5209   686.3781 </r>
       <r>     9.5647    40.3951   692.5210 </r>
       <r>     9.7167    42.2444   698.9452 </r>
       <r>     9.8688    58.6229   707.8600 </r>
       <r>    10.0209    69.8390   718.4805 </r>
       <r>    10.1730    68.7140   728.9299 </r>
       <r>    10.3250    73.6379   740.1281 </r>
       <r>    10.4771    55.1106   748.5088 </r>
       <r>    10.6292    55.0229   756.8762 </r>
       <r>    10.7812    55.5261   765.3201 </r>
       <r>    10.9333    17.6131   767.9985 </r>
       <r>    11.0854     0.0096   768.0000 </r>
       <r>    11.2374     0.0000   768.0000 </r>
       <r>    11.3895     0.0000   768.0000 </r>
       <r>    11.5416     0.0000   768.0000 </r>
       <r>    11.6937     0.0000   768.0000 </r>
       <r>    11.8457     0.0000   768.0000 </r>
       <r>    11.9978     0.0000   768.0000 </r>
       <r>    12.1499     0.0000   768.0000 </r>
       <r>    12.3019     0.0000   768.0000 </r>
       <r>    12.4540     0.0000   768.0000 </r>
       <r>    12.6061     0.0000   768.0000 </r>
       <r>    12.7582     0.0000   768.0000 </r>
       <r>    12.9102     0.0000   768.0000 </r>
      </set>
     </set>
    </array>
   </total>
  </dos>
 </calculation>
 <structure name="finalpos" >
  <crystal>
   <varray name="basis" >
    <v>      11.21516201      -0.00994358       0.00030217 </v>
    <v>      -0.00994932      11.21795435      -0.00069095 </v>
    <v>       0.00042061      -0.00098266      15.96304047 </v>
   </varray>
   <i name="volume">   2008.32729750 </i>
   <varray name="rec_basis" >
    <v>       0.08916508       0.00007908      -0.00000234 </v>
    <v>       0.00007904       0.08914288       0.00000549 </v>
    <v>      -0.00000168       0.00000386       0.06264471 </v>
   </varray>
  </crystal>
  <varray name="positions" >
   <v>       0.99309968       0.24878080       0.13154950 </v>
   <v>       0.00412603       0.25320137       0.62126601 </v>
   <v>       0.00035450       0.75039463       0.13038368 </v>
   <v>       0.99768135       0.74774683       0.61984646 </v>
   <v>       0.50643377       0.25622146       0.13373717 </v>
   <v>       0.49811928       0.25228069       0.62175318 </v>
   <v>       0.49872729       0.74384806       0.12980328 </v>
   <v>       0.50404855       0.74986932       0.62304592 </v>
   <v>       0.00431684       0.24895304       0.37436240 </v>
   <v>       0.99578496       0.25396428       0.87285478 </v>
   <v>       0.99961910       0.74967423       0.37314283 </v>
   <v>       0.99771791       0.74755724       0.87731166 </v>
   <v>       0.49491062       0.25046484       0.37469233 </v>
   <v>       0.50532137       0.25823466       0.86998668 </v>
   <v>       0.49900557       0.74942938       0.37547935 </v>
   <v>       0.50393087       0.74350217       0.87186121 </v>
   <v>       0.24753357       0.00007341       0.13225065 </v>
   <v>       0.25513152       0.00885668       0.61673086 </v>
   <v>       0.25257384       0.50189870       0.12927485 </v>
   <v>       0.25119899       0.49073229       0.62078226 </v>
   <v>       0.75323273       0.00410258       0.12907041 </v>
   <v>       0.74384944       0.99957972       0.62104933 </v>
   <v>       0.74960706       0.49789058       0.12880255 </v>
   <v>       0.74827461       0.50093087       0.62269572 </v>
   <v>       0.24891540       0.00557062       0.37512835 </v>
   <v>       0.25105517       0.00246206       0.87307989 </v>
   <v>       0.24993303       0.49291325       0.37367800 </v>
   <v>       0.25523033       0.49680164       0.87607108 </v>
   <v>       0.74937481       0.00204291       0.37273485 </v>
   <v>       0.74741422       0.00347701       0.87691742 </v>
   <v>       0.75004140       0.49748972       0.37393262 </v>
   <v>       0.74798482       0.50054019       0.87486223 </v>
   <v>       0.00134054       0.99809836       0.00042653 </v>
   <v>       0.00157395       0.00006679       0.49983677 </v>
   <v>       0.99745759       0.50375346       0.00087274 </v>
   <v>       0.00163253       0.49860216       0.49931623 </v>
   <v>       0.50699594       0.98639708       0.00059485 </v>
   <v>       0.49968316       0.00046630       0.49863140 </v>
   <v>       0.50083227       0.50031410       0.99929826 </v>
   <v>       0.49895112       0.49909228       0.50150035 </v>
   <v>       0.23696911       0.25717729       0.00146908 </v>
   <v>       0.24787198       0.75160043       0.00068644 </v>
   <v>       0.24917094       0.75074839       0.49984959 </v>
   <v>       0.74991528       0.25120041       0.00083168 </v>
   <v>       0.75032758       0.25007123       0.49830372 </v>
   <v>       0.75395573       0.74735435       0.00098511 </v>
   <v>       0.74988360       0.75049267       0.49896517 </v>
   <v>       0.25396394       0.25017264       0.74812868 </v>
   <v>       0.25056661       0.74992011       0.25170174 </v>
   <v>       0.25848380       0.73616152       0.74936091 </v>
   <v>       0.74602372       0.25627212       0.74804471 </v>
   <v>       0.74970322       0.75057167       0.24995648 </v>
   <v>       0.74953256       0.74837818       0.75002998 </v>
   <v>       0.99927941       0.00314595       0.25087182 </v>
   <v>       0.98637701       0.00751106       0.74957710 </v>
   <v>       0.00088431       0.49702193       0.25000460 </v>
   <v>       0.99962620       0.50064197       0.74996417 </v>
   <v>       0.49892022       0.00369379       0.25025942 </v>
   <v>       0.49904934       0.00221539       0.74940607 </v>
   <v>       0.49990707       0.49850294       0.25187607 </v>
   <v>       0.24945236       0.25055969       0.49696557 </v>
   <v>       0.25137651       0.24876896       0.25062954 </v>
   <v>       0.75051125       0.24995478       0.25200520 </v>
   <v>       0.50393887       0.49819759       0.74846061 </v>
   <v>       0.11164934       0.13565621       0.24664298 </v>
   <v>       0.11505920       0.12753589       0.75364513 </v>
   <v>       0.11283304       0.63823836       0.24915187 </v>
   <v>       0.10613840       0.64767231       0.75025044 </v>
   <v>       0.61162226       0.13664211       0.25050302 </v>
   <v>       0.60864205       0.14104904       0.74985780 </v>
   <v>       0.61222651       0.63957539       0.24996149 </v>
   <v>       0.61014331       0.64375835       0.74950715 </v>
   <v>       0.38852652       0.36480940       0.24938232 </v>
   <v>       0.38966529       0.35813380       0.75022612 </v>
   <v>       0.38847690       0.86119325       0.24778546 </v>
   <v>       0.38126763       0.86381369       0.75334665 </v>
   <v>       0.88846336       0.36441125       0.25046570 </v>
   <v>       0.89274602       0.35703962       0.74908083 </v>
   <v>       0.88776851       0.86214757       0.24912737 </v>
   <v>       0.89923898       0.85501057       0.75026111 </v>
   <v>       0.36350035       0.10967466       0.25461223 </v>
   <v>       0.36092827       0.10938979       0.74443247 </v>
   <v>       0.36196944       0.61321395       0.24982056 </v>
   <v>       0.35768862       0.60670916       0.74942124 </v>
   <v>       0.86341562       0.11113132       0.24925124 </v>
   <v>       0.85601257       0.10683636       0.74988522 </v>
   <v>       0.86198452       0.61337384       0.24977938 </v>
   <v>       0.85802338       0.60688351       0.75019745 </v>
   <v>       0.13702843       0.38774370       0.24296487 </v>
   <v>       0.13992317       0.38710698       0.75762499 </v>
   <v>       0.13725974       0.88635546       0.25077558 </v>
   <v>       0.63624353       0.38896406       0.24853031 </v>
   <v>       0.64305736       0.39131740       0.75182372 </v>
   <v>       0.63726963       0.88888575       0.24378889 </v>
   <v>       0.63878799       0.89184436       0.75695197 </v>
   <v>       0.36242048       0.38355669       0.99941788 </v>
   <v>       0.36296085       0.39018568       0.50004292 </v>
   <v>       0.35290328       0.90110510       0.99939682 </v>
   <v>       0.36012953       0.88912635       0.49994189 </v>
   <v>       0.85922286       0.39193857       0.99871931 </v>
   <v>       0.86104939       0.39017820       0.50159551 </v>
   <v>       0.85522700       0.89330920       0.99829096 </v>
   <v>       0.86030450       0.89020130       0.50187105 </v>
   <v>       0.14775642       0.10392505       0.99881630 </v>
   <v>       0.13648806       0.10952696       0.50060656 </v>
   <v>       0.14350083       0.60604785       0.99781813 </v>
   <v>       0.14035311       0.61173707       0.50302368 </v>
   <v>       0.63052039       0.11304352       0.99906057 </v>
   <v>       0.63937635       0.10983273       0.50042200 </v>
   <v>       0.64219325       0.60947414      -0.00000896 </v>
   <v>       0.64021757       0.61190028       0.49989407 </v>
   <v>       0.10495809       0.35596476       0.00073519 </v>
   <v>       0.10922710       0.36346438       0.50063648 </v>
   <v>       0.10437560       0.85438820       0.00404191 </v>
   <v>       0.10938867       0.85925235       0.49553265 </v>
   <v>       0.61066510       0.36096058       0.00029501 </v>
   <v>       0.61154194       0.36083790       0.49899955 </v>
   <v>       0.60502142       0.85472438       0.99878420 </v>
   <v>       0.61057576       0.85972127       0.50079894 </v>
   <v>       0.38985337       0.13562408       0.50243690 </v>
   <v>       0.38896872       0.64418288       0.99434939 </v>
   <v>       0.38782362       0.64182321       0.50624378 </v>
   <v>       0.89196654       0.13831464       0.99358867 </v>
   <v>       0.88972100       0.13735941       0.50701383 </v>
   <v>       0.89336952       0.64347163       0.00035115 </v>
   <v>       0.88898543       0.63964163       0.50006463 </v>
   <v>       0.99750163       0.00066816       0.12297907 </v>
   <v>       0.01489373       0.98728530       0.62998425 </v>
   <v>       0.99829521       0.50241136       0.12300354 </v>
   <v>       0.00335820       0.49897008       0.62700112 </v>
   <v>       0.48853613       0.01338698       0.12002371 </v>
   <v>       0.50377256       0.99430044       0.62649854 </v>
   <v>       0.49744079       0.50498244       0.12356014 </v>
   <v>       0.50271685       0.49889182       0.62453869 </v>
   <v>       0.99757640       0.00198053       0.37560802 </v>
   <v>       0.01164537       0.98590718       0.87133799 </v>
   <v>       0.00301465       0.50116655       0.37496214 </v>
   <v>       0.99866002       0.50028621       0.87577524 </v>
   <v>       0.50264783       0.99573806       0.37508429 </v>
   <v>       0.48792500       0.01522582       0.87936163 </v>
   <v>       0.49925465       0.50408586       0.37570958 </v>
   <v>       0.50014315       0.50116956       0.87576618 </v>
   <v>       0.24738393       0.25151392       0.37441950 </v>
   <v>       0.26687494       0.23674040       0.88052457 </v>
   <v>       0.25247803       0.74806209       0.37585802 </v>
   <v>       0.23683806       0.76291523       0.87089350 </v>
   <v>       0.75362969       0.24842751       0.37749126 </v>
   <v>       0.75069759       0.24924417       0.87389931 </v>
   <v>       0.74938572       0.75400348       0.37445485 </v>
   <v>       0.75095239       0.74882958       0.87599322 </v>
   <v>       0.26906826       0.23440440       0.11796546 </v>
   <v>       0.24510695       0.25270536       0.62735549 </v>
   <v>       0.25180826       0.74815671       0.12343984 </v>
   <v>       0.23806843       0.76711618       0.63005201 </v>
   <v>       0.75371395       0.24739458       0.12211728 </v>
   <v>       0.74756095       0.25096524       0.62591457 </v>
   <v>       0.75073275       0.74981713       0.12331054 </v>
   <v>       0.74898588       0.75369974       0.62633186 </v>
  </varray>
 </structure>
</modeling>
