<?xml version="1.0" encoding="ISO-8859-1"?>
<modeling>
 <generator>
  <i name="program" type="string">vasp </i>
  <i name="version" type="string">5.4.1  </i>
  <i name="subversion" type="string">05Feb16 (build Jan 25 2017 20:16:33) complex                          parallel </i>
  <i name="platform" type="string">BWXE6 </i>
  <i name="date" type="string">2019 06 20 </i>
  <i name="time" type="string">10:41:46 </i>
 </generator>
 <incar>
  <i type="string" name="SYSTEM"> STF</i>
  <i type="string" name="PREC">normal</i>
  <i type="string" name="ALGO"> Fast</i>
  <i type="int" name="ISPIN">     2</i>
  <i type="int" name="NELM">    40</i>
  <i type="int" name="NELMIN">     8</i>
  <i type="int" name="IBRION">     2</i>
  <i name="EDIFF">      0.00010000</i>
  <i name="EDIFFG">     -0.03000000</i>
  <i type="int" name="NSW">    30</i>
  <i type="int" name="ISIF">     3</i>
  <i name="ENCUT">    520.00000000</i>
  <i type="int" name="NBANDS">   768</i>
  <v name="MAGMOM">      0.60000000      0.60000000      0.60000000      0.60000000      0.60000000      0.60000000      0.60000000      0.60000000      0.60000000      0.60000000      0.60000000      0.60000000      0.60000000      0.60000000      0.60000000      0.60000000      0.60000000      0.60000000      0.60000000      0.60000000
      0.60000000      0.60000000      0.60000000      0.60000000      0.60000000      0.60000000      0.60000000      0.60000000      0.60000000      0.60000000      0.60000000      0.60000000      0.60000000      0.60000000      0.60000000      0.60000000      0.60000000      0.60000000      0.60000000      0.60000000
      0.60000000      0.60000000      0.60000000      0.60000000      0.60000000      0.60000000      0.60000000      0.60000000      0.60000000      0.60000000      0.60000000      0.60000000      0.60000000      0.60000000      0.60000000      0.60000000      0.60000000      0.60000000      0.60000000      0.60000000
      5.00000000      5.00000000      5.00000000      5.00000000      0.60000000      0.60000000      0.60000000      0.60000000      0.60000000      0.60000000      0.60000000      0.60000000      0.60000000      0.60000000      0.60000000      0.60000000      0.60000000      0.60000000      0.60000000      0.60000000
      0.60000000      0.60000000      0.60000000      0.60000000      0.60000000      0.60000000      0.60000000      0.60000000      0.60000000      0.60000000      0.60000000      0.60000000      0.60000000      0.60000000      0.60000000      0.60000000      0.60000000      0.60000000      0.60000000      0.60000000
      0.60000000      0.60000000      0.60000000      0.60000000      0.60000000      0.60000000      0.60000000      0.60000000      0.60000000      0.60000000      0.60000000      0.60000000      0.60000000      0.60000000      0.60000000      0.60000000      0.60000000      0.60000000      0.60000000      0.60000000
      0.60000000      0.60000000      0.60000000      0.60000000      0.60000000      0.60000000      0.60000000      0.60000000      0.60000000      0.60000000      0.60000000      0.60000000      0.60000000      0.60000000      0.60000000      0.60000000      0.60000000      0.60000000      0.60000000      0.60000000
      0.60000000      0.60000000      0.60000000      0.60000000      0.60000000      0.60000000      0.60000000      0.60000000      0.60000000      0.60000000      0.60000000      0.60000000      0.60000000      0.60000000      0.60000000      0.60000000      0.60000000      0.60000000</v>
  <i type="string" name="LREAL"> Auto</i>
  <i type="int" name="ISMEAR">     0</i>
  <i name="SIGMA">      0.05000000</i>
  <i type="int" name="LMAXMIX">     4</i>
  <v type="int" name="KPOINT_BSE">    -1     0     0     0</v>
  <i type="int" name="NELM">    40</i>
  <i type="logical" name="LDAU"> T  </i>
  <v type="int" name="LDAUTYPE">     2</v>
  <v type="int" name="LDAUL">     0     2     2     0</v>
  <v name="LDAUU">      0.00000000      3.00000000      5.00000000      0.00000000</v>
  <v name="LDAUJ">      0.00000000      0.00000000      0.00000000      0.00000000</v>
  <i type="int" name="LDAUPRINT">     1</i>
 </incar>
 <kpoints>
  <generation param="Monkhorst-Pack">
   <v type="int" name="divisions">       2        2        2 </v>
   <v name="usershift">      0.00000000       0.00000000       0.00000000 </v>
   <v name="genvec1">      0.50000000       0.00000000       0.00000000 </v>
   <v name="genvec2">     -0.00000000       0.50000000       0.00000000 </v>
   <v name="genvec3">     -0.00000000       0.00000000       0.50000000 </v>
   <v name="shift">      0.50000000       0.50000000       0.50000000 </v>
  </generation>
  <varray name="kpointlist" >
   <v>       0.25000000       0.25000000       0.25000000 </v>
   <v>      -0.25000000       0.25000000       0.25000000 </v>
   <v>       0.25000000      -0.25000000       0.25000000 </v>
   <v>      -0.25000000      -0.25000000       0.25000000 </v>
  </varray>
  <varray name="weights" >
   <v>       0.25000000 </v>
   <v>       0.25000000 </v>
   <v>       0.25000000 </v>
   <v>       0.25000000 </v>
  </varray>
 </kpoints>
 <parameters>
  <separator name="general" >
   <i type="string" name="SYSTEM">STF</i>
   <i type="logical" name="LCOMPAT"> F  </i>
  </separator>
  <separator name="electronic" >
   <i type="string" name="PREC">normal</i>
   <i name="ENMAX">    520.00000000</i>
   <i name="ENAUG">    605.39200000</i>
   <i name="EDIFF">      0.00010000</i>
   <i type="int" name="IALGO">    68</i>
   <i type="int" name="IWAVPR">    11</i>
   <i type="int" name="NBANDS">   768</i>
   <i name="NELECT">   1028.00000000</i>
   <i type="int" name="TURBO">     0</i>
   <i type="int" name="IRESTART">     0</i>
   <i type="int" name="NREBOOT">     0</i>
   <i type="int" name="NMIN">     0</i>
   <i name="EREF">      0.00000000</i>
   <separator name="electronic smearing" >
    <i type="int" name="ISMEAR">     0</i>
    <i name="SIGMA">      0.05000000</i>
    <i name="KSPACING">      0.50000000</i>
    <i type="logical" name="KGAMMA"> T  </i>
   </separator>
   <separator name="electronic projectors" >
    <i type="logical" name="LREAL"> T  </i>
    <v name="ROPT">     -0.00050000     -0.00050000     -0.00050000     -0.00050000</v>
    <i type="int" name="LMAXPAW">  -100</i>
    <i type="int" name="LMAXMIX">     4</i>
    <i type="logical" name="NLSPLINE"> F  </i>
   </separator>
   <separator name="electronic startup" >
    <i type="int" name="ISTART">     1</i>
    <i type="int" name="ICHARG">     0</i>
    <i type="int" name="INIWAV">     1</i>
   </separator>
   <separator name="electronic spin" >
    <i type="int" name="ISPIN">     2</i>
    <i type="logical" name="LNONCOLLINEAR"> F  </i>
    <v name="MAGMOM">      0.60000000      0.60000000      0.60000000      0.60000000      0.60000000      0.60000000      0.60000000      0.60000000      0.60000000      0.60000000      0.60000000      0.60000000      0.60000000      0.60000000      0.60000000      0.60000000      0.60000000      0.60000000      0.60000000      0.60000000
      0.60000000      0.60000000      0.60000000      0.60000000      0.60000000      0.60000000      0.60000000      0.60000000      0.60000000      0.60000000      0.60000000      0.60000000      0.60000000      0.60000000      0.60000000      0.60000000      0.60000000      0.60000000      0.60000000      0.60000000
      0.60000000      0.60000000      0.60000000      0.60000000      0.60000000      0.60000000      0.60000000      0.60000000      0.60000000      0.60000000      0.60000000      0.60000000      0.60000000      0.60000000      0.60000000      0.60000000      0.60000000      0.60000000      0.60000000      0.60000000
      5.00000000      5.00000000      5.00000000      5.00000000      0.60000000      0.60000000      0.60000000      0.60000000      0.60000000      0.60000000      0.60000000      0.60000000      0.60000000      0.60000000      0.60000000      0.60000000      0.60000000      0.60000000      0.60000000      0.60000000
      0.60000000      0.60000000      0.60000000      0.60000000      0.60000000      0.60000000      0.60000000      0.60000000      0.60000000      0.60000000      0.60000000      0.60000000      0.60000000      0.60000000      0.60000000      0.60000000      0.60000000      0.60000000      0.60000000      0.60000000
      0.60000000      0.60000000      0.60000000      0.60000000      0.60000000      0.60000000      0.60000000      0.60000000      0.60000000      0.60000000      0.60000000      0.60000000      0.60000000      0.60000000      0.60000000      0.60000000      0.60000000      0.60000000      0.60000000      0.60000000
      0.60000000      0.60000000      0.60000000      0.60000000      0.60000000      0.60000000      0.60000000      0.60000000      0.60000000      0.60000000      0.60000000      0.60000000      0.60000000      0.60000000      0.60000000      0.60000000      0.60000000      0.60000000      0.60000000      0.60000000
      0.60000000      0.60000000      0.60000000      0.60000000      0.60000000      0.60000000      0.60000000      0.60000000      0.60000000      0.60000000      0.60000000      0.60000000      0.60000000      0.60000000      0.60000000      0.60000000      0.60000000      0.60000000</v>
    <i name="NUPDOWN">     -1.00000000</i>
    <i type="logical" name="LSORBIT"> F  </i>
    <v name="SAXIS">      0.00000000      0.00000000      1.00000000</v>
    <i type="logical" name="LSPIRAL"> F  </i>
    <v name="QSPIRAL">      0.00000000      0.00000000      0.00000000</v>
    <i type="logical" name="LZEROZ"> F  </i>
   </separator>
   <separator name="electronic exchange-correlation" >
    <i type="logical" name="LASPH"> F  </i>
    <i type="logical" name="LMETAGGA"> F  </i>
   </separator>
   <separator name="electronic convergence" >
    <i type="int" name="NELM">    40</i>
    <i type="int" name="NELMDL">     0</i>
    <i type="int" name="NELMIN">     8</i>
    <i name="ENINI">    520.00000000</i>
    <separator name="electronic convergence detail" >
     <i type="logical" name="LDIAG"> T  </i>
     <i type="logical" name="LSUBROT"> F  </i>
     <i name="WEIMIN">      0.00100000</i>
     <i name="EBREAK">      0.00000003</i>
     <i name="DEPER">      0.30000000</i>
     <i type="int" name="NRMM">     4</i>
     <i name="TIME">      0.40000000</i>
    </separator>
   </separator>
   <separator name="electronic mixer" >
    <i name="AMIX">      0.40000000</i>
    <i name="BMIX">      1.00000000</i>
    <i name="AMIN">      0.10000000</i>
    <i name="AMIX_MAG">      1.60000000</i>
    <i name="BMIX_MAG">      1.00000000</i>
    <separator name="electronic mixer details" >
     <i type="int" name="IMIX">     4</i>
     <i type="logical" name="MIXFIRST"> F  </i>
     <i type="int" name="MAXMIX">   -45</i>
     <i name="WC">    100.00000000</i>
     <i type="int" name="INIMIX">     1</i>
     <i type="int" name="MIXPRE">     1</i>
     <i type="int" name="MREMOVE">     5</i>
    </separator>
   </separator>
   <separator name="electronic dipolcorrection" >
    <i type="logical" name="LDIPOL"> F  </i>
    <i type="logical" name="LMONO"> F  </i>
    <i type="int" name="IDIPOL">     0</i>
    <i name="EPSILON">      1.00000000</i>
    <v name="DIPOL">   -100.00000000   -100.00000000   -100.00000000</v>
    <i name="EFIELD">      0.00000000</i>
   </separator>
  </separator>
  <separator name="grids" >
   <i type="int" name="NGX">    64</i>
   <i type="int" name="NGY">    64</i>
   <i type="int" name="NGZ">    90</i>
   <i type="int" name="NGXF">   128</i>
   <i type="int" name="NGYF">   128</i>
   <i type="int" name="NGZF">   180</i>
   <i type="logical" name="ADDGRID"> F  </i>
  </separator>
  <separator name="ionic" >
   <i type="int" name="NSW">    30</i>
   <i type="int" name="IBRION">     2</i>
   <i type="int" name="ISIF">     3</i>
   <i name="PSTRESS">      0.00000000</i>
   <i name="EDIFFG">     -0.03000000</i>
   <i type="int" name="NFREE">     1</i>
   <i name="POTIM">      0.50000000</i>
   <i name="SMASS">     -3.00000000</i>
   <i name="SCALEE">      1.00000000</i>
  </separator>
  <separator name="ionic md" >
   <i name="TEBEG">      0.00010000</i>
   <i name="TEEND">      0.00010000</i>
   <i type="int" name="NBLOCK">     1</i>
   <i type="int" name="KBLOCK">    30</i>
   <i type="int" name="NPACO">   256</i>
   <i name="APACO">     16.00000000</i>
  </separator>
  <separator name="symmetry" >
   <i type="int" name="ISYM">     2</i>
   <i name="SYMPREC">      0.00001000</i>
  </separator>
  <separator name="dos" >
   <i type="logical" name="LORBIT"> F  </i>
   <v name="RWIGS">     -1.00000000     -1.00000000     -1.00000000     -1.00000000</v>
   <i type="int" name="NEDOS">   301</i>
   <i name="EMIN">     10.00000000</i>
   <i name="EMAX">    -10.00000000</i>
   <i name="EFERMI">      0.00000000</i>
  </separator>
  <separator name="writing" >
   <i type="int" name="NWRITE">     2</i>
   <i type="logical" name="LWAVE"> T  </i>
   <i type="logical" name="LCHARG"> T  </i>
   <i type="logical" name="LPARD"> F  </i>
   <i type="logical" name="LVTOT"> F  </i>
   <i type="logical" name="LVHAR"> F  </i>
   <i type="logical" name="LELF"> F  </i>
   <i type="logical" name="LOPTICS"> F  </i>
   <v name="STM">      0.00000000      0.00000000      0.00000000      0.00000000      0.00000000      0.00000000      0.00000000</v>
  </separator>
  <separator name="performance" >
   <i type="int" name="NPAR">     2</i>
   <i type="int" name="NSIM">     4</i>
   <i type="int" name="NBLK">    -1</i>
   <i type="logical" name="LPLANE"> T  </i>
   <i type="logical" name="LSCALAPACK"> T  </i>
   <i type="logical" name="LSCAAWARE"> F  </i>
   <i type="logical" name="LSCALU"> F  </i>
   <i type="logical" name="LASYNC"> F  </i>
   <i type="logical" name="LORBITALREAL"> F  </i>
  </separator>
  <separator name="miscellaneous" >
   <i type="int" name="IDIOT">     3</i>
   <i type="logical" name="LMUSIC"> F  </i>
   <v name="POMASS">     87.62000000     47.88000000     55.84700000     16.00000000</v>
   <v name="DARWINR">      0.00000000      0.00000000      0.00000000      0.00000000</v>
   <v name="DARWINV">      1.00000000      1.00000000      1.00000000      1.00000000</v>
   <i type="logical" name="LCORR"> T  </i>
  </separator>
  <i type="logical" name="GGA_COMPAT"> T  </i>
  <i type="logical" name="LBERRY"> F  </i>
  <i type="int" name="ICORELEVEL">     0</i>
  <i type="logical" name="LDAU"> T  </i>
  <v type="int" name="LDAUTYPE">     2</v>
  <v type="int" name="LDAUL">     0</v>
  <v name="LDAUU">      0.00000000</v>
  <v name="LDAUJ">      0.00000000</v>
  <i type="int" name="LDAUPRINT">     1</i>
  <i type="int" name="I_CONSTRAINED_M">     0</i>
  <separator name="electronic exchange-correlation" >
   <i type="string" name="GGA">--</i>
   <i type="int" name="VOSKOWN">     0</i>
   <i type="logical" name="LHFCALC"> F  </i>
   <i type="string" name="PRECFOCK"></i>
   <i type="logical" name="LSYMGRAD"> F  </i>
   <i type="logical" name="LHFONE"> F  </i>
   <i type="logical" name="LRHFCALC"> F  </i>
   <i type="logical" name="LTHOMAS"> F  </i>
   <i type="logical" name="LMODELHF"> F  </i>
   <i name="ENCUT4O">     -1.00000000</i>
   <i type="int" name="EXXOEP">     0</i>
   <i type="int" name="FOURORBIT">     0</i>
   <i name="AEXX">      0.00000000</i>
   <i name="HFALPHA">      0.00000000</i>
   <i name="MCALPHA">      0.00000000</i>
   <i name="ALDAX">      1.00000000</i>
   <i name="AGGAX">      1.00000000</i>
   <i name="ALDAC">      1.00000000</i>
   <i name="AGGAC">      1.00000000</i>
   <i type="int" name="NKREDX">     1</i>
   <i type="int" name="NKREDY">     1</i>
   <i type="int" name="NKREDZ">     1</i>
   <i type="logical" name="SHIFTRED"> F  </i>
   <i type="logical" name="ODDONLY"> F  </i>
   <i type="logical" name="EVENONLY"> F  </i>
   <i type="int" name="LMAXFOCK">     0</i>
   <i type="int" name="NMAXFOCKAE">     0</i>
   <i type="logical" name="LFOCKAEDFT"> F  </i>
   <i name="HFSCREEN">      0.00000000</i>
   <i name="HFSCREENC">      0.00000000</i>
   <i type="int" name="NBANDSGWLOW">     0</i>
  </separator>
  <separator name="vdW DFT" >
   <i type="logical" name="LUSE_VDW"> F  </i>
   <i name="Zab_VDW">     -0.84910000</i>
   <i name="PARAM1">      0.12340000</i>
   <i name="PARAM2">      1.00000000</i>
   <i name="PARAM3">      0.00000000</i>
  </separator>
  <separator name="model GW" >
   <i type="int" name="MODEL_GW">     0</i>
   <i name="MODEL_EPS0">      7.60161261</i>
   <i name="MODEL_ALPHA">      1.00000000</i>
  </separator>
  <separator name="linear response parameters" >
   <i type="logical" name="LEPSILON"> F  </i>
   <i type="logical" name="LRPA"> F  </i>
   <i type="logical" name="LNABLA"> F  </i>
   <i type="logical" name="LVEL"> F  </i>
   <i type="int" name="KINTER">     0</i>
   <i name="CSHIFT">      0.10000000</i>
   <i name="OMEGAMAX">     -1.00000000</i>
   <i name="DEG_THRESHOLD">      0.00200000</i>
  </separator>
  <separator name="orbital magnetization" >
   <i type="logical" name="NUCIND"> F  </i>
   <v name="MAGPOS">      0.00000000      0.00000000      0.00000000</v>
   <i type="logical" name="LNICSALL"> T  </i>
   <i type="logical" name="ORBITALMAG"> F  </i>
   <i type="logical" name="LMAGBLOCH"> F  </i>
   <i type="logical" name="LCHIMAG"> F  </i>
   <i type="logical" name="LGAUGE"> T  </i>
   <i type="int" name="MAGATOM">     0</i>
   <v name="MAGDIPOL">      0.00000000      0.00000000      0.00000000</v>
   <v name="AVECCONST">      0.00000000      0.00000000      0.00000000</v>
  </separator>
  <separator name="response functions" >
   <i type="logical" name="LADDER"> F  </i>
   <i type="logical" name="LFXC"> F  </i>
   <i type="logical" name="LHARTREE"> T  </i>
   <i type="int" name="IBSE">     0</i>
   <v type="int" name="KPOINT">    -1     0     0     0</v>
   <i type="logical" name="LTCTE"> F  </i>
   <i type="logical" name="LTETE"> F  </i>
   <i type="logical" name="LTRIPLET"> F  </i>
   <i type="logical" name="LFXCEPS"> F  </i>
   <i type="logical" name="LFXHEG"> F  </i>
   <i type="int" name="NATURALO">     0</i>
   <i type="logical" name="L2ORDER"> F  </i>
   <i type="logical" name="LUSEW"> F  </i>
   <i name="ENCUTGW">     -2.00000000</i>
   <i name="ENCUTGWSOFT">     -2.00000000</i>
   <i name="ENCUTLF">     -1.00000000</i>
   <i type="int" name="LMAXMP2">    -1</i>
   <i name="SCISSOR">      0.00000000</i>
   <i type="int" name="NOMEGA">     0</i>
   <i type="int" name="NOMEGAR">     0</i>
   <i type="int" name="NBANDSGW">    -1</i>
   <i type="int" name="NBANDSO">    -1</i>
   <i type="int" name="NBANDSV">    -1</i>
   <i type="int" name="NELM">    40</i>
   <i type="int" name="NELMHF">     1</i>
   <i type="int" name="DIM">     3</i>
   <i type="int" name="ANTIRES">     0</i>
   <i name="OMEGAMAX">    -30.00000000</i>
   <i name="OMEGAMIN">    -30.00000000</i>
   <i name="OMEGATL">   -200.00000000</i>
   <i type="int" name="OMEGAGRID">     0</i>
   <i name="CSHIFT">     -0.10000000</i>
   <i type="logical" name="SELFENERGY"> F  </i>
   <i type="logical" name="LSPECTRAL"> F  </i>
   <i type="logical" name="LSPECTRALGW"> F  </i>
   <i type="logical" name="LSINGLES"> F  </i>
   <i type="logical" name="LFERMIGW"> F  </i>
   <i type="logical" name="ODDONLYGW"> F  </i>
   <i type="logical" name="EVENONLYGW"> F  </i>
   <i type="int" name="NKREDLFX">     1</i>
   <i type="int" name="NKREDLFY">     1</i>
   <i type="int" name="NKREDLFZ">     1</i>
   <i type="int" name="MAXMEM">  1800</i>
   <i type="int" name="TELESCOPE">     0</i>
   <i type="int" name="TAUPAR">     1</i>
   <i type="int" name="OMEGAPAR">    -1</i>
   <i name="LAMBDA">      1.00000000</i>
  </separator>
  <separator name="External order field" >
   <i name="OFIELD_KAPPA">      0.00000000</i>
   <v name="OFIELD_K">      0.00000000      0.00000000      0.00000000</v>
   <i name="OFIELD_Q6_NEAR">      0.00000000</i>
   <i name="OFIELD_Q6_FAR">      0.00000000</i>
   <i name="OFIELD_A">      0.00000000</i>
  </separator>
 </parameters>
 <atominfo>
  <atoms>     158 </atoms>
  <types>       4 </types>
  <array name="atoms" >
   <dimension dim="1">ion</dimension>
   <field type="string">element</field>
   <field type="int">atomtype</field>
   <set>
    <rc><c>Sr</c><c>   1</c></rc>
    <rc><c>Sr</c><c>   1</c></rc>
    <rc><c>Sr</c><c>   1</c></rc>
    <rc><c>Sr</c><c>   1</c></rc>
    <rc><c>Sr</c><c>   1</c></rc>
    <rc><c>Sr</c><c>   1</c></rc>
    <rc><c>Sr</c><c>   1</c></rc>
    <rc><c>Sr</c><c>   1</c></rc>
    <rc><c>Sr</c><c>   1</c></rc>
    <rc><c>Sr</c><c>   1</c></rc>
    <rc><c>Sr</c><c>   1</c></rc>
    <rc><c>Sr</c><c>   1</c></rc>
    <rc><c>Sr</c><c>   1</c></rc>
    <rc><c>Sr</c><c>   1</c></rc>
    <rc><c>Sr</c><c>   1</c></rc>
    <rc><c>Sr</c><c>   1</c></rc>
    <rc><c>Sr</c><c>   1</c></rc>
    <rc><c>Sr</c><c>   1</c></rc>
    <rc><c>Sr</c><c>   1</c></rc>
    <rc><c>Sr</c><c>   1</c></rc>
    <rc><c>Sr</c><c>   1</c></rc>
    <rc><c>Sr</c><c>   1</c></rc>
    <rc><c>Sr</c><c>   1</c></rc>
    <rc><c>Sr</c><c>   1</c></rc>
    <rc><c>Sr</c><c>   1</c></rc>
    <rc><c>Sr</c><c>   1</c></rc>
    <rc><c>Sr</c><c>   1</c></rc>
    <rc><c>Sr</c><c>   1</c></rc>
    <rc><c>Sr</c><c>   1</c></rc>
    <rc><c>Sr</c><c>   1</c></rc>
    <rc><c>Sr</c><c>   1</c></rc>
    <rc><c>Sr</c><c>   1</c></rc>
    <rc><c>Ti</c><c>   2</c></rc>
    <rc><c>Ti</c><c>   2</c></rc>
    <rc><c>Ti</c><c>   2</c></rc>
    <rc><c>Ti</c><c>   2</c></rc>
    <rc><c>Ti</c><c>   2</c></rc>
    <rc><c>Ti</c><c>   2</c></rc>
    <rc><c>Ti</c><c>   2</c></rc>
    <rc><c>Ti</c><c>   2</c></rc>
    <rc><c>Ti</c><c>   2</c></rc>
    <rc><c>Ti</c><c>   2</c></rc>
    <rc><c>Ti</c><c>   2</c></rc>
    <rc><c>Ti</c><c>   2</c></rc>
    <rc><c>Ti</c><c>   2</c></rc>
    <rc><c>Ti</c><c>   2</c></rc>
    <rc><c>Ti</c><c>   2</c></rc>
    <rc><c>Ti</c><c>   2</c></rc>
    <rc><c>Ti</c><c>   2</c></rc>
    <rc><c>Ti</c><c>   2</c></rc>
    <rc><c>Ti</c><c>   2</c></rc>
    <rc><c>Ti</c><c>   2</c></rc>
    <rc><c>Ti</c><c>   2</c></rc>
    <rc><c>Ti</c><c>   2</c></rc>
    <rc><c>Ti</c><c>   2</c></rc>
    <rc><c>Ti</c><c>   2</c></rc>
    <rc><c>Ti</c><c>   2</c></rc>
    <rc><c>Ti</c><c>   2</c></rc>
    <rc><c>Ti</c><c>   2</c></rc>
    <rc><c>Ti</c><c>   2</c></rc>
    <rc><c>Fe</c><c>   3</c></rc>
    <rc><c>Fe</c><c>   3</c></rc>
    <rc><c>Fe</c><c>   3</c></rc>
    <rc><c>Fe</c><c>   3</c></rc>
    <rc><c>O </c><c>   4</c></rc>
    <rc><c>O </c><c>   4</c></rc>
    <rc><c>O </c><c>   4</c></rc>
    <rc><c>O </c><c>   4</c></rc>
    <rc><c>O </c><c>   4</c></rc>
    <rc><c>O </c><c>   4</c></rc>
    <rc><c>O </c><c>   4</c></rc>
    <rc><c>O </c><c>   4</c></rc>
    <rc><c>O </c><c>   4</c></rc>
    <rc><c>O </c><c>   4</c></rc>
    <rc><c>O </c><c>   4</c></rc>
    <rc><c>O </c><c>   4</c></rc>
    <rc><c>O </c><c>   4</c></rc>
    <rc><c>O </c><c>   4</c></rc>
    <rc><c>O </c><c>   4</c></rc>
    <rc><c>O </c><c>   4</c></rc>
    <rc><c>O </c><c>   4</c></rc>
    <rc><c>O </c><c>   4</c></rc>
    <rc><c>O </c><c>   4</c></rc>
    <rc><c>O </c><c>   4</c></rc>
    <rc><c>O </c><c>   4</c></rc>
    <rc><c>O </c><c>   4</c></rc>
    <rc><c>O </c><c>   4</c></rc>
    <rc><c>O </c><c>   4</c></rc>
    <rc><c>O </c><c>   4</c></rc>
    <rc><c>O </c><c>   4</c></rc>
    <rc><c>O </c><c>   4</c></rc>
    <rc><c>O </c><c>   4</c></rc>
    <rc><c>O </c><c>   4</c></rc>
    <rc><c>O </c><c>   4</c></rc>
    <rc><c>O </c><c>   4</c></rc>
    <rc><c>O </c><c>   4</c></rc>
    <rc><c>O </c><c>   4</c></rc>
    <rc><c>O </c><c>   4</c></rc>
    <rc><c>O </c><c>   4</c></rc>
    <rc><c>O </c><c>   4</c></rc>
    <rc><c>O </c><c>   4</c></rc>
    <rc><c>O </c><c>   4</c></rc>
    <rc><c>O </c><c>   4</c></rc>
    <rc><c>O </c><c>   4</c></rc>
    <rc><c>O </c><c>   4</c></rc>
    <rc><c>O </c><c>   4</c></rc>
    <rc><c>O </c><c>   4</c></rc>
    <rc><c>O </c><c>   4</c></rc>
    <rc><c>O </c><c>   4</c></rc>
    <rc><c>O </c><c>   4</c></rc>
    <rc><c>O </c><c>   4</c></rc>
    <rc><c>O </c><c>   4</c></rc>
    <rc><c>O </c><c>   4</c></rc>
    <rc><c>O </c><c>   4</c></rc>
    <rc><c>O </c><c>   4</c></rc>
    <rc><c>O </c><c>   4</c></rc>
    <rc><c>O </c><c>   4</c></rc>
    <rc><c>O </c><c>   4</c></rc>
    <rc><c>O </c><c>   4</c></rc>
    <rc><c>O </c><c>   4</c></rc>
    <rc><c>O </c><c>   4</c></rc>
    <rc><c>O </c><c>   4</c></rc>
    <rc><c>O </c><c>   4</c></rc>
    <rc><c>O </c><c>   4</c></rc>
    <rc><c>O </c><c>   4</c></rc>
    <rc><c>O </c><c>   4</c></rc>
    <rc><c>O </c><c>   4</c></rc>
    <rc><c>O </c><c>   4</c></rc>
    <rc><c>O </c><c>   4</c></rc>
    <rc><c>O </c><c>   4</c></rc>
    <rc><c>O </c><c>   4</c></rc>
    <rc><c>O </c><c>   4</c></rc>
    <rc><c>O </c><c>   4</c></rc>
    <rc><c>O </c><c>   4</c></rc>
    <rc><c>O </c><c>   4</c></rc>
    <rc><c>O </c><c>   4</c></rc>
    <rc><c>O </c><c>   4</c></rc>
    <rc><c>O </c><c>   4</c></rc>
    <rc><c>O </c><c>   4</c></rc>
    <rc><c>O </c><c>   4</c></rc>
    <rc><c>O </c><c>   4</c></rc>
    <rc><c>O </c><c>   4</c></rc>
    <rc><c>O </c><c>   4</c></rc>
    <rc><c>O </c><c>   4</c></rc>
    <rc><c>O </c><c>   4</c></rc>
    <rc><c>O </c><c>   4</c></rc>
    <rc><c>O </c><c>   4</c></rc>
    <rc><c>O </c><c>   4</c></rc>
    <rc><c>O </c><c>   4</c></rc>
    <rc><c>O </c><c>   4</c></rc>
    <rc><c>O </c><c>   4</c></rc>
    <rc><c>O </c><c>   4</c></rc>
    <rc><c>O </c><c>   4</c></rc>
    <rc><c>O </c><c>   4</c></rc>
    <rc><c>O </c><c>   4</c></rc>
    <rc><c>O </c><c>   4</c></rc>
    <rc><c>O </c><c>   4</c></rc>
    <rc><c>O </c><c>   4</c></rc>
   </set>
  </array>
  <array name="atomtypes" >
   <dimension dim="1">type</dimension>
   <field type="int">atomspertype</field>
   <field type="string">element</field>
   <field>mass</field>
   <field>valence</field>
   <field type="string">pseudopotential</field>
   <set>
    <rc><c>  32</c><c>Sr</c><c>     87.62000000</c><c>     10.00000000</c><c>  PAW_PBE Sr_sv 07Sep2000               </c></rc>
    <rc><c>  28</c><c>Ti</c><c>     47.88000000</c><c>      4.00000000</c><c>  PAW_PBE Ti 08Apr2002                  </c></rc>
    <rc><c>   4</c><c>Fe</c><c>     55.84700000</c><c>      8.00000000</c><c>  PAW_PBE Fe 06Sep2000                  </c></rc>
    <rc><c>  94</c><c>O </c><c>     16.00000000</c><c>      6.00000000</c><c>  PAW_PBE O 08Apr2002                   </c></rc>
   </set>
  </array>
 </atominfo>
 <structure name="initialpos" >
  <crystal>
   <varray name="basis" >
    <v>      11.20067189      -0.00001705      -0.00017940 </v>
    <v>      -0.00001723      11.20042043       0.00010582 </v>
    <v>      -0.00025547       0.00016186      15.95633590 </v>
   </varray>
   <i name="volume">   2001.75798776 </i>
   <varray name="rec_basis" >
    <v>       0.08928036       0.00000014       0.00000143 </v>
    <v>       0.00000014       0.08928236      -0.00000091 </v>
    <v>       0.00000100      -0.00000059       0.06267103 </v>
   </varray>
  </crystal>
  <varray name="positions" >
   <v>       0.00442506       0.24715330       0.12592395 </v>
   <v>       0.00098274       0.24854749       0.62502852 </v>
   <v>       0.00084655       0.75194608       0.12600377 </v>
   <v>       0.99585067       0.75073523       0.62343133 </v>
   <v>       0.49390644       0.24970111       0.12464223 </v>
   <v>       0.49909335       0.25076792       0.62510739 </v>
   <v>       0.49969201       0.75028843       0.12510713 </v>
   <v>       0.50407533       0.74981668       0.62366131 </v>
   <v>       0.00007814       0.24831912       0.37235480 </v>
   <v>       0.99926596       0.24896728       0.87749760 </v>
   <v>       0.99900981       0.75320718       0.37157577 </v>
   <v>       0.99212484       0.75055524       0.87780355 </v>
   <v>       0.49928095       0.24990102       0.37342225 </v>
   <v>       0.50062266       0.25022092       0.87720803 </v>
   <v>       0.50151628       0.74910109       0.37233150 </v>
   <v>       0.50812855       0.74984776       0.87781856 </v>
   <v>       0.24791979       0.99958868       0.12574149 </v>
   <v>       0.24954476       0.00394759       0.62351690 </v>
   <v>       0.24998991       0.50050227       0.12504603 </v>
   <v>       0.24999906       0.49592552       0.62368180 </v>
   <v>       0.75319439       0.99459028       0.12533672 </v>
   <v>       0.74974168       0.99925247       0.62486949 </v>
   <v>       0.74969466       0.50642264       0.12462024 </v>
   <v>       0.75096252       0.50077846       0.62508766 </v>
   <v>       0.24821943       0.00086954       0.37179254 </v>
   <v>       0.24966459       0.00753384       0.87780008 </v>
   <v>       0.24940793       0.49898026       0.37244406 </v>
   <v>       0.24967776       0.49205736       0.87777716 </v>
   <v>       0.75251992       0.00008284       0.37166867 </v>
   <v>       0.75058506       0.00088377       0.87727817 </v>
   <v>       0.75016812       0.50071935       0.37317196 </v>
   <v>       0.75009020       0.49920325       0.87719692 </v>
   <v>       0.00047222       0.99962350       0.00109562 </v>
   <v>       0.99975425       0.00012137       0.49809712 </v>
   <v>       0.00000150       0.49993300       0.00043805 </v>
   <v>       0.99996933       0.49996185       0.49959346 </v>
   <v>       0.50002449       0.99997167       0.00039667 </v>
   <v>       0.50002806       0.99998795       0.49946819 </v>
   <v>       0.49965605       0.50006815       0.00031005 </v>
   <v>       0.50018923       0.49992759       0.49965244 </v>
   <v>       0.24984626       0.24995159       0.00044383 </v>
   <v>       0.24988455       0.25002155       0.49943698 </v>
   <v>       0.25002209       0.74996167       0.49479950 </v>
   <v>       0.75005808       0.24990180       0.50160372 </v>
   <v>       0.75007596       0.74999252       0.00045563 </v>
   <v>       0.74998731       0.75017481       0.49938550 </v>
   <v>       0.24848105       0.24893453       0.24997892 </v>
   <v>       0.25000831       0.25005964       0.74994530 </v>
   <v>       0.24913288       0.75161524       0.25036483 </v>
   <v>       0.25013846       0.74988381       0.74223657 </v>
   <v>       0.74993914       0.24989147       0.74766467 </v>
   <v>       0.75135841       0.75143357       0.24989978 </v>
   <v>       0.74994855       0.74995079       0.74994702 </v>
   <v>       0.99912917       0.00010175       0.75122228 </v>
   <v>       0.99907176       0.49934269       0.24846094 </v>
   <v>       0.99979330       0.49891702       0.75144060 </v>
   <v>       0.50082224       0.00126019       0.24852654 </v>
   <v>       0.50030806       0.00095398       0.75138466 </v>
   <v>       0.50064374       0.49901304       0.24835265 </v>
   <v>       0.50099011       0.49974135       0.75145236 </v>
   <v>       0.25011341       0.74986569       0.00747594 </v>
   <v>       0.74979503       0.25003701       0.99187198 </v>
   <v>       0.75029198       0.24981481       0.25814560 </v>
   <v>       0.99913935       0.00133910       0.24807907 </v>
   <v>       0.11380760       0.13936504       0.25011790 </v>
   <v>       0.11094513       0.13902304       0.75037217 </v>
   <v>       0.11183541       0.63818711       0.25364042 </v>
   <v>       0.11580794       0.64050935       0.76378876 </v>
   <v>       0.61304572       0.13778840       0.23930594 </v>
   <v>       0.60929108       0.14055475       0.74620576 </v>
   <v>       0.61247007       0.63711062       0.24965107 </v>
   <v>       0.61023824       0.63980605       0.75009171 </v>
   <v>       0.38820874       0.36160120       0.24989842 </v>
   <v>       0.38943999       0.36126568       0.75044552 </v>
   <v>       0.38899832       0.86070308       0.25352515 </v>
   <v>       0.38457072       0.85938451       0.76382497 </v>
   <v>       0.88511958       0.36430538       0.23862547 </v>
   <v>       0.89057110       0.35935792       0.74617664 </v>
   <v>       0.88558444       0.86173663       0.24982751 </v>
   <v>       0.88949635       0.85988670       0.75001511 </v>
   <v>       0.36193572       0.11172994       0.25018924 </v>
   <v>       0.36029540       0.11035398       0.75019490 </v>
   <v>       0.36170721       0.61079778       0.25370841 </v>
   <v>       0.35954265       0.61564064       0.76395880 </v>
   <v>       0.85986858       0.11826237       0.23631739 </v>
   <v>       0.85923087       0.10959058       0.74628490 </v>
   <v>       0.86232702       0.61279819       0.25029396 </v>
   <v>       0.86119707       0.61045888       0.75065990 </v>
   <v>       0.13818503       0.38837677       0.24960400 </v>
   <v>       0.13987389       0.38984696       0.74993152 </v>
   <v>       0.13975158       0.88661313       0.25266978 </v>
   <v>       0.14093239       0.88412875       0.76315120 </v>
   <v>       0.63790376       0.38458097       0.23725097 </v>
   <v>       0.64057621       0.39068102       0.74606918 </v>
   <v>       0.63703174       0.88747865       0.24964475 </v>
   <v>       0.63886683       0.88936096       0.75036470 </v>
   <v>       0.36352684       0.38589999       0.99994893 </v>
   <v>       0.35910781       0.39131946       0.49963423 </v>
   <v>       0.36420860       0.88323970       0.98689196 </v>
   <v>       0.35840036       0.89099455       0.49885250 </v>
   <v>       0.86268262       0.38389523       0.01250321 </v>
   <v>       0.85957669       0.39145641       0.50311126 </v>
   <v>       0.86364471       0.88513947       0.99851227 </v>
   <v>       0.85886932       0.89046690       0.50136001 </v>
   <v>       0.13683188       0.11450044       0.99926759 </v>
   <v>       0.14134817       0.10916164       0.49992399 </v>
   <v>       0.13635160       0.61610731       0.98703561 </v>
   <v>       0.14169684       0.60890634       0.49911706 </v>
   <v>       0.63704546       0.11618301       0.01281724 </v>
   <v>       0.64033517       0.10866178       0.50263630 </v>
   <v>       0.63619863       0.61411839       0.99906591 </v>
   <v>       0.64086820       0.60889904       0.50124492 </v>
   <v>       0.11388101       0.36345114       0.99978461 </v>
   <v>       0.10913553       0.35921347       0.50115228 </v>
   <v>       0.11758038       0.86316529       0.98591656 </v>
   <v>       0.10940350       0.85819412       0.49920908 </v>
   <v>       0.61580279       0.36294803       0.01237454 </v>
   <v>       0.60863318       0.35963111       0.50334563 </v>
   <v>       0.61445046       0.86377417       0.00004167 </v>
   <v>       0.60854804       0.85868902       0.49993017 </v>
   <v>       0.38609025       0.13656138       0.99894936 </v>
   <v>       0.39094686       0.14084670       0.50120867 </v>
   <v>       0.38331796       0.63616556       0.98633065 </v>
   <v>       0.39124281       0.64143367       0.49869116 </v>
   <v>       0.88382443       0.13708283       0.01073097 </v>
   <v>       0.89087646       0.14075242       0.50352891 </v>
   <v>       0.88554550       0.63612755       0.99990181 </v>
   <v>       0.89122929       0.64101816       0.49919984 </v>
   <v>       0.00981118       0.98918218       0.12197299 </v>
   <v>       0.00723557       0.99479093       0.62683006 </v>
   <v>       0.01052674       0.51053626       0.12409110 </v>
   <v>       0.00510288       0.50753230       0.62655695 </v>
   <v>       0.48842406       0.99063681       0.12406307 </v>
   <v>       0.49472686       0.99272159       0.62656386 </v>
   <v>       0.49002237       0.51110792       0.12369354 </v>
   <v>       0.49245358       0.50544979       0.62656771 </v>
   <v>       0.99424376       0.00408270       0.37609700 </v>
   <v>       0.99038231       0.01003812       0.87481419 </v>
   <v>       0.99628788       0.49389039       0.37473035 </v>
   <v>       0.98959291       0.48957489       0.87548004 </v>
   <v>       0.50383963       0.00549100       0.37470156 </v>
   <v>       0.51093941       0.01012987       0.87544318 </v>
   <v>       0.50661541       0.49531654       0.37472990 </v>
   <v>       0.51025005       0.48909863       0.87535826 </v>
   <v>       0.25051395       0.25063044       0.37552908 </v>
   <v>       0.25006813       0.25065972       0.87477593 </v>
   <v>       0.25017651       0.74960395       0.37584156 </v>
   <v>       0.74988182       0.25080317       0.37735209 </v>
   <v>       0.74921849       0.25032095       0.87249585 </v>
   <v>       0.74890238       0.74982513       0.37544513 </v>
   <v>       0.74964409       0.74956272       0.87475003 </v>
   <v>       0.25084078       0.25001130       0.12464216 </v>
   <v>       0.25035221       0.25036421       0.62511014 </v>
   <v>       0.25090733       0.74886628       0.12609659 </v>
   <v>       0.25075829       0.74945343       0.62646055 </v>
   <v>       0.74950894       0.24997632       0.62457291 </v>
   <v>       0.74952180       0.74945342       0.12452656 </v>
   <v>       0.75003948       0.74943101       0.62510859 </v>
  </varray>
 </structure>
 <calculation>
  <scstep>
   <time name="dav">  578.80  579.01</time>
   <time name="total">  586.02  586.33</time>
   <energy>
    <i name="alphaZ">   5643.17851601 </i>
    <i name="ewald"> -61248.55832631 </i>
    <i name="hartreedc"> -15268.24558752 </i>
    <i name="XCdc">   2852.58961723 </i>
    <i name="pawpsdc"> 111654.24082133 </i>
    <i name="pawaedc">-110402.75237792 </i>
    <i name="eentropy">     -0.00000000 </i>
    <i name="bandstr">  -7033.65326681 </i>
    <i name="atom">  72650.08363186 </i>
    <i name="e_fr_energy">  -1153.11697213 </i>
    <i name="e_wo_entrp">  -1153.11697213 </i>
    <i name="e_0_energy">  -1153.11697213 </i>
   </energy>
  </scstep>
  <scstep>
   <time name="diag">   65.01   65.02</time>
   <time name="diis">   57.47   57.48</time>
   <time name="orth">   33.43   33.44</time>
   <time name="total">  163.12  163.20</time>
   <energy>
    <i name="e_fr_energy">  -1153.11697138 </i>
    <i name="e_wo_entrp">  -1153.11697138 </i>
    <i name="e_0_energy">  -1153.11697138 </i>
   </energy>
  </scstep>
  <scstep>
   <time name="diag">   65.08   65.09</time>
   <time name="diis">   51.63   51.66</time>
   <time name="orth">   33.41   33.41</time>
   <time name="total">  157.35  157.47</time>
   <energy>
    <i name="e_fr_energy">  -1153.11697138 </i>
    <i name="e_wo_entrp">  -1153.11697138 </i>
    <i name="e_0_energy">  -1153.11697138 </i>
   </energy>
  </scstep>
  <scstep>
   <time name="diag">   65.13   65.15</time>
   <time name="diis">   44.27   44.27</time>
   <time name="orth">   33.47   33.47</time>
   <time name="total">  150.09  150.23</time>
   <energy>
    <i name="e_fr_energy">  -1153.11697133 </i>
    <i name="e_wo_entrp">  -1153.11697133 </i>
    <i name="e_0_energy">  -1153.11697133 </i>
   </energy>
  </scstep>
  <scstep>
   <time name="diag">   65.22   65.22</time>
   <time name="diis">   42.37   42.39</time>
   <time name="orth">   33.46   33.46</time>
   <time name="total">  148.27  148.37</time>
   <energy>
    <i name="e_fr_energy">  -1153.11697134 </i>
    <i name="e_wo_entrp">  -1153.11697134 </i>
    <i name="e_0_energy">  -1153.11697134 </i>
   </energy>
  </scstep>
  <scstep>
   <time name="diag">   65.10   65.10</time>
   <time name="diis">   41.61   41.62</time>
   <time name="orth">   33.46   33.47</time>
   <time name="total">  147.38  147.49</time>
   <energy>
    <i name="e_fr_energy">  -1153.11697134 </i>
    <i name="e_wo_entrp">  -1153.11697134 </i>
    <i name="e_0_energy">  -1153.11697134 </i>
   </energy>
  </scstep>
  <scstep>
   <time name="diag">   65.24   65.25</time>
   <time name="diis">   41.23   41.25</time>
   <time name="orth">   33.51   33.52</time>
   <time name="total">  147.20  147.30</time>
   <energy>
    <i name="e_fr_energy">  -1153.11697134 </i>
    <i name="e_wo_entrp">  -1153.11697134 </i>
    <i name="e_0_energy">  -1153.11697134 </i>
   </energy>
  </scstep>
  <scstep>
   <time name="diag">   65.12   65.13</time>
   <time name="diis">   40.95   40.96</time>
   <time name="orth">   33.55   33.55</time>
   <time name="total">  140.67  140.73</time>
   <energy>
    <i name="alphaZ">   5643.17851601 </i>
    <i name="ewald"> -61248.55832631 </i>
    <i name="hartreedc"> -15268.22989033 </i>
    <i name="XCdc">   2852.58964342 </i>
    <i name="pawpsdc"> 111654.09965190 </i>
    <i name="pawaedc">-110402.60652095 </i>
    <i name="eentropy">     -0.00000000 </i>
    <i name="bandstr">  -7033.67367694 </i>
    <i name="atom">  72650.08363186 </i>
    <i name="e_fr_energy">  -1153.11697134 </i>
    <i name="e_wo_entrp">  -1153.11697134 </i>
    <i name="e_0_energy">  -1153.11697134 </i>
   </energy>
  </scstep>
  <structure>
   <crystal>
    <varray name="basis" >
     <v>      11.20067189      -0.00001705      -0.00017940 </v>
     <v>      -0.00001723      11.20042043       0.00010582 </v>
     <v>      -0.00025547       0.00016186      15.95633590 </v>
    </varray>
    <i name="volume">   2001.75798776 </i>
    <varray name="rec_basis" >
     <v>       0.08928036       0.00000014       0.00000143 </v>
     <v>       0.00000014       0.08928236      -0.00000091 </v>
     <v>       0.00000100      -0.00000059       0.06267103 </v>
    </varray>
   </crystal>
   <varray name="positions" >
    <v>       0.00442506       0.24715330       0.12592395 </v>
    <v>       0.00098274       0.24854749       0.62502852 </v>
    <v>       0.00084655       0.75194608       0.12600377 </v>
    <v>       0.99585067       0.75073523       0.62343133 </v>
    <v>       0.49390644       0.24970111       0.12464223 </v>
    <v>       0.49909335       0.25076792       0.62510739 </v>
    <v>       0.49969201       0.75028843       0.12510713 </v>
    <v>       0.50407533       0.74981668       0.62366131 </v>
    <v>       0.00007814       0.24831912       0.37235480 </v>
    <v>       0.99926596       0.24896728       0.87749760 </v>
    <v>       0.99900981       0.75320718       0.37157577 </v>
    <v>       0.99212484       0.75055524       0.87780355 </v>
    <v>       0.49928095       0.24990102       0.37342225 </v>
    <v>       0.50062266       0.25022092       0.87720803 </v>
    <v>       0.50151628       0.74910109       0.37233150 </v>
    <v>       0.50812855       0.74984776       0.87781856 </v>
    <v>       0.24791979       0.99958868       0.12574149 </v>
    <v>       0.24954476       0.00394759       0.62351690 </v>
    <v>       0.24998991       0.50050227       0.12504603 </v>
    <v>       0.24999906       0.49592552       0.62368180 </v>
    <v>       0.75319439       0.99459028       0.12533672 </v>
    <v>       0.74974168       0.99925247       0.62486949 </v>
    <v>       0.74969466       0.50642264       0.12462024 </v>
    <v>       0.75096252       0.50077846       0.62508766 </v>
    <v>       0.24821943       0.00086954       0.37179254 </v>
    <v>       0.24966459       0.00753384       0.87780008 </v>
    <v>       0.24940793       0.49898026       0.37244406 </v>
    <v>       0.24967776       0.49205736       0.87777716 </v>
    <v>       0.75251992       0.00008284       0.37166867 </v>
    <v>       0.75058506       0.00088377       0.87727817 </v>
    <v>       0.75016812       0.50071935       0.37317196 </v>
    <v>       0.75009020       0.49920325       0.87719692 </v>
    <v>       0.00047222       0.99962350       0.00109562 </v>
    <v>       0.99975425       0.00012137       0.49809712 </v>
    <v>       0.00000150       0.49993300       0.00043805 </v>
    <v>       0.99996933       0.49996185       0.49959346 </v>
    <v>       0.50002449       0.99997167       0.00039667 </v>
    <v>       0.50002806       0.99998795       0.49946819 </v>
    <v>       0.49965605       0.50006815       0.00031005 </v>
    <v>       0.50018923       0.49992759       0.49965244 </v>
    <v>       0.24984626       0.24995159       0.00044383 </v>
    <v>       0.24988455       0.25002155       0.49943698 </v>
    <v>       0.25002209       0.74996167       0.49479950 </v>
    <v>       0.75005808       0.24990180       0.50160372 </v>
    <v>       0.75007596       0.74999252       0.00045563 </v>
    <v>       0.74998731       0.75017481       0.49938550 </v>
    <v>       0.24848105       0.24893453       0.24997892 </v>
    <v>       0.25000831       0.25005964       0.74994530 </v>
    <v>       0.24913288       0.75161524       0.25036483 </v>
    <v>       0.25013846       0.74988381       0.74223657 </v>
    <v>       0.74993914       0.24989147       0.74766467 </v>
    <v>       0.75135841       0.75143357       0.24989978 </v>
    <v>       0.74994855       0.74995079       0.74994702 </v>
    <v>       0.99912917       0.00010175       0.75122228 </v>
    <v>       0.99907176       0.49934269       0.24846094 </v>
    <v>       0.99979330       0.49891702       0.75144060 </v>
    <v>       0.50082224       0.00126019       0.24852654 </v>
    <v>       0.50030806       0.00095398       0.75138466 </v>
    <v>       0.50064374       0.49901304       0.24835265 </v>
    <v>       0.50099011       0.49974135       0.75145236 </v>
    <v>       0.25011341       0.74986569       0.00747594 </v>
    <v>       0.74979503       0.25003701       0.99187198 </v>
    <v>       0.75029198       0.24981481       0.25814560 </v>
    <v>       0.99913935       0.00133910       0.24807907 </v>
    <v>       0.11380760       0.13936504       0.25011790 </v>
    <v>       0.11094513       0.13902304       0.75037217 </v>
    <v>       0.11183541       0.63818711       0.25364042 </v>
    <v>       0.11580794       0.64050935       0.76378876 </v>
    <v>       0.61304572       0.13778840       0.23930594 </v>
    <v>       0.60929108       0.14055475       0.74620576 </v>
    <v>       0.61247007       0.63711062       0.24965107 </v>
    <v>       0.61023824       0.63980605       0.75009171 </v>
    <v>       0.38820874       0.36160120       0.24989842 </v>
    <v>       0.38943999       0.36126568       0.75044552 </v>
    <v>       0.38899832       0.86070308       0.25352515 </v>
    <v>       0.38457072       0.85938451       0.76382497 </v>
    <v>       0.88511958       0.36430538       0.23862547 </v>
    <v>       0.89057110       0.35935792       0.74617664 </v>
    <v>       0.88558444       0.86173663       0.24982751 </v>
    <v>       0.88949635       0.85988670       0.75001511 </v>
    <v>       0.36193572       0.11172994       0.25018924 </v>
    <v>       0.36029540       0.11035398       0.75019490 </v>
    <v>       0.36170721       0.61079778       0.25370841 </v>
    <v>       0.35954265       0.61564064       0.76395880 </v>
    <v>       0.85986858       0.11826237       0.23631739 </v>
    <v>       0.85923087       0.10959058       0.74628490 </v>
    <v>       0.86232702       0.61279819       0.25029396 </v>
    <v>       0.86119707       0.61045888       0.75065990 </v>
    <v>       0.13818503       0.38837677       0.24960400 </v>
    <v>       0.13987389       0.38984696       0.74993152 </v>
    <v>       0.13975158       0.88661313       0.25266978 </v>
    <v>       0.14093239       0.88412875       0.76315120 </v>
    <v>       0.63790376       0.38458097       0.23725097 </v>
    <v>       0.64057621       0.39068102       0.74606918 </v>
    <v>       0.63703174       0.88747865       0.24964475 </v>
    <v>       0.63886683       0.88936096       0.75036470 </v>
    <v>       0.36352684       0.38589999       0.99994893 </v>
    <v>       0.35910781       0.39131946       0.49963423 </v>
    <v>       0.36420860       0.88323970       0.98689196 </v>
    <v>       0.35840036       0.89099455       0.49885250 </v>
    <v>       0.86268262       0.38389523       0.01250321 </v>
    <v>       0.85957669       0.39145641       0.50311126 </v>
    <v>       0.86364471       0.88513947       0.99851227 </v>
    <v>       0.85886932       0.89046690       0.50136001 </v>
    <v>       0.13683188       0.11450044       0.99926759 </v>
    <v>       0.14134817       0.10916164       0.49992399 </v>
    <v>       0.13635160       0.61610731       0.98703561 </v>
    <v>       0.14169684       0.60890634       0.49911706 </v>
    <v>       0.63704546       0.11618301       0.01281724 </v>
    <v>       0.64033517       0.10866178       0.50263630 </v>
    <v>       0.63619863       0.61411839       0.99906591 </v>
    <v>       0.64086820       0.60889904       0.50124492 </v>
    <v>       0.11388101       0.36345114       0.99978461 </v>
    <v>       0.10913553       0.35921347       0.50115228 </v>
    <v>       0.11758038       0.86316529       0.98591656 </v>
    <v>       0.10940350       0.85819412       0.49920908 </v>
    <v>       0.61580279       0.36294803       0.01237454 </v>
    <v>       0.60863318       0.35963111       0.50334563 </v>
    <v>       0.61445046       0.86377417       0.00004167 </v>
    <v>       0.60854804       0.85868902       0.49993017 </v>
    <v>       0.38609025       0.13656138       0.99894936 </v>
    <v>       0.39094686       0.14084670       0.50120867 </v>
    <v>       0.38331796       0.63616556       0.98633065 </v>
    <v>       0.39124281       0.64143367       0.49869116 </v>
    <v>       0.88382443       0.13708283       0.01073097 </v>
    <v>       0.89087646       0.14075242       0.50352891 </v>
    <v>       0.88554550       0.63612755       0.99990181 </v>
    <v>       0.89122929       0.64101816       0.49919984 </v>
    <v>       0.00981118       0.98918218       0.12197299 </v>
    <v>       0.00723557       0.99479093       0.62683006 </v>
    <v>       0.01052674       0.51053626       0.12409110 </v>
    <v>       0.00510288       0.50753230       0.62655695 </v>
    <v>       0.48842406       0.99063681       0.12406307 </v>
    <v>       0.49472686       0.99272159       0.62656386 </v>
    <v>       0.49002237       0.51110792       0.12369354 </v>
    <v>       0.49245358       0.50544979       0.62656771 </v>
    <v>       0.99424376       0.00408270       0.37609700 </v>
    <v>       0.99038231       0.01003812       0.87481419 </v>
    <v>       0.99628788       0.49389039       0.37473035 </v>
    <v>       0.98959291       0.48957489       0.87548004 </v>
    <v>       0.50383963       0.00549100       0.37470156 </v>
    <v>       0.51093941       0.01012987       0.87544318 </v>
    <v>       0.50661541       0.49531654       0.37472990 </v>
    <v>       0.51025005       0.48909863       0.87535826 </v>
    <v>       0.25051395       0.25063044       0.37552908 </v>
    <v>       0.25006813       0.25065972       0.87477593 </v>
    <v>       0.25017651       0.74960395       0.37584156 </v>
    <v>       0.74988182       0.25080317       0.37735209 </v>
    <v>       0.74921849       0.25032095       0.87249585 </v>
    <v>       0.74890238       0.74982513       0.37544513 </v>
    <v>       0.74964409       0.74956272       0.87475003 </v>
    <v>       0.25084078       0.25001130       0.12464216 </v>
    <v>       0.25035221       0.25036421       0.62511014 </v>
    <v>       0.25090733       0.74886628       0.12609659 </v>
    <v>       0.25075829       0.74945343       0.62646055 </v>
    <v>       0.74950894       0.24997632       0.62457291 </v>
    <v>       0.74952180       0.74945342       0.12452656 </v>
    <v>       0.75003948       0.74943101       0.62510859 </v>
   </varray>
  </structure>
  <varray name="forces" >
   <v>      -0.01977704      -0.00787706      -0.01978678 </v>
   <v>      -0.02241503       0.00782998       0.01593842 </v>
   <v>       0.02358566       0.00438438      -0.00903518 </v>
   <v>      -0.00931315      -0.00978960      -0.01151390 </v>
   <v>       0.01507917      -0.01047525      -0.01971107 </v>
   <v>       0.01854676       0.00252624       0.02011027 </v>
   <v>      -0.02651090       0.00660263      -0.00135847 </v>
   <v>       0.00974359       0.01104993      -0.00464446 </v>
   <v>      -0.00176706       0.00252469       0.00418482 </v>
   <v>      -0.02916801      -0.00766819      -0.00708717 </v>
   <v>       0.00024974      -0.00340963       0.01220795 </v>
   <v>       0.00037510      -0.00038892      -0.00900329 </v>
   <v>       0.00174174      -0.01749549       0.00926976 </v>
   <v>       0.02910574       0.00521032      -0.01549373 </v>
   <v>      -0.00801317       0.00876754       0.01226695 </v>
   <v>      -0.00412830       0.00562909      -0.01549220 </v>
   <v>      -0.00243166      -0.01373577      -0.00255733 </v>
   <v>      -0.00391617       0.01073296      -0.01009972 </v>
   <v>      -0.01657279       0.03330081       0.00356574 </v>
   <v>       0.00221203      -0.01103158      -0.01044179 </v>
   <v>       0.00416772       0.02112044      -0.01970895 </v>
   <v>      -0.00527520       0.02039257       0.02445391 </v>
   <v>       0.00422769      -0.02338308      -0.01854260 </v>
   <v>       0.00321717      -0.01396477       0.02085803 </v>
   <v>      -0.00253958       0.00869392       0.01600592 </v>
   <v>       0.00792615      -0.00783664      -0.01104327 </v>
   <v>      -0.00647738       0.00268094       0.01466681 </v>
   <v>      -0.00947498       0.01002774      -0.01424980 </v>
   <v>       0.00973403       0.00986681      -0.00347449 </v>
   <v>      -0.01831618       0.01838638      -0.00256562 </v>
   <v>      -0.00954902      -0.00471501       0.01767318 </v>
   <v>       0.02268776      -0.02142500      -0.01235480 </v>
   <v>      -0.03040838       0.01001938      -0.03083015 </v>
   <v>       0.04735941      -0.01017843       0.00716794 </v>
   <v>      -0.01056162      -0.00458262      -0.01043183 </v>
   <v>       0.01987658       0.02338348      -0.01749189 </v>
   <v>       0.01367670       0.00500207      -0.01512859 </v>
   <v>      -0.01768078      -0.01624402      -0.00029017 </v>
   <v>       0.04014109      -0.01382823      -0.06426886 </v>
   <v>      -0.00686868       0.00539456       0.02133572 </v>
   <v>      -0.02139856      -0.01657877      -0.01272884 </v>
   <v>      -0.00043631      -0.00650798      -0.03302830 </v>
   <v>       0.00362379       0.00116631       0.01288118 </v>
   <v>      -0.01472220       0.01545187       0.04135399 </v>
   <v>       0.01280533       0.02061533      -0.06465308 </v>
   <v>      -0.00716497      -0.01668527      -0.02367379 </v>
   <v>      -0.00124085      -0.02099559       0.01127825 </v>
   <v>      -0.00218796      -0.03264698       0.06251301 </v>
   <v>       0.00604414      -0.01872749      -0.06343486 </v>
   <v>       0.00704041       0.00883328      -0.04123344 </v>
   <v>       0.00041692      -0.00265463       0.01191602 </v>
   <v>       0.00519081      -0.00397694       0.02237512 </v>
   <v>       0.02949934       0.00795433       0.06665822 </v>
   <v>      -0.03052114       0.01293971       0.02773845 </v>
   <v>      -0.03432100      -0.03139286      -0.00634357 </v>
   <v>      -0.02331801      -0.00835330       0.02632977 </v>
   <v>       0.01709472       0.03702344      -0.00703440 </v>
   <v>       0.00140335       0.01793701       0.03577541 </v>
   <v>       0.01649796      -0.02876719      -0.00498085 </v>
   <v>       0.02093528      -0.01597370       0.02516353 </v>
   <v>      -0.00329595       0.00154828       0.00487435 </v>
   <v>       0.00770832      -0.00770064      -0.02545827 </v>
   <v>       0.00508373      -0.01106766       0.00906369 </v>
   <v>      -0.02045997       0.02729586      -0.01691321 </v>
   <v>       0.01603853      -0.01880013       0.00754881 </v>
   <v>       0.01981211      -0.01734863      -0.00520033 </v>
   <v>       0.00951204       0.01941618      -0.00034095 </v>
   <v>      -0.00423055       0.00560119       0.00624742 </v>
   <v>      -0.01272598      -0.00816273       0.00513427 </v>
   <v>      -0.01616885      -0.00351524      -0.00986693 </v>
   <v>      -0.00194900      -0.02370226      -0.00659568 </v>
   <v>       0.00266047      -0.00787904      -0.01661946 </v>
   <v>      -0.00995492       0.03688904       0.00245495 </v>
   <v>      -0.01821145       0.01439005      -0.00749873 </v>
   <v>      -0.00703913      -0.01366705      -0.00156117 </v>
   <v>      -0.00714797      -0.01609328       0.00712419 </v>
   <v>       0.00770259       0.00512155       0.00915983 </v>
   <v>       0.02400152       0.01048451      -0.00885966 </v>
   <v>      -0.00102255       0.01650890      -0.00809105 </v>
   <v>      -0.00529080       0.00159523      -0.01339097 </v>
   <v>       0.01352039       0.00650319      -0.00301987 </v>
   <v>      -0.01000940       0.01821489      -0.00987252 </v>
   <v>      -0.00043656       0.01506477       0.00512181 </v>
   <v>      -0.00509540      -0.00945187       0.00676947 </v>
   <v>       0.00439972      -0.00085240       0.01134505 </v>
   <v>       0.01234953      -0.01874910      -0.00752762 </v>
   <v>       0.00217652       0.01330266       0.00225732 </v>
   <v>       0.01697000       0.01566722      -0.00934575 </v>
   <v>      -0.01389099      -0.00135412      -0.01230358 </v>
   <v>       0.00788001      -0.01313148      -0.01435462 </v>
   <v>       0.01002175      -0.00461161       0.00412271 </v>
   <v>       0.00068045       0.00617471       0.01045651 </v>
   <v>      -0.01136773       0.00280552       0.00476514 </v>
   <v>      -0.01945131       0.02848984      -0.01213245 </v>
   <v>      -0.00127885      -0.01667150      -0.00085761 </v>
   <v>      -0.00870817      -0.02396686      -0.01388850 </v>
   <v>       0.03082240      -0.01557508       0.01614856 </v>
   <v>      -0.00110899      -0.01702230       0.00005173 </v>
   <v>       0.00420753       0.01366691       0.00064727 </v>
   <v>      -0.01939026      -0.00663462      -0.00124505 </v>
   <v>       0.03195492       0.01589135       0.00297304 </v>
   <v>      -0.01840976      -0.00125470      -0.00465288 </v>
   <v>       0.03801017      -0.02005992       0.00845334 </v>
   <v>       0.00468018       0.00574850      -0.00192415 </v>
   <v>      -0.02127074       0.02521277       0.01408439 </v>
   <v>      -0.01680797       0.00890780       0.00406065 </v>
   <v>      -0.00512636      -0.00206522      -0.00875390 </v>
   <v>       0.02518636      -0.00300806      -0.00052306 </v>
   <v>      -0.02915171      -0.01174365       0.01337820 </v>
   <v>       0.01894124      -0.00228248      -0.00751149 </v>
   <v>      -0.04917928       0.01225440       0.01334015 </v>
   <v>       0.00575964       0.01489053      -0.00585137 </v>
   <v>       0.02603977       0.02377033       0.00613539 </v>
   <v>       0.01211953      -0.00508147       0.00160673 </v>
   <v>      -0.00380679       0.01132204       0.01316706 </v>
   <v>      -0.00413229      -0.00761896       0.00715916 </v>
   <v>      -0.01450035       0.04077328       0.00462995 </v>
   <v>       0.00193702      -0.01824902      -0.00898162 </v>
   <v>       0.01164909       0.02734841       0.02475807 </v>
   <v>       0.02224584       0.00126769       0.00256910 </v>
   <v>      -0.03082195      -0.01798478       0.00226500 </v>
   <v>      -0.00445756       0.00539584      -0.00738606 </v>
   <v>       0.01052933      -0.00996157       0.00449237 </v>
   <v>      -0.00037705       0.01696974      -0.00458972 </v>
   <v>       0.00731457      -0.03066001      -0.00064776 </v>
   <v>       0.00881643       0.00047082      -0.01627615 </v>
   <v>      -0.01854922      -0.03957267       0.01972292 </v>
   <v>      -0.02596255       0.00568656      -0.00003352 </v>
   <v>       0.00442065      -0.00265729       0.02246835 </v>
   <v>      -0.00922445      -0.00717141      -0.01622166 </v>
   <v>      -0.00134238       0.00547028       0.00357626 </v>
   <v>       0.00689649      -0.00572160      -0.00179230 </v>
   <v>      -0.00541144      -0.00200094       0.00913229 </v>
   <v>      -0.00713388       0.00929921      -0.01416546 </v>
   <v>      -0.00701740       0.00207118       0.00943915 </v>
   <v>       0.00542590       0.00530861       0.00805946 </v>
   <v>       0.01464343      -0.00664042       0.00290730 </v>
   <v>       0.01900712      -0.01433455       0.00426732 </v>
   <v>       0.00182709       0.01696240      -0.00820162 </v>
   <v>       0.01878933       0.00600329       0.02436106 </v>
   <v>       0.00777043      -0.01933278       0.00237606 </v>
   <v>      -0.00685781      -0.01527215       0.02785494 </v>
   <v>      -0.01525825      -0.00361276      -0.01601442 </v>
   <v>      -0.01456387       0.01294607       0.02385003 </v>
   <v>       0.00413613       0.00925484       0.01661949 </v>
   <v>       0.00135576       0.00383912      -0.00161466 </v>
   <v>       0.00336555      -0.00117099       0.01162842 </v>
   <v>      -0.00364125      -0.00002738      -0.02108878 </v>
   <v>      -0.00242968       0.00682446       0.02188110 </v>
   <v>      -0.00003032      -0.00370108       0.01178955 </v>
   <v>      -0.00495818       0.00257185      -0.00701263 </v>
   <v>      -0.00085624      -0.00045224       0.00695077 </v>
   <v>       0.00201528       0.00045391      -0.01265717 </v>
   <v>       0.00532220      -0.00000953       0.04322043 </v>
   <v>      -0.00007171       0.00248424      -0.02992730 </v>
   <v>       0.00303514       0.00150865      -0.03994915 </v>
   <v>       0.00421530      -0.00615013       0.03151173 </v>
   <v>      -0.00110200      -0.00005140      -0.02723260 </v>
  </varray>
  <varray name="stress" >
   <v>       0.35680818       0.04960300      -0.01774537 </v>
   <v>       0.04960386       0.34568933       0.02078712 </v>
   <v>      -0.01774587       0.02078725       0.75892027 </v>
  </varray>
  <energy>
   <i name="e_fr_energy">  -1153.11697134 </i>
   <i name="e_wo_entrp">  -1153.11697134 </i>
   <i name="e_0_energy">     -0.00000000 </i>
  </energy>
  <time name="totalsc"> 1909.10 1912.84</time>
 </calculation>
 <calculation>
  <scstep>
   <time name="dav">  580.82  580.95</time>
   <time name="total">  588.03  588.22</time>
   <energy>
    <i name="alphaZ">   5640.03362767 </i>
    <i name="ewald"> -61237.45542198 </i>
    <i name="hartreedc"> -15265.10561921 </i>
    <i name="XCdc">   2851.86698442 </i>
    <i name="pawpsdc"> 111654.09686271 </i>
    <i name="pawaedc">-110402.60374073 </i>
    <i name="eentropy">     -0.00000000 </i>
    <i name="bandstr">  -7044.03649138 </i>
    <i name="atom">  72650.08363186 </i>
    <i name="e_fr_energy">  -1153.12016665 </i>
    <i name="e_wo_entrp">  -1153.12016665 </i>
    <i name="e_0_energy">  -1153.12016665 </i>
   </energy>
  </scstep>
  <scstep>
   <time name="diag">   65.08   65.10</time>
   <time name="diis">  105.43  105.45</time>
   <time name="orth">   33.46   33.46</time>
   <time name="total">  211.19  211.29</time>
   <energy>
    <i name="e_fr_energy">  -1153.12011318 </i>
    <i name="e_wo_entrp">  -1153.12011318 </i>
    <i name="e_0_energy">  -1153.12011318 </i>
   </energy>
  </scstep>
  <scstep>
   <time name="diag">   65.16   65.18</time>
   <time name="diis">  110.03  110.04</time>
   <time name="orth">   33.50   33.50</time>
   <time name="total">  215.91  216.04</time>
   <energy>
    <i name="e_fr_energy">  -1153.11944628 </i>
    <i name="e_wo_entrp">  -1153.11944628 </i>
    <i name="e_0_energy">  -1153.11944628 </i>
   </energy>
  </scstep>
  <scstep>
   <time name="diag">   65.16   65.18</time>
   <time name="diis">  107.09  107.10</time>
   <time name="orth">   33.51   33.51</time>
   <time name="total">  212.99  213.10</time>
   <energy>
    <i name="e_fr_energy">  -1153.11911022 </i>
    <i name="e_wo_entrp">  -1153.11911022 </i>
    <i name="e_0_energy">  -1153.11911022 </i>
   </energy>
  </scstep>
  <scstep>
   <time name="diag">   65.12   65.13</time>
   <time name="diis">   74.25   74.26</time>
   <time name="orth">   33.49   33.49</time>
   <time name="total">  180.08  180.14</time>
   <energy>
    <i name="e_fr_energy">  -1153.11902540 </i>
    <i name="e_wo_entrp">  -1153.11902540 </i>
    <i name="e_0_energy">  -1153.11902540 </i>
   </energy>
  </scstep>
  <scstep>
   <time name="diag">   65.05   65.09</time>
   <time name="diis">   64.86   64.85</time>
   <time name="orth">   33.46   33.46</time>
   <time name="total">  170.60  170.71</time>
   <energy>
    <i name="e_fr_energy">  -1153.11902257 </i>
    <i name="e_wo_entrp">  -1153.11902257 </i>
    <i name="e_0_energy">  -1153.11902257 </i>
   </energy>
  </scstep>
  <scstep>
   <time name="diag">   64.91   64.94</time>
   <time name="diis">   64.44   64.45</time>
   <time name="orth">   33.45   33.45</time>
   <time name="total">  170.03  170.16</time>
   <energy>
    <i name="e_fr_energy">  -1153.11901742 </i>
    <i name="e_wo_entrp">  -1153.11901742 </i>
    <i name="e_0_energy">  -1153.11901742 </i>
   </energy>
  </scstep>
  <scstep>
   <time name="diag">   64.91   64.95</time>
   <time name="diis">   63.39   63.44</time>
   <time name="orth">   33.44   33.46</time>
   <time name="total">  162.80  162.92</time>
   <energy>
    <i name="alphaZ">   5640.03362767 </i>
    <i name="ewald"> -61237.45542198 </i>
    <i name="hartreedc"> -15272.70877633 </i>
    <i name="XCdc">   2852.38895878 </i>
    <i name="pawpsdc"> 111530.06757745 </i>
    <i name="pawaedc">-110278.49871349 </i>
    <i name="eentropy">     -0.00000000 </i>
    <i name="bandstr">  -7037.02989845 </i>
    <i name="atom">  72650.08363186 </i>
    <i name="e_fr_energy">  -1153.11901449 </i>
    <i name="e_wo_entrp">  -1153.11901449 </i>
    <i name="e_0_energy">  -1153.11901449 </i>
   </energy>
  </scstep>
  <structure>
   <crystal>
    <varray name="basis" >
     <v>      11.20219648       0.00019490      -0.00025528 </v>
     <v>       0.00019471      11.20189748       0.00019467 </v>
     <v>      -0.00036352       0.00028841      15.96095551 </v>
    </varray>
    <i name="volume">   2002.87417000 </i>
    <varray name="rec_basis" >
     <v>       0.08926821      -0.00000155       0.00000203 </v>
     <v>      -0.00000155       0.08927059      -0.00000161 </v>
     <v>       0.00000143      -0.00000109       0.06265289 </v>
    </varray>
   </crystal>
   <varray name="positions" >
    <v>       0.00433988       0.24711937       0.12586412 </v>
    <v>       0.00088620       0.24858122       0.62507671 </v>
    <v>       0.00094814       0.75196496       0.12597645 </v>
    <v>       0.99581055       0.75069306       0.62339652 </v>
    <v>       0.49397139       0.24965599       0.12458264 </v>
    <v>       0.49917323       0.25077880       0.62516819 </v>
    <v>       0.49957783       0.75031687       0.12510303 </v>
    <v>       0.50411730       0.74986427       0.62364727 </v>
    <v>       0.00007053       0.24833000       0.37236745 </v>
    <v>       0.99914033       0.24893425       0.87747617 </v>
    <v>       0.99901088       0.75319249       0.37161267 </v>
    <v>       0.99212646       0.75055357       0.87777633 </v>
    <v>       0.49928845       0.24982566       0.37345028 </v>
    <v>       0.50074802       0.25024336       0.87716119 </v>
    <v>       0.50148177       0.74913885       0.37236859 </v>
    <v>       0.50811076       0.74987200       0.87777172 </v>
    <v>       0.24790932       0.99952951       0.12573376 </v>
    <v>       0.24952789       0.00399382       0.62348636 </v>
    <v>       0.24991853       0.50064570       0.12505680 </v>
    <v>       0.25000859       0.49587801       0.62365023 </v>
    <v>       0.75321234       0.99468125       0.12527713 </v>
    <v>       0.74971896       0.99934030       0.62494343 </v>
    <v>       0.74971287       0.50632192       0.12456418 </v>
    <v>       0.75097638       0.50071831       0.62515073 </v>
    <v>       0.24820849       0.00090699       0.37184093 </v>
    <v>       0.24969873       0.00750008       0.87776670 </v>
    <v>       0.24938003       0.49899181       0.37248840 </v>
    <v>       0.24963695       0.49210056       0.87773408 </v>
    <v>       0.75256185       0.00012534       0.37165816 </v>
    <v>       0.75050617       0.00096296       0.87727041 </v>
    <v>       0.75012699       0.50069905       0.37322539 </v>
    <v>       0.75018792       0.49911097       0.87715957 </v>
    <v>       0.00034125       0.99966666       0.00100241 </v>
    <v>       0.99995823       0.00007753       0.49811880 </v>
    <v>      -0.00004399       0.49991326       0.00040651 </v>
    <v>       0.00005494       0.50006257       0.49954058 </v>
    <v>       0.50008339       0.99999322       0.00035093 </v>
    <v>       0.49995191       0.99991799       0.49946731 </v>
    <v>       0.49982893       0.50000859       0.00011574 </v>
    <v>       0.50015965       0.49995082       0.49971695 </v>
    <v>       0.24975409       0.24988018       0.00040535 </v>
    <v>       0.24988267       0.24999352       0.49933712 </v>
    <v>       0.25003769       0.74996669       0.49483844 </v>
    <v>       0.74999467       0.24996835       0.50172875 </v>
    <v>       0.75013111       0.75008132       0.00026015 </v>
    <v>       0.74995644       0.75010295       0.49931393 </v>
    <v>       0.24847571       0.24884410       0.25001302 </v>
    <v>       0.24999889       0.24991901       0.75013430 </v>
    <v>       0.24915890       0.75153458       0.25017304 </v>
    <v>       0.25016878       0.74992186       0.74211190 </v>
    <v>       0.74994094       0.24988004       0.74770070 </v>
    <v>       0.75138077       0.75141644       0.24996743 </v>
    <v>       0.75007561       0.74998505       0.75014856 </v>
    <v>       0.99899771       0.00015749       0.75130614 </v>
    <v>       0.99892393       0.49920747       0.24844176 </v>
    <v>       0.99969287       0.49888104       0.75152021 </v>
    <v>       0.50089587       0.00141966       0.24850527 </v>
    <v>       0.50031410       0.00103123       0.75149282 </v>
    <v>       0.50071480       0.49888914       0.24833759 </v>
    <v>       0.50108028       0.49967254       0.75152844 </v>
    <v>       0.25009922       0.74987236       0.00749068 </v>
    <v>       0.74982823       0.25000384       0.99179501 </v>
    <v>       0.75031387       0.24976714       0.25817301 </v>
    <v>       0.99905123       0.00145667       0.24802794 </v>
    <v>       0.11387668       0.13928406       0.25014072 </v>
    <v>       0.11103047       0.13894832       0.75035645 </v>
    <v>       0.11187638       0.63827074       0.25363939 </v>
    <v>       0.11578972       0.64053348       0.76380764 </v>
    <v>       0.61299091       0.13775324       0.23932146 </v>
    <v>       0.60922144       0.14053961       0.74617593 </v>
    <v>       0.61246168       0.63700853       0.24963113 </v>
    <v>       0.61024970       0.63977212       0.75004146 </v>
    <v>       0.38816586       0.36176009       0.24990584 </v>
    <v>       0.38936155       0.36132767       0.75042285 </v>
    <v>       0.38896801       0.86064422       0.25352043 </v>
    <v>       0.38453993       0.85931520       0.76384650 </v>
    <v>       0.88515275       0.36432744       0.23865316 </v>
    <v>       0.89067448       0.35940308       0.74614985 </v>
    <v>       0.88558004       0.86180774       0.24980305 </v>
    <v>       0.88947356       0.85989358       0.74997462 </v>
    <v>       0.36199395       0.11175795       0.25018011 </v>
    <v>       0.36025229       0.11043244       0.75016505 </v>
    <v>       0.36170533       0.61086267       0.25372390 </v>
    <v>       0.35952071       0.61559992       0.76397927 </v>
    <v>       0.85988754       0.11825870       0.23635169 </v>
    <v>       0.85928406       0.10950983       0.74626214 </v>
    <v>       0.86233640       0.61285549       0.25030078 </v>
    <v>       0.86127016       0.61052636       0.75063165 </v>
    <v>       0.13812520       0.38837094       0.24956680 </v>
    <v>       0.13990783       0.38979040       0.74988812 </v>
    <v>       0.13979475       0.88659327       0.25268225 </v>
    <v>       0.14093533       0.88415535       0.76318281 </v>
    <v>       0.63785480       0.38459305       0.23726538 </v>
    <v>       0.64049243       0.39080373       0.74603249 </v>
    <v>       0.63702623       0.88740684       0.24964216 </v>
    <v>       0.63882933       0.88925773       0.75032271 </v>
    <v>       0.36365959       0.38583291       0.99999775 </v>
    <v>       0.35910303       0.39124615       0.49963439 </v>
    <v>       0.36422672       0.88329856       0.98689392 </v>
    <v>       0.35831684       0.89096598       0.49884874 </v>
    <v>       0.86282025       0.38396368       0.01251220 </v>
    <v>       0.85949740       0.39145101       0.50309719 </v>
    <v>       0.86380843       0.88505307       0.99853783 </v>
    <v>       0.85888948       0.89049166       0.50135419 </v>
    <v>       0.13674026       0.11460903       0.99931017 </v>
    <v>       0.14127578       0.10920001       0.49993626 </v>
    <v>       0.13632952       0.61609841       0.98700914 </v>
    <v>       0.14180532       0.60889338       0.49911548 </v>
    <v>       0.63691990       0.11613242       0.01285769 </v>
    <v>       0.64041676       0.10865195       0.50261359 </v>
    <v>       0.63598681       0.61417117       0.99910624 </v>
    <v>       0.64089301       0.60896318       0.50122723 </v>
    <v>       0.11399316       0.36355353       0.99980316 </v>
    <v>       0.10918774       0.35919158       0.50115714 </v>
    <v>       0.11756399       0.86321406       0.98595637 </v>
    <v>       0.10938570       0.85816131       0.49923072 </v>
    <v>       0.61574033       0.36312365       0.01238854 </v>
    <v>       0.60864152       0.35955251       0.50331848 </v>
    <v>       0.61450064       0.86389196       0.00011653 </v>
    <v>       0.60864385       0.85869448       0.49993793 </v>
    <v>       0.38595749       0.13648391       0.99895621 </v>
    <v>       0.39092766       0.14086994       0.50118634 </v>
    <v>       0.38336331       0.63612265       0.98634423 </v>
    <v>       0.39124119       0.64150677       0.49867728 </v>
    <v>       0.88385594       0.13695077       0.01072901 </v>
    <v>       0.89091443       0.14075445       0.50347970 </v>
    <v>       0.88546561       0.63595710       0.99996144 </v>
    <v>       0.89111747       0.64104266       0.49919974 </v>
    <v>       0.00983022       0.98917074       0.12204092 </v>
    <v>       0.00719583       0.99476004       0.62678101 </v>
    <v>       0.01052096       0.51055982       0.12410192 </v>
    <v>       0.00513259       0.50750766       0.62655153 </v>
    <v>       0.48840076       0.99062819       0.12409068 </v>
    <v>       0.49469613       0.99276164       0.62652103 </v>
    <v>       0.48999215       0.51111684       0.12372208 </v>
    <v>       0.49247695       0.50547266       0.62659208 </v>
    <v>       0.99430683       0.00405410       0.37610580 </v>
    <v>       0.99046417       0.00997638       0.87482710 </v>
    <v>       0.99629575       0.49396345       0.37470555 </v>
    <v>       0.98967384       0.48960075       0.87555370 </v>
    <v>       0.50387310       0.00540773       0.37470874 </v>
    <v>       0.51090987       0.01006409       0.87552740 </v>
    <v>       0.50654969       0.49530098       0.37468148 </v>
    <v>       0.51018732       0.48915440       0.87543037 </v>
    <v>       0.25053176       0.25067031       0.37557933 </v>
    <v>       0.25007397       0.25067625       0.87477105 </v>
    <v>       0.25019101       0.74959891       0.37587672 </v>
    <v>       0.74986613       0.25080305       0.37728833 </v>
    <v>       0.74920803       0.25035034       0.87256200 </v>
    <v>       0.74890225       0.74980919       0.37548077 </v>
    <v>       0.74962273       0.74957380       0.87472883 </v>
    <v>       0.25083709       0.25000935       0.12466318 </v>
    <v>       0.25036089       0.25036617       0.62507187 </v>
    <v>       0.25093025       0.74886624       0.12622727 </v>
    <v>       0.25075798       0.74946413       0.62637007 </v>
    <v>       0.74952201       0.24998282       0.62445213 </v>
    <v>       0.74953996       0.74942693       0.12462183 </v>
    <v>       0.75003473       0.74943079       0.62502625 </v>
   </varray>
  </structure>
  <varray name="forces" >
   <v>       0.00216332      -0.00589934      -0.00371764 </v>
   <v>      -0.00038501       0.00701142      -0.00821832 </v>
   <v>       0.01353023       0.00519665       0.01056952 </v>
   <v>      -0.01742754      -0.00586358      -0.01962804 </v>
   <v>      -0.00893812       0.00405853      -0.01189779 </v>
   <v>      -0.00774420      -0.00033575      -0.00429390 </v>
   <v>      -0.01302476      -0.00918267       0.01796974 </v>
   <v>       0.02332936       0.00753827      -0.01055584 </v>
   <v>      -0.00715612      -0.00215775       0.01332001 </v>
   <v>      -0.00551562      -0.00027006      -0.00113794 </v>
   <v>       0.01093623       0.00484560      -0.00386476 </v>
   <v>       0.02465566      -0.00365974      -0.00333736 </v>
   <v>       0.00449782      -0.01041987       0.01147994 </v>
   <v>       0.00188414       0.00853850       0.00059611 </v>
   <v>      -0.01643330       0.00615519      -0.00458244 </v>
   <v>      -0.01989821      -0.00139089      -0.00651935 </v>
   <v>      -0.00275020      -0.01245298       0.00911813 </v>
   <v>      -0.00781390       0.01982873      -0.01492882 </v>
   <v>      -0.00077969       0.01748677       0.00892610 </v>
   <v>       0.00028142      -0.02574400      -0.00899621 </v>
   <v>       0.00179237      -0.00413076       0.00783466 </v>
   <v>      -0.00216109      -0.00319125      -0.01418564 </v>
   <v>      -0.00841010       0.00257815      -0.00513125 </v>
   <v>       0.00515704       0.00739708      -0.00040841 </v>
   <v>      -0.00466208      -0.01150833      -0.00074430 </v>
   <v>       0.00214330      -0.01567323      -0.00038097 </v>
   <v>       0.00269385       0.01387747      -0.00303766 </v>
   <v>      -0.00700315       0.01231496      -0.00651166 </v>
   <v>       0.01531656       0.00782739       0.00935159 </v>
   <v>      -0.01933565       0.01107186      -0.00027365 </v>
   <v>      -0.01472000      -0.00317686       0.01375323 </v>
   <v>       0.01771567      -0.01133038       0.00090662 </v>
   <v>       0.02349811      -0.00189656       0.04682862 </v>
   <v>      -0.02542408      -0.00189232      -0.00795415 </v>
   <v>       0.02343289       0.00516479       0.03157913 </v>
   <v>       0.00344041       0.00244944      -0.00940432 </v>
   <v>      -0.02224100      -0.00621815       0.04535762 </v>
   <v>       0.00199527      -0.01246998      -0.01455982 </v>
   <v>      -0.04052926       0.01126526       0.05521406 </v>
   <v>      -0.00685387       0.00446614      -0.03423263 </v>
   <v>       0.01651042       0.02854678       0.03676329 </v>
   <v>       0.00570547       0.00319578       0.01197576 </v>
   <v>       0.00453382       0.00281815      -0.07467688 </v>
   <v>       0.01888937      -0.01829023      -0.03684879 </v>
   <v>      -0.00427071      -0.01116961       0.10698951 </v>
   <v>       0.01168994       0.02383278      -0.00191570 </v>
   <v>       0.01146864       0.01049061      -0.01675372 </v>
   <v>      -0.01075977       0.03458458      -0.05393355 </v>
   <v>       0.00401048      -0.00992125       0.04011615 </v>
   <v>      -0.00098016      -0.02391000      -0.01155800 </v>
   <v>       0.00064691       0.00809106      -0.03235465 </v>
   <v>      -0.00862440      -0.00435674      -0.02083106 </v>
   <v>      -0.01635295      -0.01213753      -0.08801958 </v>
   <v>       0.04006169      -0.01730787      -0.03576048 </v>
   <v>       0.00473018       0.01602045      -0.00005066 </v>
   <v>       0.04673159       0.01604943      -0.01551646 </v>
   <v>       0.00873044      -0.02756216       0.00352720 </v>
   <v>      -0.01745784      -0.03349297      -0.01642149 </v>
[...]
       <r>   -15.7832     0.0000    32.0000 </r>
       <r>   -15.6315     0.0000    32.0000 </r>
       <r>   -15.4798     0.0000    32.0000 </r>
       <r>   -15.3281     0.0000    32.0000 </r>
       <r>   -15.1764     0.5804    32.0880 </r>
       <r>   -15.0247    19.9882    35.1202 </r>
       <r>   -14.8730    49.1780    42.5803 </r>
       <r>   -14.7213    49.1615    50.0379 </r>
       <r>   -14.5696    33.4304    55.1092 </r>
       <r>   -14.4179    28.6797    59.4598 </r>
       <r>   -14.2662    32.5990    64.4050 </r>
       <r>   -14.1145    93.3924    78.5722 </r>
       <r>   -13.9628   148.6504   101.1220 </r>
       <r>   -13.8111   113.0869   118.2768 </r>
       <r>   -13.6595    31.2363   123.0152 </r>
       <r>   -13.5078    14.2964   125.1840 </r>
       <r>   -13.3561     5.3777   125.9997 </r>
       <r>   -13.2044     0.0017   126.0000 </r>
       <r>   -13.0527     0.0000   126.0000 </r>
       <r>   -12.9010     0.0000   126.0000 </r>
       <r>   -12.7493     0.0190   126.0029 </r>
       <r>   -12.5976    19.3388   128.9365 </r>
       <r>   -12.4459   115.6688   146.4830 </r>
       <r>   -12.2942   170.9157   172.4103 </r>
       <r>   -12.1425   131.1315   192.3025 </r>
       <r>   -11.9908   122.2573   210.8484 </r>
       <r>   -11.8391    66.2512   220.8985 </r>
       <r>   -11.6874     7.2593   221.9997 </r>
       <r>   -11.5357     0.0019   222.0000 </r>
       <r>   -11.3840     0.0000   222.0000 </r>
       <r>   -11.2323     0.0000   222.0000 </r>
       <r>   -11.0806     0.0000   222.0000 </r>
       <r>   -10.9289     0.0000   222.0000 </r>
       <r>   -10.7772     0.0000   222.0000 </r>
       <r>   -10.6255     0.0000   222.0000 </r>
       <r>   -10.4738     0.0000   222.0000 </r>
       <r>   -10.3221     0.0000   222.0000 </r>
       <r>   -10.1704     0.0000   222.0000 </r>
       <r>   -10.0187     0.0000   222.0000 </r>
       <r>    -9.8670     0.0000   222.0000 </r>
       <r>    -9.7153     0.0000   222.0000 </r>
       <r>    -9.5637     0.0000   222.0000 </r>
       <r>    -9.4120     0.0000   222.0000 </r>
       <r>    -9.2603     0.0000   222.0000 </r>
       <r>    -9.1086     0.0000   222.0000 </r>
       <r>    -8.9569     0.0000   222.0000 </r>
       <r>    -8.8052     0.0000   222.0000 </r>
       <r>    -8.6535     0.0000   222.0000 </r>
       <r>    -8.5018     0.0000   222.0000 </r>
       <r>    -8.3501     0.0000   222.0000 </r>
       <r>    -8.1984     0.0000   222.0000 </r>
       <r>    -8.0467     0.0000   222.0000 </r>
       <r>    -7.8950     0.0000   222.0000 </r>
       <r>    -7.7433     0.0000   222.0000 </r>
       <r>    -7.5916     0.0000   222.0000 </r>
       <r>    -7.4399     0.0000   222.0000 </r>
       <r>    -7.2882     0.0000   222.0000 </r>
       <r>    -7.1365     0.0000   222.0000 </r>
       <r>    -6.9848     0.0000   222.0000 </r>
       <r>    -6.8331     0.0000   222.0000 </r>
       <r>    -6.6814     0.0000   222.0000 </r>
       <r>    -6.5297     0.0000   222.0000 </r>
       <r>    -6.3780     0.0000   222.0000 </r>
       <r>    -6.2263     0.0000   222.0000 </r>
       <r>    -6.0746     0.0000   222.0000 </r>
       <r>    -5.9229     0.0000   222.0000 </r>
       <r>    -5.7712     0.0000   222.0000 </r>
       <r>    -5.6195     0.0000   222.0000 </r>
       <r>    -5.4679     0.0000   222.0000 </r>
       <r>    -5.3162     0.0000   222.0000 </r>
       <r>    -5.1645     0.0000   222.0000 </r>
       <r>    -5.0128     0.0000   222.0000 </r>
       <r>    -4.8611     0.0000   222.0000 </r>
       <r>    -4.7094     0.0000   222.0000 </r>
       <r>    -4.5577     0.0000   222.0000 </r>
       <r>    -4.4060     0.0000   222.0000 </r>
       <r>    -4.2543     0.0000   222.0000 </r>
       <r>    -4.1026     0.0000   222.0000 </r>
       <r>    -3.9509     0.0000   222.0000 </r>
       <r>    -3.7992     0.0000   222.0000 </r>
       <r>    -3.6475     0.0000   222.0000 </r>
       <r>    -3.4958     0.0000   222.0000 </r>
       <r>    -3.3441     0.0000   222.0000 </r>
       <r>    -3.1924     0.0000   222.0000 </r>
       <r>    -3.0407     0.0000   222.0000 </r>
       <r>    -2.8890     0.0000   222.0000 </r>
       <r>    -2.7373     0.0000   222.0000 </r>
       <r>    -2.5856     0.0000   222.0000 </r>
       <r>    -2.4339     0.0000   222.0000 </r>
       <r>    -2.2822     0.6557   222.0995 </r>
       <r>    -2.1305    15.6419   224.4723 </r>
       <r>    -1.9788    33.2054   229.5094 </r>
       <r>    -1.8271    46.4628   236.5577 </r>
       <r>    -1.6754    61.9286   245.9520 </r>
       <r>    -1.5237    56.0009   254.4471 </r>
       <r>    -1.3721    52.5370   262.4168 </r>
       <r>    -1.2204    67.1350   272.6009 </r>
       <r>    -1.0687    71.1519   283.3944 </r>
       <r>    -0.9170    75.9626   294.9176 </r>
       <r>    -0.7653    74.7256   306.2532 </r>
       <r>    -0.6136    99.6181   321.3649 </r>
       <r>    -0.4619   129.6458   341.0317 </r>
       <r>    -0.3102    87.2678   354.2699 </r>
       <r>    -0.1585    48.2080   361.5829 </r>
       <r>    -0.0068    48.0514   368.8721 </r>
       <r>     0.1449    40.1450   374.9619 </r>
       <r>     0.2966    45.0868   381.8014 </r>
       <r>     0.4483    50.8866   389.5208 </r>
       <r>     0.6000    60.6279   398.7178 </r>
       <r>     0.7517    47.3488   405.9004 </r>
       <r>     0.9034    45.0270   412.7308 </r>
       <r>     1.0551    63.5074   422.3647 </r>
       <r>     1.2068    75.6162   433.8354 </r>
       <r>     1.3585    87.7027   447.1395 </r>
       <r>     1.5102    98.7099   462.1135 </r>
       <r>     1.6619    85.2659   475.0480 </r>
       <r>     1.8136    68.5713   485.4500 </r>
       <r>     1.9653    50.3517   493.0882 </r>
       <r>     2.1170    49.0759   500.5328 </r>
       <r>     2.2687    14.4956   502.7317 </r>
       <r>     2.4204     8.3594   503.9998 </r>
       <r>     2.5721     0.0012   504.0000 </r>
       <r>     2.7237     0.0000   504.0000 </r>
       <r>     2.8754     0.0000   504.0000 </r>
       <r>     3.0271     0.0000   504.0000 </r>
       <r>     3.1788     0.0000   504.0000 </r>
       <r>     3.3305     0.0000   504.0000 </r>
       <r>     3.4822     0.0000   504.0000 </r>
       <r>     3.6339     0.0000   504.0000 </r>
       <r>     3.7856     0.0000   504.0000 </r>
       <r>     3.9373     0.0000   504.0000 </r>
       <r>     4.0890     0.0000   504.0000 </r>
       <r>     4.2407     0.0000   504.0000 </r>
       <r>     4.3924     0.0106   504.0016 </r>
       <r>     4.5441    11.1928   505.6995 </r>
       <r>     4.6958    26.5864   509.7326 </r>
       <r>     4.8475    44.2858   516.4506 </r>
       <r>     4.9992    22.6926   519.8929 </r>
       <r>     5.1509    30.1426   524.4655 </r>
       <r>     5.3026    44.9759   531.2881 </r>
       <r>     5.4543    62.9509   540.8376 </r>
       <r>     5.6060    54.6355   549.1256 </r>
       <r>     5.7577    63.7145   558.7908 </r>
       <r>     5.9094    96.0786   573.3656 </r>
       <r>     6.0611   103.4332   589.0560 </r>
       <r>     6.2128    78.8141   601.0118 </r>
       <r>     6.3645    50.0795   608.6087 </r>
       <r>     6.5162    43.8739   615.2642 </r>
       <r>     6.6679    23.1257   618.7723 </r>
       <r>     6.8195    19.1430   621.6762 </r>
       <r>     6.9712    27.2388   625.8082 </r>
       <r>     7.1229    20.8183   628.9663 </r>
       <r>     7.2746    16.0561   631.4019 </r>
       <r>     7.4263    16.2947   633.8738 </r>
       <r>     7.5780    12.6127   635.7871 </r>
       <r>     7.7297    10.9780   637.4524 </r>
       <r>     7.8814    15.6486   639.8262 </r>
       <r>     8.0331    28.1935   644.1031 </r>
       <r>     8.1848    26.7573   648.1621 </r>
       <r>     8.3365    17.6247   650.8357 </r>
       <r>     8.4882    27.6376   655.0282 </r>
       <r>     8.6399    23.0520   658.5251 </r>
       <r>     8.7916    28.5647   662.8582 </r>
       <r>     8.9433    24.1733   666.5253 </r>
       <r>     9.0950    35.6967   671.9403 </r>
       <r>     9.2467    44.6982   678.7209 </r>
       <r>     9.3984    31.0980   683.4383 </r>
       <r>     9.5501    48.5931   690.8097 </r>
       <r>     9.7018    44.7136   697.5926 </r>
       <r>     9.8535    52.9228   705.6208 </r>
       <r>    10.0052    71.6614   716.4915 </r>
       <r>    10.1569    83.5760   729.1697 </r>
       <r>    10.3086    65.5150   739.1081 </r>
       <r>    10.4603    53.4481   747.2160 </r>
       <r>    10.6120    55.9338   755.7009 </r>
       <r>    10.7637    56.7949   764.3165 </r>
       <r>    10.9153    24.2662   767.9976 </r>
       <r>    11.0670     0.0160   768.0000 </r>
       <r>    11.2187     0.0000   768.0000 </r>
       <r>    11.3704     0.0000   768.0000 </r>
       <r>    11.5221     0.0000   768.0000 </r>
       <r>    11.6738     0.0000   768.0000 </r>
       <r>    11.8255     0.0000   768.0000 </r>
       <r>    11.9772     0.0000   768.0000 </r>
       <r>    12.1289     0.0000   768.0000 </r>
       <r>    12.2806     0.0000   768.0000 </r>
       <r>    12.4323     0.0000   768.0000 </r>
       <r>    12.5840     0.0000   768.0000 </r>
       <r>    12.7357     0.0000   768.0000 </r>
       <r>    12.8874     0.0000   768.0000 </r>
      </set>
     </set>
    </array>
   </total>
  </dos>
 </calculation>
 <structure name="finalpos" >
  <crystal>
   <varray name="basis" >
    <v>      11.20300011       0.00034807      -0.00056541 </v>
    <v>       0.00034788      11.20253355      -0.00005189 </v>
    <v>      -0.00080547      -0.00006273      15.95539619 </v>
   </varray>
   <i name="volume">   2002.43387972 </i>
   <varray name="rec_basis" >
    <v>       0.08926180      -0.00000277       0.00000451 </v>
    <v>      -0.00000277       0.08926552       0.00000035 </v>
    <v>       0.00000316       0.00000029       0.06267472 </v>
   </varray>
  </crystal>
  <varray name="positions" >
   <v>       0.00413888       0.24668080       0.12567251 </v>
   <v>       0.00066984       0.24878545       0.62514506 </v>
   <v>       0.00113154       0.75231917       0.12603231 </v>
   <v>       0.99529033       0.75050676       0.62319683 </v>
   <v>       0.49408048       0.25003603       0.12419949 </v>
   <v>       0.49928135       0.25055173       0.62527430 </v>
   <v>       0.49945100       0.75024957       0.12530865 </v>
   <v>       0.50453037       0.74996612       0.62356751 </v>
   <v>       0.00018334       0.24839732       0.37237431 </v>
   <v>       0.99902006       0.24885071       0.87761166 </v>
   <v>       0.99926579       0.75315763       0.37152857 </v>
   <v>       0.99231647       0.75067412       0.87788674 </v>
   <v>       0.49921782       0.24965381       0.37341668 </v>
   <v>       0.50075734       0.25040528       0.87708995 </v>
   <v>       0.50134309       0.74950297       0.37222144 </v>
   <v>       0.50791939       0.74990187       0.87792463 </v>
   <v>       0.24788723       0.99949535       0.12597770 </v>
   <v>       0.24943577       0.00436577       0.62347337 </v>
   <v>       0.24971111       0.50093243       0.12519867 </v>
   <v>       0.24996030       0.49539118       0.62339654 </v>
   <v>       0.75323255       0.99477892       0.12511596 </v>
   <v>       0.74978512       0.99950994       0.62504843 </v>
   <v>       0.74996265       0.50617246       0.12426865 </v>
   <v>       0.75099256       0.50060910       0.62532474 </v>
   <v>       0.24786209       0.00082329       0.37171780 </v>
   <v>       0.24963499       0.00750481       0.87794368 </v>
   <v>       0.24945320       0.49907093       0.37229933 </v>
   <v>       0.24942436       0.49227285       0.87781854 </v>
   <v>       0.75312517       0.00010295       0.37168279 </v>
   <v>       0.75026666       0.00104906       0.87737872 </v>
   <v>       0.74987107       0.50060320       0.37345205 </v>
   <v>       0.75041578       0.49915127       0.87727056 </v>
   <v>       0.00038438       0.99959031       0.00113209 </v>
   <v>      -0.00010149       0.00005740       0.49820689 </v>
   <v>       0.00013807       0.49999068       0.00052976 </v>
   <v>       0.00012053       0.50005032       0.49946373 </v>
   <v>       0.49991614      -0.00000326       0.00042736 </v>
   <v>       0.49997946       0.99984805       0.49932403 </v>
   <v>       0.49977894       0.50016941       0.00019354 </v>
   <v>       0.50015861       0.49998506       0.49969024 </v>
   <v>       0.24979733       0.24998661       0.00048716 </v>
   <v>       0.24997544       0.24993079       0.49928244 </v>
   <v>       0.25008382       0.74998383       0.49481930 </v>
   <v>       0.75000135       0.24992812       0.50155393 </v>
   <v>       0.75005893       0.75007760       0.00041805 </v>
   <v>       0.75000196       0.75010614       0.49922583 </v>
   <v>       0.24847973       0.24881743       0.24997659 </v>
   <v>       0.24997207       0.25001793       0.75008424 </v>
   <v>       0.24924304       0.75145722       0.25021588 </v>
   <v>       0.25017278       0.74985927       0.74206358 </v>
   <v>       0.74990558       0.25001014       0.74772110 </v>
   <v>       0.75144263       0.75125863       0.24992383 </v>
   <v>       0.75003371       0.74997805       0.75009122 </v>
   <v>       0.99903912       0.00004197       0.75137570 </v>
   <v>       0.99875363       0.49923257       0.24844301 </v>
   <v>      -0.00005723       0.49899063       0.75154784 </v>
   <v>       0.50114720       0.00138425       0.24839185 </v>
   <v>       0.50018259       0.00086794       0.75148805 </v>
   <v>       0.50071487       0.49882045       0.24827930 </v>
   <v>       0.50090096       0.49988471       0.75151142 </v>
   <v>       0.25020172       0.74986334       0.00743106 </v>
   <v>       0.74979365       0.25009395       0.99192422 </v>
   <v>       0.75023608       0.24982123       0.25816885 </v>
   <v>       0.99909248       0.00140097       0.24807988 </v>
   <v>       0.11439631       0.13870969       0.25027214 </v>
   <v>       0.11146539       0.13832245       0.75041146 </v>
   <v>       0.11213848       0.63796119       0.25352809 </v>
   <v>       0.11611075       0.64018333       0.76403099 </v>
   <v>       0.61333902       0.13745540       0.23917402 </v>
   <v>       0.60960923       0.14025808       0.74629428 </v>
   <v>       0.61276145       0.63653084       0.24969353 </v>
   <v>       0.61088032       0.63921645       0.75001683 </v>
   <v>       0.38743427       0.36232169       0.24996457 </v>
   <v>       0.38882318       0.36194788       0.75041142 </v>
   <v>       0.38855741       0.86114368       0.25328306 </v>
   <v>       0.38421920       0.85959134       0.76389428 </v>
   <v>       0.88473591       0.36460680       0.23850906 </v>
   <v>       0.89022886       0.35980095       0.74617589 </v>
   <v>       0.88526672       0.86218386       0.24989183 </v>
   <v>       0.88887439       0.86043482       0.75002361 </v>
   <v>       0.36256627       0.11224428       0.25055974 </v>
   <v>       0.36073662       0.11090314       0.75056374 </v>
   <v>       0.36207595       0.61134611       0.25376510 </v>
   <v>       0.35978232       0.61589374       0.76408342 </v>
   <v>       0.86031724       0.11860928       0.23648040 </v>
   <v>       0.85955768       0.10993022       0.74656531 </v>
   <v>       0.86257115       0.61307407       0.25070552 </v>
   <v>       0.86195069       0.61113439       0.75100650 </v>
   <v>       0.13749528       0.38793224       0.24929625 </v>
   <v>       0.13939920       0.38921477       0.74946255 </v>
   <v>       0.13953206       0.88617318       0.25238091 </v>
   <v>       0.14060541       0.88375926       0.76336622 </v>
   <v>       0.63739238       0.38410593       0.23688356 </v>
   <v>       0.64015485       0.39029242       0.74602791 </v>
   <v>       0.63675999       0.88691985       0.24926547 </v>
   <v>       0.63813629       0.88874704       0.74997218 </v>
   <v>       0.36574528       0.38390747      -0.00000977 </v>
   <v>       0.35921727       0.39114878       0.49970957 </v>
   <v>       0.36555989       0.88186340       0.98661992 </v>
   <v>       0.35820202       0.89109583       0.49895390 </v>
   <v>       0.86468418       0.38201997       0.01281050 </v>
   <v>       0.85938889       0.39161872       0.50290052 </v>
   <v>       0.86552057       0.88325609       0.99879080 </v>
   <v>       0.85889191       0.89050420       0.50127326 </v>
   <v>       0.13466627       0.11654531       0.99921369 </v>
   <v>       0.14119768       0.10928914       0.50002585 </v>
   <v>       0.13500146       0.61763366       0.98678452 </v>
   <v>       0.14187871       0.60875840       0.49909232 </v>
   <v>       0.63532535       0.11795667       0.01310722 </v>
   <v>       0.64052655       0.10854186       0.50243608 </v>
   <v>       0.63416520       0.61610635       0.99929486 </v>
   <v>       0.64086441       0.60889260       0.50110807 </v>
   <v>       0.11612742       0.36563005       0.00027928 </v>
   <v>       0.10921866       0.35927762       0.50132553 </v>
   <v>       0.11890363       0.86459388       0.98618795 </v>
   <v>       0.10931557       0.85802521       0.49962554 </v>
   <v>       0.61767349       0.36498800       0.01251262 </v>
   <v>       0.60851336       0.35941522       0.50322797 </v>
   <v>       0.61621850       0.86572820       0.00048763 </v>
   <v>       0.60865801       0.85873186       0.50013517 </v>
   <v>       0.38412886       0.13466344       0.99869363 </v>
   <v>       0.39094954       0.14076026       0.50073872 </v>
   <v>       0.38192005       0.63476556       0.98597882 </v>
   <v>       0.39134241       0.64155435       0.49864711 </v>
   <v>       0.88213684       0.13521392       0.01082309 </v>
   <v>       0.89104286       0.14087558       0.50286427 </v>
   <v>       0.88350884       0.63398575      -0.00058472 </v>
   <v>       0.89107798       0.64095588       0.49896347 </v>
   <v>       0.00983116       0.98949663       0.12210008 </v>
   <v>       0.00656626       0.99482550       0.62689407 </v>
   <v>       0.01004052       0.51140830       0.12409019 </v>
   <v>       0.00489600       0.50754069       0.62656004 </v>
   <v>       0.48811387       0.99077234       0.12403452 </v>
   <v>       0.49439235       0.99348470       0.62654715 </v>
   <v>       0.48948809       0.51116968       0.12370957 </v>
   <v>       0.49276786       0.50564428       0.62654982 </v>
   <v>       0.99503457       0.00350786       0.37616307 </v>
   <v>       0.99037463       0.00959868       0.87490842 </v>
   <v>       0.99649027       0.49398400       0.37470401 </v>
   <v>       0.99020528       0.48887561       0.87556359 </v>
   <v>       0.50431688       0.00446836       0.37464684 </v>
   <v>       0.51117789       0.00989907       0.87554115 </v>
   <v>       0.50630026       0.49506465       0.37468522 </v>
   <v>       0.51044559       0.48931990       0.87539602 </v>
   <v>       0.25023008       0.25101426       0.37558412 </v>
   <v>       0.24970425       0.25108849       0.87476528 </v>
   <v>       0.25011300       0.74984629       0.37587505 </v>
   <v>       0.74956167       0.25098031       0.37718464 </v>
   <v>       0.74925099       0.25065225       0.87262329 </v>
   <v>       0.74867593       0.75002040       0.37549040 </v>
   <v>       0.74914373       0.75006843       0.87475906 </v>
   <v>       0.25104075       0.24944855       0.12474722 </v>
   <v>       0.25078205       0.24990754       0.62504169 </v>
   <v>       0.25132312       0.74850331       0.12609731 </v>
   <v>       0.25084133       0.74930224       0.62632537 </v>
   <v>       0.74983859       0.24981287       0.62446657 </v>
   <v>       0.75011104       0.74895368       0.12463555 </v>
   <v>       0.75033030       0.74911500       0.62504335 </v>
  </varray>
 </structure>
</modeling>
