       N       E                     dE             d eps       ncg     rms          rms(c)
DAV:   1    -0.115345594972E+04   -0.11535E+04   -0.34731E-02 12696   0.424E-01    0.248E-02
RMM:   2    -0.115345594919E+04    0.52576E-06   -0.15671E-05  6699   0.671E-03    0.417E-02
RMM:   3    -0.115345594929E+04   -0.99681E-07   -0.43585E-06  5772   0.416E-03    0.378E-03
RMM:   4    -0.115345594927E+04    0.24986E-07   -0.76054E-07  2754   0.187E-03    0.232E-03
RMM:   5    -0.115345594928E+04   -0.10506E-07   -0.45006E-07  2356   0.187E-03    0.272E-03
RMM:   6    -0.115345594924E+04    0.34619E-07   -0.11634E-07  1675   0.163E-03    0.101E-03
RMM:   7    -0.115345594922E+04    0.18583E-07   -0.74502E-08  1420   0.163E-03    0.398E-04
RMM:   8    -0.115345594922E+04    0.67084E-08   -0.16075E-08  1243   0.160E-03
   1 F= -.11534559E+04 E0= -.11534559E+04  d E =-.115346E+04  mag=    20.0000
       N       E                     dE             d eps       ncg     rms          rms(c)
DAV:   1    -0.115345594670E+04    0.25267E-05   -0.14112E-01 12416   0.431E-01    0.165E-01
RMM:   2    -0.115345622845E+04   -0.28175E-03   -0.45879E-03 12283   0.879E-02    0.130E-01
RMM:   3    -0.115345619515E+04    0.33298E-04   -0.18283E-04  8195   0.264E-02    0.765E-02
RMM:   4    -0.115345612629E+04    0.68858E-04   -0.18296E-04  7609   0.160E-02    0.456E-02
RMM:   5    -0.115345611926E+04    0.70292E-05   -0.40598E-05  7001   0.963E-03    0.363E-02
RMM:   6    -0.115345611907E+04    0.18670E-06   -0.17072E-05  6202   0.542E-03    0.175E-02
RMM:   7    -0.115345611934E+04   -0.26991E-06   -0.70699E-06  5528   0.422E-03    0.138E-02
RMM:   8    -0.115345611955E+04   -0.20373E-06   -0.39530E-06  4957   0.290E-03
   2 F= -.11534561E+04 E0= -.11534561E+04  d E =-.170330E-03  mag=    20.0000
       N       E                     dE             d eps       ncg     rms          rms(c)
DAV:   1    -0.115345629033E+04   -0.17099E-03   -0.24182E-02 12560   0.178E-01    0.685E-02
RMM:   2    -0.115345633795E+04   -0.47612E-04   -0.77332E-04 11287   0.360E-02    0.530E-02
RMM:   3    -0.115345633223E+04    0.57209E-05   -0.30302E-05  6562   0.105E-02    0.315E-02
RMM:   4    -0.115345632039E+04    0.11831E-04   -0.29315E-05  6249   0.639E-03    0.168E-02
RMM:   5    -0.115345631907E+04    0.13226E-05   -0.59656E-06  5433   0.369E-03    0.930E-03
RMM:   6    -0.115345631903E+04    0.41648E-07   -0.13054E-06  3407   0.220E-03    0.545E-03
RMM:   7    -0.115345631906E+04   -0.25801E-07   -0.37825E-07  2187   0.195E-03    0.332E-03
RMM:   8    -0.115345631907E+04   -0.15512E-07   -0.13711E-07  1727   0.183E-03
   3 F= -.11534563E+04 E0= -.11534563E+04  d E =-.369854E-03  mag=    20.0000
