<?xml version="1.0" encoding="ISO-8859-1"?>
<modeling>
 <generator>
  <i name="program" type="string">vasp </i>
  <i name="version" type="string">5.4.1  </i>
  <i name="subversion" type="string">05Feb16 (build Jan 25 2017 20:16:33) complex                          parallel </i>
  <i name="platform" type="string">BWXE6 </i>
  <i name="date" type="string">2019 07 18 </i>
  <i name="time" type="string">00:05:22 </i>
 </generator>
 <incar>
  <i type="string" name="SYSTEM"> STF</i>
  <i type="string" name="PREC">normal</i>
  <i type="string" name="ALGO"> Fast</i>
  <i type="int" name="ISPIN">     2</i>
  <i type="int" name="NELM">    40</i>
  <i type="int" name="NELMIN">     8</i>
  <i type="int" name="IBRION">     2</i>
  <i name="EDIFF">      0.00010000</i>
  <i name="EDIFFG">     -0.03000000</i>
  <i type="int" name="NSW">    30</i>
  <i type="int" name="ISIF">     3</i>
  <i name="ENCUT">    520.00000000</i>
  <i type="int" name="NBANDS">   768</i>
  <v name="MAGMOM">      0.60000000      0.60000000      0.60000000      0.60000000      0.60000000      0.60000000      0.60000000      0.60000000      0.60000000      0.60000000      0.60000000      0.60000000      0.60000000      0.60000000      0.60000000      0.60000000      0.60000000      0.60000000      0.60000000      0.60000000
      0.60000000      0.60000000      0.60000000      0.60000000      0.60000000      0.60000000      0.60000000      0.60000000      0.60000000      0.60000000      0.60000000      0.60000000      0.60000000      0.60000000      0.60000000      0.60000000      0.60000000      0.60000000      0.60000000      0.60000000
      0.60000000      0.60000000      0.60000000      0.60000000      0.60000000      0.60000000      0.60000000      0.60000000      0.60000000      0.60000000      0.60000000      0.60000000      5.00000000      5.00000000      5.00000000      5.00000000      5.00000000      5.00000000      5.00000000      5.00000000
      5.00000000      5.00000000      5.00000000      5.00000000      0.60000000      0.60000000      0.60000000      0.60000000      0.60000000      0.60000000      0.60000000      0.60000000      0.60000000      0.60000000      0.60000000      0.60000000      0.60000000      0.60000000      0.60000000      0.60000000
      0.60000000      0.60000000      0.60000000      0.60000000      0.60000000      0.60000000      0.60000000      0.60000000      0.60000000      0.60000000      0.60000000      0.60000000      0.60000000      0.60000000      0.60000000      0.60000000      0.60000000      0.60000000      0.60000000      0.60000000
      0.60000000      0.60000000      0.60000000      0.60000000      0.60000000      0.60000000      0.60000000      0.60000000      0.60000000      0.60000000      0.60000000      0.60000000      0.60000000      0.60000000      0.60000000      0.60000000      0.60000000      0.60000000      0.60000000      0.60000000
      0.60000000      0.60000000      0.60000000      0.60000000      0.60000000      0.60000000      0.60000000      0.60000000      0.60000000      0.60000000      0.60000000      0.60000000      0.60000000      0.60000000      0.60000000      0.60000000      0.60000000      0.60000000      0.60000000      0.60000000
      0.60000000      0.60000000      0.60000000      0.60000000      0.60000000      0.60000000      0.60000000      0.60000000      0.60000000      0.60000000      0.60000000      0.60000000      0.60000000      0.60000000</v>
  <i type="string" name="LREAL"> Auto</i>
  <i type="int" name="ISMEAR">     0</i>
  <i name="SIGMA">      0.05000000</i>
  <i type="int" name="LMAXMIX">     4</i>
  <v type="int" name="KPOINT_BSE">    -1     0     0     0</v>
  <i type="int" name="NELM">    40</i>
  <i type="logical" name="LDAU"> T  </i>
  <v type="int" name="LDAUTYPE">     2</v>
  <v type="int" name="LDAUL">     0     2     2     0</v>
  <v name="LDAUU">      0.00000000      3.00000000      5.00000000      0.00000000</v>
  <v name="LDAUJ">      0.00000000      0.00000000      0.00000000      0.00000000</v>
  <i type="int" name="LDAUPRINT">     1</i>
 </incar>
 <kpoints>
  <generation param="Monkhorst-Pack">
   <v type="int" name="divisions">       2        2        2 </v>
   <v name="usershift">      0.00000000       0.00000000       0.00000000 </v>
   <v name="genvec1">      0.50000000      -0.00000000       0.00000000 </v>
   <v name="genvec2">     -0.00000000       0.50000000       0.00000000 </v>
   <v name="genvec3">     -0.00000000      -0.00000000       0.50000000 </v>
   <v name="shift">      0.50000000       0.50000000       0.50000000 </v>
  </generation>
  <varray name="kpointlist" >
   <v>       0.25000000       0.25000000       0.25000000 </v>
   <v>      -0.25000000       0.25000000       0.25000000 </v>
   <v>       0.25000000      -0.25000000       0.25000000 </v>
   <v>      -0.25000000      -0.25000000       0.25000000 </v>
  </varray>
  <varray name="weights" >
   <v>       0.25000000 </v>
   <v>       0.25000000 </v>
   <v>       0.25000000 </v>
   <v>       0.25000000 </v>
  </varray>
 </kpoints>
 <parameters>
  <separator name="general" >
   <i type="string" name="SYSTEM">STF</i>
   <i type="logical" name="LCOMPAT"> F  </i>
  </separator>
  <separator name="electronic" >
   <i type="string" name="PREC">normal</i>
   <i name="ENMAX">    520.00000000</i>
   <i name="ENAUG">    605.39200000</i>
   <i name="EDIFF">      0.00010000</i>
   <i type="int" name="IALGO">    68</i>
   <i type="int" name="IWAVPR">    11</i>
   <i type="int" name="NBANDS">   768</i>
   <i name="NELECT">   1036.00000000</i>
   <i type="int" name="TURBO">     0</i>
   <i type="int" name="IRESTART">     0</i>
   <i type="int" name="NREBOOT">     0</i>
   <i type="int" name="NMIN">     0</i>
   <i name="EREF">      0.00000000</i>
   <separator name="electronic smearing" >
    <i type="int" name="ISMEAR">     0</i>
    <i name="SIGMA">      0.05000000</i>
    <i name="KSPACING">      0.50000000</i>
    <i type="logical" name="KGAMMA"> T  </i>
   </separator>
   <separator name="electronic projectors" >
    <i type="logical" name="LREAL"> T  </i>
    <v name="ROPT">     -0.00050000     -0.00050000     -0.00050000     -0.00050000</v>
    <i type="int" name="LMAXPAW">  -100</i>
    <i type="int" name="LMAXMIX">     4</i>
    <i type="logical" name="NLSPLINE"> F  </i>
   </separator>
   <separator name="electronic startup" >
    <i type="int" name="ISTART">     1</i>
    <i type="int" name="ICHARG">     0</i>
    <i type="int" name="INIWAV">     1</i>
   </separator>
   <separator name="electronic spin" >
    <i type="int" name="ISPIN">     2</i>
    <i type="logical" name="LNONCOLLINEAR"> F  </i>
    <v name="MAGMOM">      0.60000000      0.60000000      0.60000000      0.60000000      0.60000000      0.60000000      0.60000000      0.60000000      0.60000000      0.60000000      0.60000000      0.60000000      0.60000000      0.60000000      0.60000000      0.60000000      0.60000000      0.60000000      0.60000000      0.60000000
      0.60000000      0.60000000      0.60000000      0.60000000      0.60000000      0.60000000      0.60000000      0.60000000      0.60000000      0.60000000      0.60000000      0.60000000      0.60000000      0.60000000      0.60000000      0.60000000      0.60000000      0.60000000      0.60000000      0.60000000
      0.60000000      0.60000000      0.60000000      0.60000000      0.60000000      0.60000000      0.60000000      0.60000000      0.60000000      0.60000000      0.60000000      0.60000000      5.00000000      5.00000000      5.00000000      5.00000000      5.00000000      5.00000000      5.00000000      5.00000000
      5.00000000      5.00000000      5.00000000      5.00000000      0.60000000      0.60000000      0.60000000      0.60000000      0.60000000      0.60000000      0.60000000      0.60000000      0.60000000      0.60000000      0.60000000      0.60000000      0.60000000      0.60000000      0.60000000      0.60000000
      0.60000000      0.60000000      0.60000000      0.60000000      0.60000000      0.60000000      0.60000000      0.60000000      0.60000000      0.60000000      0.60000000      0.60000000      0.60000000      0.60000000      0.60000000      0.60000000      0.60000000      0.60000000      0.60000000      0.60000000
      0.60000000      0.60000000      0.60000000      0.60000000      0.60000000      0.60000000      0.60000000      0.60000000      0.60000000      0.60000000      0.60000000      0.60000000      0.60000000      0.60000000      0.60000000      0.60000000      0.60000000      0.60000000      0.60000000      0.60000000
      0.60000000      0.60000000      0.60000000      0.60000000      0.60000000      0.60000000      0.60000000      0.60000000      0.60000000      0.60000000      0.60000000      0.60000000      0.60000000      0.60000000      0.60000000      0.60000000      0.60000000      0.60000000      0.60000000      0.60000000
      0.60000000      0.60000000      0.60000000      0.60000000      0.60000000      0.60000000      0.60000000      0.60000000      0.60000000      0.60000000      0.60000000      0.60000000      0.60000000      0.60000000</v>
    <i name="NUPDOWN">     -1.00000000</i>
    <i type="logical" name="LSORBIT"> F  </i>
    <v name="SAXIS">      0.00000000      0.00000000      1.00000000</v>
    <i type="logical" name="LSPIRAL"> F  </i>
    <v name="QSPIRAL">      0.00000000      0.00000000      0.00000000</v>
    <i type="logical" name="LZEROZ"> F  </i>
   </separator>
   <separator name="electronic exchange-correlation" >
    <i type="logical" name="LASPH"> F  </i>
    <i type="logical" name="LMETAGGA"> F  </i>
   </separator>
   <separator name="electronic convergence" >
    <i type="int" name="NELM">    40</i>
    <i type="int" name="NELMDL">     0</i>
    <i type="int" name="NELMIN">     8</i>
    <i name="ENINI">    520.00000000</i>
    <separator name="electronic convergence detail" >
     <i type="logical" name="LDIAG"> T  </i>
     <i type="logical" name="LSUBROT"> F  </i>
     <i name="WEIMIN">      0.00100000</i>
     <i name="EBREAK">      0.00000003</i>
     <i name="DEPER">      0.30000000</i>
     <i type="int" name="NRMM">     4</i>
     <i name="TIME">      0.40000000</i>
    </separator>
   </separator>
   <separator name="electronic mixer" >
    <i name="AMIX">      0.40000000</i>
    <i name="BMIX">      1.00000000</i>
    <i name="AMIN">      0.10000000</i>
    <i name="AMIX_MAG">      1.60000000</i>
    <i name="BMIX_MAG">      1.00000000</i>
    <separator name="electronic mixer details" >
     <i type="int" name="IMIX">     4</i>
     <i type="logical" name="MIXFIRST"> F  </i>
     <i type="int" name="MAXMIX">   -45</i>
     <i name="WC">    100.00000000</i>
     <i type="int" name="INIMIX">     1</i>
     <i type="int" name="MIXPRE">     1</i>
     <i type="int" name="MREMOVE">     5</i>
    </separator>
   </separator>
   <separator name="electronic dipolcorrection" >
    <i type="logical" name="LDIPOL"> F  </i>
    <i type="logical" name="LMONO"> F  </i>
    <i type="int" name="IDIPOL">     0</i>
    <i name="EPSILON">      1.00000000</i>
    <v name="DIPOL">   -100.00000000   -100.00000000   -100.00000000</v>
    <i name="EFIELD">      0.00000000</i>
   </separator>
  </separator>
  <separator name="grids" >
   <i type="int" name="NGX">    64</i>
   <i type="int" name="NGY">    64</i>
   <i type="int" name="NGZ">    90</i>
   <i type="int" name="NGXF">   128</i>
   <i type="int" name="NGYF">   128</i>
   <i type="int" name="NGZF">   180</i>
   <i type="logical" name="ADDGRID"> F  </i>
  </separator>
  <separator name="ionic" >
   <i type="int" name="NSW">    30</i>
   <i type="int" name="IBRION">     2</i>
   <i type="int" name="ISIF">     3</i>
   <i name="PSTRESS">      0.00000000</i>
   <i name="EDIFFG">     -0.03000000</i>
   <i type="int" name="NFREE">     1</i>
   <i name="POTIM">      0.50000000</i>
   <i name="SMASS">     -3.00000000</i>
   <i name="SCALEE">      1.00000000</i>
  </separator>
  <separator name="ionic md" >
   <i name="TEBEG">      0.00010000</i>
   <i name="TEEND">      0.00010000</i>
   <i type="int" name="NBLOCK">     1</i>
   <i type="int" name="KBLOCK">    30</i>
   <i type="int" name="NPACO">   256</i>
   <i name="APACO">     16.00000000</i>
  </separator>
  <separator name="symmetry" >
   <i type="int" name="ISYM">     2</i>
   <i name="SYMPREC">      0.00001000</i>
  </separator>
  <separator name="dos" >
   <i type="logical" name="LORBIT"> F  </i>
   <v name="RWIGS">     -1.00000000     -1.00000000     -1.00000000     -1.00000000</v>
   <i type="int" name="NEDOS">   301</i>
   <i name="EMIN">     10.00000000</i>
   <i name="EMAX">    -10.00000000</i>
   <i name="EFERMI">      0.00000000</i>
  </separator>
  <separator name="writing" >
   <i type="int" name="NWRITE">     2</i>
   <i type="logical" name="LWAVE"> T  </i>
   <i type="logical" name="LCHARG"> T  </i>
   <i type="logical" name="LPARD"> F  </i>
   <i type="logical" name="LVTOT"> F  </i>
   <i type="logical" name="LVHAR"> F  </i>
   <i type="logical" name="LELF"> F  </i>
   <i type="logical" name="LOPTICS"> F  </i>
   <v name="STM">      0.00000000      0.00000000      0.00000000      0.00000000      0.00000000      0.00000000      0.00000000</v>
  </separator>
  <separator name="performance" >
   <i type="int" name="NPAR">     2</i>
   <i type="int" name="NSIM">     4</i>
   <i type="int" name="NBLK">    -1</i>
   <i type="logical" name="LPLANE"> T  </i>
   <i type="logical" name="LSCALAPACK"> T  </i>
   <i type="logical" name="LSCAAWARE"> F  </i>
   <i type="logical" name="LSCALU"> F  </i>
   <i type="logical" name="LASYNC"> F  </i>
   <i type="logical" name="LORBITALREAL"> F  </i>
  </separator>
  <separator name="miscellaneous" >
   <i type="int" name="IDIOT">     3</i>
   <i type="logical" name="LMUSIC"> F  </i>
   <v name="POMASS">     87.62000000     47.88000000     55.84700000     16.00000000</v>
   <v name="DARWINR">      0.00000000      0.00000000      0.00000000      0.00000000</v>
   <v name="DARWINV">      1.00000000      1.00000000      1.00000000      1.00000000</v>
   <i type="logical" name="LCORR"> T  </i>
  </separator>
  <i type="logical" name="GGA_COMPAT"> T  </i>
  <i type="logical" name="LBERRY"> F  </i>
  <i type="int" name="ICORELEVEL">     0</i>
  <i type="logical" name="LDAU"> T  </i>
  <v type="int" name="LDAUTYPE">     2</v>
  <v type="int" name="LDAUL">     0</v>
  <v name="LDAUU">      0.00000000</v>
  <v name="LDAUJ">      0.00000000</v>
  <i type="int" name="LDAUPRINT">     1</i>
  <i type="int" name="I_CONSTRAINED_M">     0</i>
  <separator name="electronic exchange-correlation" >
   <i type="string" name="GGA">--</i>
   <i type="int" name="VOSKOWN">     0</i>
   <i type="logical" name="LHFCALC"> F  </i>
   <i type="string" name="PRECFOCK"></i>
   <i type="logical" name="LSYMGRAD"> F  </i>
   <i type="logical" name="LHFONE"> F  </i>
   <i type="logical" name="LRHFCALC"> F  </i>
   <i type="logical" name="LTHOMAS"> F  </i>
   <i type="logical" name="LMODELHF"> F  </i>
   <i name="ENCUT4O">     -1.00000000</i>
   <i type="int" name="EXXOEP">     0</i>
   <i type="int" name="FOURORBIT">     0</i>
   <i name="AEXX">      0.00000000</i>
   <i name="HFALPHA">      0.00000000</i>
   <i name="MCALPHA">      0.00000000</i>
   <i name="ALDAX">      1.00000000</i>
   <i name="AGGAX">      1.00000000</i>
   <i name="ALDAC">      1.00000000</i>
   <i name="AGGAC">      1.00000000</i>
   <i type="int" name="NKREDX">     1</i>
   <i type="int" name="NKREDY">     1</i>
   <i type="int" name="NKREDZ">     1</i>
   <i type="logical" name="SHIFTRED"> F  </i>
   <i type="logical" name="ODDONLY"> F  </i>
   <i type="logical" name="EVENONLY"> F  </i>
   <i type="int" name="LMAXFOCK">     0</i>
   <i type="int" name="NMAXFOCKAE">     0</i>
   <i type="logical" name="LFOCKAEDFT"> F  </i>
   <i name="HFSCREEN">      0.00000000</i>
   <i name="HFSCREENC">      0.00000000</i>
   <i type="int" name="NBANDSGWLOW">     0</i>
  </separator>
  <separator name="vdW DFT" >
   <i type="logical" name="LUSE_VDW"> F  </i>
   <i name="Zab_VDW">     -0.84910000</i>
   <i name="PARAM1">      0.12340000</i>
   <i name="PARAM2">      1.00000000</i>
   <i name="PARAM3">      0.00000000</i>
  </separator>
  <separator name="model GW" >
   <i type="int" name="MODEL_GW">     0</i>
   <i name="MODEL_EPS0">      7.82721672</i>
   <i name="MODEL_ALPHA">      1.00000000</i>
  </separator>
  <separator name="linear response parameters" >
   <i type="logical" name="LEPSILON"> F  </i>
   <i type="logical" name="LRPA"> F  </i>
   <i type="logical" name="LNABLA"> F  </i>
   <i type="logical" name="LVEL"> F  </i>
   <i type="int" name="KINTER">     0</i>
   <i name="CSHIFT">      0.10000000</i>
   <i name="OMEGAMAX">     -1.00000000</i>
   <i name="DEG_THRESHOLD">      0.00200000</i>
  </separator>
  <separator name="orbital magnetization" >
   <i type="logical" name="NUCIND"> F  </i>
   <v name="MAGPOS">      0.00000000      0.00000000      0.00000000</v>
   <i type="logical" name="LNICSALL"> T  </i>
   <i type="logical" name="ORBITALMAG"> F  </i>
   <i type="logical" name="LMAGBLOCH"> F  </i>
   <i type="logical" name="LCHIMAG"> F  </i>
   <i type="logical" name="LGAUGE"> T  </i>
   <i type="int" name="MAGATOM">     0</i>
   <v name="MAGDIPOL">      0.00000000      0.00000000      0.00000000</v>
   <v name="AVECCONST">      0.00000000      0.00000000      0.00000000</v>
  </separator>
  <separator name="response functions" >
   <i type="logical" name="LADDER"> F  </i>
   <i type="logical" name="LFXC"> F  </i>
   <i type="logical" name="LHARTREE"> T  </i>
   <i type="int" name="IBSE">     0</i>
   <v type="int" name="KPOINT">    -1     0     0     0</v>
   <i type="logical" name="LTCTE"> F  </i>
   <i type="logical" name="LTETE"> F  </i>
   <i type="logical" name="LTRIPLET"> F  </i>
   <i type="logical" name="LFXCEPS"> F  </i>
   <i type="logical" name="LFXHEG"> F  </i>
   <i type="int" name="NATURALO">     0</i>
   <i type="logical" name="L2ORDER"> F  </i>
   <i type="logical" name="LUSEW"> F  </i>
   <i name="ENCUTGW">     -2.00000000</i>
   <i name="ENCUTGWSOFT">     -2.00000000</i>
   <i name="ENCUTLF">     -1.00000000</i>
   <i type="int" name="LMAXMP2">    -1</i>
   <i name="SCISSOR">      0.00000000</i>
   <i type="int" name="NOMEGA">     0</i>
   <i type="int" name="NOMEGAR">     0</i>
   <i type="int" name="NBANDSGW">    -1</i>
   <i type="int" name="NBANDSO">    -1</i>
   <i type="int" name="NBANDSV">    -1</i>
   <i type="int" name="NELM">    40</i>
   <i type="int" name="NELMHF">     1</i>
   <i type="int" name="DIM">     3</i>
   <i type="int" name="ANTIRES">     0</i>
   <i name="OMEGAMAX">    -30.00000000</i>
   <i name="OMEGAMIN">    -30.00000000</i>
   <i name="OMEGATL">   -200.00000000</i>
   <i type="int" name="OMEGAGRID">     0</i>
   <i name="CSHIFT">     -0.10000000</i>
   <i type="logical" name="SELFENERGY"> F  </i>
   <i type="logical" name="LSPECTRAL"> F  </i>
   <i type="logical" name="LSPECTRALGW"> F  </i>
   <i type="logical" name="LSINGLES"> F  </i>
   <i type="logical" name="LFERMIGW"> F  </i>
   <i type="logical" name="ODDONLYGW"> F  </i>
   <i type="logical" name="EVENONLYGW"> F  </i>
   <i type="int" name="NKREDLFX">     1</i>
   <i type="int" name="NKREDLFY">     1</i>
   <i type="int" name="NKREDLFZ">     1</i>
   <i type="int" name="MAXMEM">  1800</i>
   <i type="int" name="TELESCOPE">     0</i>
   <i type="int" name="TAUPAR">     1</i>
   <i type="int" name="OMEGAPAR">    -1</i>
   <i name="LAMBDA">      1.00000000</i>
  </separator>
  <separator name="External order field" >
   <i name="OFIELD_KAPPA">      0.00000000</i>
   <v name="OFIELD_K">      0.00000000      0.00000000      0.00000000</v>
   <i name="OFIELD_Q6_NEAR">      0.00000000</i>
   <i name="OFIELD_Q6_FAR">      0.00000000</i>
   <i name="OFIELD_A">      0.00000000</i>
  </separator>
 </parameters>
 <atominfo>
  <atoms>     154 </atoms>
  <types>       4 </types>
  <array name="atoms" >
   <dimension dim="1">ion</dimension>
   <field type="string">element</field>
   <field type="int">atomtype</field>
   <set>
    <rc><c>Sr</c><c>   1</c></rc>
    <rc><c>Sr</c><c>   1</c></rc>
    <rc><c>Sr</c><c>   1</c></rc>
    <rc><c>Sr</c><c>   1</c></rc>
    <rc><c>Sr</c><c>   1</c></rc>
    <rc><c>Sr</c><c>   1</c></rc>
    <rc><c>Sr</c><c>   1</c></rc>
    <rc><c>Sr</c><c>   1</c></rc>
    <rc><c>Sr</c><c>   1</c></rc>
    <rc><c>Sr</c><c>   1</c></rc>
    <rc><c>Sr</c><c>   1</c></rc>
    <rc><c>Sr</c><c>   1</c></rc>
    <rc><c>Sr</c><c>   1</c></rc>
    <rc><c>Sr</c><c>   1</c></rc>
    <rc><c>Sr</c><c>   1</c></rc>
    <rc><c>Sr</c><c>   1</c></rc>
    <rc><c>Sr</c><c>   1</c></rc>
    <rc><c>Sr</c><c>   1</c></rc>
    <rc><c>Sr</c><c>   1</c></rc>
    <rc><c>Sr</c><c>   1</c></rc>
    <rc><c>Sr</c><c>   1</c></rc>
    <rc><c>Sr</c><c>   1</c></rc>
    <rc><c>Sr</c><c>   1</c></rc>
    <rc><c>Sr</c><c>   1</c></rc>
    <rc><c>Sr</c><c>   1</c></rc>
    <rc><c>Sr</c><c>   1</c></rc>
    <rc><c>Sr</c><c>   1</c></rc>
    <rc><c>Sr</c><c>   1</c></rc>
    <rc><c>Sr</c><c>   1</c></rc>
    <rc><c>Sr</c><c>   1</c></rc>
    <rc><c>Sr</c><c>   1</c></rc>
    <rc><c>Sr</c><c>   1</c></rc>
    <rc><c>Ti</c><c>   2</c></rc>
    <rc><c>Ti</c><c>   2</c></rc>
    <rc><c>Ti</c><c>   2</c></rc>
    <rc><c>Ti</c><c>   2</c></rc>
    <rc><c>Ti</c><c>   2</c></rc>
    <rc><c>Ti</c><c>   2</c></rc>
    <rc><c>Ti</c><c>   2</c></rc>
    <rc><c>Ti</c><c>   2</c></rc>
    <rc><c>Ti</c><c>   2</c></rc>
    <rc><c>Ti</c><c>   2</c></rc>
    <rc><c>Ti</c><c>   2</c></rc>
    <rc><c>Ti</c><c>   2</c></rc>
    <rc><c>Ti</c><c>   2</c></rc>
    <rc><c>Ti</c><c>   2</c></rc>
    <rc><c>Ti</c><c>   2</c></rc>
    <rc><c>Ti</c><c>   2</c></rc>
    <rc><c>Ti</c><c>   2</c></rc>
    <rc><c>Ti</c><c>   2</c></rc>
    <rc><c>Ti</c><c>   2</c></rc>
    <rc><c>Ti</c><c>   2</c></rc>
    <rc><c>Fe</c><c>   3</c></rc>
    <rc><c>Fe</c><c>   3</c></rc>
    <rc><c>Fe</c><c>   3</c></rc>
    <rc><c>Fe</c><c>   3</c></rc>
    <rc><c>Fe</c><c>   3</c></rc>
    <rc><c>Fe</c><c>   3</c></rc>
    <rc><c>Fe</c><c>   3</c></rc>
    <rc><c>Fe</c><c>   3</c></rc>
    <rc><c>Fe</c><c>   3</c></rc>
    <rc><c>Fe</c><c>   3</c></rc>
    <rc><c>Fe</c><c>   3</c></rc>
    <rc><c>Fe</c><c>   3</c></rc>
    <rc><c>O </c><c>   4</c></rc>
    <rc><c>O </c><c>   4</c></rc>
    <rc><c>O </c><c>   4</c></rc>
    <rc><c>O </c><c>   4</c></rc>
    <rc><c>O </c><c>   4</c></rc>
    <rc><c>O </c><c>   4</c></rc>
    <rc><c>O </c><c>   4</c></rc>
    <rc><c>O </c><c>   4</c></rc>
    <rc><c>O </c><c>   4</c></rc>
    <rc><c>O </c><c>   4</c></rc>
    <rc><c>O </c><c>   4</c></rc>
    <rc><c>O </c><c>   4</c></rc>
    <rc><c>O </c><c>   4</c></rc>
    <rc><c>O </c><c>   4</c></rc>
    <rc><c>O </c><c>   4</c></rc>
    <rc><c>O </c><c>   4</c></rc>
    <rc><c>O </c><c>   4</c></rc>
    <rc><c>O </c><c>   4</c></rc>
    <rc><c>O </c><c>   4</c></rc>
    <rc><c>O </c><c>   4</c></rc>
    <rc><c>O </c><c>   4</c></rc>
    <rc><c>O </c><c>   4</c></rc>
    <rc><c>O </c><c>   4</c></rc>
    <rc><c>O </c><c>   4</c></rc>
    <rc><c>O </c><c>   4</c></rc>
    <rc><c>O </c><c>   4</c></rc>
    <rc><c>O </c><c>   4</c></rc>
    <rc><c>O </c><c>   4</c></rc>
    <rc><c>O </c><c>   4</c></rc>
    <rc><c>O </c><c>   4</c></rc>
    <rc><c>O </c><c>   4</c></rc>
    <rc><c>O </c><c>   4</c></rc>
    <rc><c>O </c><c>   4</c></rc>
    <rc><c>O </c><c>   4</c></rc>
    <rc><c>O </c><c>   4</c></rc>
    <rc><c>O </c><c>   4</c></rc>
    <rc><c>O </c><c>   4</c></rc>
    <rc><c>O </c><c>   4</c></rc>
    <rc><c>O </c><c>   4</c></rc>
    <rc><c>O </c><c>   4</c></rc>
    <rc><c>O </c><c>   4</c></rc>
    <rc><c>O </c><c>   4</c></rc>
    <rc><c>O </c><c>   4</c></rc>
    <rc><c>O </c><c>   4</c></rc>
    <rc><c>O </c><c>   4</c></rc>
    <rc><c>O </c><c>   4</c></rc>
    <rc><c>O </c><c>   4</c></rc>
    <rc><c>O </c><c>   4</c></rc>
    <rc><c>O </c><c>   4</c></rc>
    <rc><c>O </c><c>   4</c></rc>
    <rc><c>O </c><c>   4</c></rc>
    <rc><c>O </c><c>   4</c></rc>
    <rc><c>O </c><c>   4</c></rc>
    <rc><c>O </c><c>   4</c></rc>
    <rc><c>O </c><c>   4</c></rc>
    <rc><c>O </c><c>   4</c></rc>
    <rc><c>O </c><c>   4</c></rc>
    <rc><c>O </c><c>   4</c></rc>
    <rc><c>O </c><c>   4</c></rc>
    <rc><c>O </c><c>   4</c></rc>
    <rc><c>O </c><c>   4</c></rc>
    <rc><c>O </c><c>   4</c></rc>
    <rc><c>O </c><c>   4</c></rc>
    <rc><c>O </c><c>   4</c></rc>
    <rc><c>O </c><c>   4</c></rc>
    <rc><c>O </c><c>   4</c></rc>
    <rc><c>O </c><c>   4</c></rc>
    <rc><c>O </c><c>   4</c></rc>
    <rc><c>O </c><c>   4</c></rc>
    <rc><c>O </c><c>   4</c></rc>
    <rc><c>O </c><c>   4</c></rc>
    <rc><c>O </c><c>   4</c></rc>
    <rc><c>O </c><c>   4</c></rc>
    <rc><c>O </c><c>   4</c></rc>
    <rc><c>O </c><c>   4</c></rc>
    <rc><c>O </c><c>   4</c></rc>
    <rc><c>O </c><c>   4</c></rc>
    <rc><c>O </c><c>   4</c></rc>
    <rc><c>O </c><c>   4</c></rc>
    <rc><c>O </c><c>   4</c></rc>
    <rc><c>O </c><c>   4</c></rc>
    <rc><c>O </c><c>   4</c></rc>
    <rc><c>O </c><c>   4</c></rc>
    <rc><c>O </c><c>   4</c></rc>
    <rc><c>O </c><c>   4</c></rc>
    <rc><c>O </c><c>   4</c></rc>
    <rc><c>O </c><c>   4</c></rc>
    <rc><c>O </c><c>   4</c></rc>
    <rc><c>O </c><c>   4</c></rc>
    <rc><c>O </c><c>   4</c></rc>
   </set>
  </array>
  <array name="atomtypes" >
   <dimension dim="1">type</dimension>
   <field type="int">atomspertype</field>
   <field type="string">element</field>
   <field>mass</field>
   <field>valence</field>
   <field type="string">pseudopotential</field>
   <set>
    <rc><c>  32</c><c>Sr</c><c>     87.62000000</c><c>     10.00000000</c><c>  PAW_PBE Sr_sv 07Sep2000               </c></rc>
    <rc><c>  20</c><c>Ti</c><c>     47.88000000</c><c>      4.00000000</c><c>  PAW_PBE Ti 08Apr2002                  </c></rc>
    <rc><c>  12</c><c>Fe</c><c>     55.84700000</c><c>      8.00000000</c><c>  PAW_PBE Fe 06Sep2000                  </c></rc>
    <rc><c>  90</c><c>O </c><c>     16.00000000</c><c>      6.00000000</c><c>  PAW_PBE O 08Apr2002                   </c></rc>
   </set>
  </array>
 </atominfo>
 <structure name="initialpos" >
  <crystal>
   <varray name="basis" >
    <v>      11.26398426       0.01321238      -0.01281808 </v>
    <v>       0.01322032      11.26156771      -0.00022801 </v>
    <v>      -0.01808123      -0.00021950      15.83751737 </v>
   </varray>
   <i name="volume">   2008.98562554 </i>
   <varray name="rec_basis" >
    <v>       0.08877877      -0.00010422       0.00010135 </v>
    <v>      -0.00010416       0.08879771       0.00000111 </v>
    <v>       0.00007185       0.00000119       0.06314129 </v>
   </varray>
  </crystal>
  <varray name="positions" >
   <v>       0.99853579       0.25069282       0.12970773 </v>
   <v>       0.98426692       0.25177912       0.63234589 </v>
   <v>       0.99861697       0.75073807       0.14412024 </v>
   <v>       0.99866604       0.74505875       0.62174963 </v>
   <v>       0.50077607       0.25025839       0.13139064 </v>
   <v>       0.50829842       0.24777044       0.62607966 </v>
   <v>       0.50061762       0.75101343       0.13115879 </v>
   <v>       0.50211143       0.74874437       0.62602296 </v>
   <v>       0.99502431       0.25295692       0.37827369 </v>
   <v>       0.99789120       0.24819054       0.86811569 </v>
   <v>       0.00156241       0.74594566       0.37916622 </v>
   <v>       0.99807623       0.75233460       0.85516005 </v>
   <v>       0.50963613       0.25167968       0.37073424 </v>
   <v>       0.50321508       0.24920651       0.86947312 </v>
   <v>       0.49991028       0.74897420       0.37266076 </v>
   <v>       0.50297612       0.74998038       0.86825622 </v>
   <v>       0.25436385       0.00326949       0.13033811 </v>
   <v>       0.25432274       0.98726186       0.62809341 </v>
   <v>       0.25368360       0.49790485       0.13032443 </v>
   <v>       0.24865616       0.50410766       0.62622343 </v>
   <v>       0.74612328       0.00339198       0.13186997 </v>
   <v>       0.74514832       0.99914796       0.62791473 </v>
   <v>       0.74487186       0.49662268       0.13151435 </v>
   <v>       0.74987446       0.50063356       0.62558897 </v>
   <v>       0.25605723       0.99447806       0.37113379 </v>
   <v>       0.25304229       0.00496219       0.86833173 </v>
   <v>       0.25479342       0.50694018       0.37071148 </v>
   <v>       0.25192483       0.49737263       0.86856230 </v>
   <v>       0.74146800       0.00069339       0.37441973 </v>
   <v>       0.75073383       0.00138300       0.86777823 </v>
   <v>       0.74964582       0.49997160       0.37661972 </v>
   <v>       0.74733165       0.49758496       0.86692795 </v>
   <v>       0.25657872       0.25096762       0.00135787 </v>
   <v>       0.74836805       0.74662717       0.50054328 </v>
   <v>       0.74824511       0.25027674       0.24942330 </v>
   <v>       0.49740829       0.99657602       0.49997180 </v>
   <v>       0.50122971       0.49802455       0.74888113 </v>
   <v>       0.24971171       0.74912946       0.49986508 </v>
   <v>       0.74448200       0.24984731       0.99796641 </v>
   <v>       0.50121663       0.00139744       0.75068081 </v>
   <v>       0.25214690       0.24909041       0.24913152 </v>
   <v>       0.00178517       0.49913359       0.25291125 </v>
   <v>       0.25072516       0.74953818       0.24810948 </v>
   <v>       0.00148022       0.00145202       0.25486620 </v>
   <v>       0.50146461       0.50273913       0.49823548 </v>
   <v>       0.24906744       0.74886328       0.75183127 </v>
   <v>       0.00090749       0.00158025       0.74518327 </v>
   <v>       0.99944080       0.50054776       0.74894899 </v>
   <v>       0.74887473       0.75078709       0.25125023 </v>
   <v>       0.50037071       0.00622612       0.00135988 </v>
   <v>       0.49936714       0.49322118       0.00075818 </v>
   <v>       0.75313409       0.25058576       0.50184856 </v>
   <v>       0.25182298       0.25049950       0.75922379 </v>
   <v>       0.74840310       0.25007259       0.75117683 </v>
   <v>       0.49907959       0.00132403       0.24916231 </v>
   <v>       0.98646767       0.99111666       0.50004470 </v>
   <v>       0.28012499       0.75621506       0.99931514 </v>
   <v>       0.26064710       0.26252427       0.48908878 </v>
   <v>       0.72100253       0.74517989       0.00196164 </v>
   <v>       0.99836289       0.49856758       0.50210191 </v>
   <v>       0.00585677       0.02936178       0.99917994 </v>
   <v>       0.99458918       0.47064544       0.99951848 </v>
   <v>       0.75040961       0.75038274       0.74776495 </v>
   <v>       0.50065161       0.50000471       0.24939478 </v>
   <v>       0.11370829       0.13096194       0.23484280 </v>
   <v>       0.11821942       0.13510995       0.75345191 </v>
   <v>       0.11609971       0.63362197       0.25574036 </v>
   <v>       0.11804001       0.63426964       0.74428247 </v>
   <v>       0.63573254       0.38278675       0.25439497 </v>
   <v>       0.61690757       0.12952014       0.74743505 </v>
   <v>       0.62003145       0.63690201       0.24041603 </v>
   <v>       0.61800558       0.63252479       0.76080216 </v>
   <v>       0.50441890       0.98547729       0.62591119 </v>
   <v>       0.37783914       0.36685189       0.73376501 </v>
   <v>       0.38024878       0.86361907       0.24283107 </v>
   <v>       0.37958414       0.86527187       0.75820425 </v>
   <v>       0.88665398       0.36791135       0.24270783 </v>
   <v>       0.88536072       0.37141574       0.75969157 </v>
   <v>       0.88704521       0.86743141       0.26148085 </v>
   <v>       0.88628687       0.87055792       0.73782839 </v>
   <v>       0.36314480       0.11682459       0.25080715 </v>
   <v>       0.36494089       0.11819988       0.73709663 </v>
   <v>       0.36326670       0.61878696       0.24176377 </v>
   <v>       0.36486268       0.61885148       0.75749376 </v>
   <v>       0.86847326       0.11403921       0.24563301 </v>
   <v>       0.87087163       0.11585840       0.75389430 </v>
   <v>       0.25352749       0.75013549       0.37284427 </v>
   <v>       0.86851901       0.61911006       0.75279336 </v>
   <v>       0.13317441       0.38526331       0.24098066 </v>
   <v>       0.13350289       0.38385713       0.75004285 </v>
   <v>       0.13373866       0.88445564       0.24811689 </v>
   <v>       0.13443874       0.88356581       0.75115945 </v>
   <v>       0.25498566       0.75109530       0.62676808 </v>
   <v>       0.63038428       0.38328496       0.74589613 </v>
   <v>       0.63636722       0.88324096       0.24726145 </v>
   <v>       0.63326813       0.88145514       0.75961904 </v>
   <v>       0.36328116       0.39189585       0.50253706 </v>
   <v>       0.35062526       0.90565913       0.99892719 </v>
   <v>       0.86146669       0.38662629       0.49943077 </v>
   <v>       0.84457572       0.39904369       0.99968583 </v>
   <v>       0.64662365       0.59549889       0.99734235 </v>
   <v>       0.85713616       0.88617671       0.49815180 </v>
   <v>       0.15543486       0.10289265       0.00091015 </v>
   <v>       0.38025442       0.36500662       0.25698869 </v>
   <v>       0.14002804       0.61036783       0.50008402 </v>
   <v>       0.65036968       0.09926860       0.99907884 </v>
   <v>       0.62729307       0.11664123       0.50163413 </v>
   <v>       0.63985790       0.61096064       0.49848983 </v>
   <v>       0.10581388       0.34683969       0.99941318 </v>
   <v>       0.61884832       0.13409413       0.25169389 </v>
   <v>       0.77359240       0.75768831       0.11638836 </v>
   <v>       0.11508601       0.86685764       0.49963833 </v>
   <v>       0.59842846       0.34793662       0.00016948 </v>
   <v>       0.61208802       0.36397454       0.49844161 </v>
   <v>       0.59712332       0.85653010       0.99874864 </v>
   <v>       0.60940410       0.86261129       0.49498238 </v>
   <v>       0.40170553       0.15227120       0.00182494 </v>
   <v>       0.35741261       0.13098366       0.51936524 </v>
   <v>       0.22331198       0.74400405       0.11209130 </v>
   <v>       0.38902509       0.64145805       0.49952138 </v>
   <v>       0.34785743       0.40183305       0.00062135 </v>
   <v>       0.88847518       0.13721632       0.50014796 </v>
   <v>       0.11714301       0.32957702       0.52314119 </v>
   <v>       0.88759915       0.63875561       0.49726808 </v>
   <v>       0.98853756       0.96962977       0.10964690 </v>
   <v>       0.01730663       0.01549935       0.62119924 </v>
   <v>       0.00700432       0.52771387       0.11156894 </v>
   <v>       0.99459009       0.50042704       0.62683298 </v>
   <v>       0.50009258       0.49171247       0.12389921 </v>
   <v>       0.36079340       0.88676649       0.49926871 </v>
   <v>       0.01870229       0.01776531       0.37712087 </v>
   <v>       0.99723857       0.97896452       0.88456129 </v>
   <v>       0.00837081       0.48690696       0.37537083 </v>
   <v>       0.01201263       0.52635202       0.88740938 </v>
   <v>       0.49187950       0.00551819       0.37689601 </v>
   <v>       0.49342866       0.01046985       0.87468798 </v>
   <v>       0.49784163       0.50883086       0.37469921 </v>
   <v>       0.49381270       0.48653194       0.87391311 </v>
   <v>       0.23048825       0.23860234       0.37340452 </v>
   <v>       0.75488904       0.24733323       0.37447084 </v>
   <v>       0.50280420       0.51352056       0.62478867 </v>
   <v>       0.22315325       0.74354194       0.88683470 </v>
   <v>       0.89371294       0.15193035       0.99931692 </v>
   <v>       0.74422747       0.24990350       0.87564019 </v>
   <v>       0.74336063       0.74594628       0.37359602 </v>
   <v>       0.78663060       0.76403631       0.89537445 </v>
   <v>       0.25803775       0.25300764       0.12470328 </v>
   <v>       0.40117251       0.64343673       0.99893707 </v>
   <v>       0.50060687       0.00367227       0.12396616 </v>
   <v>       0.86892111       0.61553122       0.25176387 </v>
   <v>       0.74615403       0.24978977       0.12467382 </v>
   <v>       0.75263335       0.25005949       0.62515102 </v>
   <v>       0.26166626       0.25082837       0.87714899 </v>
   <v>       0.74177542       0.74828863       0.62365497 </v>
  </varray>
 </structure>
 <calculation>
  <scstep>
   <time name="dav">  302.88  302.91</time>
   <time name="total">  306.58  306.71</time>
   <energy>
    <i name="alphaZ">   5611.79207479 </i>
    <i name="ewald"> -61625.72768512 </i>
    <i name="hartreedc"> -16911.83867512 </i>
    <i name="XCdc">   3074.35672286 </i>
    <i name="pawpsdc"> 113862.20731014 </i>
    <i name="pawaedc">-112914.48046804 </i>
    <i name="eentropy">     -0.00000000 </i>
    <i name="bandstr">  -7102.57699936 </i>
    <i name="atom">  74916.81196153 </i>
    <i name="e_fr_energy">  -1089.45575831 </i>
    <i name="e_wo_entrp">  -1089.45575831 </i>
    <i name="e_0_energy">  -1089.45575831 </i>
   </energy>
  </scstep>
  <scstep>
   <time name="diag">   33.31   33.33</time>
   <time name="diis">   31.89   31.92</time>
   <time name="orth">   18.87   18.87</time>
   <time name="total">   87.79   87.88</time>
   <energy>
    <i name="e_fr_energy">  -1089.45576080 </i>
    <i name="e_wo_entrp">  -1089.45576080 </i>
    <i name="e_0_energy">  -1089.45576080 </i>
   </energy>
  </scstep>
  <scstep>
   <time name="diag">   33.29   33.32</time>
   <time name="diis">   31.53   31.55</time>
   <time name="orth">   18.85   18.85</time>
   <time name="total">   87.42   87.51</time>
   <energy>
    <i name="e_fr_energy">  -1089.45576205 </i>
    <i name="e_wo_entrp">  -1089.45576205 </i>
    <i name="e_0_energy">  -1089.45576205 </i>
   </energy>
  </scstep>
  <scstep>
   <time name="diag">   33.28   33.30</time>
   <time name="diis">   30.03   30.04</time>
   <time name="orth">   18.86   18.86</time>
   <time name="total">   85.93   86.06</time>
   <energy>
    <i name="e_fr_energy">  -1089.45576501 </i>
    <i name="e_wo_entrp">  -1089.45576501 </i>
    <i name="e_0_energy">  -1089.45576501 </i>
   </energy>
  </scstep>
  <scstep>
   <time name="diag">   33.31   33.32</time>
   <time name="diis">   29.47   29.48</time>
   <time name="orth">   18.88   18.88</time>
   <time name="total">   85.39   85.47</time>
   <energy>
    <i name="e_fr_energy">  -1089.45576670 </i>
    <i name="e_wo_entrp">  -1089.45576670 </i>
    <i name="e_0_energy">  -1089.45576670 </i>
   </energy>
  </scstep>
  <scstep>
   <time name="diag">   33.34   33.34</time>
   <time name="diis">   27.98   27.99</time>
   <time name="orth">   18.84   18.84</time>
   <time name="total">   83.93   83.99</time>
   <energy>
    <i name="e_fr_energy">  -1089.45576771 </i>
    <i name="e_wo_entrp">  -1089.45576771 </i>
    <i name="e_0_energy">  -1089.45576771 </i>
   </energy>
  </scstep>
  <scstep>
   <time name="diag">   33.35   33.37</time>
   <time name="diis">   26.59   26.61</time>
   <time name="orth">   18.86   18.86</time>
   <time name="total">   82.59   82.65</time>
   <energy>
    <i name="e_fr_energy">  -1089.45576796 </i>
    <i name="e_wo_entrp">  -1089.45576796 </i>
    <i name="e_0_energy">  -1089.45576796 </i>
   </energy>
  </scstep>
  <scstep>
   <time name="diag">   33.28   33.31</time>
   <time name="diis">   25.49   25.50</time>
   <time name="orth">   18.85   18.85</time>
   <time name="total">   78.20   78.31</time>
   <energy>
    <i name="alphaZ">   5611.79207479 </i>
    <i name="ewald"> -61625.72768512 </i>
    <i name="hartreedc"> -16911.82642999 </i>
    <i name="XCdc">   3074.35559701 </i>
    <i name="pawpsdc"> 113856.66412460 </i>
    <i name="pawaedc">-112908.91834499 </i>
    <i name="eentropy">     -0.00000000 </i>
    <i name="bandstr">  -7102.60706603 </i>
    <i name="atom">  74916.81196153 </i>
    <i name="e_fr_energy">  -1089.45576819 </i>
    <i name="e_wo_entrp">  -1089.45576819 </i>
    <i name="e_0_energy">  -1089.45576819 </i>
   </energy>
  </scstep>
  <structure>
   <crystal>
    <varray name="basis" >
     <v>      11.26398426       0.01321238      -0.01281808 </v>
     <v>       0.01322032      11.26156771      -0.00022801 </v>
     <v>      -0.01808123      -0.00021950      15.83751737 </v>
    </varray>
    <i name="volume">   2008.98562554 </i>
    <varray name="rec_basis" >
     <v>       0.08877877      -0.00010422       0.00010135 </v>
     <v>      -0.00010416       0.08879771       0.00000111 </v>
     <v>       0.00007185       0.00000119       0.06314129 </v>
    </varray>
   </crystal>
   <varray name="positions" >
    <v>       0.99853579       0.25069282       0.12970773 </v>
    <v>       0.98426692       0.25177912       0.63234589 </v>
    <v>       0.99861697       0.75073807       0.14412024 </v>
    <v>       0.99866604       0.74505875       0.62174963 </v>
    <v>       0.50077607       0.25025839       0.13139064 </v>
    <v>       0.50829842       0.24777044       0.62607966 </v>
    <v>       0.50061762       0.75101343       0.13115879 </v>
    <v>       0.50211143       0.74874437       0.62602296 </v>
    <v>       0.99502431       0.25295692       0.37827369 </v>
    <v>       0.99789120       0.24819054       0.86811569 </v>
    <v>       0.00156241       0.74594566       0.37916622 </v>
    <v>       0.99807623       0.75233460       0.85516005 </v>
    <v>       0.50963613       0.25167968       0.37073424 </v>
    <v>       0.50321508       0.24920651       0.86947312 </v>
    <v>       0.49991028       0.74897420       0.37266076 </v>
    <v>       0.50297612       0.74998038       0.86825622 </v>
    <v>       0.25436385       0.00326949       0.13033811 </v>
    <v>       0.25432274       0.98726186       0.62809341 </v>
    <v>       0.25368360       0.49790485       0.13032443 </v>
    <v>       0.24865616       0.50410766       0.62622343 </v>
    <v>       0.74612328       0.00339198       0.13186997 </v>
    <v>       0.74514832       0.99914796       0.62791473 </v>
    <v>       0.74487186       0.49662268       0.13151435 </v>
    <v>       0.74987446       0.50063356       0.62558897 </v>
    <v>       0.25605723       0.99447806       0.37113379 </v>
    <v>       0.25304229       0.00496219       0.86833173 </v>
    <v>       0.25479342       0.50694018       0.37071148 </v>
    <v>       0.25192483       0.49737263       0.86856230 </v>
    <v>       0.74146800       0.00069339       0.37441973 </v>
    <v>       0.75073383       0.00138300       0.86777823 </v>
    <v>       0.74964582       0.49997160       0.37661972 </v>
    <v>       0.74733165       0.49758496       0.86692795 </v>
    <v>       0.25657872       0.25096762       0.00135787 </v>
    <v>       0.74836805       0.74662717       0.50054328 </v>
    <v>       0.74824511       0.25027674       0.24942330 </v>
    <v>       0.49740829       0.99657602       0.49997180 </v>
    <v>       0.50122971       0.49802455       0.74888113 </v>
    <v>       0.24971171       0.74912946       0.49986508 </v>
    <v>       0.74448200       0.24984731       0.99796641 </v>
    <v>       0.50121663       0.00139744       0.75068081 </v>
    <v>       0.25214690       0.24909041       0.24913152 </v>
    <v>       0.00178517       0.49913359       0.25291125 </v>
    <v>       0.25072516       0.74953818       0.24810948 </v>
    <v>       0.00148022       0.00145202       0.25486620 </v>
    <v>       0.50146461       0.50273913       0.49823548 </v>
    <v>       0.24906744       0.74886328       0.75183127 </v>
    <v>       0.00090749       0.00158025       0.74518327 </v>
    <v>       0.99944080       0.50054776       0.74894899 </v>
    <v>       0.74887473       0.75078709       0.25125023 </v>
    <v>       0.50037071       0.00622612       0.00135988 </v>
    <v>       0.49936714       0.49322118       0.00075818 </v>
    <v>       0.75313409       0.25058576       0.50184856 </v>
    <v>       0.25182298       0.25049950       0.75922379 </v>
    <v>       0.74840310       0.25007259       0.75117683 </v>
    <v>       0.49907959       0.00132403       0.24916231 </v>
    <v>       0.98646767       0.99111666       0.50004470 </v>
    <v>       0.28012499       0.75621506       0.99931514 </v>
    <v>       0.26064710       0.26252427       0.48908878 </v>
    <v>       0.72100253       0.74517989       0.00196164 </v>
    <v>       0.99836289       0.49856758       0.50210191 </v>
    <v>       0.00585677       0.02936178       0.99917994 </v>
    <v>       0.99458918       0.47064544       0.99951848 </v>
    <v>       0.75040961       0.75038274       0.74776495 </v>
    <v>       0.50065161       0.50000471       0.24939478 </v>
    <v>       0.11370829       0.13096194       0.23484280 </v>
    <v>       0.11821942       0.13510995       0.75345191 </v>
    <v>       0.11609971       0.63362197       0.25574036 </v>
    <v>       0.11804001       0.63426964       0.74428247 </v>
    <v>       0.63573254       0.38278675       0.25439497 </v>
    <v>       0.61690757       0.12952014       0.74743505 </v>
    <v>       0.62003145       0.63690201       0.24041603 </v>
    <v>       0.61800558       0.63252479       0.76080216 </v>
    <v>       0.50441890       0.98547729       0.62591119 </v>
    <v>       0.37783914       0.36685189       0.73376501 </v>
    <v>       0.38024878       0.86361907       0.24283107 </v>
    <v>       0.37958414       0.86527187       0.75820425 </v>
    <v>       0.88665398       0.36791135       0.24270783 </v>
    <v>       0.88536072       0.37141574       0.75969157 </v>
    <v>       0.88704521       0.86743141       0.26148085 </v>
    <v>       0.88628687       0.87055792       0.73782839 </v>
    <v>       0.36314480       0.11682459       0.25080715 </v>
    <v>       0.36494089       0.11819988       0.73709663 </v>
    <v>       0.36326670       0.61878696       0.24176377 </v>
    <v>       0.36486268       0.61885148       0.75749376 </v>
    <v>       0.86847326       0.11403921       0.24563301 </v>
    <v>       0.87087163       0.11585840       0.75389430 </v>
    <v>       0.25352749       0.75013549       0.37284427 </v>
    <v>       0.86851901       0.61911006       0.75279336 </v>
    <v>       0.13317441       0.38526331       0.24098066 </v>
    <v>       0.13350289       0.38385713       0.75004285 </v>
    <v>       0.13373866       0.88445564       0.24811689 </v>
    <v>       0.13443874       0.88356581       0.75115945 </v>
    <v>       0.25498566       0.75109530       0.62676808 </v>
    <v>       0.63038428       0.38328496       0.74589613 </v>
    <v>       0.63636722       0.88324096       0.24726145 </v>
    <v>       0.63326813       0.88145514       0.75961904 </v>
    <v>       0.36328116       0.39189585       0.50253706 </v>
    <v>       0.35062526       0.90565913       0.99892719 </v>
    <v>       0.86146669       0.38662629       0.49943077 </v>
    <v>       0.84457572       0.39904369       0.99968583 </v>
    <v>       0.64662365       0.59549889       0.99734235 </v>
    <v>       0.85713616       0.88617671       0.49815180 </v>
    <v>       0.15543486       0.10289265       0.00091015 </v>
    <v>       0.38025442       0.36500662       0.25698869 </v>
    <v>       0.14002804       0.61036783       0.50008402 </v>
    <v>       0.65036968       0.09926860       0.99907884 </v>
    <v>       0.62729307       0.11664123       0.50163413 </v>
    <v>       0.63985790       0.61096064       0.49848983 </v>
    <v>       0.10581388       0.34683969       0.99941318 </v>
    <v>       0.61884832       0.13409413       0.25169389 </v>
    <v>       0.77359240       0.75768831       0.11638836 </v>
    <v>       0.11508601       0.86685764       0.49963833 </v>
    <v>       0.59842846       0.34793662       0.00016948 </v>
    <v>       0.61208802       0.36397454       0.49844161 </v>
    <v>       0.59712332       0.85653010       0.99874864 </v>
    <v>       0.60940410       0.86261129       0.49498238 </v>
    <v>       0.40170553       0.15227120       0.00182494 </v>
    <v>       0.35741261       0.13098366       0.51936524 </v>
    <v>       0.22331198       0.74400405       0.11209130 </v>
    <v>       0.38902509       0.64145805       0.49952138 </v>
    <v>       0.34785743       0.40183305       0.00062135 </v>
    <v>       0.88847518       0.13721632       0.50014796 </v>
    <v>       0.11714301       0.32957702       0.52314119 </v>
    <v>       0.88759915       0.63875561       0.49726808 </v>
    <v>       0.98853756       0.96962977       0.10964690 </v>
    <v>       0.01730663       0.01549935       0.62119924 </v>
    <v>       0.00700432       0.52771387       0.11156894 </v>
    <v>       0.99459009       0.50042704       0.62683298 </v>
    <v>       0.50009258       0.49171247       0.12389921 </v>
    <v>       0.36079340       0.88676649       0.49926871 </v>
    <v>       0.01870229       0.01776531       0.37712087 </v>
    <v>       0.99723857       0.97896452       0.88456129 </v>
    <v>       0.00837081       0.48690696       0.37537083 </v>
    <v>       0.01201263       0.52635202       0.88740938 </v>
    <v>       0.49187950       0.00551819       0.37689601 </v>
    <v>       0.49342866       0.01046985       0.87468798 </v>
    <v>       0.49784163       0.50883086       0.37469921 </v>
    <v>       0.49381270       0.48653194       0.87391311 </v>
    <v>       0.23048825       0.23860234       0.37340452 </v>
    <v>       0.75488904       0.24733323       0.37447084 </v>
    <v>       0.50280420       0.51352056       0.62478867 </v>
    <v>       0.22315325       0.74354194       0.88683470 </v>
    <v>       0.89371294       0.15193035       0.99931692 </v>
    <v>       0.74422747       0.24990350       0.87564019 </v>
    <v>       0.74336063       0.74594628       0.37359602 </v>
    <v>       0.78663060       0.76403631       0.89537445 </v>
    <v>       0.25803775       0.25300764       0.12470328 </v>
    <v>       0.40117251       0.64343673       0.99893707 </v>
    <v>       0.50060687       0.00367227       0.12396616 </v>
    <v>       0.86892111       0.61553122       0.25176387 </v>
    <v>       0.74615403       0.24978977       0.12467382 </v>
    <v>       0.75263335       0.25005949       0.62515102 </v>
    <v>       0.26166626       0.25082837       0.87714899 </v>
    <v>       0.74177542       0.74828863       0.62365497 </v>
   </varray>
  </structure>
  <varray name="forces" >
   <v>      -0.00037172       0.00534904      -0.00646138 </v>
   <v>      -0.00424226      -0.00287209      -0.01153366 </v>
   <v>       0.00825743      -0.00804240      -0.01999389 </v>
   <v>      -0.00597202       0.00440799      -0.00764003 </v>
   <v>      -0.02441465       0.00889821       0.00404863 </v>
   <v>       0.01193896       0.00554398      -0.00479066 </v>
   <v>      -0.00405403      -0.00092993       0.04310231 </v>
   <v>       0.00974437      -0.00264858      -0.00907562 </v>
   <v>       0.00706147       0.01057788      -0.01552209 </v>
   <v>       0.00565781      -0.00662667      -0.01799321 </v>
   <v>      -0.00657470       0.00475544       0.01284947 </v>
   <v>      -0.00890908      -0.00217055       0.00875838 </v>
   <v>      -0.01053444      -0.02169141       0.01676044 </v>
   <v>      -0.03358369       0.01268561       0.00459206 </v>
   <v>       0.00626152       0.00017488      -0.00453213 </v>
   <v>      -0.00359064       0.00219618       0.00682625 </v>
   <v>      -0.00235495       0.00879025      -0.00403058 </v>
   <v>       0.02608821      -0.01975034      -0.00119942 </v>
   <v>       0.00438716      -0.01867327       0.00607590 </v>
   <v>      -0.01932132       0.03457067      -0.02016754 </v>
   <v>       0.01005188       0.00246876       0.00745974 </v>
   <v>       0.00826564      -0.02423674      -0.00946841 </v>
   <v>      -0.01223151       0.00923783      -0.00953338 </v>
   <v>       0.00574195       0.00416084       0.00477438 </v>
   <v>      -0.01064155      -0.00636342      -0.02133863 </v>
   <v>      -0.00786116       0.01764140       0.01859457 </v>
   <v>      -0.01580008       0.03387343      -0.01041971 </v>
   <v>       0.00995325      -0.04294510       0.01110335 </v>
   <v>       0.01513642      -0.01665865       0.01759311 </v>
   <v>      -0.00839194      -0.01675658      -0.00366544 </v>
   <v>       0.00659506      -0.00699767       0.00069446 </v>
   <v>      -0.00181805      -0.00202222       0.00894891 </v>
   <v>      -0.01351012       0.01346602       0.00949480 </v>
   <v>       0.02244798       0.03259910      -0.03696998 </v>
   <v>      -0.00356778      -0.01034782       0.05711478 </v>
   <v>      -0.00209501       0.02913880       0.03560442 </v>
   <v>      -0.00636218       0.00535683      -0.03941964 </v>
   <v>      -0.02395321       0.01148492      -0.01513339 </v>
   <v>       0.03072715       0.02280936       0.02916091 </v>
   <v>      -0.03245990      -0.02847722      -0.08895209 </v>
   <v>      -0.01808707      -0.00519210       0.03066006 </v>
   <v>      -0.00089998      -0.01068388      -0.00046437 </v>
   <v>       0.01073457       0.01631210       0.01822640 </v>
   <v>       0.00110760      -0.00240240       0.02756044 </v>
   <v>       0.00742988      -0.03801570       0.02281437 </v>
   <v>       0.04351235       0.03944177      -0.01529558 </v>
   <v>       0.01771360      -0.02800281      -0.03943334 </v>
   <v>      -0.03054508       0.01432422      -0.01684905 </v>
   <v>       0.00008561      -0.03582583       0.04128850 </v>
   <v>      -0.02073361      -0.01206468       0.01920869 </v>
   <v>      -0.03416770       0.03367295       0.02891821 </v>
   <v>      -0.03236799       0.00171591      -0.07514636 </v>
   <v>       0.00088548      -0.02570241       0.05158321 </v>
   <v>       0.00694652       0.01470088      -0.03390905 </v>
   <v>      -0.00681967       0.00444086       0.04053951 </v>
   <v>      -0.00932531      -0.05815482      -0.00891175 </v>
   <v>      -0.01403738      -0.00408704       0.00526106 </v>
   <v>       0.02021035      -0.01826092      -0.05097629 </v>
   <v>      -0.01593330      -0.01712916       0.01129550 </v>
   <v>      -0.00934848       0.01259211      -0.00064514 </v>
   <v>       0.03622381      -0.01840576       0.01961008 </v>
   <v>       0.01148743      -0.00959616       0.02410001 </v>
   <v>       0.03282575       0.01206305      -0.00276769 </v>
   <v>      -0.00705326       0.00932895       0.01837305 </v>
   <v>       0.01776954      -0.00817894       0.00931473 </v>
   <v>       0.03164915       0.00715665      -0.02548237 </v>
   <v>      -0.01225890       0.02132175      -0.02292025 </v>
   <v>      -0.03246883      -0.02561506       0.03106117 </v>
   <v>       0.01208102       0.00782963      -0.01168823 </v>
   <v>       0.02726565       0.00429929      -0.01637182 </v>
   <v>       0.00757139      -0.04446466       0.02275157 </v>
   <v>       0.00205995      -0.00574024      -0.03066548 </v>
   <v>      -0.02358365       0.01438279       0.02896766 </v>
   <v>      -0.00276626       0.00966065      -0.02121887 </v>
   <v>      -0.00353952       0.05305888       0.02799076 </v>
   <v>       0.00504319       0.05136106      -0.00833487 </v>
   <v>      -0.04049333      -0.01075205       0.02556858 </v>
   <v>      -0.06022222      -0.01119716      -0.02482942 </v>
   <v>      -0.00955859      -0.00292881      -0.02618850 </v>
   <v>       0.02415941       0.02580974       0.04340614 </v>
   <v>       0.02756611      -0.02513154      -0.00010492 </v>
   <v>      -0.00363978      -0.00117704      -0.00502630 </v>
   <v>       0.01473754       0.01542907       0.01274826 </v>
   <v>       0.02035283       0.00674487       0.00487737 </v>
   <v>       0.02903255       0.02090125       0.00490738 </v>
   <v>       0.00918644       0.02559743      -0.01098986 </v>
   <v>      -0.02613955       0.00978940      -0.02640535 </v>
   <v>       0.02742599      -0.00935075       0.00303318 </v>
   <v>      -0.08260345       0.00737054       0.00151851 </v>
   <v>      -0.04143149      -0.02007331      -0.01752801 </v>
   <v>      -0.01077515      -0.03984440      -0.01080367 </v>
   <v>       0.00087479      -0.02529623       0.00568846 </v>
   <v>      -0.02947495       0.00362721       0.03205372 </v>
   <v>       0.00421811      -0.01608089       0.02119434 </v>
   <v>      -0.00619947      -0.01360762       0.00472759 </v>
   <v>      -0.02081639      -0.02255836      -0.00190812 </v>
   <v>       0.01259299       0.00600808      -0.02366422 </v>
   <v>       0.02167884       0.04233678       0.01095577 </v>
   <v>       0.05425144      -0.00868069       0.00331706 </v>
   <v>      -0.02785230      -0.00753219      -0.00474920 </v>
   <v>       0.00577624       0.00483790       0.01605381 </v>
   <v>      -0.00283685       0.01830102       0.01584855 </v>
   <v>       0.01744993      -0.01388151       0.00103915 </v>
   <v>      -0.00541281       0.01116086       0.03255029 </v>
   <v>       0.00902217       0.00502342      -0.00222030 </v>
   <v>       0.02527470      -0.00922766       0.00954728 </v>
   <v>       0.03830170       0.03107799       0.00187182 </v>
   <v>      -0.02389349      -0.02683645       0.02208084 </v>
   <v>       0.00322419       0.02370885       0.00028908 </v>
   <v>       0.00834537      -0.01037583       0.00676997 </v>
   <v>       0.02374510      -0.01008121      -0.00560653 </v>
   <v>       0.01358108       0.01107896      -0.00377541 </v>
   <v>       0.03325322       0.00499087      -0.00864548 </v>
   <v>       0.00404179       0.01412721       0.01097680 </v>
   <v>      -0.01268921       0.00930806       0.00342857 </v>
   <v>      -0.00473327       0.00518791       0.00684652 </v>
   <v>      -0.00222589      -0.02616704       0.02300329 </v>
   <v>      -0.02818962       0.01809686      -0.01620427 </v>
   <v>      -0.02578193       0.01517353      -0.00616085 </v>
   <v>       0.00629926      -0.00855986      -0.00981130 </v>
   <v>      -0.02850037       0.02114689       0.00736416 </v>
   <v>      -0.01120595       0.00344088       0.00419197 </v>
   <v>       0.03136347       0.01407768       0.01094077 </v>
   <v>       0.00019583       0.00823850       0.03081731 </v>
   <v>       0.01285084      -0.00235469      -0.05285462 </v>
   <v>       0.01386326      -0.01165542       0.02839393 </v>
   <v>      -0.02405410       0.00213457      -0.02285096 </v>
   <v>       0.00338611       0.00887300       0.04477220 </v>
   <v>      -0.00178855       0.01208898      -0.03783873 </v>
   <v>       0.00618017      -0.04777503      -0.01817823 </v>
   <v>       0.00380641      -0.02776839       0.00307620 </v>
   <v>       0.00450036      -0.01231024       0.00153733 </v>
   <v>      -0.00301045       0.02862276      -0.02019779 </v>
   <v>      -0.01366423       0.01278187      -0.02212467 </v>
   <v>       0.00210480      -0.00976264      -0.00359428 </v>
   <v>       0.00049805      -0.01006334      -0.02146064 </v>
   <v>       0.03616816       0.00408960       0.02212122 </v>
   <v>      -0.00867778       0.01624289      -0.02964308 </v>
   <v>      -0.01968151      -0.01904405       0.05367331 </v>
   <v>      -0.02298115       0.00041523      -0.01003594 </v>
   <v>       0.00569455      -0.02138311       0.00505696 </v>
   <v>      -0.01901803      -0.00059341      -0.00310540 </v>
   <v>      -0.01590006       0.01106237      -0.01424072 </v>
   <v>      -0.00544917      -0.01405202       0.02026221 </v>
   <v>       0.04111282      -0.02104589      -0.04900718 </v>
   <v>       0.02073216      -0.00132992       0.01540831 </v>
   <v>       0.00056447       0.00873055      -0.07104659 </v>
   <v>      -0.00034538      -0.00487280       0.01478808 </v>
   <v>       0.01059609      -0.00965658      -0.04696902 </v>
   <v>       0.00528503       0.02986364      -0.00426078 </v>
   <v>       0.01414281       0.00241412      -0.00313893 </v>
   <v>       0.00377338       0.02121604       0.02081093 </v>
   <v>       0.02577232       0.00856866       0.00773651 </v>
   <v>       0.01789654      -0.01880565      -0.02424501 </v>
  </varray>
  <varray name="stress" >
   <v>       0.12726809      -0.07103162      -0.04329262 </v>
   <v>      -0.07103182       0.24118682      -0.07751210 </v>
   <v>      -0.04329313      -0.07751222      -0.17910635 </v>
  </varray>
  <energy>
   <i name="e_fr_energy">  -1089.45576819 </i>
   <i name="e_wo_entrp">  -1089.45576819 </i>
   <i name="e_0_energy">     -0.00000000 </i>
  </energy>
  <time name="totalsc"> 1050.53 1052.96</time>
 </calculation>
 <calculation>
  <scstep>
   <time name="dav">  286.96  286.99</time>
   <time name="total">  290.71  290.81</time>
   <energy>
    <i name="alphaZ">   5611.37475927 </i>
    <i name="ewald"> -61624.66166033 </i>
    <i name="hartreedc"> -16910.86050145 </i>
    <i name="XCdc">   3074.25865889 </i>
    <i name="pawpsdc"> 113856.68306932 </i>
    <i name="pawaedc">-112908.93736962 </i>
    <i name="eentropy">     -0.00000000 </i>
    <i name="bandstr">  -7104.12392803 </i>
    <i name="atom">  74916.81196153 </i>
    <i name="e_fr_energy">  -1089.45501041 </i>
    <i name="e_wo_entrp">  -1089.45501041 </i>
    <i name="e_0_energy">  -1089.45501041 </i>
   </energy>
  </scstep>
  <scstep>
   <time name="diag">   33.37   33.38</time>
   <time name="diis">   51.90   51.90</time>
   <time name="orth">   18.85   18.85</time>
   <time name="total">  107.83  107.86</time>
   <energy>
    <i name="e_fr_energy">  -1089.46073903 </i>
    <i name="e_wo_entrp">  -1089.46073903 </i>
    <i name="e_0_energy">  -1089.46073903 </i>
   </energy>
  </scstep>
  <scstep>
   <time name="diag">   33.35   33.36</time>
   <time name="diis">   54.11   54.12</time>
   <time name="orth">   18.89   18.88</time>
   <time name="total">  110.06  110.15</time>
   <energy>
    <i name="e_fr_energy">  -1089.46103778 </i>
    <i name="e_wo_entrp">  -1089.46103778 </i>
    <i name="e_0_energy">  -1089.46103778 </i>
   </energy>
  </scstep>
  <scstep>
   <time name="diag">   33.38   33.38</time>
   <time name="diis">   48.46   48.47</time>
   <time name="orth">   18.88   18.88</time>
   <time name="total">  104.44  104.53</time>
   <energy>
    <i name="e_fr_energy">  -1089.46067371 </i>
    <i name="e_wo_entrp">  -1089.46067371 </i>
    <i name="e_0_energy">  -1089.46067371 </i>
   </energy>
  </scstep>
  <scstep>
   <time name="diag">   33.35   33.36</time>
   <time name="diis">   44.16   44.18</time>
   <time name="orth">   18.87   18.87</time>
   <time name="total">  100.10  100.18</time>
   <energy>
    <i name="e_fr_energy">  -1089.46059028 </i>
    <i name="e_wo_entrp">  -1089.46059028 </i>
    <i name="e_0_energy">  -1089.46059028 </i>
   </energy>
  </scstep>
  <scstep>
   <time name="diag">   33.38   33.38</time>
   <time name="diis">   32.70   32.71</time>
   <time name="orth">   18.85   18.85</time>
   <time name="total">   88.66   88.70</time>
   <energy>
    <i name="e_fr_energy">  -1089.46059034 </i>
    <i name="e_wo_entrp">  -1089.46059034 </i>
    <i name="e_0_energy">  -1089.46059034 </i>
   </energy>
  </scstep>
  <scstep>
   <time name="diag">   33.30   33.31</time>
   <time name="diis">   32.10   32.10</time>
   <time name="orth">   18.84   18.83</time>
   <time name="total">   87.99   88.03</time>
   <energy>
    <i name="e_fr_energy">  -1089.46059109 </i>
    <i name="e_wo_entrp">  -1089.46059109 </i>
    <i name="e_0_energy">  -1089.46059109 </i>
   </energy>
  </scstep>
  <scstep>
   <time name="diag">   33.27   33.30</time>
   <time name="diis">   31.37   31.40</time>
   <time name="orth">   18.84   18.84</time>
   <time name="total">   84.06   84.19</time>
   <energy>
    <i name="alphaZ">   5611.37475927 </i>
    <i name="ewald"> -61624.66166033 </i>
    <i name="hartreedc"> -16911.87171084 </i>
    <i name="XCdc">   3074.33480506 </i>
    <i name="pawpsdc"> 113833.06046737 </i>
    <i name="pawaedc">-112885.32083968 </i>
    <i name="eentropy">     -0.00000000 </i>
    <i name="bandstr">  -7103.18837359 </i>
    <i name="atom">  74916.81196153 </i>
    <i name="e_fr_energy">  -1089.46059121 </i>
    <i name="e_wo_entrp">  -1089.46059121 </i>
    <i name="e_0_energy">  -1089.46059121 </i>
   </energy>
  </scstep>
  <structure>
   <crystal>
    <varray name="basis" >
     <v>      11.26454721       0.01289974      -0.01300913 </v>
     <v>       0.01290677      11.26263426      -0.00057110 </v>
     <v>      -0.01835145      -0.00070122      15.83640346 </v>
    </varray>
    <i name="volume">   2009.13503293 </i>
    <varray name="rec_basis" >
     <v>       0.08877433      -0.00010173       0.00010287 </v>
     <v>      -0.00010167       0.08878929       0.00000381 </v>
     <v>       0.00007292       0.00000312       0.06314574 </v>
    </varray>
   </crystal>
   <varray name="positions" >
    <v>       0.99853413       0.25071574       0.12968805 </v>
    <v>       0.98424871       0.25176684       0.63231075 </v>
    <v>       0.99865228       0.75070358       0.14405937 </v>
    <v>       0.99864040       0.74507767       0.62172634 </v>
    <v>       0.50067148       0.25029663       0.13140289 </v>
    <v>       0.50834950       0.24779413       0.62606511 </v>
    <v>       0.50060048       0.75100947       0.13129007 </v>
    <v>       0.50215313       0.74873297       0.62599534 </v>
    <v>       0.99505442       0.25300220       0.37822644 </v>
    <v>       0.99791538       0.24816212       0.86806090 </v>
    <v>       0.00153429       0.74596606       0.37920534 </v>
    <v>       0.99803813       0.75232535       0.85518669 </v>
    <v>       0.50959121       0.25158682       0.37078525 </v>
    <v>       0.50307120       0.24926103       0.86948699 </v>
    <v>       0.49993708       0.74897492       0.37264698 </v>
    <v>       0.50296077       0.74998981       0.86827700 </v>
    <v>       0.25435370       0.00330716       0.13032582 </v>
    <v>       0.25443457       0.98717713       0.62808985 </v>
    <v>       0.25370251       0.49782484       0.13034295 </v>
    <v>       0.24857314       0.50425585       0.62616193 </v>
    <v>       0.74616635       0.00340250       0.13189273 </v>
    <v>       0.74518380       0.99904409       0.62788592 </v>
    <v>       0.74481938       0.49666232       0.13148527 </v>
    <v>       0.74989905       0.50065136       0.62560353 </v>
    <v>       0.25601158       0.99445086       0.37106875 </v>
    <v>       0.25300863       0.00503780       0.86838835 </v>
    <v>       0.25472553       0.50708536       0.37067969 </v>
    <v>       0.25196773       0.49718861       0.86859615 </v>
    <v>       0.74153300       0.00062195       0.37447338 </v>
    <v>       0.75069795       0.00131126       0.86776704 </v>
    <v>       0.74967411       0.49994159       0.37662185 </v>
    <v>       0.74732392       0.49757631       0.86695520 </v>
    <v>       0.25652083       0.25102538       0.00138675 </v>
    <v>       0.74846385       0.74676670       0.50043075 </v>
    <v>       0.74823016       0.25023243       0.24959726 </v>
    <v>       0.49739935       0.99670085       0.50008025 </v>
    <v>       0.50120225       0.49804752       0.74876104 </v>
    <v>       0.24960899       0.74917878       0.49981890 </v>
    <v>       0.74461363       0.24994487       0.99805535 </v>
    <v>       0.50107732       0.00127561       0.75040974 </v>
    <v>       0.25206961       0.24906826       0.24922485 </v>
    <v>       0.00178136       0.49908783       0.25290983 </v>
    <v>       0.25077114       0.74960801       0.24816504 </v>
    <v>       0.00148511       0.00144173       0.25495016 </v>
    <v>       0.50149674       0.50257624       0.49830499 </v>
    <v>       0.24925353       0.74903202       0.75178483 </v>
    <v>       0.00098331       0.00146020       0.74506322 </v>
    <v>       0.99930982       0.50060927       0.74889756 </v>
    <v>       0.74887548       0.75063362       0.25137600 </v>
    <v>       0.50028206       0.00617454       0.00141832 </v>
    <v>       0.49922078       0.49336561       0.00084615 </v>
    <v>       0.75299508       0.25059327       0.50161955 </v>
    <v>       0.25182715       0.25038939       0.75938092 </v>
    <v>       0.74843261       0.25013553       0.75107357 </v>
    <v>       0.49905056       0.00134309       0.24928577 </v>
    <v>       0.98642798       0.99086758       0.50001752 </v>
    <v>       0.28006492       0.75619762       0.99933112 </v>
    <v>       0.26073350       0.26244594       0.48893357 </v>
    <v>       0.72093443       0.74510659       0.00199599 </v>
    <v>       0.99832279       0.49862157       0.50209991 </v>
    <v>       0.00601211       0.02928275       0.99923980 </v>
    <v>       0.99463855       0.47060427       0.99959193 </v>
    <v>       0.75055013       0.75043425       0.74775664 </v>
    <v>       0.50062144       0.50004471       0.24945073 </v>
    <v>       0.11378448       0.13092682       0.23487123 </v>
    <v>       0.11835481       0.13514045       0.75337440 </v>
    <v>       0.11604699       0.63371337       0.25567050 </v>
    <v>       0.11790123       0.63416008       0.74437698 </v>
    <v>       0.63578419       0.38282023       0.25435941 </v>
    <v>       0.61702425       0.12953842       0.74738528 </v>
    <v>       0.62006422       0.63671149       0.24048536 </v>
    <v>       0.61801428       0.63250019       0.76070875 </v>
    <v>       0.50431796       0.98553902       0.62599935 </v>
    <v>       0.37782714       0.36689329       0.73370037 </v>
    <v>       0.38023349       0.86384639       0.24291633 </v>
    <v>       0.37960545       0.86549187       0.75817888 </v>
    <v>       0.88648072       0.36786549       0.24278558 </v>
    <v>       0.88510273       0.37136807       0.75961573 </v>
    <v>       0.88700416       0.86741891       0.26140104 </v>
    <v>       0.88639043       0.87066837       0.73796069 </v>
    <v>       0.36326299       0.11671680       0.25080693 </v>
    <v>       0.36492528       0.11819485       0.73708131 </v>
    <v>       0.36332980       0.61885299       0.24180265 </v>
    <v>       0.36494984       0.61888027       0.75750869 </v>
    <v>       0.86859752       0.11412860       0.24564806 </v>
    <v>       0.87091080       0.11596800       0.75386086 </v>
    <v>       0.25341536       0.75017756       0.37276375 </v>
    <v>       0.86863654       0.61906987       0.75280270 </v>
    <v>       0.13282060       0.38529530       0.24098500 </v>
    <v>       0.13332546       0.38377134       0.74998931 </v>
    <v>       0.13369266       0.88428501       0.24808394 </v>
    <v>       0.13444264       0.88345744       0.75117678 </v>
    <v>       0.25485956       0.75111098       0.62686562 </v>
    <v>       0.63040253       0.38321605       0.74596071 </v>
    <v>       0.63634076       0.88318270       0.24727583 </v>
    <v>       0.63317907       0.88135860       0.75961316 </v>
    <v>       0.36333495       0.39192152       0.50246502 </v>
    <v>       0.35071795       0.90584039       0.99896064 </v>
    <v>       0.86169910       0.38658884       0.49944107 </v>
    <v>       0.84445645       0.39901156       0.99967127 </v>
    <v>       0.64664844       0.59551959       0.99739127 </v>
    <v>       0.85712400       0.88625513       0.49820007 </v>
    <v>       0.15550967       0.10283310       0.00091338 </v>
    <v>       0.38023134       0.36505446       0.25708783 </v>
    <v>       0.14006664       0.61038930       0.50007728 </v>
    <v>       0.65047802       0.09922894       0.99910801 </v>
    <v>       0.62745697       0.11677417       0.50163996 </v>
    <v>       0.63975581       0.61084580       0.49855701 </v>
    <v>       0.10582757       0.34694123       0.99941407 </v>
    <v>       0.61888415       0.13404964       0.25171454 </v>
    <v>       0.77369412       0.75764500       0.11637136 </v>
    <v>       0.11514410       0.86690504       0.49962688 </v>
    <v>       0.59857081       0.34795783       0.00014326 </v>
    <v>       0.61210531       0.36403504       0.49847506 </v>
    <v>       0.59706894       0.85657003       0.99875904 </v>
    <v>       0.60938383       0.86263354       0.49500322 </v>
    <v>       0.40169624       0.15215912       0.00189501 </v>
    <v>       0.35729170       0.13106132       0.51931578 </v>
    <v>       0.22320145       0.74406918       0.11207245 </v>
    <v>       0.38905206       0.64142135       0.49949151 </v>
    <v>       0.34773530       0.40192379       0.00064368 </v>
    <v>       0.88842719       0.13723112       0.50016069 </v>
    <v>       0.11727732       0.32963717       0.52317462 </v>
    <v>       0.88760010       0.63879090       0.49736195 </v>
    <v>       0.98859235       0.96961961       0.10948594 </v>
    <v>       0.01736621       0.01544935       0.62128577 </v>
    <v>       0.00690117       0.52772313       0.11149925 </v>
    <v>       0.99460476       0.50046503       0.62696937 </v>
    <v>       0.50008467       0.49176427       0.12378395 </v>
    <v>       0.36082002       0.88656180       0.49921336 </v>
    <v>       0.01871875       0.01764634       0.37713025 </v>
    <v>       0.99725792       0.97891176       0.88456599 </v>
    <v>       0.00835767       0.48702959       0.37530930 </v>
    <v>       0.01195394       0.52640685       0.88734194 </v>
    <v>       0.49188855       0.00547635       0.37688506 </v>
    <v>       0.49343074       0.01042673       0.87462261 </v>
    <v>       0.49799662       0.50884819       0.37476672 </v>
    <v>       0.49377531       0.48660157       0.87382279 </v>
    <v>       0.23040432       0.23852086       0.37356794 </v>
    <v>       0.75479057       0.24733512       0.37444019 </v>
    <v>       0.50282872       0.51342893       0.62480410 </v>
    <v>       0.22307179       0.74353950       0.88682517 </v>
    <v>       0.89364472       0.15197782       0.99927349 </v>
    <v>       0.74420430       0.24984333       0.87570189 </v>
    <v>       0.74353658       0.74585591       0.37344688 </v>
    <v>       0.78671948       0.76403051       0.89542146 </v>
    <v>       0.25803978       0.25304503       0.12448687 </v>
    <v>       0.40117113       0.64341586       0.99898212 </v>
    <v>       0.50065207       0.00363085       0.12382312 </v>
    <v>       0.86894357       0.61565913       0.25175091 </v>
    <v>       0.74621457       0.24980004       0.12466430 </v>
    <v>       0.75264951       0.25015035       0.62521443 </v>
    <v>       0.26177663       0.25086495       0.87717264 </v>
    <v>       0.74185205       0.74820797       0.62358118 </v>
   </varray>
  </structure>
  <varray name="forces" >
   <v>      -0.01684586       0.00086330      -0.01677872 </v>
   <v>      -0.00715179       0.00196953      -0.00043372 </v>
   <v>      -0.00057401      -0.00370533      -0.02225024 </v>
   <v>      -0.00017122      -0.00716243       0.01907596 </v>
   <v>      -0.00200794      -0.00139180      -0.01993717 </v>
   <v>       0.01467427       0.01550689       0.02429354 </v>
   <v>       0.00419501       0.00810998       0.02761698 </v>
   <v>       0.01804480      -0.02151885      -0.00814419 </v>
   <v>       0.00497626       0.01360295      -0.00298794 </v>
   <v>      -0.01403707      -0.00821272      -0.02717532 </v>
   <v>      -0.00017381      -0.00619492      -0.01058369 </v>
   <v>       0.00263896      -0.00822744       0.01313647 </v>
   <v>      -0.01182316      -0.01329165       0.00758359 </v>
   <v>      -0.00356822       0.00405636       0.00653221 </v>
   <v>       0.00184794      -0.00633084       0.00360180 </v>
   <v>       0.00658184       0.00374740       0.00592521 </v>
   <v>       0.00240428       0.00448544      -0.01693123 </v>
   <v>       0.00968922      -0.00668849       0.00837879 </v>
   <v>       0.00084978      -0.00971412      -0.00250608 </v>
   <v>      -0.02214062       0.01674861      -0.00023305 </v>
   <v>       0.00192980       0.00386437      -0.01300298 </v>
   <v>       0.01341831      -0.00244059       0.01614229 </v>
   <v>      -0.01078893       0.00029053      -0.01829377 </v>
   <v>       0.00529005      -0.00720176       0.01558089 </v>
   <v>      -0.00147057      -0.00880386      -0.01855467 </v>
   <v>      -0.00019934       0.01652640       0.01995158 </v>
   <v>      -0.00762266       0.03479691       0.00079499 </v>
   <v>       0.00104506      -0.03008970      -0.00841625 </v>
   <v>       0.00818925      -0.01514276       0.00287919 </v>
   <v>      -0.01643851       0.00469793       0.00499893 </v>
   <v>      -0.00100148      -0.00236260      -0.00149124 </v>
   <v>      -0.00787229      -0.01467962       0.00948920 </v>
   <v>       0.00581613      -0.01023684      -0.02216389 </v>
   <v>      -0.02421436      -0.02686639       0.02337106 </v>
   <v>      -0.00476034       0.00562570      -0.04521563 </v>
   <v>      -0.01737616       0.00452831      -0.00979059 </v>
   <v>       0.01956792      -0.02997384       0.01221217 </v>
   <v>       0.01438471      -0.01866154       0.00220863 </v>
   <v>      -0.00316085      -0.02168735      -0.02189449 </v>
   <v>       0.02660720       0.05846270       0.07105739 </v>
   <v>       0.00211940      -0.01239250      -0.01843204 </v>
   <v>      -0.03291261       0.04699809      -0.01902550 </v>
   <v>      -0.01277447       0.00856443      -0.01719293 </v>
   <v>      -0.02014998      -0.02920500      -0.01169052 </v>
   <v>      -0.00441024       0.00105545       0.01171640 </v>
   <v>      -0.03292684      -0.03794960       0.02437885 </v>
   <v>      -0.00047788       0.02071115       0.03171298 </v>
   <v>      -0.00238587      -0.01494252       0.03960778 </v>
   <v>       0.02100937       0.01446519      -0.05430199 </v>
   <v>       0.02863344       0.01557157      -0.04209998 </v>
   <v>       0.01876069      -0.02390520      -0.04094906 </v>
   <v>       0.01034103       0.01650222       0.04301054 </v>
   <v>      -0.00447313       0.00646965      -0.00907370 </v>
   <v>       0.00019841       0.00067977       0.01622636 </v>
   <v>       0.01880450      -0.00552213      -0.00563258 </v>
   <v>       0.00898288       0.00263286       0.01460065 </v>
   <v>       0.00453787       0.02555201      -0.01028151 </v>
   <v>      -0.01074405       0.03887839       0.03123095 </v>
   <v>      -0.01561113       0.00883807       0.00574226 </v>
   <v>      -0.00445400      -0.00213238       0.02053553 </v>
   <v>      -0.01295584       0.01988232      -0.03624440 </v>
   <v>      -0.02618968       0.00199510      -0.03954086 </v>
   <v>       0.00641373      -0.00828673       0.00839564 </v>
   <v>       0.01226957       0.00366219       0.01831957 </v>
   <v>       0.03279854       0.00125341       0.01600558 </v>
   <v>       0.02314605      -0.01258115      -0.01856543 </v>
   <v>      -0.00186355       0.00376465      -0.01519058 </v>
   <v>       0.01628869       0.01374166       0.01646114 </v>
   <v>      -0.00435430       0.00059325      -0.00128912 </v>
   <v>      -0.00867072      -0.03139016      -0.03326836 </v>
   <v>       0.00251713      -0.03467775       0.02343711 </v>
   <v>       0.01914951       0.00774352      -0.03047790 </v>
   <v>      -0.02138126       0.00746937      -0.05705203 </v>
   <v>      -0.01173297       0.00184942      -0.02135359 </v>
   <v>      -0.01627208       0.02976286       0.02548156 </v>
   <v>      -0.01429848       0.02249947      -0.02420406 </v>
   <v>      -0.01553054       0.00714159       0.03040465 </v>
   <v>      -0.03253249       0.01341247      -0.02281582 </v>
[...]
       <r>   -16.5869     0.0000    32.0000 </r>
       <r>   -16.4341     0.0000    32.0000 </r>
       <r>   -16.2813     0.0000    32.0000 </r>
       <r>   -16.1285     0.0000    32.0000 </r>
       <r>   -15.9757     0.0000    32.0000 </r>
       <r>   -15.8229     0.0000    32.0000 </r>
       <r>   -15.6701     0.0000    32.0000 </r>
       <r>   -15.5173     0.0000    32.0000 </r>
       <r>   -15.3645     0.0000    32.0000 </r>
       <r>   -15.2117     0.0068    32.0010 </r>
       <r>   -15.0589    10.2561    33.5682 </r>
       <r>   -14.9061    46.2983    40.6426 </r>
       <r>   -14.7533    51.4370    48.5022 </r>
       <r>   -14.6005    31.5274    53.3196 </r>
       <r>   -14.4477    35.0433    58.6742 </r>
       <r>   -14.2949    34.6037    63.9616 </r>
       <r>   -14.1421    85.6054    77.0422 </r>
       <r>   -13.9893   107.6061    93.4844 </r>
       <r>   -13.8365   107.5187   109.9133 </r>
       <r>   -13.6837    66.6890   120.1034 </r>
       <r>   -13.5309    12.4119   121.9999 </r>
       <r>   -13.3781     0.0004   122.0000 </r>
       <r>   -13.2253     0.0000   122.0000 </r>
       <r>   -13.0725     0.0000   122.0000 </r>
       <r>   -12.9197     0.0000   122.0000 </r>
       <r>   -12.7669     1.8388   122.2810 </r>
       <r>   -12.6141    60.3656   131.5049 </r>
       <r>   -12.4613   143.7387   153.4682 </r>
       <r>   -12.3085   133.6523   173.8903 </r>
       <r>   -12.1557   122.5736   192.6196 </r>
       <r>   -12.0029    91.3328   206.5752 </r>
       <r>   -11.8501    45.8262   213.5775 </r>
       <r>   -11.6973    23.6305   217.1882 </r>
       <r>   -11.5445     5.3114   217.9998 </r>
       <r>   -11.3917     0.0011   218.0000 </r>
       <r>   -11.2389     0.0000   218.0000 </r>
       <r>   -11.0861     0.0000   218.0000 </r>
       <r>   -10.9333     0.0000   218.0000 </r>
       <r>   -10.7805     0.0000   218.0000 </r>
       <r>   -10.6277     0.0000   218.0000 </r>
       <r>   -10.4749     0.0000   218.0000 </r>
       <r>   -10.3221     0.0000   218.0000 </r>
       <r>   -10.1693     0.0000   218.0000 </r>
       <r>   -10.0165     0.0000   218.0000 </r>
       <r>    -9.8637     0.0000   218.0000 </r>
       <r>    -9.7109     0.0000   218.0000 </r>
       <r>    -9.5581     0.0000   218.0000 </r>
       <r>    -9.4053     0.0000   218.0000 </r>
       <r>    -9.2525     0.0000   218.0000 </r>
       <r>    -9.0997     0.0000   218.0000 </r>
       <r>    -8.9469     0.0000   218.0000 </r>
       <r>    -8.7941     0.0000   218.0000 </r>
       <r>    -8.6413     0.0000   218.0000 </r>
       <r>    -8.4885     0.0000   218.0000 </r>
       <r>    -8.3357     0.0000   218.0000 </r>
       <r>    -8.1829     0.0000   218.0000 </r>
       <r>    -8.0301     0.0000   218.0000 </r>
       <r>    -7.8773     0.0000   218.0000 </r>
       <r>    -7.7245     0.0000   218.0000 </r>
       <r>    -7.5717     0.0000   218.0000 </r>
       <r>    -7.4189     0.0000   218.0000 </r>
       <r>    -7.2661     0.0000   218.0000 </r>
       <r>    -7.1133     0.0000   218.0000 </r>
       <r>    -6.9605     0.0000   218.0000 </r>
       <r>    -6.8077     0.0000   218.0000 </r>
       <r>    -6.6549     0.0000   218.0000 </r>
       <r>    -6.5021     0.0000   218.0000 </r>
       <r>    -6.3493     0.0000   218.0000 </r>
       <r>    -6.1965     0.0000   218.0000 </r>
       <r>    -6.0437     0.0000   218.0000 </r>
       <r>    -5.8909     0.0000   218.0000 </r>
       <r>    -5.7381     0.0000   218.0000 </r>
       <r>    -5.5853     0.0000   218.0000 </r>
       <r>    -5.4325     0.0000   218.0000 </r>
       <r>    -5.2797     0.0000   218.0000 </r>
       <r>    -5.1269     0.0000   218.0000 </r>
       <r>    -4.9741     0.0000   218.0000 </r>
       <r>    -4.8213     0.0000   218.0000 </r>
       <r>    -4.6685     0.0000   218.0000 </r>
       <r>    -4.5157     0.0000   218.0000 </r>
       <r>    -4.3629     0.0000   218.0000 </r>
       <r>    -4.2101     0.0000   218.0000 </r>
       <r>    -4.0573     0.0000   218.0000 </r>
       <r>    -3.9045     0.0000   218.0000 </r>
       <r>    -3.7517     0.0000   218.0000 </r>
       <r>    -3.5989     0.0000   218.0000 </r>
       <r>    -3.4461     0.0000   218.0000 </r>
       <r>    -3.2933     0.0000   218.0000 </r>
       <r>    -3.1405     0.0000   218.0000 </r>
       <r>    -2.9877     0.0000   218.0000 </r>
       <r>    -2.8349     0.0000   218.0000 </r>
       <r>    -2.6821     0.0000   218.0000 </r>
       <r>    -2.5293     0.0003   218.0000 </r>
       <r>    -2.3765     4.5157   218.6900 </r>
       <r>    -2.2237    16.9073   221.2735 </r>
       <r>    -2.0709    19.5841   224.2659 </r>
       <r>    -1.9181    26.3395   228.2906 </r>
       <r>    -1.7653    41.7406   234.6686 </r>
       <r>    -1.6125    42.5269   241.1667 </r>
       <r>    -1.4597    50.4826   248.8805 </r>
       <r>    -1.3069    55.3819   257.3428 </r>
       <r>    -1.1541    69.2110   267.9183 </r>
       <r>    -1.0013    80.0846   280.1552 </r>
       <r>    -0.8485    71.9835   291.1543 </r>
       <r>    -0.6957    88.5634   304.6868 </r>
       <r>    -0.5429   101.7586   320.2356 </r>
       <r>    -0.3901    94.5167   334.6778 </r>
       <r>    -0.2373    70.3711   345.4305 </r>
       <r>    -0.0845    50.9068   353.2091 </r>
       <r>     0.0683    46.7631   360.3545 </r>
       <r>     0.2211    56.0299   368.9159 </r>
       <r>     0.3739    59.6770   378.0345 </r>
       <r>     0.5267    54.5818   386.3746 </r>
       <r>     0.6795    56.1991   394.9619 </r>
       <r>     0.8323    49.2889   402.4932 </r>
       <r>     0.9851    49.9774   410.1298 </r>
       <r>     1.1379    64.1256   419.9282 </r>
       <r>     1.2907    87.0499   433.2295 </r>
       <r>     1.4435    85.4135   446.2807 </r>
       <r>     1.5963    83.0527   458.9711 </r>
       <r>     1.7491    81.4204   471.4122 </r>
       <r>     1.9019    40.2193   477.5577 </r>
       <r>     2.0547    38.0953   483.3787 </r>
       <r>     2.2075    28.1942   487.6868 </r>
       <r>     2.3603     2.0498   488.0000 </r>
       <r>     2.5131     0.0000   488.0000 </r>
       <r>     2.6659     0.0000   488.0000 </r>
       <r>     2.8187     0.0000   488.0000 </r>
       <r>     2.9715     0.0000   488.0000 </r>
       <r>     3.1243     0.0000   488.0000 </r>
       <r>     3.2771     0.0000   488.0000 </r>
       <r>     3.4299     0.0000   488.0000 </r>
       <r>     3.5827     0.0000   488.0000 </r>
       <r>     3.7355     0.0000   488.0000 </r>
       <r>     3.8883     0.0000   488.0000 </r>
       <r>     4.0411     0.0000   488.0000 </r>
       <r>     4.1939     0.0000   488.0000 </r>
       <r>     4.3467     0.0257   488.0039 </r>
       <r>     4.4995    14.2391   490.1797 </r>
       <r>     4.6523    45.1112   497.0727 </r>
       <r>     4.8051    44.7748   503.9143 </r>
       <r>     4.9579    44.8230   510.7632 </r>
       <r>     5.1107    63.7116   520.4984 </r>
       <r>     5.2635    76.2575   532.1506 </r>
       <r>     5.4163    61.5694   541.5584 </r>
       <r>     5.5691    73.7313   552.8245 </r>
       <r>     5.7219    64.1050   562.6198 </r>
       <r>     5.8747    77.6506   574.4848 </r>
       <r>     6.0275    89.1766   588.1110 </r>
       <r>     6.1803    61.8636   597.5638 </r>
       <r>     6.3331    59.2327   606.6146 </r>
       <r>     6.4859    17.5729   609.2997 </r>
       <r>     6.6387    14.5100   611.5169 </r>
       <r>     6.7915    16.5233   614.0416 </r>
       <r>     6.9443    15.9840   616.4840 </r>
       <r>     7.0971    21.8465   619.8222 </r>
       <r>     7.2499    20.3498   622.9316 </r>
       <r>     7.4027    17.2779   625.5717 </r>
       <r>     7.5555    16.9707   628.1648 </r>
       <r>     7.7083    17.3557   630.8168 </r>
       <r>     7.8611    19.2348   633.7558 </r>
       <r>     8.0139    25.1895   637.6048 </r>
       <r>     8.1667    28.0506   641.8910 </r>
       <r>     8.3195    20.3414   644.9991 </r>
       <r>     8.4723    26.9915   649.1234 </r>
       <r>     8.6251    20.1459   652.2017 </r>
       <r>     8.7779    28.2916   656.5247 </r>
       <r>     8.9307    33.7760   661.6857 </r>
       <r>     9.0835    35.0438   667.0404 </r>
       <r>     9.2363    37.8330   672.8213 </r>
       <r>     9.3891    36.6706   678.4246 </r>
       <r>     9.5419    43.9802   685.1447 </r>
       <r>     9.6947    50.0676   692.7951 </r>
       <r>     9.8475    61.6344   702.2128 </r>
       <r>    10.0003    66.1700   712.3236 </r>
       <r>    10.1531    60.7024   721.5990 </r>
       <r>    10.3059    59.7351   730.7265 </r>
       <r>    10.4587    59.5351   739.8235 </r>
       <r>    10.6115    57.9908   748.6845 </r>
       <r>    10.7643    51.6418   756.5754 </r>
       <r>    10.9171    56.5874   765.2220 </r>
       <r>    11.0699    18.1678   767.9980 </r>
       <r>    11.2227     0.0131   768.0000 </r>
       <r>    11.3755     0.0000   768.0000 </r>
       <r>    11.5283     0.0000   768.0000 </r>
       <r>    11.6811     0.0000   768.0000 </r>
       <r>    11.8339     0.0000   768.0000 </r>
       <r>    11.9867     0.0000   768.0000 </r>
       <r>    12.1395     0.0000   768.0000 </r>
       <r>    12.2923     0.0000   768.0000 </r>
       <r>    12.4451     0.0000   768.0000 </r>
       <r>    12.5979     0.0000   768.0000 </r>
       <r>    12.7507     0.0000   768.0000 </r>
       <r>    12.9035     0.0000   768.0000 </r>
       <r>    13.0563     0.0000   768.0000 </r>
      </set>
     </set>
    </array>
   </total>
  </dos>
 </calculation>
 <structure name="finalpos" >
  <crystal>
   <varray name="basis" >
    <v>      11.26782028       0.01412908      -0.01233396 </v>
    <v>       0.01413448      11.26651111      -0.00088155 </v>
    <v>      -0.01741128      -0.00114013      15.83185256 </v>
   </varray>
   <i name="volume">   2009.83261201 </i>
   <varray name="rec_basis" >
    <v>       0.08874856      -0.00011133       0.00009759 </v>
    <v>      -0.00011129       0.08875876       0.00000627 </v>
    <v>       0.00006913       0.00000486       0.06316388 </v>
   </varray>
  </crystal>
  <varray name="positions" >
   <v>       0.99785303       0.25088417       0.13030068 </v>
   <v>       0.98435413       0.25221830       0.63177849 </v>
   <v>       0.99842454       0.75078021       0.14333881 </v>
   <v>       0.99875736       0.74532456       0.62239337 </v>
   <v>       0.50048797       0.25031518       0.13177452 </v>
   <v>       0.50895870       0.24859371       0.62610248 </v>
   <v>       0.50027741       0.75126927       0.13244921 </v>
   <v>       0.50292130       0.74833355       0.62552740 </v>
   <v>       0.99468000       0.25376774       0.37809530 </v>
   <v>       0.99742057       0.24823951       0.86705479 </v>
   <v>       0.00135124       0.74559539       0.37894020 </v>
   <v>       0.99807092       0.75234528       0.85568487 </v>
   <v>       0.50948790       0.25110796       0.37119286 </v>
   <v>       0.50319342       0.24951442       0.86968951 </v>
   <v>       0.50016491       0.74915091       0.37310693 </v>
   <v>       0.50295802       0.74981324       0.86775281 </v>
   <v>       0.25447804       0.00358779       0.13027713 </v>
   <v>       0.25512521       0.98658391       0.62828695 </v>
   <v>       0.25369923       0.49758740       0.13129388 </v>
   <v>       0.24754407       0.50431737       0.62573205 </v>
   <v>       0.74656142       0.00328239       0.13253222 </v>
   <v>       0.74551224       0.99870044       0.62763039 </v>
   <v>       0.74399981       0.49626953       0.13115049 </v>
   <v>       0.75043274       0.50029954       0.62597701 </v>
   <v>       0.25596747       0.99389146       0.37057604 </v>
   <v>       0.25349761       0.00564579       0.86856004 </v>
   <v>       0.25439419       0.50857564       0.37086622 </v>
   <v>       0.25180641       0.49623240       0.86798326 </v>
   <v>       0.74194815       0.00009648       0.37499491 </v>
   <v>       0.75046603       0.00100676       0.86721294 </v>
   <v>       0.74939543       0.49976920       0.37635084 </v>
   <v>       0.74661950       0.49738579       0.86729491 </v>
   <v>       0.25663262       0.25132918       0.00153778 </v>
   <v>       0.74886624       0.74663720       0.50050415 </v>
   <v>       0.74794011       0.25009544       0.24964331 </v>
   <v>       0.49733022       0.99701113       0.50013364 </v>
   <v>       0.50091056       0.49798270       0.74857631 </v>
   <v>       0.24934941       0.74917009       0.49986392 </v>
   <v>       0.74471342       0.24943419       0.99803870 </v>
   <v>       0.50110440       0.00148136       0.75030248 </v>
   <v>       0.25143732       0.24890615       0.24946110 </v>
   <v>       0.00115557       0.49949107       0.25248831 </v>
   <v>       0.25026799       0.74992647       0.24811050 </v>
   <v>       0.00125413       0.00111920       0.25496483 </v>
   <v>       0.50180870       0.50260863       0.49817104 </v>
   <v>       0.24919267       0.74892378       0.75202416 </v>
   <v>       0.00135792       0.00148682       0.74521105 </v>
   <v>       0.99894072       0.50079921       0.74931784 </v>
   <v>       0.74905014       0.75036129       0.25114178 </v>
   <v>       0.50069207       0.00610744       0.00163861 </v>
   <v>       0.49855016       0.49369952       0.00107271 </v>
   <v>       0.75333397       0.25065379       0.50150444 </v>
   <v>       0.25184562       0.25033894       0.75927958 </v>
   <v>       0.74836829       0.25010430       0.75083007 </v>
   <v>       0.49935964       0.00140282       0.24964603 </v>
   <v>       0.98677026       0.99053287       0.50010797 </v>
   <v>       0.28053266       0.75675404       0.99942379 </v>
   <v>       0.26095309       0.26228178       0.48861829 </v>
   <v>       0.72013383       0.74504724       0.00236767 </v>
   <v>       0.99843445       0.49926340       0.50216427 </v>
   <v>       0.00653467       0.03004355       0.99882784 </v>
   <v>       0.99397809       0.46998397       0.99928742 </v>
   <v>       0.75080617       0.75041711       0.74755571 </v>
   <v>       0.50055231       0.50003999       0.24984316 </v>
   <v>       0.11490754       0.12941683       0.23442502 </v>
   <v>       0.11988222       0.13401193       0.75307764 </v>
   <v>       0.11694976       0.63262451       0.25432506 </v>
   <v>       0.11894915       0.63285735       0.74529261 </v>
   <v>       0.63435224       0.38154161       0.25383511 </v>
   <v>       0.61811355       0.12844373       0.74626991 </v>
   <v>       0.62103561       0.63538947       0.24084647 </v>
   <v>       0.61891690       0.63139268       0.75965908 </v>
   <v>       0.50329545       0.98529746       0.62560183 </v>
   <v>       0.37600015       0.36821806       0.73313947 </v>
   <v>       0.37873915       0.86562184       0.24385277 </v>
   <v>       0.37886473       0.86656213       0.75786269 </v>
   <v>       0.88482596       0.36896557       0.24402267 </v>
   <v>       0.88325030       0.37238894       0.75890314 </v>
   <v>       0.88583684       0.86841099       0.26027311 </v>
   <v>       0.88580620       0.87135270       0.73891225 </v>
   <v>       0.36441120       0.11835279       0.25071398 </v>
   <v>       0.36596758       0.11921053       0.73691996 </v>
   <v>       0.36436641       0.62041893       0.24228814 </v>
   <v>       0.36597703       0.62002536       0.75728330 </v>
   <v>       0.87001176       0.11543089       0.24589843 </v>
   <v>       0.87214432       0.11674848       0.75346003 </v>
   <v>       0.25144085       0.74989397       0.37270594 </v>
   <v>       0.86909457       0.62000741       0.75305277 </v>
   <v>       0.13051727       0.38363893       0.24085320 </v>
   <v>       0.13151096       0.38230445       0.75049433 </v>
   <v>       0.13227535       0.88313882       0.24783084 </v>
   <v>       0.13382537       0.88229954       0.75118577 </v>
   <v>       0.25383080       0.75086223       0.62683763 </v>
   <v>       0.62865765       0.38177076       0.74665618 </v>
   <v>       0.63513570       0.88172468       0.24808745 </v>
   <v>       0.63237488       0.88021195       0.75914569 </v>
   <v>       0.36433405       0.39124774       0.50059322 </v>
   <v>       0.35069118       0.90651820       0.99903030 </v>
   <v>       0.86371618       0.38547610       0.49872369 </v>
   <v>       0.84384530       0.39888559       0.99943296 </v>
   <v>       0.64611918       0.59542077       0.99781603 </v>
   <v>       0.85743889       0.88624360       0.49855258 </v>
   <v>       0.15628156       0.10330894       0.00078151 </v>
   <v>       0.37794209       0.36653517       0.25851797 </v>
   <v>       0.13988898       0.61074848       0.50005180 </v>
   <v>       0.65114894       0.09860934       0.99956035 </v>
   <v>       0.62763889       0.11702957       0.50197979 </v>
   <v>       0.63969755       0.61148401       0.49914013 </v>
   <v>       0.10575507       0.34702506       0.99900021 </v>
   <v>       0.61981019       0.13292032       0.25177786 </v>
   <v>       0.77322362       0.75730691       0.11665756 </v>
   <v>       0.11572760       0.86727946       0.49949853 </v>
   <v>       0.59874018       0.34838997       0.00026885 </v>
   <v>       0.61326800       0.36459708       0.49845828 </v>
   <v>       0.59634512       0.85616398       0.99884169 </v>
   <v>       0.61029007       0.86318275       0.49502470 </v>
   <v>       0.40195146       0.15227148       0.00247288 </v>
   <v>       0.35772913       0.13054852       0.51843318 </v>
   <v>       0.22320817       0.74511191       0.11206110 </v>
   <v>       0.38856977       0.64066497       0.49913942 </v>
   <v>       0.34720347       0.40267408       0.00082004 </v>
   <v>       0.88846809       0.13661538       0.50000011 </v>
   <v>       0.11900265       0.33106126       0.52399081 </v>
   <v>       0.88786418       0.63873640       0.49809914 </v>
   <v>       0.98865764       0.96912611       0.10855434 </v>
   <v>       0.01751165       0.01445342       0.62135404 </v>
   <v>       0.00513742       0.52737787       0.11130933 </v>
   <v>       0.99496390       0.50130556       0.62714538 </v>
   <v>       0.49896651       0.49176442       0.12416060 </v>
   <v>       0.36187583       0.88522043       0.49862510 </v>
   <v>       0.01813735       0.01626850       0.37694097 </v>
   <v>       0.99838308       0.97937317       0.88424740 </v>
   <v>       0.00879291       0.48898903       0.37512676 </v>
   <v>       0.01036945       0.52581223       0.88702268 </v>
   <v>       0.49230058       0.00599991       0.37712306 </v>
   <v>       0.49431273       0.01071559       0.87441260 </v>
   <v>       0.50035958       0.50956112       0.37474712 </v>
   <v>       0.49311524       0.48754418       0.87380699 </v>
   <v>       0.22788026       0.23663250       0.37357536 </v>
   <v>       0.75394300       0.24718177       0.37457450 </v>
   <v>       0.50265703       0.51224189       0.62448059 </v>
   <v>       0.22345644       0.74388763       0.88693545 </v>
   <v>       0.89435384       0.15261298       0.99896020 </v>
   <v>       0.74406616       0.24855699       0.87564757 </v>
   <v>       0.74574439       0.74535804       0.37360359 </v>
   <v>       0.78697890       0.76390435       0.89612892 </v>
   <v>       0.25808791       0.25401217       0.12470016 </v>
   <v>       0.40159993       0.64425648       0.99963863 </v>
   <v>       0.50120334       0.00298510       0.12416540 </v>
   <v>       0.86967870       0.61664169       0.25145823 </v>
   <v>       0.74701382       0.24949134       0.12487755 </v>
   <v>       0.75301854       0.25142173       0.62488792 </v>
   <v>       0.26325591       0.25121892       0.87720997 </v>
   <v>       0.74304455       0.74857237       0.62358242 </v>
  </varray>
 </structure>
</modeling>
