<?xml version="1.0" encoding="ISO-8859-1"?>
<modeling>
 <generator>
  <i name="program" type="string">vasp </i>
  <i name="version" type="string">5.4.1  </i>
  <i name="subversion" type="string">05Feb16 (build Jan 25 2017 20:16:33) complex                          parallel </i>
  <i name="platform" type="string">BWXE6 </i>
  <i name="date" type="string">2019 06 24 </i>
  <i name="time" type="string">06:20:46 </i>
 </generator>
 <incar>
  <i type="string" name="SYSTEM"> STF</i>
  <i type="string" name="PREC">normal</i>
  <i type="string" name="ALGO"> Fast</i>
  <i type="int" name="ISPIN">     2</i>
  <i type="int" name="NELM">    40</i>
  <i type="int" name="NELMIN">     8</i>
  <i type="int" name="IBRION">     2</i>
  <i name="EDIFF">      0.00010000</i>
  <i name="EDIFFG">     -0.03000000</i>
  <i type="int" name="NSW">    30</i>
  <i type="int" name="ISIF">     3</i>
  <i name="ENCUT">    520.00000000</i>
  <i type="int" name="NBANDS">   768</i>
  <v name="MAGMOM">      0.60000000      0.60000000      0.60000000      0.60000000      0.60000000      0.60000000      0.60000000      0.60000000      0.60000000      0.60000000      0.60000000      0.60000000      0.60000000      0.60000000      0.60000000      0.60000000      0.60000000      0.60000000      0.60000000      0.60000000
      0.60000000      0.60000000      0.60000000      0.60000000      0.60000000      0.60000000      0.60000000      0.60000000      0.60000000      0.60000000      0.60000000      0.60000000      0.60000000      0.60000000      0.60000000      0.60000000      0.60000000      0.60000000      0.60000000      0.60000000
      0.60000000      0.60000000      0.60000000      0.60000000      0.60000000      0.60000000      0.60000000      0.60000000      0.60000000      0.60000000      0.60000000      0.60000000      5.00000000      5.00000000      5.00000000      5.00000000      5.00000000      5.00000000      5.00000000      5.00000000
      5.00000000      5.00000000      5.00000000      5.00000000      0.60000000      0.60000000      0.60000000      0.60000000      0.60000000      0.60000000      0.60000000      0.60000000      0.60000000      0.60000000      0.60000000      0.60000000      0.60000000      0.60000000      0.60000000      0.60000000
      0.60000000      0.60000000      0.60000000      0.60000000      0.60000000      0.60000000      0.60000000      0.60000000      0.60000000      0.60000000      0.60000000      0.60000000      0.60000000      0.60000000      0.60000000      0.60000000      0.60000000      0.60000000      0.60000000      0.60000000
      0.60000000      0.60000000      0.60000000      0.60000000      0.60000000      0.60000000      0.60000000      0.60000000      0.60000000      0.60000000      0.60000000      0.60000000      0.60000000      0.60000000      0.60000000      0.60000000      0.60000000      0.60000000      0.60000000      0.60000000
      0.60000000      0.60000000      0.60000000      0.60000000      0.60000000      0.60000000      0.60000000      0.60000000      0.60000000      0.60000000      0.60000000      0.60000000      0.60000000      0.60000000      0.60000000      0.60000000      0.60000000      0.60000000      0.60000000      0.60000000
      0.60000000      0.60000000      0.60000000      0.60000000      0.60000000      0.60000000      0.60000000      0.60000000      0.60000000      0.60000000      0.60000000      0.60000000      0.60000000      0.60000000</v>
  <i type="string" name="LREAL"> Auto</i>
  <i type="int" name="ISMEAR">     0</i>
  <i name="SIGMA">      0.05000000</i>
  <i type="int" name="LMAXMIX">     4</i>
  <v type="int" name="KPOINT_BSE">    -1     0     0     0</v>
  <i type="int" name="NELM">    40</i>
  <i type="logical" name="LDAU"> T  </i>
  <v type="int" name="LDAUTYPE">     2</v>
  <v type="int" name="LDAUL">     0     2     2     0</v>
  <v name="LDAUU">      0.00000000      3.00000000      5.00000000      0.00000000</v>
  <v name="LDAUJ">      0.00000000      0.00000000      0.00000000      0.00000000</v>
  <i type="int" name="LDAUPRINT">     1</i>
 </incar>
 <kpoints>
  <generation param="Monkhorst-Pack">
   <v type="int" name="divisions">       2        2        2 </v>
   <v name="usershift">      0.00000000       0.00000000       0.00000000 </v>
   <v name="genvec1">      0.50000000       0.00000000       0.00000000 </v>
   <v name="genvec2">      0.00000000       0.50000000       0.00000000 </v>
   <v name="genvec3">      0.00000000      -0.00000000       0.50000000 </v>
   <v name="shift">      0.50000000       0.50000000       0.50000000 </v>
  </generation>
  <varray name="kpointlist" >
   <v>       0.25000000       0.25000000       0.25000000 </v>
   <v>      -0.25000000       0.25000000       0.25000000 </v>
   <v>       0.25000000      -0.25000000       0.25000000 </v>
   <v>      -0.25000000      -0.25000000       0.25000000 </v>
  </varray>
  <varray name="weights" >
   <v>       0.25000000 </v>
   <v>       0.25000000 </v>
   <v>       0.25000000 </v>
   <v>       0.25000000 </v>
  </varray>
 </kpoints>
 <parameters>
  <separator name="general" >
   <i type="string" name="SYSTEM">STF</i>
   <i type="logical" name="LCOMPAT"> F  </i>
  </separator>
  <separator name="electronic" >
   <i type="string" name="PREC">normal</i>
   <i name="ENMAX">    520.00000000</i>
   <i name="ENAUG">    605.39200000</i>
   <i name="EDIFF">      0.00010000</i>
   <i type="int" name="IALGO">    68</i>
   <i type="int" name="IWAVPR">    11</i>
   <i type="int" name="NBANDS">   768</i>
   <i name="NELECT">   1036.00000000</i>
   <i type="int" name="TURBO">     0</i>
   <i type="int" name="IRESTART">     0</i>
   <i type="int" name="NREBOOT">     0</i>
   <i type="int" name="NMIN">     0</i>
   <i name="EREF">      0.00000000</i>
   <separator name="electronic smearing" >
    <i type="int" name="ISMEAR">     0</i>
    <i name="SIGMA">      0.05000000</i>
    <i name="KSPACING">      0.50000000</i>
    <i type="logical" name="KGAMMA"> T  </i>
   </separator>
   <separator name="electronic projectors" >
    <i type="logical" name="LREAL"> T  </i>
    <v name="ROPT">     -0.00050000     -0.00050000     -0.00050000     -0.00050000</v>
    <i type="int" name="LMAXPAW">  -100</i>
    <i type="int" name="LMAXMIX">     4</i>
    <i type="logical" name="NLSPLINE"> F  </i>
   </separator>
   <separator name="electronic startup" >
    <i type="int" name="ISTART">     1</i>
    <i type="int" name="ICHARG">     0</i>
    <i type="int" name="INIWAV">     1</i>
   </separator>
   <separator name="electronic spin" >
    <i type="int" name="ISPIN">     2</i>
    <i type="logical" name="LNONCOLLINEAR"> F  </i>
    <v name="MAGMOM">      0.60000000      0.60000000      0.60000000      0.60000000      0.60000000      0.60000000      0.60000000      0.60000000      0.60000000      0.60000000      0.60000000      0.60000000      0.60000000      0.60000000      0.60000000      0.60000000      0.60000000      0.60000000      0.60000000      0.60000000
      0.60000000      0.60000000      0.60000000      0.60000000      0.60000000      0.60000000      0.60000000      0.60000000      0.60000000      0.60000000      0.60000000      0.60000000      0.60000000      0.60000000      0.60000000      0.60000000      0.60000000      0.60000000      0.60000000      0.60000000
      0.60000000      0.60000000      0.60000000      0.60000000      0.60000000      0.60000000      0.60000000      0.60000000      0.60000000      0.60000000      0.60000000      0.60000000      5.00000000      5.00000000      5.00000000      5.00000000      5.00000000      5.00000000      5.00000000      5.00000000
      5.00000000      5.00000000      5.00000000      5.00000000      0.60000000      0.60000000      0.60000000      0.60000000      0.60000000      0.60000000      0.60000000      0.60000000      0.60000000      0.60000000      0.60000000      0.60000000      0.60000000      0.60000000      0.60000000      0.60000000
      0.60000000      0.60000000      0.60000000      0.60000000      0.60000000      0.60000000      0.60000000      0.60000000      0.60000000      0.60000000      0.60000000      0.60000000      0.60000000      0.60000000      0.60000000      0.60000000      0.60000000      0.60000000      0.60000000      0.60000000
      0.60000000      0.60000000      0.60000000      0.60000000      0.60000000      0.60000000      0.60000000      0.60000000      0.60000000      0.60000000      0.60000000      0.60000000      0.60000000      0.60000000      0.60000000      0.60000000      0.60000000      0.60000000      0.60000000      0.60000000
      0.60000000      0.60000000      0.60000000      0.60000000      0.60000000      0.60000000      0.60000000      0.60000000      0.60000000      0.60000000      0.60000000      0.60000000      0.60000000      0.60000000      0.60000000      0.60000000      0.60000000      0.60000000      0.60000000      0.60000000
      0.60000000      0.60000000      0.60000000      0.60000000      0.60000000      0.60000000      0.60000000      0.60000000      0.60000000      0.60000000      0.60000000      0.60000000      0.60000000      0.60000000</v>
    <i name="NUPDOWN">     -1.00000000</i>
    <i type="logical" name="LSORBIT"> F  </i>
    <v name="SAXIS">      0.00000000      0.00000000      1.00000000</v>
    <i type="logical" name="LSPIRAL"> F  </i>
    <v name="QSPIRAL">      0.00000000      0.00000000      0.00000000</v>
    <i type="logical" name="LZEROZ"> F  </i>
   </separator>
   <separator name="electronic exchange-correlation" >
    <i type="logical" name="LASPH"> F  </i>
    <i type="logical" name="LMETAGGA"> F  </i>
   </separator>
   <separator name="electronic convergence" >
    <i type="int" name="NELM">    40</i>
    <i type="int" name="NELMDL">     0</i>
    <i type="int" name="NELMIN">     8</i>
    <i name="ENINI">    520.00000000</i>
    <separator name="electronic convergence detail" >
     <i type="logical" name="LDIAG"> T  </i>
     <i type="logical" name="LSUBROT"> F  </i>
     <i name="WEIMIN">      0.00100000</i>
     <i name="EBREAK">      0.00000003</i>
     <i name="DEPER">      0.30000000</i>
     <i type="int" name="NRMM">     4</i>
     <i name="TIME">      0.40000000</i>
    </separator>
   </separator>
   <separator name="electronic mixer" >
    <i name="AMIX">      0.40000000</i>
    <i name="BMIX">      1.00000000</i>
    <i name="AMIN">      0.10000000</i>
    <i name="AMIX_MAG">      1.60000000</i>
    <i name="BMIX_MAG">      1.00000000</i>
    <separator name="electronic mixer details" >
     <i type="int" name="IMIX">     4</i>
     <i type="logical" name="MIXFIRST"> F  </i>
     <i type="int" name="MAXMIX">   -45</i>
     <i name="WC">    100.00000000</i>
     <i type="int" name="INIMIX">     1</i>
     <i type="int" name="MIXPRE">     1</i>
     <i type="int" name="MREMOVE">     5</i>
    </separator>
   </separator>
   <separator name="electronic dipolcorrection" >
    <i type="logical" name="LDIPOL"> F  </i>
    <i type="logical" name="LMONO"> F  </i>
    <i type="int" name="IDIPOL">     0</i>
    <i name="EPSILON">      1.00000000</i>
    <v name="DIPOL">   -100.00000000   -100.00000000   -100.00000000</v>
    <i name="EFIELD">      0.00000000</i>
   </separator>
  </separator>
  <separator name="grids" >
   <i type="int" name="NGX">    64</i>
   <i type="int" name="NGY">    64</i>
   <i type="int" name="NGZ">    90</i>
   <i type="int" name="NGXF">   128</i>
   <i type="int" name="NGYF">   128</i>
   <i type="int" name="NGZF">   180</i>
   <i type="logical" name="ADDGRID"> F  </i>
  </separator>
  <separator name="ionic" >
   <i type="int" name="NSW">    30</i>
   <i type="int" name="IBRION">     2</i>
   <i type="int" name="ISIF">     3</i>
   <i name="PSTRESS">      0.00000000</i>
   <i name="EDIFFG">     -0.03000000</i>
   <i type="int" name="NFREE">     1</i>
   <i name="POTIM">      0.50000000</i>
   <i name="SMASS">     -3.00000000</i>
   <i name="SCALEE">      1.00000000</i>
  </separator>
  <separator name="ionic md" >
   <i name="TEBEG">      0.00010000</i>
   <i name="TEEND">      0.00010000</i>
   <i type="int" name="NBLOCK">     1</i>
   <i type="int" name="KBLOCK">    30</i>
   <i type="int" name="NPACO">   256</i>
   <i name="APACO">     16.00000000</i>
  </separator>
  <separator name="symmetry" >
   <i type="int" name="ISYM">     2</i>
   <i name="SYMPREC">      0.00001000</i>
  </separator>
  <separator name="dos" >
   <i type="logical" name="LORBIT"> F  </i>
   <v name="RWIGS">     -1.00000000     -1.00000000     -1.00000000     -1.00000000</v>
   <i type="int" name="NEDOS">   301</i>
   <i name="EMIN">     10.00000000</i>
   <i name="EMAX">    -10.00000000</i>
   <i name="EFERMI">      0.00000000</i>
  </separator>
  <separator name="writing" >
   <i type="int" name="NWRITE">     2</i>
   <i type="logical" name="LWAVE"> T  </i>
   <i type="logical" name="LCHARG"> T  </i>
   <i type="logical" name="LPARD"> F  </i>
   <i type="logical" name="LVTOT"> F  </i>
   <i type="logical" name="LVHAR"> F  </i>
   <i type="logical" name="LELF"> F  </i>
   <i type="logical" name="LOPTICS"> F  </i>
   <v name="STM">      0.00000000      0.00000000      0.00000000      0.00000000      0.00000000      0.00000000      0.00000000</v>
  </separator>
  <separator name="performance" >
   <i type="int" name="NPAR">     2</i>
   <i type="int" name="NSIM">     4</i>
   <i type="int" name="NBLK">    -1</i>
   <i type="logical" name="LPLANE"> T  </i>
   <i type="logical" name="LSCALAPACK"> T  </i>
   <i type="logical" name="LSCAAWARE"> F  </i>
   <i type="logical" name="LSCALU"> F  </i>
   <i type="logical" name="LASYNC"> F  </i>
   <i type="logical" name="LORBITALREAL"> F  </i>
  </separator>
  <separator name="miscellaneous" >
   <i type="int" name="IDIOT">     3</i>
   <i type="logical" name="LMUSIC"> F  </i>
   <v name="POMASS">     87.62000000     47.88000000     55.84700000     16.00000000</v>
   <v name="DARWINR">      0.00000000      0.00000000      0.00000000      0.00000000</v>
   <v name="DARWINV">      1.00000000      1.00000000      1.00000000      1.00000000</v>
   <i type="logical" name="LCORR"> T  </i>
  </separator>
  <i type="logical" name="GGA_COMPAT"> T  </i>
  <i type="logical" name="LBERRY"> F  </i>
  <i type="int" name="ICORELEVEL">     0</i>
  <i type="logical" name="LDAU"> T  </i>
  <v type="int" name="LDAUTYPE">     2</v>
  <v type="int" name="LDAUL">     0</v>
  <v name="LDAUU">      0.00000000</v>
  <v name="LDAUJ">      0.00000000</v>
  <i type="int" name="LDAUPRINT">     1</i>
  <i type="int" name="I_CONSTRAINED_M">     0</i>
  <separator name="electronic exchange-correlation" >
   <i type="string" name="GGA">--</i>
   <i type="int" name="VOSKOWN">     0</i>
   <i type="logical" name="LHFCALC"> F  </i>
   <i type="string" name="PRECFOCK"></i>
   <i type="logical" name="LSYMGRAD"> F  </i>
   <i type="logical" name="LHFONE"> F  </i>
   <i type="logical" name="LRHFCALC"> F  </i>
   <i type="logical" name="LTHOMAS"> F  </i>
   <i type="logical" name="LMODELHF"> F  </i>
   <i name="ENCUT4O">     -1.00000000</i>
   <i type="int" name="EXXOEP">     0</i>
   <i type="int" name="FOURORBIT">     0</i>
   <i name="AEXX">      0.00000000</i>
   <i name="HFALPHA">      0.00000000</i>
   <i name="MCALPHA">      0.00000000</i>
   <i name="ALDAX">      1.00000000</i>
   <i name="AGGAX">      1.00000000</i>
   <i name="ALDAC">      1.00000000</i>
   <i name="AGGAC">      1.00000000</i>
   <i type="int" name="NKREDX">     1</i>
   <i type="int" name="NKREDY">     1</i>
   <i type="int" name="NKREDZ">     1</i>
   <i type="logical" name="SHIFTRED"> F  </i>
   <i type="logical" name="ODDONLY"> F  </i>
   <i type="logical" name="EVENONLY"> F  </i>
   <i type="int" name="LMAXFOCK">     0</i>
   <i type="int" name="NMAXFOCKAE">     0</i>
   <i type="logical" name="LFOCKAEDFT"> F  </i>
   <i name="HFSCREEN">      0.00000000</i>
   <i name="HFSCREENC">      0.00000000</i>
   <i type="int" name="NBANDSGWLOW">     0</i>
  </separator>
  <separator name="vdW DFT" >
   <i type="logical" name="LUSE_VDW"> F  </i>
   <i name="Zab_VDW">     -0.84910000</i>
   <i name="PARAM1">      0.12340000</i>
   <i name="PARAM2">      1.00000000</i>
   <i name="PARAM3">      0.00000000</i>
  </separator>
  <separator name="model GW" >
   <i type="int" name="MODEL_GW">     0</i>
   <i name="MODEL_EPS0">      7.82080966</i>
   <i name="MODEL_ALPHA">      1.00000000</i>
  </separator>
  <separator name="linear response parameters" >
   <i type="logical" name="LEPSILON"> F  </i>
   <i type="logical" name="LRPA"> F  </i>
   <i type="logical" name="LNABLA"> F  </i>
   <i type="logical" name="LVEL"> F  </i>
   <i type="int" name="KINTER">     0</i>
   <i name="CSHIFT">      0.10000000</i>
   <i name="OMEGAMAX">     -1.00000000</i>
   <i name="DEG_THRESHOLD">      0.00200000</i>
  </separator>
  <separator name="orbital magnetization" >
   <i type="logical" name="NUCIND"> F  </i>
   <v name="MAGPOS">      0.00000000      0.00000000      0.00000000</v>
   <i type="logical" name="LNICSALL"> T  </i>
   <i type="logical" name="ORBITALMAG"> F  </i>
   <i type="logical" name="LMAGBLOCH"> F  </i>
   <i type="logical" name="LCHIMAG"> F  </i>
   <i type="logical" name="LGAUGE"> T  </i>
   <i type="int" name="MAGATOM">     0</i>
   <v name="MAGDIPOL">      0.00000000      0.00000000      0.00000000</v>
   <v name="AVECCONST">      0.00000000      0.00000000      0.00000000</v>
  </separator>
  <separator name="response functions" >
   <i type="logical" name="LADDER"> F  </i>
   <i type="logical" name="LFXC"> F  </i>
   <i type="logical" name="LHARTREE"> T  </i>
   <i type="int" name="IBSE">     0</i>
   <v type="int" name="KPOINT">    -1     0     0     0</v>
   <i type="logical" name="LTCTE"> F  </i>
   <i type="logical" name="LTETE"> F  </i>
   <i type="logical" name="LTRIPLET"> F  </i>
   <i type="logical" name="LFXCEPS"> F  </i>
   <i type="logical" name="LFXHEG"> F  </i>
   <i type="int" name="NATURALO">     0</i>
   <i type="logical" name="L2ORDER"> F  </i>
   <i type="logical" name="LUSEW"> F  </i>
   <i name="ENCUTGW">     -2.00000000</i>
   <i name="ENCUTGWSOFT">     -2.00000000</i>
   <i name="ENCUTLF">     -1.00000000</i>
   <i type="int" name="LMAXMP2">    -1</i>
   <i name="SCISSOR">      0.00000000</i>
   <i type="int" name="NOMEGA">     0</i>
   <i type="int" name="NOMEGAR">     0</i>
   <i type="int" name="NBANDSGW">    -1</i>
   <i type="int" name="NBANDSO">    -1</i>
   <i type="int" name="NBANDSV">    -1</i>
   <i type="int" name="NELM">    40</i>
   <i type="int" name="NELMHF">     1</i>
   <i type="int" name="DIM">     3</i>
   <i type="int" name="ANTIRES">     0</i>
   <i name="OMEGAMAX">    -30.00000000</i>
   <i name="OMEGAMIN">    -30.00000000</i>
   <i name="OMEGATL">   -200.00000000</i>
   <i type="int" name="OMEGAGRID">     0</i>
   <i name="CSHIFT">     -0.10000000</i>
   <i type="logical" name="SELFENERGY"> F  </i>
   <i type="logical" name="LSPECTRAL"> F  </i>
   <i type="logical" name="LSPECTRALGW"> F  </i>
   <i type="logical" name="LSINGLES"> F  </i>
   <i type="logical" name="LFERMIGW"> F  </i>
   <i type="logical" name="ODDONLYGW"> F  </i>
   <i type="logical" name="EVENONLYGW"> F  </i>
   <i type="int" name="NKREDLFX">     1</i>
   <i type="int" name="NKREDLFY">     1</i>
   <i type="int" name="NKREDLFZ">     1</i>
   <i type="int" name="MAXMEM">  1800</i>
   <i type="int" name="TELESCOPE">     0</i>
   <i type="int" name="TAUPAR">     1</i>
   <i type="int" name="OMEGAPAR">    -1</i>
   <i name="LAMBDA">      1.00000000</i>
  </separator>
  <separator name="External order field" >
   <i name="OFIELD_KAPPA">      0.00000000</i>
   <v name="OFIELD_K">      0.00000000      0.00000000      0.00000000</v>
   <i name="OFIELD_Q6_NEAR">      0.00000000</i>
   <i name="OFIELD_Q6_FAR">      0.00000000</i>
   <i name="OFIELD_A">      0.00000000</i>
  </separator>
 </parameters>
 <atominfo>
  <atoms>     154 </atoms>
  <types>       4 </types>
  <array name="atoms" >
   <dimension dim="1">ion</dimension>
   <field type="string">element</field>
   <field type="int">atomtype</field>
   <set>
    <rc><c>Sr</c><c>   1</c></rc>
    <rc><c>Sr</c><c>   1</c></rc>
    <rc><c>Sr</c><c>   1</c></rc>
    <rc><c>Sr</c><c>   1</c></rc>
    <rc><c>Sr</c><c>   1</c></rc>
    <rc><c>Sr</c><c>   1</c></rc>
    <rc><c>Sr</c><c>   1</c></rc>
    <rc><c>Sr</c><c>   1</c></rc>
    <rc><c>Sr</c><c>   1</c></rc>
    <rc><c>Sr</c><c>   1</c></rc>
    <rc><c>Sr</c><c>   1</c></rc>
    <rc><c>Sr</c><c>   1</c></rc>
    <rc><c>Sr</c><c>   1</c></rc>
    <rc><c>Sr</c><c>   1</c></rc>
    <rc><c>Sr</c><c>   1</c></rc>
    <rc><c>Sr</c><c>   1</c></rc>
    <rc><c>Sr</c><c>   1</c></rc>
    <rc><c>Sr</c><c>   1</c></rc>
    <rc><c>Sr</c><c>   1</c></rc>
    <rc><c>Sr</c><c>   1</c></rc>
    <rc><c>Sr</c><c>   1</c></rc>
    <rc><c>Sr</c><c>   1</c></rc>
    <rc><c>Sr</c><c>   1</c></rc>
    <rc><c>Sr</c><c>   1</c></rc>
    <rc><c>Sr</c><c>   1</c></rc>
    <rc><c>Sr</c><c>   1</c></rc>
    <rc><c>Sr</c><c>   1</c></rc>
    <rc><c>Sr</c><c>   1</c></rc>
    <rc><c>Sr</c><c>   1</c></rc>
    <rc><c>Sr</c><c>   1</c></rc>
    <rc><c>Sr</c><c>   1</c></rc>
    <rc><c>Sr</c><c>   1</c></rc>
    <rc><c>Ti</c><c>   2</c></rc>
    <rc><c>Ti</c><c>   2</c></rc>
    <rc><c>Ti</c><c>   2</c></rc>
    <rc><c>Ti</c><c>   2</c></rc>
    <rc><c>Ti</c><c>   2</c></rc>
    <rc><c>Ti</c><c>   2</c></rc>
    <rc><c>Ti</c><c>   2</c></rc>
    <rc><c>Ti</c><c>   2</c></rc>
    <rc><c>Ti</c><c>   2</c></rc>
    <rc><c>Ti</c><c>   2</c></rc>
    <rc><c>Ti</c><c>   2</c></rc>
    <rc><c>Ti</c><c>   2</c></rc>
    <rc><c>Ti</c><c>   2</c></rc>
    <rc><c>Ti</c><c>   2</c></rc>
    <rc><c>Ti</c><c>   2</c></rc>
    <rc><c>Ti</c><c>   2</c></rc>
    <rc><c>Ti</c><c>   2</c></rc>
    <rc><c>Ti</c><c>   2</c></rc>
    <rc><c>Ti</c><c>   2</c></rc>
    <rc><c>Ti</c><c>   2</c></rc>
    <rc><c>Fe</c><c>   3</c></rc>
    <rc><c>Fe</c><c>   3</c></rc>
    <rc><c>Fe</c><c>   3</c></rc>
    <rc><c>Fe</c><c>   3</c></rc>
    <rc><c>Fe</c><c>   3</c></rc>
    <rc><c>Fe</c><c>   3</c></rc>
    <rc><c>Fe</c><c>   3</c></rc>
    <rc><c>Fe</c><c>   3</c></rc>
    <rc><c>Fe</c><c>   3</c></rc>
    <rc><c>Fe</c><c>   3</c></rc>
    <rc><c>Fe</c><c>   3</c></rc>
    <rc><c>Fe</c><c>   3</c></rc>
    <rc><c>O </c><c>   4</c></rc>
    <rc><c>O </c><c>   4</c></rc>
    <rc><c>O </c><c>   4</c></rc>
    <rc><c>O </c><c>   4</c></rc>
    <rc><c>O </c><c>   4</c></rc>
    <rc><c>O </c><c>   4</c></rc>
    <rc><c>O </c><c>   4</c></rc>
    <rc><c>O </c><c>   4</c></rc>
    <rc><c>O </c><c>   4</c></rc>
    <rc><c>O </c><c>   4</c></rc>
    <rc><c>O </c><c>   4</c></rc>
    <rc><c>O </c><c>   4</c></rc>
    <rc><c>O </c><c>   4</c></rc>
    <rc><c>O </c><c>   4</c></rc>
    <rc><c>O </c><c>   4</c></rc>
    <rc><c>O </c><c>   4</c></rc>
    <rc><c>O </c><c>   4</c></rc>
    <rc><c>O </c><c>   4</c></rc>
    <rc><c>O </c><c>   4</c></rc>
    <rc><c>O </c><c>   4</c></rc>
    <rc><c>O </c><c>   4</c></rc>
    <rc><c>O </c><c>   4</c></rc>
    <rc><c>O </c><c>   4</c></rc>
    <rc><c>O </c><c>   4</c></rc>
    <rc><c>O </c><c>   4</c></rc>
    <rc><c>O </c><c>   4</c></rc>
    <rc><c>O </c><c>   4</c></rc>
    <rc><c>O </c><c>   4</c></rc>
    <rc><c>O </c><c>   4</c></rc>
    <rc><c>O </c><c>   4</c></rc>
    <rc><c>O </c><c>   4</c></rc>
    <rc><c>O </c><c>   4</c></rc>
    <rc><c>O </c><c>   4</c></rc>
    <rc><c>O </c><c>   4</c></rc>
    <rc><c>O </c><c>   4</c></rc>
    <rc><c>O </c><c>   4</c></rc>
    <rc><c>O </c><c>   4</c></rc>
    <rc><c>O </c><c>   4</c></rc>
    <rc><c>O </c><c>   4</c></rc>
    <rc><c>O </c><c>   4</c></rc>
    <rc><c>O </c><c>   4</c></rc>
    <rc><c>O </c><c>   4</c></rc>
    <rc><c>O </c><c>   4</c></rc>
    <rc><c>O </c><c>   4</c></rc>
    <rc><c>O </c><c>   4</c></rc>
    <rc><c>O </c><c>   4</c></rc>
    <rc><c>O </c><c>   4</c></rc>
    <rc><c>O </c><c>   4</c></rc>
    <rc><c>O </c><c>   4</c></rc>
    <rc><c>O </c><c>   4</c></rc>
    <rc><c>O </c><c>   4</c></rc>
    <rc><c>O </c><c>   4</c></rc>
    <rc><c>O </c><c>   4</c></rc>
    <rc><c>O </c><c>   4</c></rc>
    <rc><c>O </c><c>   4</c></rc>
    <rc><c>O </c><c>   4</c></rc>
    <rc><c>O </c><c>   4</c></rc>
    <rc><c>O </c><c>   4</c></rc>
    <rc><c>O </c><c>   4</c></rc>
    <rc><c>O </c><c>   4</c></rc>
    <rc><c>O </c><c>   4</c></rc>
    <rc><c>O </c><c>   4</c></rc>
    <rc><c>O </c><c>   4</c></rc>
    <rc><c>O </c><c>   4</c></rc>
    <rc><c>O </c><c>   4</c></rc>
    <rc><c>O </c><c>   4</c></rc>
    <rc><c>O </c><c>   4</c></rc>
    <rc><c>O </c><c>   4</c></rc>
    <rc><c>O </c><c>   4</c></rc>
    <rc><c>O </c><c>   4</c></rc>
    <rc><c>O </c><c>   4</c></rc>
    <rc><c>O </c><c>   4</c></rc>
    <rc><c>O </c><c>   4</c></rc>
    <rc><c>O </c><c>   4</c></rc>
    <rc><c>O </c><c>   4</c></rc>
    <rc><c>O </c><c>   4</c></rc>
    <rc><c>O </c><c>   4</c></rc>
    <rc><c>O </c><c>   4</c></rc>
    <rc><c>O </c><c>   4</c></rc>
    <rc><c>O </c><c>   4</c></rc>
    <rc><c>O </c><c>   4</c></rc>
    <rc><c>O </c><c>   4</c></rc>
    <rc><c>O </c><c>   4</c></rc>
    <rc><c>O </c><c>   4</c></rc>
    <rc><c>O </c><c>   4</c></rc>
    <rc><c>O </c><c>   4</c></rc>
    <rc><c>O </c><c>   4</c></rc>
    <rc><c>O </c><c>   4</c></rc>
    <rc><c>O </c><c>   4</c></rc>
    <rc><c>O </c><c>   4</c></rc>
   </set>
  </array>
  <array name="atomtypes" >
   <dimension dim="1">type</dimension>
   <field type="int">atomspertype</field>
   <field type="string">element</field>
   <field>mass</field>
   <field>valence</field>
   <field type="string">pseudopotential</field>
   <set>
    <rc><c>  32</c><c>Sr</c><c>     87.62000000</c><c>     10.00000000</c><c>  PAW_PBE Sr_sv 07Sep2000               </c></rc>
    <rc><c>  20</c><c>Ti</c><c>     47.88000000</c><c>      4.00000000</c><c>  PAW_PBE Ti 08Apr2002                  </c></rc>
    <rc><c>  12</c><c>Fe</c><c>     55.84700000</c><c>      8.00000000</c><c>  PAW_PBE Fe 06Sep2000                  </c></rc>
    <rc><c>  90</c><c>O </c><c>     16.00000000</c><c>      6.00000000</c><c>  PAW_PBE O 08Apr2002                   </c></rc>
   </set>
  </array>
 </atominfo>
 <structure name="initialpos" >
  <crystal>
   <varray name="basis" >
    <v>      11.24664814      -0.00395656       0.01665539 </v>
    <v>      -0.00390106      11.24844864       0.00584687 </v>
    <v>       0.02389346       0.00851142      15.86743002 </v>
   </varray>
   <i name="volume">   2007.34114539 </i>
   <varray name="rec_basis" >
    <v>       0.08891559       0.00003091      -0.00013391 </v>
    <v>       0.00003135       0.08890118      -0.00004773 </v>
    <v>      -0.00009334      -0.00003279       0.06302234 </v>
   </varray>
  </crystal>
  <varray name="positions" >
   <v>       0.99858119       0.26258685       0.12274095 </v>
   <v>       0.01101699       0.25604882       0.62191925 </v>
   <v>       0.00175381       0.73905856       0.12101068 </v>
   <v>       0.99529775       0.74919077       0.62622112 </v>
   <v>       0.50144213       0.24628765       0.12205402 </v>
   <v>       0.49452332       0.25188704       0.62514816 </v>
   <v>       0.49903694       0.75009574       0.12327987 </v>
   <v>       0.50860831       0.74582493       0.62527284 </v>
   <v>       0.99568161       0.26366577       0.37698284 </v>
   <v>       0.01362855       0.24600753       0.87612692 </v>
   <v>       0.00582462       0.73896851       0.37368080 </v>
   <v>       0.99550191       0.74810787       0.88096490 </v>
   <v>       0.50870044       0.24785088       0.37195299 </v>
   <v>       0.48087294       0.24807293       0.88152323 </v>
   <v>       0.49621109       0.75444328       0.37397407 </v>
   <v>       0.50451522       0.74572566       0.88222214 </v>
   <v>       0.25726353       0.00036171       0.11760590 </v>
   <v>       0.24486582       0.01640886       0.62624441 </v>
   <v>       0.24070620       0.49795006       0.12187364 </v>
   <v>       0.24552534       0.49097469       0.62702751 </v>
   <v>       0.74662038       0.99997537       0.12317171 </v>
   <v>       0.75682026       0.00905552       0.63294026 </v>
   <v>       0.75826129       0.50175982       0.13046828 </v>
   <v>       0.75794706       0.50238920       0.61843101 </v>
   <v>       0.25413268       0.00148057       0.37807170 </v>
   <v>       0.24969235       0.01105636       0.88032678 </v>
   <v>       0.23813913       0.49949572       0.36830692 </v>
   <v>       0.24481303       0.48347240       0.88211872 </v>
   <v>       0.74830875       0.01288380       0.37462506 </v>
   <v>       0.75146008       0.98420515       0.88279283 </v>
   <v>       0.76269595       0.49079351       0.37219175 </v>
   <v>       0.75205222       0.50606236       0.87736549 </v>
   <v>       0.00222836       0.99978712       0.99928437 </v>
   <v>       0.99833148       0.00196081       0.49978418 </v>
   <v>       0.50270750       0.00525053       0.50150526 </v>
   <v>       0.49957783       0.49856348       0.00187294 </v>
   <v>       0.25035713       0.74885426       0.00165773 </v>
   <v>       0.25323799       0.74900986       0.49445345 </v>
   <v>       0.74919825       0.25115687       0.00777031 </v>
   <v>       0.74965839       0.25333480       0.49772690 </v>
   <v>       0.74909851       0.74717378       0.00312383 </v>
   <v>       0.75366011       0.75561769       0.50541821 </v>
   <v>       0.26180199       0.25731497       0.24878449 </v>
   <v>       0.25110810       0.75086170       0.24503995 </v>
   <v>       0.24964254       0.74080029       0.75734382 </v>
   <v>       0.75291973       0.74966803       0.75383748 </v>
   <v>       0.99024626       0.98777863       0.25104251 </v>
   <v>       0.00131498       0.49818338       0.75015648 </v>
   <v>       0.50280779       0.99688880       0.24970693 </v>
   <v>       0.48859218       0.98613538       0.74859047 </v>
   <v>       0.50500671       0.50218875       0.25395885 </v>
   <v>       0.49816530       0.49569529       0.74947303 </v>
   <v>       0.00039598       0.49862654       0.99829397 </v>
   <v>       0.00579373       0.50199172       0.50069995 </v>
   <v>       0.50106465       0.99959456       0.99770189 </v>
   <v>       0.51434868       0.51185992       0.49664441 </v>
   <v>       0.24730054       0.24616877       0.00354696 </v>
   <v>       0.24107569       0.24087425       0.49886517 </v>
   <v>       0.24970235       0.25114884       0.74906853 </v>
   <v>       0.75299079       0.25177381       0.25250874 </v>
   <v>       0.75237079       0.27091079       0.74092595 </v>
   <v>       0.74498602       0.74775852       0.24492552 </v>
   <v>       0.01045070       0.98740203       0.74967997 </v>
   <v>       0.99700014       0.50054142       0.25057738 </v>
   <v>       0.11129072       0.12984731       0.74176986 </v>
   <v>       0.12174947       0.63534078       0.24690453 </v>
   <v>       0.12577042       0.63201639       0.73013171 </v>
   <v>       0.61814028       0.12830304       0.25199622 </v>
   <v>       0.61677446       0.63168649       0.27153089 </v>
   <v>       0.62450528       0.62401166       0.74721012 </v>
   <v>       0.38274611       0.36629933       0.23701699 </v>
   <v>       0.37580597       0.37835926       0.75064495 </v>
   <v>       0.38764875       0.86138232       0.25069903 </v>
   <v>       0.37573084       0.86619116       0.73415244 </v>
   <v>       0.87695025       0.37313561       0.25326656 </v>
   <v>       0.88112018       0.36996240       0.76519974 </v>
   <v>       0.87988419       0.86696245       0.26304883 </v>
   <v>       0.87986791       0.86734283       0.75050485 </v>
   <v>       0.36017865       0.10916584       0.24475898 </v>
   <v>       0.38339612       0.12320177       0.74244064 </v>
   <v>       0.36689157       0.61664987       0.24113588 </v>
   <v>       0.37188781       0.62815842       0.72664478 </v>
   <v>       0.88269644       0.12236944       0.24108250 </v>
   <v>       0.79066979       0.12059735       0.77130485 </v>
   <v>       0.86327651       0.62752106       0.26175408 </v>
   <v>       0.86999204       0.62104417       0.74142316 </v>
   <v>       0.12722142       0.36645070       0.25480949 </v>
   <v>       0.12787712       0.38145245       0.75244828 </v>
   <v>       0.14000079       0.89180636       0.25766223 </v>
   <v>       0.13974802       0.87245688       0.73622771 </v>
   <v>       0.62664771       0.38187173       0.26192554 </v>
   <v>       0.61785202       0.36221282       0.77122594 </v>
   <v>       0.63589639       0.87836776       0.26931114 </v>
   <v>       0.62863185       0.87706942       0.75413252 </v>
   <v>       0.37217816       0.37983466       0.01016837 </v>
   <v>       0.36865760       0.87817408       0.99153009 </v>
   <v>       0.37021328       0.87802336       0.52171835 </v>
   <v>       0.86612948       0.37248079       0.98112067 </v>
   <v>       0.87266684       0.37673225       0.49684628 </v>
   <v>       0.86990477       0.87806463       0.00662203 </v>
   <v>       0.87147821       0.87628889       0.47353750 </v>
   <v>       0.12942931       0.11311426       0.99600330 </v>
   <v>       0.12473847       0.12124982       0.50956104 </v>
   <v>       0.13391484       0.62122783       0.00550510 </v>
   <v>       0.13320392       0.63409306       0.52031898 </v>
   <v>       0.63688861       0.12257559       0.99004315 </v>
   <v>       0.63176886       0.11857334       0.49480336 </v>
   <v>       0.63032352       0.61843459       0.99557451 </v>
   <v>       0.63774240       0.62733375       0.48120966 </v>
   <v>       0.11945547       0.36828391       0.99776087 </v>
   <v>       0.14319610       0.38245694       0.49473715 </v>
   <v>       0.11931777       0.86559675       0.99192865 </v>
   <v>       0.12590791       0.87334398       0.50464513 </v>
   <v>       0.62048273       0.36671778       0.98206938 </v>
   <v>       0.61379363       0.36691518       0.48992744 </v>
   <v>       0.62050998       0.86610017       0.99421514 </v>
   <v>       0.62334603       0.86844047       0.48591975 </v>
   <v>       0.38261925       0.12868923       0.00802241 </v>
   <v>       0.38656752       0.13739461       0.50550020 </v>
   <v>       0.38196090       0.63076637       0.01180236 </v>
   <v>       0.37780882       0.62976827       0.51606332 </v>
   <v>       0.87894476       0.13003239       0.99971487 </v>
   <v>       0.87715969       0.12676009       0.50371933 </v>
   <v>       0.87772446       0.63013887       0.00387533 </v>
   <v>       0.87706057       0.63584754       0.49603635 </v>
   <v>       0.01341823       0.99522906       0.12782244 </v>
   <v>       0.98321551       0.99167040       0.62270955 </v>
   <v>       0.99377597       0.49678492       0.12539778 </v>
   <v>       0.99161763       0.48690755       0.62497658 </v>
   <v>       0.51395517       0.98928781       0.12705350 </v>
   <v>       0.52939475       0.01106739       0.62885149 </v>
   <v>       0.52384664       0.49971147       0.12694635 </v>
   <v>       0.51351320       0.48472974       0.62160399 </v>
   <v>       0.01857978       0.02727576       0.37048652 </v>
   <v>       0.99836688       0.99652674       0.87306272 </v>
   <v>       0.00951801       0.50979899       0.37748902 </v>
   <v>       0.00887257       0.52168008       0.87136579 </v>
   <v>       0.48414989       0.00007653       0.37863081 </v>
   <v>       0.50069286       0.00861360       0.86786136 </v>
   <v>       0.46387181       0.48742220       0.37995340 </v>
   <v>       0.48152717       0.51593877       0.87461636 </v>
   <v>       0.25494413       0.23756567       0.37260454 </v>
   <v>       0.25371436       0.24331707       0.87455461 </v>
   <v>       0.25691661       0.74413912       0.37731212 </v>
   <v>       0.25523725       0.73167691       0.87255654 </v>
   <v>       0.75765975       0.24193606       0.37527275 </v>
   <v>       0.75678199       0.74438905       0.87516063 </v>
   <v>       0.22388968       0.23039322       0.13189055 </v>
   <v>       0.26011671       0.26394262       0.62100127 </v>
   <v>       0.24615923       0.76541098       0.12432729 </v>
   <v>       0.74141954       0.26178268       0.12401038 </v>
   <v>       0.73936080       0.25816957       0.62338311 </v>
   <v>       0.73711406       0.74930517       0.12692792 </v>
   <v>       0.74778481       0.76053682       0.62169974 </v>
  </varray>
 </structure>
 <calculation>
  <scstep>
   <time name="dav">  595.78  595.77</time>
   <time name="total">  602.98  603.05</time>
   <energy>
    <i name="alphaZ">   5616.38944017 </i>
    <i name="ewald"> -61606.21946938 </i>
    <i name="hartreedc"> -16947.25843452 </i>
    <i name="XCdc">   3073.50004731 </i>
    <i name="pawpsdc"> 113142.13212771 </i>
    <i name="pawaedc">-112193.60922087 </i>
    <i name="eentropy">     -0.00000000 </i>
    <i name="bandstr">  -7088.55177601 </i>
    <i name="atom">  74916.81196153 </i>
    <i name="e_fr_energy">  -1086.80532406 </i>
    <i name="e_wo_entrp">  -1086.80532406 </i>
    <i name="e_0_energy">  -1086.80532406 </i>
   </energy>
  </scstep>
  <scstep>
   <time name="diag">   64.96   65.03</time>
   <time name="diis">   61.76   61.76</time>
   <time name="orth">   32.71   32.73</time>
   <time name="total">  166.65  310.17</time>
   <energy>
    <i name="e_fr_energy">  -1086.80532389 </i>
    <i name="e_wo_entrp">  -1086.80532389 </i>
    <i name="e_0_energy">  -1086.80532389 </i>
   </energy>
  </scstep>
  <scstep>
   <time name="diag">   64.94   64.96</time>
   <time name="diis">   56.43   56.43</time>
   <time name="orth">   32.69   32.72</time>
   <time name="total">  161.29  330.06</time>
   <energy>
    <i name="e_fr_energy">  -1086.80532405 </i>
    <i name="e_wo_entrp">  -1086.80532405 </i>
    <i name="e_0_energy">  -1086.80532405 </i>
   </energy>
  </scstep>
  <scstep>
   <time name="diag">   64.83   64.84</time>
   <time name="diis">   47.01   47.05</time>
   <time name="orth">   32.71   32.73</time>
   <time name="total">  151.78  240.30</time>
   <energy>
    <i name="e_fr_energy">  -1086.80532416 </i>
    <i name="e_wo_entrp">  -1086.80532416 </i>
    <i name="e_0_energy">  -1086.80532416 </i>
   </energy>
  </scstep>
  <scstep>
   <time name="diag">   64.94   64.95</time>
   <time name="diis">   45.67   45.67</time>
   <time name="orth">   32.73   32.76</time>
   <time name="total">  150.57  202.56</time>
   <energy>
    <i name="e_fr_energy">  -1086.80532423 </i>
    <i name="e_wo_entrp">  -1086.80532423 </i>
    <i name="e_0_energy">  -1086.80532423 </i>
   </energy>
  </scstep>
  <scstep>
   <time name="diag">   64.91   64.92</time>
   <time name="diis">   43.29   43.34</time>
   <time name="orth">   32.78   32.79</time>
   <time name="total">  148.21  256.19</time>
   <energy>
    <i name="e_fr_energy">  -1086.80532426 </i>
    <i name="e_wo_entrp">  -1086.80532426 </i>
    <i name="e_0_energy">  -1086.80532426 </i>
   </energy>
  </scstep>
  <scstep>
   <time name="diag">   64.82   64.82</time>
   <time name="diis">   43.13   43.13</time>
   <time name="orth">   32.81   32.83</time>
   <time name="total">  147.97  232.45</time>
   <energy>
    <i name="e_fr_energy">  -1086.80532427 </i>
    <i name="e_wo_entrp">  -1086.80532427 </i>
    <i name="e_0_energy">  -1086.80532427 </i>
   </energy>
  </scstep>
  <scstep>
   <time name="diag">   64.72   64.76</time>
   <time name="diis">   42.30   42.31</time>
   <time name="orth">   32.79   32.84</time>
   <time name="total">  140.86  245.19</time>
   <energy>
    <i name="alphaZ">   5616.38944017 </i>
    <i name="ewald"> -61606.21946938 </i>
    <i name="hartreedc"> -16947.25944926 </i>
    <i name="XCdc">   3073.50039139 </i>
    <i name="pawpsdc"> 113141.21494297 </i>
    <i name="pawaedc">-112192.68921882 </i>
    <i name="eentropy">     -0.00000000 </i>
    <i name="bandstr">  -7088.55392287 </i>
    <i name="atom">  74916.81196153 </i>
    <i name="e_fr_energy">  -1086.80532427 </i>
    <i name="e_wo_entrp">  -1086.80532427 </i>
    <i name="e_0_energy">  -1086.80532427 </i>
   </energy>
  </scstep>
  <structure>
   <crystal>
    <varray name="basis" >
     <v>      11.24664814      -0.00395656       0.01665539 </v>
     <v>      -0.00390106      11.24844864       0.00584687 </v>
     <v>       0.02389346       0.00851142      15.86743002 </v>
    </varray>
    <i name="volume">   2007.34114539 </i>
    <varray name="rec_basis" >
     <v>       0.08891559       0.00003091      -0.00013391 </v>
     <v>       0.00003135       0.08890118      -0.00004773 </v>
     <v>      -0.00009334      -0.00003279       0.06302234 </v>
    </varray>
   </crystal>
   <varray name="positions" >
    <v>       0.99858119       0.26258685       0.12274095 </v>
    <v>       0.01101699       0.25604882       0.62191925 </v>
    <v>       0.00175381       0.73905856       0.12101068 </v>
    <v>       0.99529775       0.74919077       0.62622112 </v>
    <v>       0.50144213       0.24628765       0.12205402 </v>
    <v>       0.49452332       0.25188704       0.62514816 </v>
    <v>       0.49903694       0.75009574       0.12327987 </v>
    <v>       0.50860831       0.74582493       0.62527284 </v>
    <v>       0.99568161       0.26366577       0.37698284 </v>
    <v>       0.01362855       0.24600753       0.87612692 </v>
    <v>       0.00582462       0.73896851       0.37368080 </v>
    <v>       0.99550191       0.74810787       0.88096490 </v>
    <v>       0.50870044       0.24785088       0.37195299 </v>
    <v>       0.48087294       0.24807293       0.88152323 </v>
    <v>       0.49621109       0.75444328       0.37397407 </v>
    <v>       0.50451522       0.74572566       0.88222214 </v>
    <v>       0.25726353       0.00036171       0.11760590 </v>
    <v>       0.24486582       0.01640886       0.62624441 </v>
    <v>       0.24070620       0.49795006       0.12187364 </v>
    <v>       0.24552534       0.49097469       0.62702751 </v>
    <v>       0.74662038       0.99997537       0.12317171 </v>
    <v>       0.75682026       0.00905552       0.63294026 </v>
    <v>       0.75826129       0.50175982       0.13046828 </v>
    <v>       0.75794706       0.50238920       0.61843101 </v>
    <v>       0.25413268       0.00148057       0.37807170 </v>
    <v>       0.24969235       0.01105636       0.88032678 </v>
    <v>       0.23813913       0.49949572       0.36830692 </v>
    <v>       0.24481303       0.48347240       0.88211872 </v>
    <v>       0.74830875       0.01288380       0.37462506 </v>
    <v>       0.75146008       0.98420515       0.88279283 </v>
    <v>       0.76269595       0.49079351       0.37219175 </v>
    <v>       0.75205222       0.50606236       0.87736549 </v>
    <v>       0.00222836       0.99978712       0.99928437 </v>
    <v>       0.99833148       0.00196081       0.49978418 </v>
    <v>       0.50270750       0.00525053       0.50150526 </v>
    <v>       0.49957783       0.49856348       0.00187294 </v>
    <v>       0.25035713       0.74885426       0.00165773 </v>
    <v>       0.25323799       0.74900986       0.49445345 </v>
    <v>       0.74919825       0.25115687       0.00777031 </v>
    <v>       0.74965839       0.25333480       0.49772690 </v>
    <v>       0.74909851       0.74717378       0.00312383 </v>
    <v>       0.75366011       0.75561769       0.50541821 </v>
    <v>       0.26180199       0.25731497       0.24878449 </v>
    <v>       0.25110810       0.75086170       0.24503995 </v>
    <v>       0.24964254       0.74080029       0.75734382 </v>
    <v>       0.75291973       0.74966803       0.75383748 </v>
    <v>       0.99024626       0.98777863       0.25104251 </v>
    <v>       0.00131498       0.49818338       0.75015648 </v>
    <v>       0.50280779       0.99688880       0.24970693 </v>
    <v>       0.48859218       0.98613538       0.74859047 </v>
    <v>       0.50500671       0.50218875       0.25395885 </v>
    <v>       0.49816530       0.49569529       0.74947303 </v>
    <v>       0.00039598       0.49862654       0.99829397 </v>
    <v>       0.00579373       0.50199172       0.50069995 </v>
    <v>       0.50106465       0.99959456       0.99770189 </v>
    <v>       0.51434868       0.51185992       0.49664441 </v>
    <v>       0.24730054       0.24616877       0.00354696 </v>
    <v>       0.24107569       0.24087425       0.49886517 </v>
    <v>       0.24970235       0.25114884       0.74906853 </v>
    <v>       0.75299079       0.25177381       0.25250874 </v>
    <v>       0.75237079       0.27091079       0.74092595 </v>
    <v>       0.74498602       0.74775852       0.24492552 </v>
    <v>       0.01045070       0.98740203       0.74967997 </v>
    <v>       0.99700014       0.50054142       0.25057738 </v>
    <v>       0.11129072       0.12984731       0.74176986 </v>
    <v>       0.12174947       0.63534078       0.24690453 </v>
    <v>       0.12577042       0.63201639       0.73013171 </v>
    <v>       0.61814028       0.12830304       0.25199622 </v>
    <v>       0.61677446       0.63168649       0.27153089 </v>
    <v>       0.62450528       0.62401166       0.74721012 </v>
    <v>       0.38274611       0.36629933       0.23701699 </v>
    <v>       0.37580597       0.37835926       0.75064495 </v>
    <v>       0.38764875       0.86138232       0.25069903 </v>
    <v>       0.37573084       0.86619116       0.73415244 </v>
    <v>       0.87695025       0.37313561       0.25326656 </v>
    <v>       0.88112018       0.36996240       0.76519974 </v>
    <v>       0.87988419       0.86696245       0.26304883 </v>
    <v>       0.87986791       0.86734283       0.75050485 </v>
    <v>       0.36017865       0.10916584       0.24475898 </v>
    <v>       0.38339612       0.12320177       0.74244064 </v>
    <v>       0.36689157       0.61664987       0.24113588 </v>
    <v>       0.37188781       0.62815842       0.72664478 </v>
    <v>       0.88269644       0.12236944       0.24108250 </v>
    <v>       0.79066979       0.12059735       0.77130485 </v>
    <v>       0.86327651       0.62752106       0.26175408 </v>
    <v>       0.86999204       0.62104417       0.74142316 </v>
    <v>       0.12722142       0.36645070       0.25480949 </v>
    <v>       0.12787712       0.38145245       0.75244828 </v>
    <v>       0.14000079       0.89180636       0.25766223 </v>
    <v>       0.13974802       0.87245688       0.73622771 </v>
    <v>       0.62664771       0.38187173       0.26192554 </v>
    <v>       0.61785202       0.36221282       0.77122594 </v>
    <v>       0.63589639       0.87836776       0.26931114 </v>
    <v>       0.62863185       0.87706942       0.75413252 </v>
    <v>       0.37217816       0.37983466       0.01016837 </v>
    <v>       0.36865760       0.87817408       0.99153009 </v>
    <v>       0.37021328       0.87802336       0.52171835 </v>
    <v>       0.86612948       0.37248079       0.98112067 </v>
    <v>       0.87266684       0.37673225       0.49684628 </v>
    <v>       0.86990477       0.87806463       0.00662203 </v>
    <v>       0.87147821       0.87628889       0.47353750 </v>
    <v>       0.12942931       0.11311426       0.99600330 </v>
    <v>       0.12473847       0.12124982       0.50956104 </v>
    <v>       0.13391484       0.62122783       0.00550510 </v>
    <v>       0.13320392       0.63409306       0.52031898 </v>
    <v>       0.63688861       0.12257559       0.99004315 </v>
    <v>       0.63176886       0.11857334       0.49480336 </v>
    <v>       0.63032352       0.61843459       0.99557451 </v>
    <v>       0.63774240       0.62733375       0.48120966 </v>
    <v>       0.11945547       0.36828391       0.99776087 </v>
    <v>       0.14319610       0.38245694       0.49473715 </v>
    <v>       0.11931777       0.86559675       0.99192865 </v>
    <v>       0.12590791       0.87334398       0.50464513 </v>
    <v>       0.62048273       0.36671778       0.98206938 </v>
    <v>       0.61379363       0.36691518       0.48992744 </v>
    <v>       0.62050998       0.86610017       0.99421514 </v>
    <v>       0.62334603       0.86844047       0.48591975 </v>
    <v>       0.38261925       0.12868923       0.00802241 </v>
    <v>       0.38656752       0.13739461       0.50550020 </v>
    <v>       0.38196090       0.63076637       0.01180236 </v>
    <v>       0.37780882       0.62976827       0.51606332 </v>
    <v>       0.87894476       0.13003239       0.99971487 </v>
    <v>       0.87715969       0.12676009       0.50371933 </v>
    <v>       0.87772446       0.63013887       0.00387533 </v>
    <v>       0.87706057       0.63584754       0.49603635 </v>
    <v>       0.01341823       0.99522906       0.12782244 </v>
    <v>       0.98321551       0.99167040       0.62270955 </v>
    <v>       0.99377597       0.49678492       0.12539778 </v>
    <v>       0.99161763       0.48690755       0.62497658 </v>
    <v>       0.51395517       0.98928781       0.12705350 </v>
    <v>       0.52939475       0.01106739       0.62885149 </v>
    <v>       0.52384664       0.49971147       0.12694635 </v>
    <v>       0.51351320       0.48472974       0.62160399 </v>
    <v>       0.01857978       0.02727576       0.37048652 </v>
    <v>       0.99836688       0.99652674       0.87306272 </v>
    <v>       0.00951801       0.50979899       0.37748902 </v>
    <v>       0.00887257       0.52168008       0.87136579 </v>
    <v>       0.48414989       0.00007653       0.37863081 </v>
    <v>       0.50069286       0.00861360       0.86786136 </v>
    <v>       0.46387181       0.48742220       0.37995340 </v>
    <v>       0.48152717       0.51593877       0.87461636 </v>
    <v>       0.25494413       0.23756567       0.37260454 </v>
    <v>       0.25371436       0.24331707       0.87455461 </v>
    <v>       0.25691661       0.74413912       0.37731212 </v>
    <v>       0.25523725       0.73167691       0.87255654 </v>
    <v>       0.75765975       0.24193606       0.37527275 </v>
    <v>       0.75678199       0.74438905       0.87516063 </v>
    <v>       0.22388968       0.23039322       0.13189055 </v>
    <v>       0.26011671       0.26394262       0.62100127 </v>
    <v>       0.24615923       0.76541098       0.12432729 </v>
    <v>       0.74141954       0.26178268       0.12401038 </v>
    <v>       0.73936080       0.25816957       0.62338311 </v>
    <v>       0.73711406       0.74930517       0.12692792 </v>
    <v>       0.74778481       0.76053682       0.62169974 </v>
   </varray>
  </structure>
  <varray name="forces" >
   <v>      -0.00061538       0.00358588      -0.01102321 </v>
   <v>       0.00587451      -0.00535089       0.00712030 </v>
   <v>      -0.00964439      -0.00443960      -0.00306934 </v>
   <v>       0.00008027       0.00500795       0.00685756 </v>
   <v>      -0.00342721      -0.01286157       0.00002740 </v>
   <v>      -0.00269199       0.00373098      -0.00590702 </v>
   <v>       0.00341611      -0.00636575      -0.00036001 </v>
   <v>      -0.00037687       0.00375563      -0.00105674 </v>
   <v>      -0.00113272       0.00222371      -0.00216184 </v>
   <v>       0.01323037       0.01466646       0.00271165 </v>
   <v>       0.00171261       0.00817566      -0.00135196 </v>
   <v>       0.00424509      -0.00856819      -0.00125409 </v>
   <v>      -0.00912234      -0.00148178      -0.00444159 </v>
   <v>       0.00482701      -0.00148171      -0.00423657 </v>
   <v>      -0.00041017       0.00805239       0.00398529 </v>
   <v>       0.01165266      -0.00043738       0.00586794 </v>
   <v>       0.00301945       0.00017617      -0.00408448 </v>
   <v>       0.00723181       0.00101584       0.00218795 </v>
   <v>      -0.00729156      -0.00910629      -0.00392486 </v>
   <v>      -0.00778037       0.00268626      -0.00449309 </v>
   <v>      -0.00412717      -0.00288573      -0.01572306 </v>
   <v>      -0.00334580      -0.00448539      -0.01755506 </v>
   <v>       0.01170799      -0.00067666       0.00337311 </v>
   <v>       0.00178234       0.00086742       0.00099632 </v>
   <v>      -0.00177449       0.00600352       0.00068545 </v>
   <v>       0.00189994      -0.00337974       0.00630232 </v>
   <v>       0.00079395      -0.00014151      -0.00513904 </v>
   <v>      -0.00269294      -0.00247381       0.00163669 </v>
   <v>      -0.00097090      -0.00489512      -0.00262523 </v>
   <v>      -0.00105192      -0.00987371       0.00238773 </v>
   <v>      -0.00165261       0.01234728      -0.00089300 </v>
   <v>       0.00241978       0.00245593       0.00439781 </v>
   <v>       0.00005992      -0.00543482       0.00496043 </v>
   <v>       0.00842556       0.00143418      -0.00574687 </v>
   <v>       0.00692652       0.01319002      -0.01066182 </v>
   <v>       0.01667803       0.01005755      -0.00721953 </v>
   <v>      -0.01554359       0.01291592       0.00385961 </v>
   <v>      -0.00878579      -0.01195455      -0.01252198 </v>
   <v>       0.00236413      -0.00814364       0.01662712 </v>
   <v>       0.00681462       0.01894083       0.00057933 </v>
   <v>       0.00344317      -0.00173484      -0.01033548 </v>
   <v>       0.01477914       0.01458132       0.00824682 </v>
   <v>      -0.00723776       0.00821015       0.00836075 </v>
   <v>       0.00335273      -0.00643042       0.01129318 </v>
   <v>       0.00362572       0.01156737       0.01005741 </v>
   <v>       0.00587785      -0.00614462      -0.00258108 </v>
   <v>       0.01411172      -0.00669643       0.00898295 </v>
   <v>       0.00153791      -0.00989802       0.00380421 </v>
   <v>      -0.00946268       0.00097966       0.00042717 </v>
   <v>       0.00027626      -0.00790527      -0.00633721 </v>
   <v>      -0.00134770       0.01069451       0.00308480 </v>
   <v>       0.00557287      -0.00217674       0.01671694 </v>
   <v>       0.01064926      -0.00393399       0.00926397 </v>
   <v>      -0.00375371      -0.00393802       0.01090195 </v>
   <v>      -0.00808563      -0.01414059      -0.00457161 </v>
   <v>      -0.00909910      -0.00155628       0.00076545 </v>
   <v>      -0.01152770      -0.00041056       0.00150713 </v>
   <v>      -0.00075332      -0.00425279       0.00379379 </v>
   <v>      -0.00633455       0.00392066      -0.00372241 </v>
   <v>       0.00067096       0.00886553      -0.01289783 </v>
   <v>      -0.00479542       0.00475078       0.00003151 </v>
   <v>       0.01256015      -0.01345077      -0.01300090 </v>
   <v>      -0.01058926       0.00125077      -0.03385946 </v>
   <v>      -0.01538365      -0.00342092      -0.00013647 </v>
   <v>       0.01450918       0.00417389       0.00002603 </v>
   <v>      -0.00013169       0.00275282       0.00064184 </v>
   <v>      -0.00387361      -0.01167649       0.00169214 </v>
   <v>       0.00408801      -0.00333432      -0.00829208 </v>
   <v>      -0.01252156      -0.01931148       0.00534695 </v>
   <v>       0.00015574       0.00194570      -0.00472581 </v>
   <v>       0.00692019       0.00208105       0.00963127 </v>
   <v>       0.00939024       0.01148191      -0.00322208 </v>
   <v>       0.00501315       0.00639076      -0.00209533 </v>
   <v>       0.00227367       0.01575468       0.00329426 </v>
   <v>      -0.00796638       0.01518043      -0.00194035 </v>
   <v>       0.00347243      -0.00623038       0.00209925 </v>
   <v>      -0.01006601       0.00660358       0.00890614 </v>
   <v>      -0.01725786      -0.01167060       0.00759542 </v>
   <v>       0.00360927      -0.01954970       0.01159197 </v>
   <v>       0.00232138       0.00854804       0.00609646 </v>
   <v>       0.00969790      -0.00899924      -0.00657692 </v>
   <v>       0.01055236       0.00031487       0.00389907 </v>
   <v>       0.00114958       0.00922509      -0.00331691 </v>
   <v>      -0.00609201      -0.02976958      -0.01929291 </v>
   <v>       0.01015379       0.00542928      -0.00270356 </v>
   <v>      -0.01133849       0.01158338      -0.00711431 </v>
   <v>       0.00657076      -0.00575264       0.00926944 </v>
   <v>      -0.00296180      -0.00238589       0.00335999 </v>
   <v>      -0.00319372       0.00328458       0.00218739 </v>
   <v>      -0.00739663      -0.00269681       0.01067512 </v>
   <v>      -0.00182459       0.00865804       0.00442639 </v>
   <v>       0.00444396       0.00509789      -0.00346107 </v>
   <v>      -0.00175498       0.00965049      -0.00820459 </v>
   <v>       0.00683058      -0.00052642      -0.01102372 </v>
   <v>       0.00513555      -0.01415306       0.00278817 </v>
   <v>       0.00817678      -0.01159021      -0.00125213 </v>
   <v>       0.01337613       0.00492336      -0.01164966 </v>
   <v>      -0.00275328       0.00202324       0.00606369 </v>
   <v>      -0.00744250       0.00302347      -0.00245268 </v>
   <v>       0.00301827       0.00622672      -0.01947305 </v>
   <v>      -0.00548777      -0.01003411      -0.00351032 </v>
   <v>      -0.00391255      -0.00277113       0.00091245 </v>
   <v>      -0.00065286       0.00438903       0.01335445 </v>
   <v>      -0.00281700       0.00535729      -0.00119338 </v>
   <v>      -0.00277697       0.00949697      -0.01055019 </v>
   <v>      -0.00279261       0.00158428      -0.00209795 </v>
   <v>      -0.02424949      -0.00883173       0.00276271 </v>
   <v>       0.00185257      -0.01129776      -0.00217842 </v>
   <v>      -0.00607722       0.01229589       0.00820602 </v>
   <v>      -0.00018512      -0.00107460       0.00189732 </v>
   <v>      -0.01377912       0.02203473      -0.00896150 </v>
   <v>      -0.00130769      -0.00485028      -0.01534926 </v>
   <v>       0.00128226       0.02021069      -0.01404549 </v>
   <v>      -0.00783533       0.01313761      -0.00801150 </v>
   <v>       0.00276602       0.00012539      -0.00439643 </v>
   <v>       0.00500883       0.00540260       0.00811740 </v>
   <v>       0.01357845       0.00125431       0.00706572 </v>
   <v>      -0.01408625      -0.00498355      -0.00963084 </v>
   <v>       0.00537012      -0.00715535      -0.00015982 </v>
   <v>      -0.00415227       0.00210975       0.00600868 </v>
   <v>       0.00043529      -0.01850864       0.00891741 </v>
   <v>      -0.00794526      -0.01455657       0.00199504 </v>
   <v>       0.00600350      -0.00056361       0.00999485 </v>
   <v>      -0.00123241      -0.01195307      -0.00534744 </v>
   <v>      -0.00280455       0.00205761       0.01343991 </v>
   <v>      -0.00810190       0.00200725      -0.00416827 </v>
   <v>       0.00219346      -0.02219821      -0.00279217 </v>
   <v>       0.00369283      -0.00248821       0.00579135 </v>
   <v>       0.00569784      -0.00734646       0.02355566 </v>
   <v>      -0.00730292      -0.00367164      -0.01219532 </v>
   <v>      -0.01812204       0.00756350       0.01216256 </v>
   <v>       0.01155781      -0.00600718       0.00910339 </v>
   <v>       0.00768823       0.00882493       0.01829942 </v>
   <v>       0.00510703       0.00983464      -0.00364258 </v>
   <v>      -0.00405532       0.01847146       0.01544840 </v>
   <v>      -0.00131539       0.00105821      -0.00650773 </v>
   <v>      -0.00467423       0.00352540      -0.01452619 </v>
   <v>       0.00274486      -0.00046814       0.01840158 </v>
   <v>       0.00053920      -0.00057617       0.01467077 </v>
   <v>      -0.00961826       0.00713621      -0.02078398 </v>
   <v>      -0.00580695      -0.00629716      -0.00758693 </v>
   <v>      -0.00111276       0.01034721      -0.00380905 </v>
   <v>       0.00638565      -0.00173198       0.00129867 </v>
   <v>       0.00221817      -0.00777165       0.01989754 </v>
   <v>       0.00611545       0.00197247      -0.01733506 </v>
   <v>       0.00652708      -0.01153066      -0.00257683 </v>
   <v>       0.00813032      -0.01034227       0.01984985 </v>
   <v>      -0.00541608      -0.00681190      -0.00192354 </v>
   <v>       0.01289299      -0.01186184      -0.01106492 </v>
   <v>      -0.00696154      -0.00291715       0.00369897 </v>
   <v>       0.00066029      -0.00840168       0.00993249 </v>
   <v>      -0.00782967       0.00893239      -0.00696155 </v>
   <v>       0.00070382       0.01070830      -0.00030014 </v>
   <v>       0.00816392       0.01487596       0.00512113 </v>
  </varray>
  <varray name="stress" >
   <v>       0.06015822      -0.16854287      -0.03225357 </v>
   <v>      -0.16854268       0.11268942       0.00937799 </v>
   <v>      -0.03225397       0.00937798      -0.08024346 </v>
  </varray>
  <energy>
   <i name="e_fr_energy">  -1086.80532427 </i>
   <i name="e_wo_entrp">  -1086.80532427 </i>
   <i name="e_0_energy">     -0.00000000 </i>
  </energy>
  <time name="totalsc"> 1936.06 2688.11</time>
 </calculation>
 <calculation>
  <scstep>
   <time name="dav">  565.30  565.39</time>
   <time name="total">  572.52  572.72</time>
   <energy>
    <i name="alphaZ">   5616.18534832 </i>
    <i name="ewald"> -61605.24088654 </i>
    <i name="hartreedc"> -16947.25023021 </i>
    <i name="XCdc">   3073.45127871 </i>
    <i name="pawpsdc"> 113141.20620001 </i>
    <i name="pawaedc">-112192.68046087 </i>
    <i name="eentropy">     -0.00000000 </i>
    <i name="bandstr">  -7089.28839612 </i>
    <i name="atom">  74916.81196153 </i>
    <i name="e_fr_energy">  -1086.80518516 </i>
    <i name="e_wo_entrp">  -1086.80518516 </i>
    <i name="e_0_energy">  -1086.80518516 </i>
   </energy>
  </scstep>
  <scstep>
   <time name="diag">   65.02   65.02</time>
   <time name="diis">  104.89  104.89</time>
   <time name="orth">   33.43   33.42</time>
   <time name="total">  210.53  210.57</time>
   <energy>
    <i name="e_fr_energy">  -1086.80632861 </i>
    <i name="e_wo_entrp">  -1086.80632861 </i>
    <i name="e_0_energy">  -1086.80632861 </i>
   </energy>
  </scstep>
  <scstep>
   <time name="diag">   65.00   65.02</time>
   <time name="diis">   88.29   88.29</time>
   <time name="orth">   33.56   33.56</time>
   <time name="total">  194.06  194.16</time>
   <energy>
    <i name="e_fr_energy">  -1086.80639744 </i>
    <i name="e_wo_entrp">  -1086.80639744 </i>
    <i name="e_0_energy">  -1086.80639744 </i>
   </energy>
  </scstep>
  <scstep>
   <time name="diag">   65.00   65.00</time>
   <time name="diis">   64.88   64.91</time>
   <time name="orth">   33.41   33.41</time>
   <time name="total">  170.49  170.59</time>
   <energy>
    <i name="e_fr_energy">  -1086.80635853 </i>
    <i name="e_wo_entrp">  -1086.80635853 </i>
    <i name="e_0_energy">  -1086.80635853 </i>
   </energy>
  </scstep>
  <scstep>
   <time name="diag">   64.99   65.05</time>
   <time name="diis">   63.59   63.61</time>
   <time name="orth">   33.49   33.49</time>
   <time name="total">  169.27  169.45</time>
   <energy>
    <i name="e_fr_energy">  -1086.80634624 </i>
    <i name="e_wo_entrp">  -1086.80634624 </i>
    <i name="e_0_energy">  -1086.80634624 </i>
   </energy>
  </scstep>
  <scstep>
   <time name="diag">   65.01   65.01</time>
   <time name="diis">   61.74   61.75</time>
   <time name="orth">   33.45   33.45</time>
   <time name="total">  167.39  167.47</time>
   <energy>
    <i name="e_fr_energy">  -1086.80634760 </i>
    <i name="e_wo_entrp">  -1086.80634760 </i>
    <i name="e_0_energy">  -1086.80634760 </i>
   </energy>
  </scstep>
  <scstep>
   <time name="diag">   64.82   64.81</time>
   <time name="diis">   57.65   57.65</time>
   <time name="orth">   33.57   33.56</time>
   <time name="total">  163.25  163.34</time>
   <energy>
    <i name="e_fr_energy">  -1086.80634791 </i>
    <i name="e_wo_entrp">  -1086.80634791 </i>
    <i name="e_0_energy">  -1086.80634791 </i>
   </energy>
  </scstep>
  <scstep>
   <time name="diag">   64.81   64.82</time>
   <time name="diis">   54.90   54.91</time>
   <time name="orth">   33.47   33.47</time>
   <time name="total">  154.24  154.32</time>
   <energy>
    <i name="alphaZ">   5616.18534832 </i>
    <i name="ewald"> -61605.24088654 </i>
    <i name="hartreedc"> -16947.68554804 </i>
    <i name="XCdc">   3073.48782875 </i>
    <i name="pawpsdc"> 113137.19878326 </i>
    <i name="pawaedc">-112188.66328332 </i>
    <i name="eentropy">     -0.00000000 </i>
    <i name="bandstr">  -7088.90055191 </i>
    <i name="atom">  74916.81196153 </i>
    <i name="e_fr_energy">  -1086.80634794 </i>
    <i name="e_wo_entrp">  -1086.80634794 </i>
    <i name="e_0_energy">  -1086.80634794 </i>
   </energy>
  </scstep>
  <structure>
   <crystal>
    <varray name="basis" >
     <v>      11.24691374      -0.00470064       0.01651248 </v>
     <v>      -0.00464531      11.24894642       0.00588813 </v>
     <v>       0.02369259       0.00856862      15.86693001 </v>
    </varray>
    <i name="volume">   2007.41409205 </i>
    <varray name="rec_basis" >
     <v>       0.08891349       0.00003679      -0.00013279 </v>
     <v>       0.00003723       0.08889725      -0.00004806 </v>
     <v>      -0.00009254      -0.00003303       0.06302432 </v>
    </varray>
   </crystal>
   <varray name="positions" >
    <v>       0.99857862       0.26260225       0.12270744 </v>
    <v>       0.01104213       0.25602587       0.62194088 </v>
    <v>       0.00171246       0.73903952       0.12100140 </v>
    <v>       0.99529806       0.74921223       0.62624196 </v>
    <v>       0.50142741       0.24623248       0.12205414 </v>
    <v>       0.49451181       0.25190305       0.62513021 </v>
    <v>       0.49905159       0.75006845       0.12327877 </v>
    <v>       0.50860670       0.74584104       0.62526962 </v>
    <v>       0.99567677       0.26367531       0.37697627 </v>
    <v>       0.01368531       0.24607044       0.87613509 </v>
    <v>       0.00583199       0.73900358       0.37367667 </v>
    <v>       0.99552012       0.74807113       0.88096108 </v>
    <v>       0.50866134       0.24784453       0.37193953 </v>
    <v>       0.48089367       0.24806660       0.88151033 </v>
    <v>       0.49620932       0.75447781       0.37398618 </v>
    <v>       0.50456516       0.74572379       0.88223993 </v>
    <v>       0.25727650       0.00036248       0.11759347 </v>
    <v>       0.24489683       0.01641322       0.62625103 </v>
    <v>       0.24067494       0.49791101       0.12186176 </v>
    <v>       0.24549200       0.49098621       0.62701388 </v>
    <v>       0.74660278       0.99996303       0.12312393 </v>
    <v>       0.75680601       0.00903632       0.63288691 </v>
    <v>       0.75831148       0.50175693       0.13047848 </v>
    <v>       0.75795470       0.50239292       0.61843403 </v>
    <v>       0.25412507       0.00150631       0.37807378 </v>
    <v>       0.24970045       0.01104186       0.88034593 </v>
    <v>       0.23814257       0.49949513       0.36829130 </v>
    <v>       0.24480147       0.48346178       0.88212371 </v>
    <v>       0.74830459       0.01286281       0.37461710 </v>
    <v>       0.75145553       0.98416280       0.88280011 </v>
    <v>       0.76268889       0.49084647       0.37218903 </v>
    <v>       0.75206258       0.50607289       0.87737885 </v>
    <v>       0.00222857       0.99976380       0.99929946 </v>
    <v>       0.99836766       0.00196699       0.49976666 </v>
    <v>       0.50273730       0.00530713       0.50147279 </v>
    <v>       0.49964943       0.49860665       0.00185090 </v>
    <v>       0.25029045       0.74890963       0.00166951 </v>
    <v>       0.25320036       0.74895861       0.49441544 </v>
    <v>       0.74920827       0.25112191       0.00782087 </v>
    <v>       0.74968765       0.25341604       0.49772860 </v>
    <v>       0.74911334       0.74716637       0.00309239 </v>
    <v>       0.75372348       0.75568023       0.50544319 </v>
    <v>       0.26177091       0.25735015       0.24880993 </v>
    <v>       0.25112240       0.75083410       0.24507428 </v>
    <v>       0.24965804       0.74084988       0.75737436 </v>
    <v>       0.75294496       0.74964169       0.75382961 </v>
    <v>       0.99030672       0.98774992       0.25106977 </v>
    <v>       0.00132154       0.49814092       0.75016805 </v>
    <v>       0.50276719       0.99689299       0.24970827 </v>
    <v>       0.48859339       0.98610149       0.74857121 </v>
    <v>       0.50500092       0.50223461       0.25396822 </v>
    <v>       0.49818909       0.49568592       0.74952383 </v>
    <v>       0.00044160       0.49860966       0.99832209 </v>
    <v>       0.00577755       0.50197479       0.50073312 </v>
    <v>       0.50102998       0.99953391       0.99768805 </v>
    <v>       0.51430964       0.51185323       0.49664678 </v>
    <v>       0.24725108       0.24616698       0.00355160 </v>
    <v>       0.24107243       0.24085600       0.49887671 </v>
    <v>       0.24967521       0.25116565       0.74905723 </v>
    <v>       0.75299376       0.25181187       0.25246951 </v>
    <v>       0.75235022       0.27093116       0.74092606 </v>
    <v>       0.74503996       0.74770088       0.24488596 </v>
    <v>       0.01040550       0.98740746       0.74957707 </v>
    <v>       0.99693415       0.50052673       0.25057704 </v>
    <v>       0.11135297       0.12986523       0.74176987 </v>
    <v>       0.12174891       0.63535259       0.24690648 </v>
    <v>       0.12575377       0.63196630       0.73013689 </v>
    <v>       0.61815786       0.12828876       0.25197099 </v>
    <v>       0.61672069       0.63160364       0.27154724 </v>
    <v>       0.62450598       0.62402002       0.74719575 </v>
    <v>       0.38277574       0.36630825       0.23704623 </v>
    <v>       0.37584629       0.37840852       0.75063509 </v>
    <v>       0.38767027       0.86140974       0.25069263 </v>
    <v>       0.37574059       0.86625873       0.73416242 </v>
    <v>       0.87691612       0.37320071       0.25326067 </v>
    <v>       0.88113506       0.36993568       0.76520612 </v>
    <v>       0.87984096       0.86699073       0.26307594 </v>
    <v>       0.87979382       0.86729274       0.75052804 </v>
    <v>       0.36019403       0.10908197       0.24479424 </v>
    <v>       0.38340605       0.12323842       0.74245916 </v>
    <v>       0.36693320       0.61661130       0.24111585 </v>
    <v>       0.37193305       0.62815978       0.72665658 </v>
    <v>       0.88270141       0.12240902       0.24107240 </v>
    <v>       0.79064374       0.12046970       0.77124627 </v>
    <v>       0.86332009       0.62754437       0.26174581 </v>
    <v>       0.86994347       0.62109385       0.74140156 </v>
    <v>       0.12724954       0.36642602       0.25483765 </v>
    <v>       0.12786439       0.38144220       0.75245852 </v>
    <v>       0.13998708       0.89182043       0.25766889 </v>
    <v>       0.13971622       0.87244528       0.73626021 </v>
    <v>       0.62663987       0.38190885       0.26193899 </v>
    <v>       0.61787111       0.36223470       0.77121539 </v>
    <v>       0.63588893       0.87840917       0.26928618 </v>
    <v>       0.62866122       0.87706719       0.75409897 </v>
    <v>       0.37220015       0.37977396       0.01017685 </v>
    <v>       0.36869267       0.87812439       0.99152627 </v>
    <v>       0.37027074       0.87804452       0.52168286 </v>
    <v>       0.86611763       0.37248945       0.98113911 </v>
    <v>       0.87263494       0.37674521       0.49683885 </v>
    <v>       0.86991785       0.87809139       0.00656280 </v>
    <v>       0.87145468       0.87624586       0.47352687 </v>
    <v>       0.12941252       0.11310237       0.99600609 </v>
    <v>       0.12473559       0.12126861       0.50960164 </v>
    <v>       0.13390277       0.62125080       0.00550148 </v>
    <v>       0.13319209       0.63413381       0.52028690 </v>
    <v>       0.63687664       0.12258239       0.99003678 </v>
    <v>       0.63166481       0.11853542       0.49481188 </v>
    <v>       0.63033147       0.61838614       0.99556790 </v>
    <v>       0.63771629       0.62738645       0.48123462 </v>
    <v>       0.11945467       0.36827929       0.99776664 </v>
    <v>       0.14313708       0.38255144       0.49470993 </v>
    <v>       0.11931225       0.86557599       0.99188199 </v>
    <v>       0.12591353       0.87343069       0.50460238 </v>
    <v>       0.62044919       0.36677413       0.98204504 </v>
    <v>       0.61380552       0.36691573       0.48991406 </v>
    <v>       0.62053143       0.86612333       0.99423979 </v>
    <v>       0.62340423       0.86844585       0.48594117 </v>
    <v>       0.38255888       0.12866786       0.00799320 </v>
    <v>       0.38659054       0.13736393       0.50549970 </v>
    <v>       0.38194305       0.63077539       0.01182065 </v>
    <v>       0.37781060       0.62968887       0.51609046 </v>
    <v>       0.87891064       0.12996994       0.99972099 </v>
    <v>       0.87718538       0.12675766       0.50374969 </v>
    <v>       0.87771919       0.63008762       0.00385909 </v>
    <v>       0.87704845       0.63585633       0.49607722 </v>
    <v>       0.01338350       0.99523766       0.12780980 </v>
    <v>       0.98322490       0.99157520       0.62270109 </v>
    <v>       0.99379177       0.49677424       0.12541538 </v>
    <v>       0.99164191       0.48687599       0.62504818 </v>
    <v>       0.51392391       0.98927208       0.12701647 </v>
    <v>       0.52931694       0.01109978       0.62888854 </v>
    <v>       0.52389615       0.49968570       0.12697398 </v>
    <v>       0.51354607       0.48476756       0.62165958 </v>
    <v>       0.01860172       0.02731795       0.37047541 </v>
    <v>       0.99834942       0.99660592       0.87310967 </v>
    <v>       0.00951241       0.50980354       0.37746924 </v>
    <v>       0.00885262       0.52169522       0.87132164 </v>
    <v>       0.48416154       0.00007448       0.37868674 </v>
    <v>       0.50069508       0.00861110       0.86790596 </v>
    <v>       0.46383070       0.48745284       0.37989025 </v>
    <v>       0.48150230       0.51591177       0.87459333 </v>
    <v>       0.25493940       0.23761005       0.37259295 </v>
    <v>       0.25374174       0.24330965       0.87455853 </v>
    <v>       0.25692599       0.74410575       0.37737262 </v>
    <v>       0.25526360       0.73168542       0.87250380 </v>
    <v>       0.75768774       0.24188662       0.37526491 </v>
    <v>       0.75681672       0.74434466       0.87522096 </v>
    <v>       0.22386645       0.23036400       0.13188473 </v>
    <v>       0.26017207       0.26389179       0.62096759 </v>
    <v>       0.24612934       0.76539845       0.12433857 </v>
    <v>       0.74142230       0.26174663       0.12404059 </v>
    <v>       0.73932727       0.25820788       0.62336196 </v>
    <v>       0.73711710       0.74935110       0.12692699 </v>
    <v>       0.74781982       0.76060062       0.62171525 </v>
   </varray>
  </structure>
  <varray name="forces" >
   <v>      -0.00207734       0.00129667      -0.00485557 </v>
   <v>       0.00391491      -0.00446927       0.00720325 </v>
   <v>      -0.00843511      -0.00373713      -0.00329058 </v>
   <v>      -0.00047013       0.00147397       0.00870215 </v>
   <v>      -0.00645943      -0.01001008      -0.00223183 </v>
   <v>      -0.00176043       0.00302908      -0.00284668 </v>
   <v>       0.00230534      -0.00422506       0.00012459 </v>
   <v>       0.00110515       0.00198195      -0.00268401 </v>
   <v>      -0.00361901       0.00303524      -0.00427188 </v>
   <v>       0.01083924       0.00557063       0.00487171 </v>
   <v>      -0.00003394       0.00311303       0.00152798 </v>
   <v>       0.00171372      -0.00487608      -0.00295472 </v>
   <v>      -0.00540602       0.00000297      -0.00802320 </v>
   <v>       0.00142637      -0.00330132      -0.00257923 </v>
   <v>       0.00604921       0.00919186       0.00788305 </v>
   <v>       0.00972492      -0.00025577       0.00192799 </v>
   <v>       0.00456428       0.00330728      -0.00356713 </v>
   <v>       0.01356289      -0.00102075       0.00150927 </v>
   <v>       0.00037941      -0.00630530      -0.00677485 </v>
   <v>      -0.00035617       0.00311214      -0.00053338 </v>
   <v>      -0.00501938      -0.00243128      -0.01068847 </v>
   <v>      -0.00924754      -0.00327208      -0.01432503 </v>
   <v>       0.00554298      -0.00266976       0.00215846 </v>
   <v>      -0.00339753       0.00579872       0.00132147 </v>
   <v>       0.00338222       0.00658672       0.00302924 </v>
   <v>       0.00213340       0.00163743       0.00416335 </v>
   <v>       0.00009313      -0.00153811      -0.00426398 </v>
   <v>       0.00306068      -0.00175287       0.00079394 </v>
   <v>      -0.00345226      -0.00157696      -0.00455850 </v>
   <v>      -0.00027880      -0.00485367      -0.00110153 </v>
   <v>      -0.00537955       0.01135283       0.00048078 </v>
   <v>       0.00180627       0.00031239       0.00352124 </v>
   <v>      -0.00587351       0.00148386      -0.00722705 </v>
   <v>       0.00174359       0.00298739      -0.00740932 </v>
   <v>      -0.00775802      -0.01023848       0.00659260 </v>
   <v>      -0.01923074      -0.01331527       0.01115472 </v>
   <v>       0.00116913       0.00529073       0.00470331 </v>
   <v>       0.01383531       0.00648992       0.02302239 </v>
   <v>      -0.00354675      -0.00777552       0.00112748 </v>
   <v>      -0.01305246      -0.00250191      -0.01133484 </v>
   <v>       0.00755221       0.00144591      -0.00556665 </v>
   <v>      -0.01019308      -0.00072743       0.01260259 </v>
   <v>       0.00904046       0.00238518      -0.00461624 </v>
   <v>       0.00842472      -0.01019595      -0.00179627 </v>
   <v>       0.00603737      -0.00599232      -0.02055119 </v>
   <v>      -0.01554078       0.00048259      -0.00197115 </v>
   <v>      -0.00476499       0.00407984      -0.00300808 </v>
   <v>       0.00301423       0.00697342       0.00435284 </v>
   <v>       0.00202961       0.00428564      -0.00631457 </v>
   <v>       0.01239681       0.01307408       0.00727415 </v>
   <v>      -0.00167782      -0.00823980      -0.00525172 </v>
   <v>       0.00434315       0.00678772       0.00527753 </v>
   <v>       0.00017648       0.00009196       0.00103460 </v>
   <v>      -0.00419931       0.00060871       0.00492827 </v>
   <v>      -0.00847801      -0.00357253      -0.00632663 </v>
   <v>      -0.00070826       0.00404778       0.00128351 </v>
   <v>       0.00635321      -0.00346665       0.00110211 </v>
   <v>       0.00141323       0.00407263       0.00123898 </v>
   <v>       0.00744421      -0.00146399       0.00300842 </v>
   <v>      -0.00572126       0.00212676      -0.00266096 </v>
   <v>       0.00215550      -0.02210916       0.00186727 </v>
   <v>      -0.00430044       0.00165854      -0.00076643 </v>
   <v>      -0.00727203       0.00147011       0.00490720 </v>
   <v>      -0.00354125      -0.00152253       0.00491909 </v>
   <v>       0.00738574      -0.00066748      -0.00454240 </v>
   <v>       0.00256295       0.00470868       0.00247684 </v>
   <v>       0.00557494      -0.00096961       0.00334311 </v>
   <v>      -0.00066979      -0.00183327      -0.00581291 </v>
   <v>       0.00974878       0.00464306       0.00443316 </v>
   <v>       0.00464328       0.00276256       0.00062800 </v>
   <v>      -0.00710006      -0.00972120       0.00474954 </v>
   <v>      -0.00430589      -0.00014974      -0.00382796 </v>
   <v>      -0.00498710      -0.00703042       0.00009446 </v>
   <v>      -0.01333546      -0.00153111       0.00130796 </v>
   <v>      -0.00367982       0.01265008      -0.00151931 </v>
   <v>       0.00141570      -0.00759331       0.00220679 </v>
   <v>      -0.00136191       0.00644576       0.00975248 </v>
   <v>       0.00606558       0.00053948       0.00678850 </v>
[...]
       <r>   -16.6758     0.0000    32.0000 </r>
       <r>   -16.5225     0.0000    32.0000 </r>
       <r>   -16.3692     0.0000    32.0000 </r>
       <r>   -16.2159     0.0000    32.0000 </r>
       <r>   -16.0626     0.0000    32.0000 </r>
       <r>   -15.9093     0.0000    32.0000 </r>
       <r>   -15.7560     0.0000    32.0000 </r>
       <r>   -15.6028     0.0000    32.0000 </r>
       <r>   -15.4495     0.0000    32.0000 </r>
       <r>   -15.2962     0.1797    32.0275 </r>
       <r>   -15.1429    13.7531    34.1358 </r>
       <r>   -14.9896    26.3369    38.1730 </r>
       <r>   -14.8363    39.9871    44.3027 </r>
       <r>   -14.6830    42.4795    50.8144 </r>
       <r>   -14.5297    44.5018    57.6361 </r>
       <r>   -14.3764    35.2224    63.0354 </r>
       <r>   -14.2231    45.5317    70.0150 </r>
       <r>   -14.0698    75.6505    81.6115 </r>
       <r>   -13.9166    95.8490    96.3043 </r>
       <r>   -13.7633    84.1584   109.2051 </r>
       <r>   -13.6100    50.5566   116.9550 </r>
       <r>   -13.4567    22.7480   120.4420 </r>
       <r>   -13.3034    10.0901   121.9888 </r>
       <r>   -13.1501     0.0733   122.0000 </r>
       <r>   -12.9968     0.0002   122.0000 </r>
       <r>   -12.8435     4.9804   122.7635 </r>
       <r>   -12.6902    30.9344   127.5055 </r>
       <r>   -12.5369    89.9449   141.2932 </r>
       <r>   -12.3836   143.4334   163.2803 </r>
       <r>   -12.2304   122.3667   182.0380 </r>
       <r>   -12.0771    97.9652   197.0552 </r>
       <r>   -11.9238    72.2411   208.1291 </r>
       <r>   -11.7705    52.6910   216.2062 </r>
       <r>   -11.6172     5.1957   217.0027 </r>
       <r>   -11.4639     6.1100   217.9393 </r>
       <r>   -11.3106     0.3962   218.0000 </r>
       <r>   -11.1573     0.0000   218.0000 </r>
       <r>   -11.0040     0.0000   218.0000 </r>
       <r>   -10.8507     0.0000   218.0000 </r>
       <r>   -10.6974     0.0000   218.0000 </r>
       <r>   -10.5441     0.0000   218.0000 </r>
       <r>   -10.3909     0.0000   218.0000 </r>
       <r>   -10.2376     0.0000   218.0000 </r>
       <r>   -10.0843     0.0000   218.0000 </r>
       <r>    -9.9310     0.0000   218.0000 </r>
       <r>    -9.7777     0.0000   218.0000 </r>
       <r>    -9.6244     0.0000   218.0000 </r>
       <r>    -9.4711     0.0000   218.0000 </r>
       <r>    -9.3178     0.0000   218.0000 </r>
       <r>    -9.1645     0.0000   218.0000 </r>
       <r>    -9.0112     0.0000   218.0000 </r>
       <r>    -8.8579     0.0000   218.0000 </r>
       <r>    -8.7047     0.0000   218.0000 </r>
       <r>    -8.5514     0.0000   218.0000 </r>
       <r>    -8.3981     0.0000   218.0000 </r>
       <r>    -8.2448     0.0000   218.0000 </r>
       <r>    -8.0915     0.0000   218.0000 </r>
       <r>    -7.9382     0.0000   218.0000 </r>
       <r>    -7.7849     0.0000   218.0000 </r>
       <r>    -7.6316     0.0000   218.0000 </r>
       <r>    -7.4783     0.0000   218.0000 </r>
       <r>    -7.3250     0.0000   218.0000 </r>
       <r>    -7.1717     0.0000   218.0000 </r>
       <r>    -7.0185     0.0000   218.0000 </r>
       <r>    -6.8652     0.0000   218.0000 </r>
       <r>    -6.7119     0.0000   218.0000 </r>
       <r>    -6.5586     0.0000   218.0000 </r>
       <r>    -6.4053     0.0000   218.0000 </r>
       <r>    -6.2520     0.0000   218.0000 </r>
       <r>    -6.0987     0.0000   218.0000 </r>
       <r>    -5.9454     0.0000   218.0000 </r>
       <r>    -5.7921     0.0000   218.0000 </r>
       <r>    -5.6388     0.0000   218.0000 </r>
       <r>    -5.4855     0.0000   218.0000 </r>
       <r>    -5.3322     0.0000   218.0000 </r>
       <r>    -5.1790     0.0000   218.0000 </r>
       <r>    -5.0257     0.0000   218.0000 </r>
       <r>    -4.8724     0.0000   218.0000 </r>
       <r>    -4.7191     0.0000   218.0000 </r>
       <r>    -4.5658     0.0000   218.0000 </r>
       <r>    -4.4125     0.0000   218.0000 </r>
       <r>    -4.2592     0.0000   218.0000 </r>
       <r>    -4.1059     0.0000   218.0000 </r>
       <r>    -3.9526     0.0000   218.0000 </r>
       <r>    -3.7993     0.0000   218.0000 </r>
       <r>    -3.6460     0.0000   218.0000 </r>
       <r>    -3.4928     0.0000   218.0000 </r>
       <r>    -3.3395     0.0000   218.0000 </r>
       <r>    -3.1862     0.0000   218.0000 </r>
       <r>    -3.0329     0.0000   218.0000 </r>
       <r>    -2.8796     0.0000   218.0000 </r>
       <r>    -2.7263     0.0000   218.0000 </r>
       <r>    -2.5730     0.0000   218.0000 </r>
       <r>    -2.4197     2.4066   218.3689 </r>
       <r>    -2.2664    11.8172   220.1804 </r>
       <r>    -2.1131    25.0551   224.0211 </r>
       <r>    -1.9598    27.3977   228.2209 </r>
       <r>    -1.8066    28.8452   232.6426 </r>
       <r>    -1.6533    43.6384   239.3320 </r>
       <r>    -1.5000    51.5744   247.2379 </r>
       <r>    -1.3467    60.6707   256.5382 </r>
       <r>    -1.1934    61.7668   266.0065 </r>
       <r>    -1.0401    70.7980   276.8592 </r>
       <r>    -0.8868    72.9013   288.0343 </r>
       <r>    -0.7335    81.8272   300.5777 </r>
       <r>    -0.5802    90.0335   314.3791 </r>
       <r>    -0.4269   103.3783   330.2260 </r>
       <r>    -0.2736    81.4711   342.7148 </r>
       <r>    -0.1203    59.8227   351.8851 </r>
       <r>     0.0329    47.4676   359.1615 </r>
       <r>     0.1862    52.9012   367.2708 </r>
       <r>     0.3395    50.9412   375.0796 </r>
       <r>     0.4928    54.5822   383.4466 </r>
       <r>     0.6461    51.1722   391.2908 </r>
       <r>     0.7994    54.6981   399.6756 </r>
       <r>     0.9527    52.3410   407.6990 </r>
       <r>     1.1060    57.5507   416.5210 </r>
       <r>     1.2593    74.2607   427.9045 </r>
       <r>     1.4126    76.0002   439.5547 </r>
       <r>     1.5659    79.1427   451.6866 </r>
       <r>     1.7191    68.2495   462.1486 </r>
       <r>     1.8724    67.7905   472.5403 </r>
       <r>     2.0257    44.8930   479.4220 </r>
       <r>     2.1790    28.4584   483.7844 </r>
       <r>     2.3323    20.9547   486.9966 </r>
       <r>     2.4856     6.5159   487.9954 </r>
       <r>     2.6389     0.0300   488.0000 </r>
       <r>     2.7922     0.0000   488.0000 </r>
       <r>     2.9455     0.0000   488.0000 </r>
       <r>     3.0988     0.0000   488.0000 </r>
       <r>     3.2521     0.0000   488.0000 </r>
       <r>     3.4053     0.0000   488.0000 </r>
       <r>     3.5586     0.0000   488.0000 </r>
       <r>     3.7119     0.0000   488.0000 </r>
       <r>     3.8652     0.0000   488.0000 </r>
       <r>     4.0185     0.0000   488.0000 </r>
       <r>     4.1718     0.0000   488.0000 </r>
       <r>     4.3251     0.0376   488.0058 </r>
       <r>     4.4784     7.3762   489.1365 </r>
       <r>     4.6317    30.1643   493.7604 </r>
       <r>     4.7850    47.9741   501.1144 </r>
       <r>     4.9383    46.5812   508.2549 </r>
       <r>     5.0916    53.6695   516.4820 </r>
       <r>     5.2448    59.7652   525.6434 </r>
       <r>     5.3981    69.7816   536.3403 </r>
       <r>     5.5514    70.1600   547.0952 </r>
       <r>     5.7047    76.7061   558.8536 </r>
       <r>     5.8580    68.8670   569.4103 </r>
       <r>     6.0113    77.2959   581.2591 </r>
       <r>     6.1646    84.2080   594.1674 </r>
       <r>     6.3179    70.9405   605.0420 </r>
       <r>     6.4712    37.7842   610.8339 </r>
       <r>     6.6245    15.9265   613.2753 </r>
       <r>     6.7778    15.6519   615.6746 </r>
       <r>     6.9310    15.6187   618.0688 </r>
       <r>     7.0843    17.5877   620.7649 </r>
       <r>     7.2376    19.8155   623.8024 </r>
       <r>     7.3909    17.5301   626.4896 </r>
       <r>     7.5442    14.0685   628.6462 </r>
       <r>     7.6975    11.5414   630.4154 </r>
       <r>     7.8508    16.5249   632.9485 </r>
       <r>     8.0041    22.1919   636.3504 </r>
       <r>     8.1574    22.6479   639.8221 </r>
       <r>     8.3107    25.4583   643.7246 </r>
       <r>     8.4640    26.7430   647.8241 </r>
       <r>     8.6172    29.4183   652.3337 </r>
       <r>     8.7705    32.7369   657.3519 </r>
       <r>     8.9238    30.0592   661.9598 </r>
       <r>     9.0771    35.0051   667.3257 </r>
       <r>     9.2304    36.4734   672.9168 </r>
       <r>     9.3837    41.5259   679.2823 </r>
       <r>     9.5370    46.6151   686.4280 </r>
       <r>     9.6903    54.8289   694.8328 </r>
       <r>     9.8436    56.2426   703.4543 </r>
       <r>     9.9969    61.7444   712.9192 </r>
       <r>    10.1502    61.3919   722.3300 </r>
       <r>    10.3035    55.4333   730.8274 </r>
       <r>    10.4567    53.1847   738.9802 </r>
       <r>    10.6100    55.2404   747.4480 </r>
       <r>    10.7633    56.8159   756.1574 </r>
       <r>    10.9166    55.5038   764.6657 </r>
       <r>    11.0699    21.7380   767.9979 </r>
       <r>    11.2232     0.0136   768.0000 </r>
       <r>    11.3765     0.0000   768.0000 </r>
       <r>    11.5298     0.0000   768.0000 </r>
       <r>    11.6831     0.0000   768.0000 </r>
       <r>    11.8364     0.0000   768.0000 </r>
       <r>    11.9897     0.0000   768.0000 </r>
       <r>    12.1429     0.0000   768.0000 </r>
       <r>    12.2962     0.0000   768.0000 </r>
       <r>    12.4495     0.0000   768.0000 </r>
       <r>    12.6028     0.0000   768.0000 </r>
       <r>    12.7561     0.0000   768.0000 </r>
       <r>    12.9094     0.0000   768.0000 </r>
       <r>    13.0627     0.0000   768.0000 </r>
      </set>
     </set>
    </array>
   </total>
  </dos>
 </calculation>
 <structure name="finalpos" >
  <crystal>
   <varray name="basis" >
    <v>      11.24706942      -0.00519864       0.01645921 </v>
    <v>      -0.00514352      11.24925181       0.00599850 </v>
    <v>       0.02361778       0.00872356      15.86670673 </v>
   </varray>
   <i name="volume">   2007.46805680 </i>
   <varray name="rec_basis" >
    <v>       0.08891226       0.00004072      -0.00013237 </v>
    <v>       0.00004116       0.08889485      -0.00004894 </v>
    <v>      -0.00009225      -0.00003365       0.06302521 </v>
   </varray>
  </crystal>
  <varray name="positions" >
   <v>       0.99857068       0.26261406       0.12266982 </v>
   <v>       0.01107075       0.25599553       0.62197513 </v>
   <v>       0.00165707       0.73901403       0.12099078 </v>
   <v>       0.99529710       0.74923222       0.62627944 </v>
   <v>       0.50139335       0.24615846       0.12204849 </v>
   <v>       0.49449748       0.25192467       0.62511081 </v>
   <v>       0.49906993       0.75003318       0.12327827 </v>
   <v>       0.50860977       0.74585862       0.62526050 </v>
   <v>       0.99565970       0.26368860       0.37696004 </v>
   <v>       0.01376012       0.24613396       0.87615250 </v>
   <v>       0.00583315       0.73903729       0.37367866 </v>
   <v>       0.99553888       0.74802744       0.88094974 </v>
   <v>       0.50861688       0.24783792       0.37191155 </v>
   <v>       0.48091318       0.24804923       0.88149549 </v>
   <v>       0.49622769       0.75453299       0.37401516 </v>
   <v>       0.50463453       0.74572175       0.88225760 </v>
   <v>       0.25730261       0.00037530       0.11757607 </v>
   <v>       0.24496864       0.01641306       0.62625972 </v>
   <v>       0.24065516       0.49785967       0.12183659 </v>
   <v>       0.24546611       0.49100675       0.62700643 </v>
   <v>       0.74657337       0.99994802       0.12306425 </v>
   <v>       0.75676551       0.00900567       0.63281521 </v>
   <v>       0.75836511       0.50174464       0.13049039 </v>
   <v>       0.75794644       0.50241629       0.61844033 </v>
   <v>       0.25413266       0.00154765       0.37808344 </v>
   <v>       0.24971374       0.01103827       0.88036961 </v>
   <v>       0.23814623       0.49948879       0.36827182 </v>
   <v>       0.24480539       0.48344781       0.88212904 </v>
   <v>       0.74828884       0.01284168       0.37459908 </v>
   <v>       0.75145178       0.98411552       0.88280201 </v>
   <v>       0.76266450       0.49092134       0.37218660 </v>
   <v>       0.75207811       0.50608102       0.87739774 </v>
   <v>       0.00220735       0.99975470       0.99929149 </v>
   <v>       0.99839301       0.00198376       0.49973384 </v>
   <v>       0.50273561       0.00531380       0.50146477 </v>
   <v>       0.49963546       0.49859569       0.00186169 </v>
   <v>       0.25025224       0.74896889       0.00168278 </v>
   <v>       0.25322537       0.74894518       0.49444958 </v>
   <v>       0.74919918       0.25107421       0.00784403 </v>
   <v>       0.74966536       0.25346564       0.49770497 </v>
   <v>       0.74915069       0.74716679       0.00305331 </v>
   <v>       0.75372757       0.75570962       0.50548267 </v>
   <v>       0.26177856       0.25737757       0.24881078 </v>
   <v>       0.25116738       0.75078171       0.24508918 </v>
   <v>       0.24969104       0.74086017       0.75734049 </v>
   <v>       0.75291214       0.74961880       0.75381938 </v>
   <v>       0.99032088       0.98776434       0.25107723 </v>
   <v>       0.00134103       0.49814876       0.75018619 </v>
   <v>       0.50274795       0.99691153       0.24969265 </v>
   <v>       0.48864126       0.98612680       0.74857684 </v>
   <v>       0.50499207       0.50223700       0.25396226 </v>
   <v>       0.49822462       0.49570403       0.74957020 </v>
   <v>       0.00047492       0.49859776       0.99834438 </v>
   <v>       0.00575027       0.50196441       0.50076490 </v>
   <v>       0.50097571       0.99948002       0.99766259 </v>
   <v>       0.51428124       0.51186663       0.49665237 </v>
   <v>       0.24724144       0.24615598       0.00355644 </v>
   <v>       0.24107626       0.24086068       0.49888698 </v>
   <v>       0.24968469       0.25117112       0.74906006 </v>
   <v>       0.75297407       0.25184406       0.25243690 </v>
   <v>       0.75234317       0.27086426       0.74093165 </v>
   <v>       0.74505109       0.74767380       0.24485770 </v>
   <v>       0.01034628       0.98741678       0.74951354 </v>
   <v>       0.99687367       0.50051171       0.25059031 </v>
   <v>       0.11142244       0.12987451       0.74175780 </v>
   <v>       0.12175806       0.63537802       0.24691456 </v>
   <v>       0.12576305       0.63192835       0.73014927 </v>
   <v>       0.61816830       0.12827154       0.25193782 </v>
   <v>       0.61671963       0.63156414       0.27157103 </v>
   <v>       0.62452326       0.62403731       0.74718736 </v>
   <v>       0.38277027       0.36627758       0.23708111 </v>
   <v>       0.37585623       0.37843510       0.75061874 </v>
   <v>       0.38766521       0.86140325       0.25068934 </v>
   <v>       0.37569800       0.86630124       0.73417276 </v>
   <v>       0.87688126       0.37329132       0.25325399 </v>
   <v>       0.88114911       0.36988722       0.76521667 </v>
   <v>       0.87980966       0.86703248       0.26312036 </v>
   <v>       0.87976415       0.86726026       0.75055971 </v>
   <v>       0.36017750       0.10901323       0.24484108 </v>
   <v>       0.38342366       0.12328322       0.74248453 </v>
   <v>       0.36693360       0.61661402       0.24109268 </v>
   <v>       0.37195300       0.62819982       0.72668674 </v>
   <v>       0.88275046       0.12244192       0.24105908 </v>
   <v>       0.79059547       0.12036574       0.77112967 </v>
   <v>       0.86337713       0.62757879       0.26172729 </v>
   <v>       0.86990784       0.62112030       0.74137178 </v>
   <v>       0.12727151       0.36640415       0.25487362 </v>
   <v>       0.12786144       0.38140948       0.75247357 </v>
   <v>       0.13999110       0.89181605       0.25768736 </v>
   <v>       0.13965678       0.87244267       0.73630669 </v>
   <v>       0.62665307       0.38193484       0.26196165 </v>
   <v>       0.61791432       0.36225387       0.77120483 </v>
   <v>       0.63589172       0.87842899       0.26924513 </v>
   <v>       0.62868837       0.87705995       0.75405848 </v>
   <v>       0.37224083       0.37971568       0.01018818 </v>
   <v>       0.36871918       0.87804120       0.99152061 </v>
   <v>       0.37030736       0.87802627       0.52162705 </v>
   <v>       0.86610642       0.37248896       0.98117350 </v>
   <v>       0.87260881       0.37678542       0.49683061 </v>
   <v>       0.86992429       0.87808702       0.00649014 </v>
   <v>       0.87148748       0.87623911       0.47349541 </v>
   <v>       0.12939815       0.11309262       0.99601547 </v>
   <v>       0.12472505       0.12130147       0.50966035 </v>
   <v>       0.13386775       0.62127051       0.00549139 </v>
   <v>       0.13314134       0.63417899       0.52024934 </v>
   <v>       0.63686847       0.12260821       0.99003718 </v>
   <v>       0.63160493       0.11855865       0.49482548 </v>
   <v>       0.63035928       0.61834655       0.99556229 </v>
   <v>       0.63767253       0.62745008       0.48127120 </v>
   <v>       0.11943828       0.36829051       0.99777460 </v>
   <v>       0.14307591       0.38264914       0.49467759 </v>
   <v>       0.11931236       0.86554753       0.99181815 </v>
   <v>       0.12592837       0.87353972       0.50453515 </v>
   <v>       0.62044258       0.36682533       0.98202080 </v>
   <v>       0.61381702       0.36692569       0.48988908 </v>
   <v>       0.62058254       0.86612848       0.99427766 </v>
   <v>       0.62349350       0.86846344       0.48597379 </v>
   <v>       0.38247977       0.12862273       0.00795465 </v>
   <v>       0.38657644       0.13735802       0.50549173 </v>
   <v>       0.38191317       0.63078776       0.01183979 </v>
   <v>       0.37777578       0.62960098       0.51611923 </v>
   <v>       0.87884413       0.12990838       0.99974212 </v>
   <v>       0.87721867       0.12675465       0.50379381 </v>
   <v>       0.87771552       0.63002526       0.00385158 </v>
   <v>       0.87705375       0.63584525       0.49613675 </v>
   <v>       0.01334640       0.99523296       0.12781360 </v>
   <v>       0.98323601       0.99143257       0.62269090 </v>
   <v>       0.99381459       0.49676352       0.12542906 </v>
   <v>       0.99167073       0.48682573       0.62509703 </v>
   <v>       0.51386974       0.98925062       0.12698228 </v>
   <v>       0.52921819       0.01114755       0.62893095 </v>
   <v>       0.52396609       0.49966652       0.12698539 </v>
   <v>       0.51360018       0.48481575       0.62169216 </v>
   <v>       0.01864125       0.02738556       0.37047443 </v>
   <v>       0.99832819       0.99671116       0.87312619 </v>
   <v>       0.00949705       0.50981384       0.37745420 </v>
   <v>       0.00882567       0.52171189       0.87129434 </v>
   <v>       0.48417378       0.00005519       0.37871658 </v>
   <v>       0.50070368       0.00859317       0.86794100 </v>
   <v>       0.46377092       0.48749515       0.37984287 </v>
   <v>       0.48147615       0.51588616       0.87458978 </v>
   <v>       0.25493257       0.23766279       0.37260157 </v>
   <v>       0.25376802       0.24331186       0.87455643 </v>
   <v>       0.25693722       0.74404737       0.37736866 </v>
   <v>       0.25529619       0.73169521       0.87250565 </v>
   <v>       0.75773140       0.24181858       0.37526575 </v>
   <v>       0.75684637       0.74428408       0.87527886 </v>
   <v>       0.22383907       0.23032646       0.13190386 </v>
   <v>       0.26024360       0.26383932       0.62091554 </v>
   <v>       0.24608258       0.76538461       0.12437031 </v>
   <v>       0.74142654       0.26170195       0.12408717 </v>
   <v>       0.73928937       0.25825944       0.62334062 </v>
   <v>       0.73713552       0.74939238       0.12691136 </v>
   <v>       0.74788164       0.76068799       0.62174958 </v>
  </varray>
 </structure>
</modeling>
