       N       E                     dE             d eps       ncg     rms          rms(c)
DAV:   1    -0.108706858026E+04   -0.10871E+04   -0.24431E-02 13264   0.366E-01    0.349E-02
RMM:   2    -0.108706858034E+04   -0.76994E-07   -0.34609E-05  7026   0.108E-02    0.582E-02
RMM:   3    -0.108706858064E+04   -0.30447E-06   -0.87782E-06  6604   0.608E-03    0.118E-02
RMM:   4    -0.108706858094E+04   -0.29392E-06   -0.44260E-06  4983   0.316E-03    0.660E-03
RMM:   5    -0.108706858102E+04   -0.88723E-07   -0.27472E-06  4511   0.343E-03    0.328E-03
RMM:   6    -0.108706858107E+04   -0.44281E-07   -0.15912E-06  2829   0.219E-03    0.155E-03
RMM:   7    -0.108706858102E+04    0.49025E-07   -0.99807E-07  2671   0.242E-03    0.109E-03
RMM:   8    -0.108706858104E+04   -0.23327E-07   -0.35907E-07  2049   0.195E-03
   1 F= -.10870686E+04 E0= -.10870686E+04  d E =-.108707E+04  mag=    50.0000
       N       E                     dE             d eps       ncg     rms          rms(c)
DAV:   1    -0.108706901382E+04   -0.43280E-03   -0.38819E-01 12928   0.749E-01    0.394E-01
RMM:   2    -0.108706958140E+04   -0.56759E-03   -0.14744E-02 12305   0.162E-01    0.320E-01
RMM:   3    -0.108706940112E+04    0.18029E-03   -0.95749E-04 12276   0.662E-02    0.167E-01
RMM:   4    -0.108706929810E+04    0.10301E-03   -0.48430E-04 11165   0.271E-02    0.116E-01
RMM:   5    -0.108706929110E+04    0.70034E-05   -0.11358E-04  7542   0.210E-02    0.570E-02
RMM:   6    -0.108706930447E+04   -0.13368E-04   -0.88198E-05  7447   0.107E-02    0.318E-02
RMM:   7    -0.108706931128E+04   -0.68087E-05   -0.21022E-05  7093   0.914E-03    0.231E-02
RMM:   8    -0.108706931755E+04   -0.62740E-05   -0.18684E-05  6888   0.469E-03
   2 F= -.10870693E+04 E0= -.10870693E+04  d E =-.736508E-03  mag=    50.0000
       N       E                     dE             d eps       ncg     rms          rms(c)
DAV:   1    -0.108706943126E+04   -0.11998E-03   -0.22060E-02 13168   0.179E-01    0.935E-02
RMM:   2    -0.108706945984E+04   -0.28579E-04   -0.82084E-04 11960   0.385E-02    0.759E-02
RMM:   3    -0.108706944883E+04    0.11007E-04   -0.43483E-05  6685   0.158E-02    0.409E-02
RMM:   4    -0.108706944246E+04    0.63713E-05   -0.31759E-05  6530   0.806E-03    0.329E-02
RMM:   5    -0.108706944101E+04    0.14474E-05   -0.97526E-06  6435   0.578E-03    0.179E-02
RMM:   6    -0.108706943953E+04    0.14810E-05   -0.45591E-06  4853   0.315E-03    0.733E-03
RMM:   7    -0.108706943871E+04    0.82297E-06   -0.18915E-06  3479   0.276E-03    0.457E-03
RMM:   8    -0.108706943812E+04    0.59216E-06   -0.15100E-06  2421   0.228E-03
   3 F= -.10870694E+04 E0= -.10870694E+04  d E =-.857075E-03  mag=    50.0000
       N       E                     dE             d eps       ncg     rms          rms(c)
DAV:   1    -0.108706915111E+04    0.28760E-03   -0.38214E-01 12888   0.740E-01    0.234E-01
RMM:   2    -0.108707025659E+04   -0.11055E-02   -0.10269E-02 12360   0.140E-01    0.154E-01
RMM:   3    -0.108707032126E+04   -0.64679E-04   -0.61817E-04 11357   0.557E-02    0.897E-02
RMM:   4    -0.108707028881E+04    0.32451E-04   -0.13894E-04  7388   0.174E-02    0.618E-02
RMM:   5    -0.108707028377E+04    0.50412E-05   -0.49994E-05  7154   0.120E-02    0.493E-02
RMM:   6    -0.108707028583E+04   -0.20538E-05   -0.22933E-05  7047   0.890E-03    0.103E-02
RMM:   7    -0.108707028765E+04   -0.18217E-05   -0.10127E-05  6944   0.556E-03    0.824E-03
RMM:   8    -0.108707028872E+04   -0.10705E-05   -0.58114E-06  6498   0.443E-03
   4 F= -.10870703E+04 E0= -.10870703E+04  d E =-.850600E-03  mag=    50.0000
       N       E                     dE             d eps       ncg     rms          rms(c)
DAV:   1    -0.108707013347E+04    0.15418E-03   -0.76238E-02 12480   0.331E-01    0.105E-01
RMM:   2    -0.108707035917E+04   -0.22570E-03   -0.20945E-03 12257   0.622E-02    0.693E-02
RMM:   3    -0.108707036925E+04   -0.10074E-04   -0.10096E-04  7209   0.252E-02    0.408E-02
RMM:   4    -0.108707036553E+04    0.37218E-05   -0.40825E-05  7047   0.974E-03    0.352E-02
RMM:   5    -0.108707036531E+04    0.22103E-06   -0.14069E-05  6888   0.726E-03    0.219E-02
RMM:   6    -0.108707036619E+04   -0.88579E-06   -0.10385E-05  6699   0.425E-03    0.743E-03
RMM:   7    -0.108707036676E+04   -0.57257E-06   -0.36427E-06  6192   0.407E-03    0.488E-03
RMM:   8    -0.108707036707E+04   -0.30619E-06   -0.16659E-06  3735   0.216E-03
   5 F= -.10870704E+04 E0= -.10870704E+04  d E =-.928952E-03  mag=    50.0000
       N       E                     dE             d eps       ncg     rms          rms(c)
DAV:   1    -0.108707040040E+04   -0.33639E-04   -0.31472E-01 12880   0.667E-01    0.189E-01
RMM:   2    -0.108707114303E+04   -0.74263E-03   -0.83211E-03 12425   0.123E-01    0.125E-01
RMM:   3    -0.108707116143E+04   -0.18397E-04   -0.50699E-04 10700   0.514E-02    0.739E-02
RMM:   4    -0.108707114295E+04    0.18479E-04   -0.12186E-04  7196   0.158E-02    0.494E-02
RMM:   5    -0.108707113842E+04    0.45288E-05   -0.40034E-05  7074   0.110E-02    0.351E-02
RMM:   6    -0.108707113915E+04   -0.72987E-06   -0.19233E-05  6969   0.796E-03    0.975E-03
RMM:   7    -0.108707113937E+04   -0.21495E-06   -0.10422E-05  6881   0.554E-03    0.634E-03
RMM:   8    -0.108707113908E+04    0.29143E-06   -0.65951E-06  6400   0.454E-03
   6 F= -.10870711E+04 E0= -.10870711E+04  d E =-.772006E-03  mag=    50.0000
       N       E                     dE             d eps       ncg     rms          rms(c)
DAV:   1    -0.108707010472E+04    0.10346E-02   -0.59991E-01 12800   0.920E-01    0.260E-01
RMM:   2    -0.108707152399E+04   -0.14193E-02   -0.15887E-02 12411   0.168E-01    0.172E-01
RMM:   3    -0.108707155807E+04   -0.34080E-04   -0.98330E-04 11741   0.697E-02    0.102E-01
RMM:   4    -0.108707152179E+04    0.36273E-04   -0.23221E-04  7825   0.207E-02    0.676E-02
RMM:   5    -0.108707151128E+04    0.10508E-04   -0.70742E-05  7186   0.147E-02    0.493E-02
RMM:   6    -0.108707151321E+04   -0.19251E-05   -0.32161E-05  7112   0.105E-02    0.129E-02
RMM:   7    -0.108707151388E+04   -0.67201E-06   -0.17389E-05  7023   0.723E-03    0.828E-03
RMM:   8    -0.108707151344E+04    0.44606E-06   -0.10977E-05  6939   0.598E-03
   7 F= -.10870715E+04 E0= -.10870715E+04  d E =-.114637E-02  mag=    50.0000
       N       E                     dE             d eps       ncg     rms          rms(c)
DAV:   1    -0.108707114144E+04    0.37244E-03   -0.41123E-01 12592   0.752E-01    0.186E-01
RMM:   2    -0.108707221448E+04   -0.10730E-02   -0.10452E-02 12620   0.134E-01    0.119E-01
RMM:   3    -0.108707224899E+04   -0.34508E-04   -0.57691E-04 10517   0.529E-02    0.713E-02
RMM:   4    -0.108707222885E+04    0.20131E-04   -0.12405E-04  7246   0.161E-02    0.559E-02
RMM:   5    -0.108707222599E+04    0.28612E-05   -0.41692E-05  7094   0.112E-02    0.413E-02
RMM:   6    -0.108707222668E+04   -0.69090E-06   -0.27729E-05  6961   0.813E-03    0.114E-02
RMM:   7    -0.108707222775E+04   -0.10615E-05   -0.11432E-05  6762   0.630E-03    0.558E-03
RMM:   8    -0.108707222834E+04   -0.59881E-06   -0.75856E-06  6040   0.413E-03
   8 F= -.10870722E+04 E0= -.10870722E+04  d E =-.714909E-03  mag=    50.0000
       N       E                     dE             d eps       ncg     rms          rms(c)
DAV:   1    -0.108707050509E+04    0.17227E-02   -0.80755E-01 12576   0.105E+00    0.261E-01
RMM:   2    -0.108707259514E+04   -0.20901E-02   -0.20354E-02 12511   0.187E-01    0.167E-01
RMM:   3    -0.108707267665E+04   -0.81502E-04   -0.11905E-03 11736   0.763E-02    0.100E-01
RMM:   4    -0.108707263932E+04    0.37322E-04   -0.27858E-04  8270   0.222E-02    0.780E-02
RMM:   5    -0.108707262952E+04    0.98072E-05   -0.68564E-05  7223   0.146E-02    0.561E-02
RMM:   6    -0.108707263040E+04   -0.88719E-06   -0.47551E-05  7115   0.107E-02    0.160E-02
RMM:   7    -0.108707263214E+04   -0.17412E-05   -0.18664E-05  6863   0.807E-03    0.683E-03
RMM:   8    -0.108707263312E+04   -0.97082E-06   -0.11670E-05  6501   0.533E-03
   9 F= -.10870726E+04 E0= -.10870726E+04  d E =-.111968E-02  mag=    50.0000
       N       E                     dE             d eps       ncg     rms          rms(c)
DAV:   1    -0.108707181623E+04    0.81592E-03   -0.65604E-01 12784   0.934E-01    0.221E-01
RMM:   2    -0.108707347824E+04   -0.16620E-02   -0.16603E-02 12418   0.168E-01    0.146E-01
RMM:   3    -0.108707353062E+04   -0.52376E-04   -0.98217E-04 11437   0.665E-02    0.888E-02
RMM:   4    -0.108707349383E+04    0.36784E-04   -0.21184E-04  7834   0.190E-02    0.539E-02
RMM:   5    -0.108707348775E+04    0.60781E-05   -0.70416E-05  7178   0.136E-02    0.396E-02
RMM:   6    -0.108707349134E+04   -0.35895E-05   -0.27125E-05  7083   0.102E-02    0.923E-03
RMM:   7    -0.108707349355E+04   -0.22023E-05   -0.14985E-05  6974   0.600E-03    0.681E-03
RMM:   8    -0.108707349502E+04   -0.14702E-05   -0.89038E-06  6843   0.575E-03
  10 F= -.10870735E+04 E0= -.10870735E+04  d E =-.861902E-03  mag=    50.0000
