<?xml version="1.0" encoding="ISO-8859-1"?>
<modeling>
 <generator>
  <i name="program" type="string">vasp </i>
  <i name="version" type="string">5.4.1  </i>
  <i name="subversion" type="string">05Feb16 (build Jan 25 2017 20:16:33) complex                          parallel </i>
  <i name="platform" type="string">BWXE6 </i>
  <i name="date" type="string">2019 06 18 </i>
  <i name="time" type="string">09:36:57 </i>
 </generator>
 <incar>
  <i type="string" name="SYSTEM"> STF</i>
  <i type="string" name="PREC">normal</i>
  <i type="string" name="ALGO"> Fast</i>
  <i type="int" name="ISPIN">     2</i>
  <i type="int" name="NELM">    40</i>
  <i type="int" name="NELMIN">     8</i>
  <i type="int" name="IBRION">     2</i>
  <i name="EDIFF">      0.00010000</i>
  <i name="EDIFFG">     -0.03000000</i>
  <i type="int" name="NSW">    30</i>
  <i type="int" name="ISIF">     3</i>
  <i name="ENCUT">    520.00000000</i>
  <i type="int" name="NBANDS">   768</i>
  <v name="MAGMOM">      0.60000000      0.60000000      0.60000000      0.60000000      0.60000000      0.60000000      0.60000000      0.60000000      0.60000000      0.60000000      0.60000000      0.60000000      0.60000000      0.60000000      0.60000000      0.60000000      0.60000000      0.60000000      0.60000000      0.60000000
      0.60000000      0.60000000      0.60000000      0.60000000      0.60000000      0.60000000      0.60000000      0.60000000      0.60000000      0.60000000      0.60000000      0.60000000      0.60000000      0.60000000      0.60000000      0.60000000      0.60000000      0.60000000      0.60000000      0.60000000
      0.60000000      0.60000000      0.60000000      0.60000000      0.60000000      0.60000000      0.60000000      0.60000000      0.60000000      0.60000000      0.60000000      0.60000000      5.00000000      5.00000000      5.00000000      5.00000000      5.00000000      5.00000000      5.00000000      5.00000000
      5.00000000      5.00000000      5.00000000      5.00000000      0.60000000      0.60000000      0.60000000      0.60000000      0.60000000      0.60000000      0.60000000      0.60000000      0.60000000      0.60000000      0.60000000      0.60000000      0.60000000      0.60000000      0.60000000      0.60000000
      0.60000000      0.60000000      0.60000000      0.60000000      0.60000000      0.60000000      0.60000000      0.60000000      0.60000000      0.60000000      0.60000000      0.60000000      0.60000000      0.60000000      0.60000000      0.60000000      0.60000000      0.60000000      0.60000000      0.60000000
      0.60000000      0.60000000      0.60000000      0.60000000      0.60000000      0.60000000      0.60000000      0.60000000      0.60000000      0.60000000      0.60000000      0.60000000      0.60000000      0.60000000      0.60000000      0.60000000      0.60000000      0.60000000      0.60000000      0.60000000
      0.60000000      0.60000000      0.60000000      0.60000000      0.60000000      0.60000000      0.60000000      0.60000000      0.60000000      0.60000000      0.60000000      0.60000000      0.60000000      0.60000000      0.60000000      0.60000000      0.60000000      0.60000000      0.60000000      0.60000000
      0.60000000      0.60000000      0.60000000      0.60000000      0.60000000      0.60000000      0.60000000      0.60000000      0.60000000      0.60000000      0.60000000      0.60000000      0.60000000      0.60000000</v>
  <i type="string" name="LREAL"> Auto</i>
  <i type="int" name="ISMEAR">     0</i>
  <i name="SIGMA">      0.05000000</i>
  <i type="int" name="LMAXMIX">     4</i>
  <v type="int" name="KPOINT_BSE">    -1     0     0     0</v>
  <i type="int" name="NELM">    40</i>
  <i type="logical" name="LDAU"> T  </i>
  <v type="int" name="LDAUTYPE">     2</v>
  <v type="int" name="LDAUL">     0     2     2     0</v>
  <v name="LDAUU">      0.00000000      3.00000000      5.00000000      0.00000000</v>
  <v name="LDAUJ">      0.00000000      0.00000000      0.00000000      0.00000000</v>
  <i type="int" name="LDAUPRINT">     1</i>
 </incar>
 <kpoints>
  <generation param="Monkhorst-Pack">
   <v type="int" name="divisions">       2        2        2 </v>
   <v name="usershift">      0.00000000       0.00000000       0.00000000 </v>
   <v name="genvec1">      0.50000000      -0.00000000       0.00000000 </v>
   <v name="genvec2">      0.00000000       0.50000000       0.00000000 </v>
   <v name="genvec3">      0.00000000       0.00000000       0.50000000 </v>
   <v name="shift">      0.50000000       0.50000000       0.50000000 </v>
  </generation>
  <varray name="kpointlist" >
   <v>       0.25000000       0.25000000       0.25000000 </v>
   <v>      -0.25000000       0.25000000       0.25000000 </v>
   <v>       0.25000000      -0.25000000       0.25000000 </v>
   <v>      -0.25000000      -0.25000000       0.25000000 </v>
  </varray>
  <varray name="weights" >
   <v>       0.25000000 </v>
   <v>       0.25000000 </v>
   <v>       0.25000000 </v>
   <v>       0.25000000 </v>
  </varray>
 </kpoints>
 <parameters>
  <separator name="general" >
   <i type="string" name="SYSTEM">STF</i>
   <i type="logical" name="LCOMPAT"> F  </i>
  </separator>
  <separator name="electronic" >
   <i type="string" name="PREC">normal</i>
   <i name="ENMAX">    520.00000000</i>
   <i name="ENAUG">    605.39200000</i>
   <i name="EDIFF">      0.00010000</i>
   <i type="int" name="IALGO">    68</i>
   <i type="int" name="IWAVPR">    11</i>
   <i type="int" name="NBANDS">   768</i>
   <i name="NELECT">   1036.00000000</i>
   <i type="int" name="TURBO">     0</i>
   <i type="int" name="IRESTART">     0</i>
   <i type="int" name="NREBOOT">     0</i>
   <i type="int" name="NMIN">     0</i>
   <i name="EREF">      0.00000000</i>
   <separator name="electronic smearing" >
    <i type="int" name="ISMEAR">     0</i>
    <i name="SIGMA">      0.05000000</i>
    <i name="KSPACING">      0.50000000</i>
    <i type="logical" name="KGAMMA"> T  </i>
   </separator>
   <separator name="electronic projectors" >
    <i type="logical" name="LREAL"> T  </i>
    <v name="ROPT">     -0.00050000     -0.00050000     -0.00050000     -0.00050000</v>
    <i type="int" name="LMAXPAW">  -100</i>
    <i type="int" name="LMAXMIX">     4</i>
    <i type="logical" name="NLSPLINE"> F  </i>
   </separator>
   <separator name="electronic startup" >
    <i type="int" name="ISTART">     1</i>
    <i type="int" name="ICHARG">     0</i>
    <i type="int" name="INIWAV">     1</i>
   </separator>
   <separator name="electronic spin" >
    <i type="int" name="ISPIN">     2</i>
    <i type="logical" name="LNONCOLLINEAR"> F  </i>
    <v name="MAGMOM">      0.60000000      0.60000000      0.60000000      0.60000000      0.60000000      0.60000000      0.60000000      0.60000000      0.60000000      0.60000000      0.60000000      0.60000000      0.60000000      0.60000000      0.60000000      0.60000000      0.60000000      0.60000000      0.60000000      0.60000000
      0.60000000      0.60000000      0.60000000      0.60000000      0.60000000      0.60000000      0.60000000      0.60000000      0.60000000      0.60000000      0.60000000      0.60000000      0.60000000      0.60000000      0.60000000      0.60000000      0.60000000      0.60000000      0.60000000      0.60000000
      0.60000000      0.60000000      0.60000000      0.60000000      0.60000000      0.60000000      0.60000000      0.60000000      0.60000000      0.60000000      0.60000000      0.60000000      5.00000000      5.00000000      5.00000000      5.00000000      5.00000000      5.00000000      5.00000000      5.00000000
      5.00000000      5.00000000      5.00000000      5.00000000      0.60000000      0.60000000      0.60000000      0.60000000      0.60000000      0.60000000      0.60000000      0.60000000      0.60000000      0.60000000      0.60000000      0.60000000      0.60000000      0.60000000      0.60000000      0.60000000
      0.60000000      0.60000000      0.60000000      0.60000000      0.60000000      0.60000000      0.60000000      0.60000000      0.60000000      0.60000000      0.60000000      0.60000000      0.60000000      0.60000000      0.60000000      0.60000000      0.60000000      0.60000000      0.60000000      0.60000000
      0.60000000      0.60000000      0.60000000      0.60000000      0.60000000      0.60000000      0.60000000      0.60000000      0.60000000      0.60000000      0.60000000      0.60000000      0.60000000      0.60000000      0.60000000      0.60000000      0.60000000      0.60000000      0.60000000      0.60000000
      0.60000000      0.60000000      0.60000000      0.60000000      0.60000000      0.60000000      0.60000000      0.60000000      0.60000000      0.60000000      0.60000000      0.60000000      0.60000000      0.60000000      0.60000000      0.60000000      0.60000000      0.60000000      0.60000000      0.60000000
      0.60000000      0.60000000      0.60000000      0.60000000      0.60000000      0.60000000      0.60000000      0.60000000      0.60000000      0.60000000      0.60000000      0.60000000      0.60000000      0.60000000</v>
    <i name="NUPDOWN">     -1.00000000</i>
    <i type="logical" name="LSORBIT"> F  </i>
    <v name="SAXIS">      0.00000000      0.00000000      1.00000000</v>
    <i type="logical" name="LSPIRAL"> F  </i>
    <v name="QSPIRAL">      0.00000000      0.00000000      0.00000000</v>
    <i type="logical" name="LZEROZ"> F  </i>
   </separator>
   <separator name="electronic exchange-correlation" >
    <i type="logical" name="LASPH"> F  </i>
    <i type="logical" name="LMETAGGA"> F  </i>
   </separator>
   <separator name="electronic convergence" >
    <i type="int" name="NELM">    40</i>
    <i type="int" name="NELMDL">     0</i>
    <i type="int" name="NELMIN">     8</i>
    <i name="ENINI">    520.00000000</i>
    <separator name="electronic convergence detail" >
     <i type="logical" name="LDIAG"> T  </i>
     <i type="logical" name="LSUBROT"> F  </i>
     <i name="WEIMIN">      0.00100000</i>
     <i name="EBREAK">      0.00000003</i>
     <i name="DEPER">      0.30000000</i>
     <i type="int" name="NRMM">     4</i>
     <i name="TIME">      0.40000000</i>
    </separator>
   </separator>
   <separator name="electronic mixer" >
    <i name="AMIX">      0.40000000</i>
    <i name="BMIX">      1.00000000</i>
    <i name="AMIN">      0.10000000</i>
    <i name="AMIX_MAG">      1.60000000</i>
    <i name="BMIX_MAG">      1.00000000</i>
    <separator name="electronic mixer details" >
     <i type="int" name="IMIX">     4</i>
     <i type="logical" name="MIXFIRST"> F  </i>
     <i type="int" name="MAXMIX">   -45</i>
     <i name="WC">    100.00000000</i>
     <i type="int" name="INIMIX">     1</i>
     <i type="int" name="MIXPRE">     1</i>
     <i type="int" name="MREMOVE">     5</i>
    </separator>
   </separator>
   <separator name="electronic dipolcorrection" >
    <i type="logical" name="LDIPOL"> F  </i>
    <i type="logical" name="LMONO"> F  </i>
    <i type="int" name="IDIPOL">     0</i>
    <i name="EPSILON">      1.00000000</i>
    <v name="DIPOL">   -100.00000000   -100.00000000   -100.00000000</v>
    <i name="EFIELD">      0.00000000</i>
   </separator>
  </separator>
  <separator name="grids" >
   <i type="int" name="NGX">    64</i>
   <i type="int" name="NGY">    64</i>
   <i type="int" name="NGZ">    90</i>
   <i type="int" name="NGXF">   128</i>
   <i type="int" name="NGYF">   128</i>
   <i type="int" name="NGZF">   180</i>
   <i type="logical" name="ADDGRID"> F  </i>
  </separator>
  <separator name="ionic" >
   <i type="int" name="NSW">    30</i>
   <i type="int" name="IBRION">     2</i>
   <i type="int" name="ISIF">     3</i>
   <i name="PSTRESS">      0.00000000</i>
   <i name="EDIFFG">     -0.03000000</i>
   <i type="int" name="NFREE">     1</i>
   <i name="POTIM">      0.50000000</i>
   <i name="SMASS">     -3.00000000</i>
   <i name="SCALEE">      1.00000000</i>
  </separator>
  <separator name="ionic md" >
   <i name="TEBEG">      0.00010000</i>
   <i name="TEEND">      0.00010000</i>
   <i type="int" name="NBLOCK">     1</i>
   <i type="int" name="KBLOCK">    30</i>
   <i type="int" name="NPACO">   256</i>
   <i name="APACO">     16.00000000</i>
  </separator>
  <separator name="symmetry" >
   <i type="int" name="ISYM">     2</i>
   <i name="SYMPREC">      0.00001000</i>
  </separator>
  <separator name="dos" >
   <i type="logical" name="LORBIT"> F  </i>
   <v name="RWIGS">     -1.00000000     -1.00000000     -1.00000000     -1.00000000</v>
   <i type="int" name="NEDOS">   301</i>
   <i name="EMIN">     10.00000000</i>
   <i name="EMAX">    -10.00000000</i>
   <i name="EFERMI">      0.00000000</i>
  </separator>
  <separator name="writing" >
   <i type="int" name="NWRITE">     2</i>
   <i type="logical" name="LWAVE"> T  </i>
   <i type="logical" name="LCHARG"> T  </i>
   <i type="logical" name="LPARD"> F  </i>
   <i type="logical" name="LVTOT"> F  </i>
   <i type="logical" name="LVHAR"> F  </i>
   <i type="logical" name="LELF"> F  </i>
   <i type="logical" name="LOPTICS"> F  </i>
   <v name="STM">      0.00000000      0.00000000      0.00000000      0.00000000      0.00000000      0.00000000      0.00000000</v>
  </separator>
  <separator name="performance" >
   <i type="int" name="NPAR">     2</i>
   <i type="int" name="NSIM">     4</i>
   <i type="int" name="NBLK">    -1</i>
   <i type="logical" name="LPLANE"> T  </i>
   <i type="logical" name="LSCALAPACK"> T  </i>
   <i type="logical" name="LSCAAWARE"> F  </i>
   <i type="logical" name="LSCALU"> F  </i>
   <i type="logical" name="LASYNC"> F  </i>
   <i type="logical" name="LORBITALREAL"> F  </i>
  </separator>
  <separator name="miscellaneous" >
   <i type="int" name="IDIOT">     3</i>
   <i type="logical" name="LMUSIC"> F  </i>
   <v name="POMASS">     87.62000000     47.88000000     55.84700000     16.00000000</v>
   <v name="DARWINR">      0.00000000      0.00000000      0.00000000      0.00000000</v>
   <v name="DARWINV">      1.00000000      1.00000000      1.00000000      1.00000000</v>
   <i type="logical" name="LCORR"> T  </i>
  </separator>
  <i type="logical" name="GGA_COMPAT"> T  </i>
  <i type="logical" name="LBERRY"> F  </i>
  <i type="int" name="ICORELEVEL">     0</i>
  <i type="logical" name="LDAU"> T  </i>
  <v type="int" name="LDAUTYPE">     2</v>
  <v type="int" name="LDAUL">     0</v>
  <v name="LDAUU">      0.00000000</v>
  <v name="LDAUJ">      0.00000000</v>
  <i type="int" name="LDAUPRINT">     1</i>
  <i type="int" name="I_CONSTRAINED_M">     0</i>
  <separator name="electronic exchange-correlation" >
   <i type="string" name="GGA">--</i>
   <i type="int" name="VOSKOWN">     0</i>
   <i type="logical" name="LHFCALC"> F  </i>
   <i type="string" name="PRECFOCK"></i>
   <i type="logical" name="LSYMGRAD"> F  </i>
   <i type="logical" name="LHFONE"> F  </i>
   <i type="logical" name="LRHFCALC"> F  </i>
   <i type="logical" name="LTHOMAS"> F  </i>
   <i type="logical" name="LMODELHF"> F  </i>
   <i name="ENCUT4O">     -1.00000000</i>
   <i type="int" name="EXXOEP">     0</i>
   <i type="int" name="FOURORBIT">     0</i>
   <i name="AEXX">      0.00000000</i>
   <i name="HFALPHA">      0.00000000</i>
   <i name="MCALPHA">      0.00000000</i>
   <i name="ALDAX">      1.00000000</i>
   <i name="AGGAX">      1.00000000</i>
   <i name="ALDAC">      1.00000000</i>
   <i name="AGGAC">      1.00000000</i>
   <i type="int" name="NKREDX">     1</i>
   <i type="int" name="NKREDY">     1</i>
   <i type="int" name="NKREDZ">     1</i>
   <i type="logical" name="SHIFTRED"> F  </i>
   <i type="logical" name="ODDONLY"> F  </i>
   <i type="logical" name="EVENONLY"> F  </i>
   <i type="int" name="LMAXFOCK">     0</i>
   <i type="int" name="NMAXFOCKAE">     0</i>
   <i type="logical" name="LFOCKAEDFT"> F  </i>
   <i name="HFSCREEN">      0.00000000</i>
   <i name="HFSCREENC">      0.00000000</i>
   <i type="int" name="NBANDSGWLOW">     0</i>
  </separator>
  <separator name="vdW DFT" >
   <i type="logical" name="LUSE_VDW"> F  </i>
   <i name="Zab_VDW">     -0.84910000</i>
   <i name="PARAM1">      0.12340000</i>
   <i name="PARAM2">      1.00000000</i>
   <i name="PARAM3">      0.00000000</i>
  </separator>
  <separator name="model GW" >
   <i type="int" name="MODEL_GW">     0</i>
   <i name="MODEL_EPS0">      7.83649478</i>
   <i name="MODEL_ALPHA">      1.00000000</i>
  </separator>
  <separator name="linear response parameters" >
   <i type="logical" name="LEPSILON"> F  </i>
   <i type="logical" name="LRPA"> F  </i>
   <i type="logical" name="LNABLA"> F  </i>
   <i type="logical" name="LVEL"> F  </i>
   <i type="int" name="KINTER">     0</i>
   <i name="CSHIFT">      0.10000000</i>
   <i name="OMEGAMAX">     -1.00000000</i>
   <i name="DEG_THRESHOLD">      0.00200000</i>
  </separator>
  <separator name="orbital magnetization" >
   <i type="logical" name="NUCIND"> F  </i>
   <v name="MAGPOS">      0.00000000      0.00000000      0.00000000</v>
   <i type="logical" name="LNICSALL"> T  </i>
   <i type="logical" name="ORBITALMAG"> F  </i>
   <i type="logical" name="LMAGBLOCH"> F  </i>
   <i type="logical" name="LCHIMAG"> F  </i>
   <i type="logical" name="LGAUGE"> T  </i>
   <i type="int" name="MAGATOM">     0</i>
   <v name="MAGDIPOL">      0.00000000      0.00000000      0.00000000</v>
   <v name="AVECCONST">      0.00000000      0.00000000      0.00000000</v>
  </separator>
  <separator name="response functions" >
   <i type="logical" name="LADDER"> F  </i>
   <i type="logical" name="LFXC"> F  </i>
   <i type="logical" name="LHARTREE"> T  </i>
   <i type="int" name="IBSE">     0</i>
   <v type="int" name="KPOINT">    -1     0     0     0</v>
   <i type="logical" name="LTCTE"> F  </i>
   <i type="logical" name="LTETE"> F  </i>
   <i type="logical" name="LTRIPLET"> F  </i>
   <i type="logical" name="LFXCEPS"> F  </i>
   <i type="logical" name="LFXHEG"> F  </i>
   <i type="int" name="NATURALO">     0</i>
   <i type="logical" name="L2ORDER"> F  </i>
   <i type="logical" name="LUSEW"> F  </i>
   <i name="ENCUTGW">     -2.00000000</i>
   <i name="ENCUTGWSOFT">     -2.00000000</i>
   <i name="ENCUTLF">     -1.00000000</i>
   <i type="int" name="LMAXMP2">    -1</i>
   <i name="SCISSOR">      0.00000000</i>
   <i type="int" name="NOMEGA">     0</i>
   <i type="int" name="NOMEGAR">     0</i>
   <i type="int" name="NBANDSGW">    -1</i>
   <i type="int" name="NBANDSO">    -1</i>
   <i type="int" name="NBANDSV">    -1</i>
   <i type="int" name="NELM">    40</i>
   <i type="int" name="NELMHF">     1</i>
   <i type="int" name="DIM">     3</i>
   <i type="int" name="ANTIRES">     0</i>
   <i name="OMEGAMAX">    -30.00000000</i>
   <i name="OMEGAMIN">    -30.00000000</i>
   <i name="OMEGATL">   -200.00000000</i>
   <i type="int" name="OMEGAGRID">     0</i>
   <i name="CSHIFT">     -0.10000000</i>
   <i type="logical" name="SELFENERGY"> F  </i>
   <i type="logical" name="LSPECTRAL"> F  </i>
   <i type="logical" name="LSPECTRALGW"> F  </i>
   <i type="logical" name="LSINGLES"> F  </i>
   <i type="logical" name="LFERMIGW"> F  </i>
   <i type="logical" name="ODDONLYGW"> F  </i>
   <i type="logical" name="EVENONLYGW"> F  </i>
   <i type="int" name="NKREDLFX">     1</i>
   <i type="int" name="NKREDLFY">     1</i>
   <i type="int" name="NKREDLFZ">     1</i>
   <i type="int" name="MAXMEM">  1800</i>
   <i type="int" name="TELESCOPE">     0</i>
   <i type="int" name="TAUPAR">     1</i>
   <i type="int" name="OMEGAPAR">    -1</i>
   <i name="LAMBDA">      1.00000000</i>
  </separator>
  <separator name="External order field" >
   <i name="OFIELD_KAPPA">      0.00000000</i>
   <v name="OFIELD_K">      0.00000000      0.00000000      0.00000000</v>
   <i name="OFIELD_Q6_NEAR">      0.00000000</i>
   <i name="OFIELD_Q6_FAR">      0.00000000</i>
   <i name="OFIELD_A">      0.00000000</i>
  </separator>
 </parameters>
 <atominfo>
  <atoms>     154 </atoms>
  <types>       4 </types>
  <array name="atoms" >
   <dimension dim="1">ion</dimension>
   <field type="string">element</field>
   <field type="int">atomtype</field>
   <set>
    <rc><c>Sr</c><c>   1</c></rc>
    <rc><c>Sr</c><c>   1</c></rc>
    <rc><c>Sr</c><c>   1</c></rc>
    <rc><c>Sr</c><c>   1</c></rc>
    <rc><c>Sr</c><c>   1</c></rc>
    <rc><c>Sr</c><c>   1</c></rc>
    <rc><c>Sr</c><c>   1</c></rc>
    <rc><c>Sr</c><c>   1</c></rc>
    <rc><c>Sr</c><c>   1</c></rc>
    <rc><c>Sr</c><c>   1</c></rc>
    <rc><c>Sr</c><c>   1</c></rc>
    <rc><c>Sr</c><c>   1</c></rc>
    <rc><c>Sr</c><c>   1</c></rc>
    <rc><c>Sr</c><c>   1</c></rc>
    <rc><c>Sr</c><c>   1</c></rc>
    <rc><c>Sr</c><c>   1</c></rc>
    <rc><c>Sr</c><c>   1</c></rc>
    <rc><c>Sr</c><c>   1</c></rc>
    <rc><c>Sr</c><c>   1</c></rc>
    <rc><c>Sr</c><c>   1</c></rc>
    <rc><c>Sr</c><c>   1</c></rc>
    <rc><c>Sr</c><c>   1</c></rc>
    <rc><c>Sr</c><c>   1</c></rc>
    <rc><c>Sr</c><c>   1</c></rc>
    <rc><c>Sr</c><c>   1</c></rc>
    <rc><c>Sr</c><c>   1</c></rc>
    <rc><c>Sr</c><c>   1</c></rc>
    <rc><c>Sr</c><c>   1</c></rc>
    <rc><c>Sr</c><c>   1</c></rc>
    <rc><c>Sr</c><c>   1</c></rc>
    <rc><c>Sr</c><c>   1</c></rc>
    <rc><c>Sr</c><c>   1</c></rc>
    <rc><c>Ti</c><c>   2</c></rc>
    <rc><c>Ti</c><c>   2</c></rc>
    <rc><c>Ti</c><c>   2</c></rc>
    <rc><c>Ti</c><c>   2</c></rc>
    <rc><c>Ti</c><c>   2</c></rc>
    <rc><c>Ti</c><c>   2</c></rc>
    <rc><c>Ti</c><c>   2</c></rc>
    <rc><c>Ti</c><c>   2</c></rc>
    <rc><c>Ti</c><c>   2</c></rc>
    <rc><c>Ti</c><c>   2</c></rc>
    <rc><c>Ti</c><c>   2</c></rc>
    <rc><c>Ti</c><c>   2</c></rc>
    <rc><c>Ti</c><c>   2</c></rc>
    <rc><c>Ti</c><c>   2</c></rc>
    <rc><c>Ti</c><c>   2</c></rc>
    <rc><c>Ti</c><c>   2</c></rc>
    <rc><c>Ti</c><c>   2</c></rc>
    <rc><c>Ti</c><c>   2</c></rc>
    <rc><c>Ti</c><c>   2</c></rc>
    <rc><c>Ti</c><c>   2</c></rc>
    <rc><c>Fe</c><c>   3</c></rc>
    <rc><c>Fe</c><c>   3</c></rc>
    <rc><c>Fe</c><c>   3</c></rc>
    <rc><c>Fe</c><c>   3</c></rc>
    <rc><c>Fe</c><c>   3</c></rc>
    <rc><c>Fe</c><c>   3</c></rc>
    <rc><c>Fe</c><c>   3</c></rc>
    <rc><c>Fe</c><c>   3</c></rc>
    <rc><c>Fe</c><c>   3</c></rc>
    <rc><c>Fe</c><c>   3</c></rc>
    <rc><c>Fe</c><c>   3</c></rc>
    <rc><c>Fe</c><c>   3</c></rc>
    <rc><c>O </c><c>   4</c></rc>
    <rc><c>O </c><c>   4</c></rc>
    <rc><c>O </c><c>   4</c></rc>
    <rc><c>O </c><c>   4</c></rc>
    <rc><c>O </c><c>   4</c></rc>
    <rc><c>O </c><c>   4</c></rc>
    <rc><c>O </c><c>   4</c></rc>
    <rc><c>O </c><c>   4</c></rc>
    <rc><c>O </c><c>   4</c></rc>
    <rc><c>O </c><c>   4</c></rc>
    <rc><c>O </c><c>   4</c></rc>
    <rc><c>O </c><c>   4</c></rc>
    <rc><c>O </c><c>   4</c></rc>
    <rc><c>O </c><c>   4</c></rc>
    <rc><c>O </c><c>   4</c></rc>
    <rc><c>O </c><c>   4</c></rc>
    <rc><c>O </c><c>   4</c></rc>
    <rc><c>O </c><c>   4</c></rc>
    <rc><c>O </c><c>   4</c></rc>
    <rc><c>O </c><c>   4</c></rc>
    <rc><c>O </c><c>   4</c></rc>
    <rc><c>O </c><c>   4</c></rc>
    <rc><c>O </c><c>   4</c></rc>
    <rc><c>O </c><c>   4</c></rc>
    <rc><c>O </c><c>   4</c></rc>
    <rc><c>O </c><c>   4</c></rc>
    <rc><c>O </c><c>   4</c></rc>
    <rc><c>O </c><c>   4</c></rc>
    <rc><c>O </c><c>   4</c></rc>
    <rc><c>O </c><c>   4</c></rc>
    <rc><c>O </c><c>   4</c></rc>
    <rc><c>O </c><c>   4</c></rc>
    <rc><c>O </c><c>   4</c></rc>
    <rc><c>O </c><c>   4</c></rc>
    <rc><c>O </c><c>   4</c></rc>
    <rc><c>O </c><c>   4</c></rc>
    <rc><c>O </c><c>   4</c></rc>
    <rc><c>O </c><c>   4</c></rc>
    <rc><c>O </c><c>   4</c></rc>
    <rc><c>O </c><c>   4</c></rc>
    <rc><c>O </c><c>   4</c></rc>
    <rc><c>O </c><c>   4</c></rc>
    <rc><c>O </c><c>   4</c></rc>
    <rc><c>O </c><c>   4</c></rc>
    <rc><c>O </c><c>   4</c></rc>
    <rc><c>O </c><c>   4</c></rc>
    <rc><c>O </c><c>   4</c></rc>
    <rc><c>O </c><c>   4</c></rc>
    <rc><c>O </c><c>   4</c></rc>
    <rc><c>O </c><c>   4</c></rc>
    <rc><c>O </c><c>   4</c></rc>
    <rc><c>O </c><c>   4</c></rc>
    <rc><c>O </c><c>   4</c></rc>
    <rc><c>O </c><c>   4</c></rc>
    <rc><c>O </c><c>   4</c></rc>
    <rc><c>O </c><c>   4</c></rc>
    <rc><c>O </c><c>   4</c></rc>
    <rc><c>O </c><c>   4</c></rc>
    <rc><c>O </c><c>   4</c></rc>
    <rc><c>O </c><c>   4</c></rc>
    <rc><c>O </c><c>   4</c></rc>
    <rc><c>O </c><c>   4</c></rc>
    <rc><c>O </c><c>   4</c></rc>
    <rc><c>O </c><c>   4</c></rc>
    <rc><c>O </c><c>   4</c></rc>
    <rc><c>O </c><c>   4</c></rc>
    <rc><c>O </c><c>   4</c></rc>
    <rc><c>O </c><c>   4</c></rc>
    <rc><c>O </c><c>   4</c></rc>
    <rc><c>O </c><c>   4</c></rc>
    <rc><c>O </c><c>   4</c></rc>
    <rc><c>O </c><c>   4</c></rc>
    <rc><c>O </c><c>   4</c></rc>
    <rc><c>O </c><c>   4</c></rc>
    <rc><c>O </c><c>   4</c></rc>
    <rc><c>O </c><c>   4</c></rc>
    <rc><c>O </c><c>   4</c></rc>
    <rc><c>O </c><c>   4</c></rc>
    <rc><c>O </c><c>   4</c></rc>
    <rc><c>O </c><c>   4</c></rc>
    <rc><c>O </c><c>   4</c></rc>
    <rc><c>O </c><c>   4</c></rc>
    <rc><c>O </c><c>   4</c></rc>
    <rc><c>O </c><c>   4</c></rc>
    <rc><c>O </c><c>   4</c></rc>
    <rc><c>O </c><c>   4</c></rc>
    <rc><c>O </c><c>   4</c></rc>
    <rc><c>O </c><c>   4</c></rc>
    <rc><c>O </c><c>   4</c></rc>
    <rc><c>O </c><c>   4</c></rc>
   </set>
  </array>
  <array name="atomtypes" >
   <dimension dim="1">type</dimension>
   <field type="int">atomspertype</field>
   <field type="string">element</field>
   <field>mass</field>
   <field>valence</field>
   <field type="string">pseudopotential</field>
   <set>
    <rc><c>  32</c><c>Sr</c><c>     87.62000000</c><c>     10.00000000</c><c>  PAW_PBE Sr_sv 07Sep2000               </c></rc>
    <rc><c>  20</c><c>Ti</c><c>     47.88000000</c><c>      4.00000000</c><c>  PAW_PBE Ti 08Apr2002                  </c></rc>
    <rc><c>  12</c><c>Fe</c><c>     55.84700000</c><c>      8.00000000</c><c>  PAW_PBE Fe 06Sep2000                  </c></rc>
    <rc><c>  90</c><c>O </c><c>     16.00000000</c><c>      6.00000000</c><c>  PAW_PBE O 08Apr2002                   </c></rc>
   </set>
  </array>
 </atominfo>
 <structure name="initialpos" >
  <crystal>
   <varray name="basis" >
    <v>      11.23426809      -0.00479373       0.00144371 </v>
    <v>      -0.00477436      11.22383568      -0.00315753 </v>
    <v>       0.00216166      -0.00462311      15.95164066 </v>
   </varray>
   <i name="volume">   2011.36699436 </i>
   <varray name="rec_basis" >
    <v>       0.08901338       0.00003786      -0.00001205 </v>
    <v>       0.00003801       0.08909612       0.00002582 </v>
    <v>      -0.00000805       0.00001763       0.06268948 </v>
   </varray>
  </crystal>
  <varray name="positions" >
   <v>       0.99498485       0.24778982       0.12921327 </v>
   <v>       0.00250572       0.24789324       0.62627502 </v>
   <v>       0.00075000       0.75430408       0.11784553 </v>
   <v>       0.01203257       0.75360404       0.63574161 </v>
   <v>       0.50642669       0.24663687       0.12868151 </v>
   <v>       0.48849842       0.26324019       0.62576939 </v>
   <v>       0.50003223       0.74859110       0.12055864 </v>
   <v>       0.50064850       0.73628957       0.62754227 </v>
   <v>       0.99868851       0.23194187       0.37015120 </v>
   <v>       0.99830516       0.25799318       0.87323084 </v>
   <v>       0.01070799       0.76441570       0.37103119 </v>
   <v>       0.00382667       0.74232482       0.87640170 </v>
   <v>       0.48974457       0.25498815       0.36707209 </v>
   <v>       0.50433655       0.25114183       0.87657885 </v>
   <v>       0.48871982       0.74714560       0.36713796 </v>
   <v>       0.50334402       0.74609123       0.87887047 </v>
   <v>       0.25639481       0.99493374       0.13214482 </v>
   <v>       0.24199653       0.00363736       0.62550008 </v>
   <v>       0.25048097       0.50286802       0.12285580 </v>
   <v>       0.25423039       0.50156494       0.63018804 </v>
   <v>       0.74506764       0.00736512       0.12955098 </v>
   <v>       0.76560799       0.99601067       0.63233828 </v>
   <v>       0.74297535       0.49750166       0.11927249 </v>
   <v>       0.74981553       0.49672279       0.63382461 </v>
   <v>       0.24053527       0.00438132       0.36785385 </v>
   <v>       0.25985065       0.99505889       0.87281510 </v>
   <v>       0.25933310       0.49332783       0.37536384 </v>
   <v>       0.25082919       0.50581232       0.87363750 </v>
   <v>       0.75678103       0.00718161       0.36419676 </v>
   <v>       0.74487546       0.99883617       0.87548530 </v>
   <v>       0.72630184       0.49391573       0.37175535 </v>
   <v>       0.75306619       0.50105378       0.87827505 </v>
   <v>       0.98711883       0.99302753       0.00026522 </v>
   <v>       0.00154091       0.99835617       0.49824465 </v>
   <v>       0.01725680       0.50990837       0.49830986 </v>
   <v>       0.50327029       0.99752826       0.00443067 </v>
   <v>       0.25862729       0.26259826       0.00034973 </v>
   <v>       0.25185253       0.74729966       0.00170926 </v>
   <v>       0.26039618       0.75504401       0.50251754 </v>
   <v>       0.75032385       0.25279317       0.00228243 </v>
   <v>       0.73126568       0.22828914       0.50345723 </v>
   <v>       0.24762806       0.24677713       0.24903838 </v>
   <v>       0.24951796       0.24820417       0.74754231 </v>
   <v>       0.25673766       0.75408507       0.75043069 </v>
   <v>       0.74936853       0.24871165       0.74980365 </v>
   <v>       0.75050237       0.74977993       0.23891490 </v>
   <v>       0.74955972       0.75156326       0.75227716 </v>
   <v>       0.00212145       0.00096283       0.75378027 </v>
   <v>       0.99008304       0.49205748       0.25350183 </v>
   <v>       0.00095677       0.49963050       0.75246613 </v>
   <v>       0.49717937       0.49902796       0.24732972 </v>
   <v>       0.50164005       0.49968027       0.75264241 </v>
   <v>       0.99879247       0.50328720       0.00011625 </v>
   <v>       0.48067494       0.01426456       0.48854534 </v>
   <v>       0.50458898       0.50332301       0.99958171 </v>
   <v>       0.48964361       0.49570302       0.49924656 </v>
   <v>       0.24247480       0.25291373       0.49920288 </v>
   <v>       0.74775415       0.74480574       0.99606088 </v>
   <v>       0.77156228       0.72732014       0.50893625 </v>
   <v>       0.26241722       0.76024780       0.24789466 </v>
   <v>       0.74633410       0.24725509       0.25125221 </v>
   <v>       0.99944034       0.99824809       0.24677293 </v>
   <v>       0.50302441       0.00140799       0.25097013 </v>
   <v>       0.50234569       0.00080726       0.75803831 </v>
   <v>       0.11969302       0.12968343       0.25404307 </v>
   <v>       0.11391473       0.13405721       0.74340499 </v>
   <v>       0.11708052       0.63518929       0.75268809 </v>
   <v>       0.61702997       0.13387370       0.25984500 </v>
   <v>       0.61653606       0.13413601       0.73331139 </v>
   <v>       0.61841990       0.63403480       0.26057296 </v>
   <v>       0.61757706       0.63412260       0.75163809 </v>
   <v>       0.38181240       0.36382739       0.24064318 </v>
   <v>       0.38375968       0.36456363       0.75073154 </v>
   <v>       0.38727110       0.86799125       0.23703792 </v>
   <v>       0.38830101       0.86891249       0.74094639 </v>
   <v>       0.88232979       0.36915986       0.25663949 </v>
   <v>       0.88492857       0.36514312       0.74959274 </v>
   <v>       0.87817043       0.86629609       0.25185345 </v>
   <v>       0.88733825       0.86710687       0.75607351 </v>
   <v>       0.36555670       0.11754809       0.25397569 </v>
   <v>       0.36761006       0.11456218       0.73875697 </v>
   <v>       0.35376785       0.61123462       0.25389749 </v>
   <v>       0.36758530       0.61603970       0.74940292 </v>
   <v>       0.86885644       0.11812975       0.24987988 </v>
   <v>       0.86533565       0.11424106       0.75033730 </v>
   <v>       0.86856197       0.62456087       0.26872733 </v>
   <v>       0.86618621       0.61665842       0.75165473 </v>
   <v>       0.13377225       0.38918611       0.24506575 </v>
   <v>       0.13600959       0.38576790       0.75299313 </v>
   <v>       0.12417971       0.86432691       0.24934498 </v>
   <v>       0.13590294       0.88608261       0.74981433 </v>
   <v>       0.63051196       0.38362530       0.24791109 </v>
   <v>       0.63519714       0.38300392       0.74858608 </v>
   <v>       0.63917221       0.87717782       0.25986427 </v>
   <v>       0.63368332       0.88694219       0.73519798 </v>
   <v>       0.36102588       0.39013935       0.00152968 </v>
   <v>       0.35213455       0.39155397       0.50505152 </v>
   <v>       0.36475239       0.88631196       0.00889844 </v>
   <v>       0.38813306       0.88354487       0.52523380 </v>
   <v>       0.86012328       0.39001457       0.00365251 </v>
   <v>       0.85847452       0.89219816       0.00249501 </v>
   <v>       0.85674440       0.86623208       0.47848803 </v>
   <v>       0.13106229       0.11125557       0.50067847 </v>
   <v>       0.13867008       0.61499246       0.99153432 </v>
   <v>       0.13945678       0.61918011       0.50738080 </v>
   <v>       0.64215325       0.11062010       0.99766084 </v>
   <v>       0.63110224       0.09117510       0.51823517 </v>
   <v>       0.64046764       0.60935675       0.99529913 </v>
   <v>       0.62709528       0.66900067       0.47409823 </v>
   <v>       0.10988383       0.35314695       0.00330148 </v>
   <v>       0.08056553       0.35448440       0.49244176 </v>
   <v>       0.11801769       0.87497635       0.99721097 </v>
   <v>       0.11796970       0.86525849       0.50391192 </v>
   <v>       0.61129150       0.35764292       0.00171204 </v>
   <v>       0.62100333       0.36520488       0.50202159 </v>
   <v>       0.61005396       0.86135816       0.00193266 </v>
   <v>       0.37860088       0.13234399       0.99890676 </v>
   <v>       0.38285694       0.14240798       0.50729490 </v>
   <v>       0.38739614       0.63972185       0.99867373 </v>
   <v>       0.38323940       0.63720238       0.49994250 </v>
   <v>       0.89970500       0.14403949       0.99792752 </v>
   <v>       0.87962621       0.12948849       0.50132051 </v>
   <v>       0.89074397       0.64306281       0.99579012 </v>
   <v>       0.86067471       0.58223908       0.48967494 </v>
   <v>       0.01457261       0.01163133       0.11940453 </v>
   <v>       0.99189450       0.98970813       0.62456736 </v>
   <v>       0.00707388       0.52722227       0.13542214 </v>
   <v>       0.99683924       0.49806641       0.62153982 </v>
   <v>       0.51184415       0.00997696       0.12582734 </v>
   <v>       0.50307485       0.51124672       0.12635341 </v>
   <v>       0.50721484       0.50567168       0.62432431 </v>
   <v>       0.00327216       0.99880930       0.37588911 </v>
   <v>       0.01452807       0.01390881       0.87780756 </v>
   <v>       0.03509530       0.52874297       0.36935320 </v>
   <v>       0.99835501       0.49615554       0.87375635 </v>
   <v>       0.49922221       0.98292716       0.37728656 </v>
   <v>       0.50225689       0.00037465       0.87606822 </v>
   <v>       0.49478472       0.48951308       0.37425073 </v>
   <v>       0.49827415       0.49569710       0.87340414 </v>
   <v>       0.24919763       0.25573914       0.37350428 </v>
   <v>       0.24036578       0.23433917       0.87742219 </v>
   <v>       0.25468156       0.76321166       0.37904298 </v>
   <v>       0.25924404       0.75844176       0.87372140 </v>
   <v>       0.75660040       0.25444257       0.38498435 </v>
   <v>       0.74620418       0.24743881       0.87230130 </v>
   <v>       0.74356911       0.76111668       0.87212997 </v>
   <v>       0.23785338       0.23055926       0.12059233 </v>
   <v>       0.23960880       0.25816440       0.62571807 </v>
   <v>       0.23566366       0.73507810       0.12513431 </v>
   <v>       0.24722853       0.74715209       0.62737863 </v>
   <v>       0.75031922       0.24614920       0.12462134 </v>
   <v>       0.76881739       0.26485562       0.61929380 </v>
   <v>       0.74900356       0.74157190       0.12419451 </v>
   <v>       0.75856942       0.74727674       0.62490315 </v>
  </varray>
 </structure>
 <calculation>
  <scstep>
   <time name="dav">  601.97  602.01</time>
   <time name="total">  609.16  609.24</time>
   <energy>
    <i name="alphaZ">   5605.14796322 </i>
    <i name="ewald"> -61401.76651081 </i>
    <i name="hartreedc"> -17128.91121367 </i>
    <i name="XCdc">   3073.76474558 </i>
    <i name="pawpsdc"> 113267.29664453 </i>
    <i name="pawaedc">-112318.83871554 </i>
    <i name="eentropy">     -0.00000000 </i>
    <i name="bandstr">  -7100.69594310 </i>
    <i name="atom">  74916.81196153 </i>
    <i name="e_fr_energy">  -1087.19106825 </i>
    <i name="e_wo_entrp">  -1087.19106825 </i>
    <i name="e_0_energy">  -1087.19106825 </i>
   </energy>
  </scstep>
  <scstep>
   <time name="diag">   64.68   64.68</time>
   <time name="diis">   63.12   63.12</time>
   <time name="orth">   33.33   33.33</time>
   <time name="total">  168.28  168.30</time>
   <energy>
    <i name="e_fr_energy">  -1087.19106628 </i>
    <i name="e_wo_entrp">  -1087.19106628 </i>
    <i name="e_0_energy">  -1087.19106628 </i>
   </energy>
  </scstep>
  <scstep>
   <time name="diag">   64.77   64.78</time>
   <time name="diis">   60.94   60.93</time>
   <time name="orth">   33.37   33.37</time>
   <time name="total">  166.24  166.30</time>
   <energy>
    <i name="e_fr_energy">  -1087.19106640 </i>
    <i name="e_wo_entrp">  -1087.19106640 </i>
    <i name="e_0_energy">  -1087.19106640 </i>
   </energy>
  </scstep>
  <scstep>
   <time name="diag">   64.71   64.71</time>
   <time name="diis">   50.21   50.21</time>
   <time name="orth">   33.37   33.38</time>
   <time name="total">  155.43  155.46</time>
   <energy>
    <i name="e_fr_energy">  -1087.19106647 </i>
    <i name="e_wo_entrp">  -1087.19106647 </i>
    <i name="e_0_energy">  -1087.19106647 </i>
   </energy>
  </scstep>
  <scstep>
   <time name="diag">   64.73   64.73</time>
   <time name="diis">   49.89   49.89</time>
   <time name="orth">   33.35   33.35</time>
   <time name="total">  155.12  155.15</time>
   <energy>
    <i name="e_fr_energy">  -1087.19106654 </i>
    <i name="e_wo_entrp">  -1087.19106654 </i>
    <i name="e_0_energy">  -1087.19106654 </i>
   </energy>
  </scstep>
  <scstep>
   <time name="diag">   64.70   64.70</time>
   <time name="diis">   46.27   46.27</time>
   <time name="orth">   33.32   33.32</time>
   <time name="total">  151.46  151.53</time>
   <energy>
    <i name="e_fr_energy">  -1087.19106661 </i>
    <i name="e_wo_entrp">  -1087.19106661 </i>
    <i name="e_0_energy">  -1087.19106661 </i>
   </energy>
  </scstep>
  <scstep>
   <time name="diag">   64.68   64.69</time>
   <time name="diis">   44.85   44.85</time>
   <time name="orth">   33.54   33.53</time>
   <time name="total">  150.18  150.24</time>
   <energy>
    <i name="e_fr_energy">  -1087.19106662 </i>
    <i name="e_wo_entrp">  -1087.19106662 </i>
    <i name="e_0_energy">  -1087.19106662 </i>
   </energy>
  </scstep>
  <scstep>
   <time name="diag">   64.86   64.85</time>
   <time name="diis">   43.52   43.52</time>
   <time name="orth">   33.49   33.49</time>
   <time name="total">  142.91  142.95</time>
   <energy>
    <i name="alphaZ">   5605.14796322 </i>
    <i name="ewald"> -61401.76651081 </i>
    <i name="hartreedc"> -17128.92433595 </i>
    <i name="XCdc">   3073.76434641 </i>
    <i name="pawpsdc"> 113266.09412474 </i>
    <i name="pawaedc">-112317.64249992 </i>
    <i name="eentropy">     -0.00000000 </i>
    <i name="bandstr">  -7100.67611587 </i>
    <i name="atom">  74916.81196153 </i>
    <i name="e_fr_energy">  -1087.19106664 </i>
    <i name="e_wo_entrp">  -1087.19106664 </i>
    <i name="e_0_energy">  -1087.19106664 </i>
   </energy>
  </scstep>
  <structure>
   <crystal>
    <varray name="basis" >
     <v>      11.23426809      -0.00479373       0.00144371 </v>
     <v>      -0.00477436      11.22383568      -0.00315753 </v>
     <v>       0.00216166      -0.00462311      15.95164066 </v>
    </varray>
    <i name="volume">   2011.36699436 </i>
    <varray name="rec_basis" >
     <v>       0.08901338       0.00003786      -0.00001205 </v>
     <v>       0.00003801       0.08909612       0.00002582 </v>
     <v>      -0.00000805       0.00001763       0.06268948 </v>
    </varray>
   </crystal>
   <varray name="positions" >
    <v>       0.99498485       0.24778982       0.12921327 </v>
    <v>       0.00250572       0.24789324       0.62627502 </v>
    <v>       0.00075000       0.75430408       0.11784553 </v>
    <v>       0.01203257       0.75360404       0.63574161 </v>
    <v>       0.50642669       0.24663687       0.12868151 </v>
    <v>       0.48849842       0.26324019       0.62576939 </v>
    <v>       0.50003223       0.74859110       0.12055864 </v>
    <v>       0.50064850       0.73628957       0.62754227 </v>
    <v>       0.99868851       0.23194187       0.37015120 </v>
    <v>       0.99830516       0.25799318       0.87323084 </v>
    <v>       0.01070799       0.76441570       0.37103119 </v>
    <v>       0.00382667       0.74232482       0.87640170 </v>
    <v>       0.48974457       0.25498815       0.36707209 </v>
    <v>       0.50433655       0.25114183       0.87657885 </v>
    <v>       0.48871982       0.74714560       0.36713796 </v>
    <v>       0.50334402       0.74609123       0.87887047 </v>
    <v>       0.25639481       0.99493374       0.13214482 </v>
    <v>       0.24199653       0.00363736       0.62550008 </v>
    <v>       0.25048097       0.50286802       0.12285580 </v>
    <v>       0.25423039       0.50156494       0.63018804 </v>
    <v>       0.74506764       0.00736512       0.12955098 </v>
    <v>       0.76560799       0.99601067       0.63233828 </v>
    <v>       0.74297535       0.49750166       0.11927249 </v>
    <v>       0.74981553       0.49672279       0.63382461 </v>
    <v>       0.24053527       0.00438132       0.36785385 </v>
    <v>       0.25985065       0.99505889       0.87281510 </v>
    <v>       0.25933310       0.49332783       0.37536384 </v>
    <v>       0.25082919       0.50581232       0.87363750 </v>
    <v>       0.75678103       0.00718161       0.36419676 </v>
    <v>       0.74487546       0.99883617       0.87548530 </v>
    <v>       0.72630184       0.49391573       0.37175535 </v>
    <v>       0.75306619       0.50105378       0.87827505 </v>
    <v>       0.98711883       0.99302753       0.00026522 </v>
    <v>       0.00154091       0.99835617       0.49824465 </v>
    <v>       0.01725680       0.50990837       0.49830986 </v>
    <v>       0.50327029       0.99752826       0.00443067 </v>
    <v>       0.25862729       0.26259826       0.00034973 </v>
    <v>       0.25185253       0.74729966       0.00170926 </v>
    <v>       0.26039618       0.75504401       0.50251754 </v>
    <v>       0.75032385       0.25279317       0.00228243 </v>
    <v>       0.73126568       0.22828914       0.50345723 </v>
    <v>       0.24762806       0.24677713       0.24903838 </v>
    <v>       0.24951796       0.24820417       0.74754231 </v>
    <v>       0.25673766       0.75408507       0.75043069 </v>
    <v>       0.74936853       0.24871165       0.74980365 </v>
    <v>       0.75050237       0.74977993       0.23891490 </v>
    <v>       0.74955972       0.75156326       0.75227716 </v>
    <v>       0.00212145       0.00096283       0.75378027 </v>
    <v>       0.99008304       0.49205748       0.25350183 </v>
    <v>       0.00095677       0.49963050       0.75246613 </v>
    <v>       0.49717937       0.49902796       0.24732972 </v>
    <v>       0.50164005       0.49968027       0.75264241 </v>
    <v>       0.99879247       0.50328720       0.00011625 </v>
    <v>       0.48067494       0.01426456       0.48854534 </v>
    <v>       0.50458898       0.50332301       0.99958171 </v>
    <v>       0.48964361       0.49570302       0.49924656 </v>
    <v>       0.24247480       0.25291373       0.49920288 </v>
    <v>       0.74775415       0.74480574       0.99606088 </v>
    <v>       0.77156228       0.72732014       0.50893625 </v>
    <v>       0.26241722       0.76024780       0.24789466 </v>
    <v>       0.74633410       0.24725509       0.25125221 </v>
    <v>       0.99944034       0.99824809       0.24677293 </v>
    <v>       0.50302441       0.00140799       0.25097013 </v>
    <v>       0.50234569       0.00080726       0.75803831 </v>
    <v>       0.11969302       0.12968343       0.25404307 </v>
    <v>       0.11391473       0.13405721       0.74340499 </v>
    <v>       0.11708052       0.63518929       0.75268809 </v>
    <v>       0.61702997       0.13387370       0.25984500 </v>
    <v>       0.61653606       0.13413601       0.73331139 </v>
    <v>       0.61841990       0.63403480       0.26057296 </v>
    <v>       0.61757706       0.63412260       0.75163809 </v>
    <v>       0.38181240       0.36382739       0.24064318 </v>
    <v>       0.38375968       0.36456363       0.75073154 </v>
    <v>       0.38727110       0.86799125       0.23703792 </v>
    <v>       0.38830101       0.86891249       0.74094639 </v>
    <v>       0.88232979       0.36915986       0.25663949 </v>
    <v>       0.88492857       0.36514312       0.74959274 </v>
    <v>       0.87817043       0.86629609       0.25185345 </v>
    <v>       0.88733825       0.86710687       0.75607351 </v>
    <v>       0.36555670       0.11754809       0.25397569 </v>
    <v>       0.36761006       0.11456218       0.73875697 </v>
    <v>       0.35376785       0.61123462       0.25389749 </v>
    <v>       0.36758530       0.61603970       0.74940292 </v>
    <v>       0.86885644       0.11812975       0.24987988 </v>
    <v>       0.86533565       0.11424106       0.75033730 </v>
    <v>       0.86856197       0.62456087       0.26872733 </v>
    <v>       0.86618621       0.61665842       0.75165473 </v>
    <v>       0.13377225       0.38918611       0.24506575 </v>
    <v>       0.13600959       0.38576790       0.75299313 </v>
    <v>       0.12417971       0.86432691       0.24934498 </v>
    <v>       0.13590294       0.88608261       0.74981433 </v>
    <v>       0.63051196       0.38362530       0.24791109 </v>
    <v>       0.63519714       0.38300392       0.74858608 </v>
    <v>       0.63917221       0.87717782       0.25986427 </v>
    <v>       0.63368332       0.88694219       0.73519798 </v>
    <v>       0.36102588       0.39013935       0.00152968 </v>
    <v>       0.35213455       0.39155397       0.50505152 </v>
    <v>       0.36475239       0.88631196       0.00889844 </v>
    <v>       0.38813306       0.88354487       0.52523380 </v>
    <v>       0.86012328       0.39001457       0.00365251 </v>
    <v>       0.85847452       0.89219816       0.00249501 </v>
    <v>       0.85674440       0.86623208       0.47848803 </v>
    <v>       0.13106229       0.11125557       0.50067847 </v>
    <v>       0.13867008       0.61499246       0.99153432 </v>
    <v>       0.13945678       0.61918011       0.50738080 </v>
    <v>       0.64215325       0.11062010       0.99766084 </v>
    <v>       0.63110224       0.09117510       0.51823517 </v>
    <v>       0.64046764       0.60935675       0.99529913 </v>
    <v>       0.62709528       0.66900067       0.47409823 </v>
    <v>       0.10988383       0.35314695       0.00330148 </v>
    <v>       0.08056553       0.35448440       0.49244176 </v>
    <v>       0.11801769       0.87497635       0.99721097 </v>
    <v>       0.11796970       0.86525849       0.50391192 </v>
    <v>       0.61129150       0.35764292       0.00171204 </v>
    <v>       0.62100333       0.36520488       0.50202159 </v>
    <v>       0.61005396       0.86135816       0.00193266 </v>
    <v>       0.37860088       0.13234399       0.99890676 </v>
    <v>       0.38285694       0.14240798       0.50729490 </v>
    <v>       0.38739614       0.63972185       0.99867373 </v>
    <v>       0.38323940       0.63720238       0.49994250 </v>
    <v>       0.89970500       0.14403949       0.99792752 </v>
    <v>       0.87962621       0.12948849       0.50132051 </v>
    <v>       0.89074397       0.64306281       0.99579012 </v>
    <v>       0.86067471       0.58223908       0.48967494 </v>
    <v>       0.01457261       0.01163133       0.11940453 </v>
    <v>       0.99189450       0.98970813       0.62456736 </v>
    <v>       0.00707388       0.52722227       0.13542214 </v>
    <v>       0.99683924       0.49806641       0.62153982 </v>
    <v>       0.51184415       0.00997696       0.12582734 </v>
    <v>       0.50307485       0.51124672       0.12635341 </v>
    <v>       0.50721484       0.50567168       0.62432431 </v>
    <v>       0.00327216       0.99880930       0.37588911 </v>
    <v>       0.01452807       0.01390881       0.87780756 </v>
    <v>       0.03509530       0.52874297       0.36935320 </v>
    <v>       0.99835501       0.49615554       0.87375635 </v>
    <v>       0.49922221       0.98292716       0.37728656 </v>
    <v>       0.50225689       0.00037465       0.87606822 </v>
    <v>       0.49478472       0.48951308       0.37425073 </v>
    <v>       0.49827415       0.49569710       0.87340414 </v>
    <v>       0.24919763       0.25573914       0.37350428 </v>
    <v>       0.24036578       0.23433917       0.87742219 </v>
    <v>       0.25468156       0.76321166       0.37904298 </v>
    <v>       0.25924404       0.75844176       0.87372140 </v>
    <v>       0.75660040       0.25444257       0.38498435 </v>
    <v>       0.74620418       0.24743881       0.87230130 </v>
    <v>       0.74356911       0.76111668       0.87212997 </v>
    <v>       0.23785338       0.23055926       0.12059233 </v>
    <v>       0.23960880       0.25816440       0.62571807 </v>
    <v>       0.23566366       0.73507810       0.12513431 </v>
    <v>       0.24722853       0.74715209       0.62737863 </v>
    <v>       0.75031922       0.24614920       0.12462134 </v>
    <v>       0.76881739       0.26485562       0.61929380 </v>
    <v>       0.74900356       0.74157190       0.12419451 </v>
    <v>       0.75856942       0.74727674       0.62490315 </v>
   </varray>
  </structure>
  <varray name="forces" >
   <v>      -0.00644166       0.00509568      -0.00230992 </v>
   <v>      -0.00275033       0.00666393       0.01518360 </v>
   <v>      -0.00611423       0.00271465      -0.00039410 </v>
   <v>      -0.00012899       0.00392647      -0.00704676 </v>
   <v>       0.00310198       0.00471473       0.00188024 </v>
   <v>      -0.00422895       0.00475115       0.01013404 </v>
   <v>       0.00100680       0.00460694       0.00418582 </v>
   <v>       0.00054850      -0.01132101      -0.00139405 </v>
   <v>      -0.00050044       0.00084703      -0.00264283 </v>
   <v>      -0.00909226       0.00811791       0.00355430 </v>
   <v>       0.00550483      -0.00878711       0.00609914 </v>
   <v>      -0.00701954       0.00695415      -0.00615231 </v>
   <v>      -0.00227535      -0.00290204      -0.01738547 </v>
   <v>       0.00739441       0.00645830       0.00575925 </v>
   <v>      -0.02583413       0.00407463      -0.01228115 </v>
   <v>       0.00144191       0.00434025      -0.00002169 </v>
   <v>       0.00701677      -0.00094264       0.00444370 </v>
   <v>      -0.00221328      -0.00596624      -0.00101023 </v>
   <v>      -0.00051548      -0.01185795       0.00622947 </v>
   <v>       0.00415965      -0.00619264      -0.00206561 </v>
   <v>       0.00354994       0.00379542       0.00595499 </v>
   <v>      -0.00065922      -0.00734249       0.00322456 </v>
   <v>      -0.00501574       0.00131416      -0.00569533 </v>
   <v>      -0.00578969       0.00994456       0.01010857 </v>
   <v>       0.01505334       0.00008854       0.00213453 </v>
   <v>       0.00910800      -0.00588481      -0.01674435 </v>
   <v>      -0.00616526      -0.00463515       0.00525817 </v>
   <v>      -0.00200057       0.00700123       0.00092650 </v>
   <v>       0.01725123      -0.00073849      -0.01638984 </v>
   <v>      -0.00429162       0.00350962       0.00294699 </v>
   <v>      -0.00877040       0.00730179       0.00597877 </v>
   <v>       0.00141063       0.00171361       0.01096718 </v>
   <v>      -0.03163518      -0.01229732      -0.00270200 </v>
   <v>       0.01255492      -0.00226537       0.00556495 </v>
   <v>       0.03085329       0.06904309      -0.00268288 </v>
   <v>       0.01832517      -0.01982915       0.00306680 </v>
   <v>      -0.00833202       0.01712502       0.00687100 </v>
   <v>       0.00396277       0.00407080      -0.01009368 </v>
   <v>       0.02786429      -0.00059209       0.00667933 </v>
   <v>       0.00319955       0.00798847      -0.01262877 </v>
   <v>      -0.02160157      -0.00121882       0.02720609 </v>
   <v>       0.00381929       0.00923257      -0.01659302 </v>
   <v>       0.02433921      -0.00973279       0.00639575 </v>
   <v>       0.00393643       0.00347608       0.02085496 </v>
   <v>      -0.01046754       0.01767564       0.00146050 </v>
   <v>      -0.00643144      -0.00353801      -0.03518213 </v>
   <v>       0.00598845       0.00090859       0.00901855 </v>
   <v>      -0.00995617      -0.00735901       0.00706327 </v>
   <v>       0.01785062      -0.00681880      -0.00739662 </v>
   <v>      -0.01785777       0.00290093       0.02789728 </v>
   <v>      -0.00937606      -0.00239477       0.00111314 </v>
   <v>       0.01223182      -0.01376610      -0.01206309 </v>
   <v>      -0.00532557       0.00042161       0.00082524 </v>
   <v>       0.00115656      -0.01786279      -0.01484903 </v>
   <v>       0.01350598       0.00042823      -0.00346993 </v>
   <v>      -0.01631374      -0.01270742       0.00131545 </v>
   <v>       0.00357462       0.01700292       0.01339342 </v>
   <v>       0.00210245      -0.00193393      -0.00622867 </v>
   <v>       0.00032148       0.01570416       0.00749473 </v>
   <v>       0.01332533       0.00405046      -0.01400985 </v>
   <v>      -0.01037408      -0.00549854      -0.02244402 </v>
   <v>      -0.00095761       0.00481599      -0.01044537 </v>
   <v>      -0.01003227      -0.01082839      -0.02080911 </v>
   <v>       0.00446598       0.00522189       0.01940933 </v>
   <v>      -0.01331864      -0.00692709      -0.00083191 </v>
   <v>      -0.00194067       0.00437309      -0.00600969 </v>
   <v>      -0.00539599      -0.01367629      -0.01648630 </v>
   <v>      -0.00076696      -0.00405888      -0.01405997 </v>
   <v>      -0.00686117      -0.00958718      -0.00197026 </v>
   <v>       0.00820252      -0.00213212       0.00008754 </v>
   <v>       0.00321591      -0.00302667      -0.00582218 </v>
   <v>      -0.00624827       0.00406576       0.00007593 </v>
   <v>      -0.00374965      -0.00286669       0.01162984 </v>
   <v>       0.01730523       0.01464024       0.00955168 </v>
   <v>      -0.00891499       0.00591082      -0.01030420 </v>
   <v>      -0.03545230      -0.03555368      -0.00936844 </v>
   <v>       0.01018185       0.00982046      -0.00108165 </v>
   <v>       0.00674263      -0.00430123       0.00338972 </v>
   <v>       0.01039808      -0.00252904       0.00382372 </v>
   <v>       0.01355235      -0.00244891      -0.01023090 </v>
   <v>       0.00377232      -0.00449610      -0.00495660 </v>
   <v>      -0.02370142       0.00720500       0.01416742 </v>
   <v>       0.00784274       0.00158911       0.00540848 </v>
   <v>       0.00974111       0.00257361      -0.00104886 </v>
   <v>      -0.00022210      -0.01165232      -0.00089751 </v>
   <v>      -0.00443406       0.00440287       0.01317750 </v>
   <v>       0.00910730      -0.00284985       0.00117211 </v>
   <v>      -0.01293190       0.00796224       0.00871409 </v>
   <v>       0.00367769      -0.00269298       0.00134474 </v>
   <v>       0.00169494       0.00831170       0.00114342 </v>
   <v>       0.00651566       0.00763547      -0.00328799 </v>
   <v>      -0.00073016      -0.00722716      -0.00403051 </v>
   <v>      -0.00261515       0.00301219      -0.01185686 </v>
   <v>       0.00055261      -0.01948385       0.01187288 </v>
   <v>      -0.00430762      -0.00114950      -0.01643225 </v>
   <v>       0.00849213       0.01504670      -0.00416666 </v>
   <v>      -0.01376404      -0.00411024      -0.01536078 </v>
   <v>      -0.00240501       0.00606826      -0.00924687 </v>
   <v>      -0.00780856      -0.01253604      -0.00768634 </v>
   <v>       0.01480855      -0.00388404       0.01331883 </v>
   <v>       0.02196228       0.01521598      -0.00506769 </v>
   <v>       0.00328160      -0.01912068       0.00475595 </v>
   <v>      -0.01640451       0.02097121       0.00014215 </v>
   <v>       0.01044342       0.01457607       0.01286801 </v>
   <v>      -0.01861814      -0.00074945      -0.01005670 </v>
   <v>      -0.01011274      -0.00240318       0.00503723 </v>
   <v>       0.00483390      -0.01010236       0.01932910 </v>
   <v>      -0.01008385      -0.00978447       0.00371210 </v>
   <v>       0.02864744       0.01111941       0.00713596 </v>
   <v>      -0.00294328       0.00168212       0.00844864 </v>
   <v>       0.01697615      -0.03160392       0.01488585 </v>
   <v>       0.01300481       0.00058457      -0.00265358 </v>
   <v>       0.01413197       0.00875016      -0.00315028 </v>
   <v>      -0.00978248       0.01174616      -0.00072663 </v>
   <v>       0.00711403      -0.02025298      -0.00162604 </v>
   <v>      -0.01477395       0.02610016      -0.00286528 </v>
   <v>      -0.01144228      -0.00798147       0.00653908 </v>
   <v>      -0.01765059      -0.00100068       0.01605789 </v>
   <v>      -0.00137115       0.00169048      -0.00795284 </v>
   <v>      -0.00895703       0.01187923       0.00142528 </v>
   <v>       0.01476459      -0.00241212       0.00030608 </v>
   <v>      -0.01089633       0.00137284      -0.00023086 </v>
   <v>       0.00945712      -0.00643250       0.00405419 </v>
   <v>      -0.02475952      -0.03347246       0.00288938 </v>
   <v>       0.01155993       0.00480987      -0.00263581 </v>
   <v>       0.00079282      -0.01503212      -0.00830554 </v>
   <v>       0.00324015       0.00403957      -0.00105828 </v>
   <v>       0.00366499      -0.01203185      -0.00458681 </v>
   <v>      -0.00179241      -0.00394959      -0.00236797 </v>
   <v>      -0.00721658       0.00132517      -0.01070695 </v>
   <v>      -0.00184301      -0.01008112       0.00751738 </v>
   <v>       0.01129529       0.00238891      -0.00070009 </v>
   <v>       0.00955172       0.01250181       0.00656780 </v>
   <v>      -0.01351945      -0.00037442       0.02014078 </v>
   <v>       0.00022314       0.00034808       0.00179000 </v>
   <v>      -0.00773062       0.00964494       0.00755198 </v>
   <v>      -0.00174506       0.00309339      -0.00520973 </v>
   <v>       0.00547900      -0.00242576      -0.00773093 </v>
   <v>      -0.00404482       0.00192801       0.01293568 </v>
   <v>       0.00717385       0.00017520       0.03132497 </v>
   <v>      -0.00825285      -0.00764829       0.00882350 </v>
   <v>      -0.01038668      -0.01289617       0.00064127 </v>
   <v>      -0.00571406      -0.00274277       0.00249456 </v>
   <v>       0.00884185       0.00955778       0.00308235 </v>
   <v>       0.00094943      -0.00253382      -0.00307758 </v>
   <v>       0.00340364      -0.00509632       0.00426244 </v>
   <v>      -0.01498204       0.00297095      -0.01215828 </v>
   <v>      -0.00593697       0.00674589      -0.00930615 </v>
   <v>       0.00306927      -0.00090973      -0.00585672 </v>
   <v>       0.00901716       0.00250791      -0.03353035 </v>
   <v>       0.00334105      -0.00374537       0.02008697 </v>
   <v>      -0.00322196      -0.00019034      -0.03289505 </v>
   <v>       0.00701738       0.00037770       0.02809030 </v>
   <v>       0.00925139       0.00865534      -0.01964969 </v>
  </varray>
  <varray name="stress" >
   <v>      -0.04724094      -0.12650925      -0.10337118 </v>
   <v>      -0.12650916       0.03859652       0.00961975 </v>
   <v>      -0.10337101       0.00961935      -0.21142353 </v>
  </varray>
  <energy>
   <i name="e_fr_energy">  -1087.19106664 </i>
   <i name="e_wo_entrp">  -1087.19106664 </i>
   <i name="e_0_energy">     -0.00000000 </i>
  </energy>
  <time name="totalsc"> 1963.18 1965.05</time>
 </calculation>
 <calculation>
  <scstep>
   <time name="dav">  566.86  566.90</time>
   <time name="total">  573.98  574.10</time>
   <energy>
    <i name="alphaZ">   5605.63313269 </i>
    <i name="ewald"> -61402.16536119 </i>
    <i name="hartreedc"> -17130.63611372 </i>
    <i name="XCdc">   3073.88609097 </i>
    <i name="pawpsdc"> 113266.06628365 </i>
    <i name="pawaedc">-112317.61465493 </i>
    <i name="eentropy">     -0.00000000 </i>
    <i name="bandstr">  -7099.17192912 </i>
    <i name="atom">  74916.81196153 </i>
    <i name="e_fr_energy">  -1087.19059011 </i>
    <i name="e_wo_entrp">  -1087.19059011 </i>
    <i name="e_0_energy">  -1087.19059011 </i>
   </energy>
  </scstep>
  <scstep>
   <time name="diag">   64.83   64.84</time>
   <time name="diis">  105.07  105.07</time>
   <time name="orth">   33.41   33.40</time>
   <time name="total">  210.40  210.41</time>
   <energy>
    <i name="e_fr_energy">  -1087.19205945 </i>
    <i name="e_wo_entrp">  -1087.19205945 </i>
    <i name="e_0_energy">  -1087.19205945 </i>
   </energy>
  </scstep>
  <scstep>
   <time name="diag">   64.76   64.75</time>
   <time name="diis">  100.63  100.64</time>
   <time name="orth">   33.35   33.35</time>
   <time name="total">  205.85  205.89</time>
   <energy>
    <i name="e_fr_energy">  -1087.19207554 </i>
    <i name="e_wo_entrp">  -1087.19207554 </i>
    <i name="e_0_energy">  -1087.19207554 </i>
   </energy>
  </scstep>
  <scstep>
   <time name="diag">   64.73   64.73</time>
   <time name="diis">   73.93   73.93</time>
   <time name="orth">   33.29   33.29</time>
   <time name="total">  179.09  179.12</time>
   <energy>
    <i name="e_fr_energy">  -1087.19195976 </i>
    <i name="e_wo_entrp">  -1087.19195976 </i>
    <i name="e_0_energy">  -1087.19195976 </i>
   </energy>
  </scstep>
  <scstep>
   <time name="diag">   64.76   64.76</time>
   <time name="diis">   68.64   68.64</time>
   <time name="orth">   33.30   33.30</time>
   <time name="total">  173.81  173.85</time>
   <energy>
    <i name="e_fr_energy">  -1087.19193646 </i>
    <i name="e_wo_entrp">  -1087.19193646 </i>
    <i name="e_0_energy">  -1087.19193646 </i>
   </energy>
  </scstep>
  <scstep>
   <time name="diag">   64.76   64.75</time>
   <time name="diis">   64.35   64.35</time>
   <time name="orth">   33.36   33.36</time>
   <time name="total">  169.59  169.61</time>
   <energy>
    <i name="e_fr_energy">  -1087.19193794 </i>
    <i name="e_wo_entrp">  -1087.19193794 </i>
    <i name="e_0_energy">  -1087.19193794 </i>
   </energy>
  </scstep>
  <scstep>
   <time name="diag">   64.91   64.91</time>
   <time name="diis">   61.19   61.19</time>
   <time name="orth">   33.65   33.65</time>
   <time name="total">  166.87  167.01</time>
   <energy>
    <i name="e_fr_energy">  -1087.19193836 </i>
    <i name="e_wo_entrp">  -1087.19193836 </i>
    <i name="e_0_energy">  -1087.19193836 </i>
   </energy>
  </scstep>
  <scstep>
   <time name="diag">   64.91   64.91</time>
   <time name="diis">   59.52   59.53</time>
   <time name="orth">   33.67   33.67</time>
   <time name="total">  159.15  159.19</time>
   <energy>
    <i name="alphaZ">   5605.63313269 </i>
    <i name="ewald"> -61402.16536119 </i>
    <i name="hartreedc"> -17129.26494749 </i>
    <i name="XCdc">   3073.80491479 </i>
    <i name="pawpsdc"> 113289.33239712 </i>
    <i name="pawaedc">-112340.90091909 </i>
    <i name="eentropy">     -0.00000000 </i>
    <i name="bandstr">  -7100.44311757 </i>
    <i name="atom">  74916.81196153 </i>
    <i name="e_fr_energy">  -1087.19193920 </i>
    <i name="e_wo_entrp">  -1087.19193920 </i>
    <i name="e_0_energy">  -1087.19193920 </i>
   </energy>
  </scstep>
  <structure>
   <crystal>
    <varray name="basis" >
     <v>      11.23405955      -0.00535273       0.00098687 </v>
     <v>      -0.00533255      11.22400627      -0.00311461 </v>
     <v>       0.00151337      -0.00456295      15.95031423 </v>
    </varray>
    <i name="volume">   2011.19290986 </i>
    <varray name="rec_basis" >
     <v>       0.08901504       0.00004229      -0.00000843 </v>
     <v>       0.00004245       0.08909477       0.00002548 </v>
     <v>      -0.00000550       0.00001739       0.06269470 </v>
    </varray>
   </crystal>
   <varray name="positions" >
    <v>       0.99495720       0.24781171       0.12920629 </v>
    <v>       0.00249391       0.24792190       0.62632094 </v>
    <v>       0.00072375       0.75431574       0.11784434 </v>
    <v>       0.01203203       0.75362090       0.63572030 </v>
    <v>       0.50644002       0.24665714       0.12868720 </v>
    <v>       0.48848027       0.26326062       0.62580005 </v>
    <v>       0.50003656       0.74861091       0.12057130 </v>
    <v>       0.50065084       0.73624091       0.62753805 </v>
    <v>       0.99868636       0.23194550       0.37014321 </v>
    <v>       0.99826613       0.25802806       0.87324160 </v>
    <v>       0.01073161       0.76437795       0.37104962 </v>
    <v>       0.00379655       0.74235469       0.87638310 </v>
    <v>       0.48973481       0.25497565       0.36701951 </v>
    <v>       0.50436831       0.25116961       0.87659627 </v>
    <v>       0.48860890       0.74716305       0.36710083 </v>
    <v>       0.50335022       0.74610989       0.87887041 </v>
    <v>       0.25642494       0.99492971       0.13215826 </v>
    <v>       0.24198701       0.00361171       0.62549702 </v>
    <v>       0.25047873       0.50281706       0.12287463 </v>
    <v>       0.25424824       0.50153832       0.63018179 </v>
    <v>       0.74508288       0.00738145       0.12956900 </v>
    <v>       0.76560514       0.99597911       0.63234803 </v>
    <v>       0.74295382       0.49750729       0.11925527 </v>
    <v>       0.74979068       0.49676553       0.63385519 </v>
    <v>       0.24059991       0.00438173       0.36786030 </v>
    <v>       0.25988976       0.99503359       0.87276445 </v>
    <v>       0.25930661       0.49330790       0.37537974 </v>
    <v>       0.25082062       0.50584241       0.87364031 </v>
    <v>       0.75685512       0.00717845       0.36414718 </v>
    <v>       0.74485704       0.99885125       0.87549422 </v>
    <v>       0.72626419       0.49394710       0.37177344 </v>
    <v>       0.75307225       0.50106116       0.87830822 </v>
    <v>       0.98698296       0.99297461       0.00025705 </v>
    <v>       0.00159482       0.99834646       0.49826147 </v>
    <v>       0.01738942       0.51020518       0.49830180 </v>
    <v>       0.50334895       0.99744307       0.00443992 </v>
    <v>       0.25859154       0.26267186       0.00037053 </v>
    <v>       0.25186956       0.74731715       0.00167873 </v>
    <v>       0.26051583       0.75504152       0.50253773 </v>
    <v>       0.75033761       0.25282750       0.00224424 </v>
    <v>       0.73117290       0.22828390       0.50353952 </v>
    <v>       0.24764449       0.24681680       0.24898820 </v>
    <v>       0.24962245       0.24816239       0.74756163 </v>
    <v>       0.25675456       0.75410005       0.75049376 </v>
    <v>       0.74932361       0.24878761       0.74980808 </v>
    <v>       0.75047476       0.74976466       0.23880850 </v>
    <v>       0.74958543       0.75156719       0.75230443 </v>
    <v>       0.00207868       0.00093119       0.75380163 </v>
    <v>       0.99015968       0.49202819       0.25347945 </v>
    <v>       0.00088007       0.49964297       0.75255051 </v>
    <v>       0.49713911       0.49901765       0.24733309 </v>
    <v>       0.50169256       0.49962111       0.75260591 </v>
    <v>       0.99876960       0.50328900       0.00011874 </v>
    <v>       0.48067988       0.01418776       0.48850042 </v>
    <v>       0.50464698       0.50332487       0.99957121 </v>
    <v>       0.48957353       0.49564837       0.49925054 </v>
    <v>       0.24249018       0.25298684       0.49924340 </v>
    <v>       0.74776318       0.74479742       0.99604204 </v>
    <v>       0.77156368       0.72738765       0.50895893 </v>
    <v>       0.26247446       0.76026522       0.24785229 </v>
    <v>       0.74628956       0.24723141       0.25118433 </v>
    <v>       0.99943624       0.99826877       0.24674134 </v>
    <v>       0.50298133       0.00136140       0.25090719 </v>
    <v>       0.50236487       0.00082973       0.75809701 </v>
    <v>       0.11963582       0.12965363       0.25404056 </v>
    <v>       0.11390640       0.13407600       0.74338682 </v>
    <v>       0.11705733       0.63513048       0.75263822 </v>
    <v>       0.61702668       0.13385623       0.25980248 </v>
    <v>       0.61650658       0.13409479       0.73330542 </v>
    <v>       0.61845512       0.63402565       0.26057322 </v>
    <v>       0.61759087       0.63410959       0.75162048 </v>
    <v>       0.38178557       0.36384485       0.24064341 </v>
    <v>       0.38374357       0.36455132       0.75076671 </v>
    <v>       0.38734543       0.86805422       0.23706681 </v>
    <v>       0.38826275       0.86893787       0.74091524 </v>
    <v>       0.88217749       0.36900697       0.25661114 </v>
    <v>       0.88497231       0.36518535       0.74958947 </v>
    <v>       0.87819937       0.86627762       0.25186369 </v>
    <v>       0.88738290       0.86709602       0.75608507 </v>
    <v>       0.36561490       0.11753758       0.25394474 </v>
    <v>       0.36762625       0.11454286       0.73874198 </v>
    <v>       0.35366608       0.61126556       0.25394035 </v>
    <v>       0.36761898       0.61604655       0.74941928 </v>
    <v>       0.86889828       0.11814083       0.24987671 </v>
    <v>       0.86533467       0.11419098       0.75033458 </v>
    <v>       0.86854293       0.62457980       0.26876718 </v>
    <v>       0.86622531       0.61664619       0.75165827 </v>
    <v>       0.13371673       0.38922032       0.24509211 </v>
    <v>       0.13602538       0.38575633       0.75299720 </v>
    <v>       0.12418700       0.86436264       0.24934845 </v>
    <v>       0.13593093       0.88611543       0.74980439 </v>
    <v>       0.63050881       0.38359423       0.24789889 </v>
    <v>       0.63518592       0.38301685       0.74855022 </v>
    <v>       0.63917454       0.87709409       0.25990016 </v>
    <v>       0.63366483       0.88693722       0.73514829 </v>
    <v>       0.36106238       0.39020404       0.00151709 </v>
    <v>       0.35207545       0.39153626       0.50500507 </v>
    <v>       0.36474208       0.88633803       0.00887048 </v>
    <v>       0.38809951       0.88349096       0.52521055 </v>
    <v>       0.86018685       0.38999792       0.00369279 </v>
    <v>       0.85856886       0.89226360       0.00247968 </v>
    <v>       0.85675845       0.86614991       0.47850240 </v>
    <v>       0.13099188       0.11134568       0.50067892 </v>
    <v>       0.13871495       0.61505514       0.99157324 </v>
    <v>       0.13937683       0.61917684       0.50735039 </v>
    <v>       0.64210982       0.11060976       0.99767608 </v>
    <v>       0.63112297       0.09113171       0.51829362 </v>
    <v>       0.64042431       0.60931468       0.99531035 </v>
    <v>       0.62721831       0.66904853       0.47411981 </v>
    <v>       0.10987119       0.35315419       0.00332703 </v>
    <v>       0.08063837       0.35434861       0.49248675 </v>
    <v>       0.11807354       0.87497888       0.99720294 </v>
    <v>       0.11803040       0.86529612       0.50390240 </v>
    <v>       0.61124952       0.35769338       0.00170986 </v>
    <v>       0.62103384       0.36511784       0.50201665 </v>
    <v>       0.60999056       0.86147031       0.00192402 </v>
    <v>       0.37855172       0.13230967       0.99892653 </v>
    <v>       0.38278113       0.14240366       0.50734347 </v>
    <v>       0.38739026       0.63972911       0.99864968 </v>
    <v>       0.38320096       0.63725342       0.49994683 </v>
    <v>       0.89976840       0.14402915       0.99792844 </v>
    <v>       0.87957942       0.12949437       0.50131982 </v>
    <v>       0.89078456       0.64303518       0.99580237 </v>
    <v>       0.86056832       0.58209517       0.48968366 </v>
    <v>       0.01462226       0.01165202       0.11939655 </v>
    <v>       0.99189788       0.98964351       0.62454222 </v>
    <v>       0.00708780       0.52723964       0.13541894 </v>
    <v>       0.99685496       0.49801470       0.62152594 </v>
    <v>       0.51183644       0.00995998       0.12582017 </v>
    <v>       0.50304387       0.51125239       0.12632103 </v>
    <v>       0.50720690       0.50562835       0.62434703 </v>
    <v>       0.00332067       0.99881959       0.37588699 </v>
    <v>       0.01456911       0.01396257       0.87782743 </v>
    <v>       0.03503723       0.52874136       0.36941412 </v>
    <v>       0.99835597       0.49615704       0.87376177 </v>
    <v>       0.49918903       0.98296861       0.37730941 </v>
    <v>       0.50224941       0.00038794       0.87605246 </v>
    <v>       0.49480825       0.48950266       0.37422734 </v>
    <v>       0.49825678       0.49570539       0.87344327 </v>
    <v>       0.24922842       0.25573995       0.37359901 </v>
    <v>       0.24033032       0.23430629       0.87744887 </v>
    <v>       0.25463693       0.76315621       0.37904491 </v>
    <v>       0.25921950       0.75842996       0.87372894 </v>
    <v>       0.75663838       0.25448367       0.38499368 </v>
    <v>       0.74620825       0.24742792       0.87229199 </v>
    <v>       0.74358372       0.76109478       0.87214286 </v>
    <v>       0.23778906       0.23057199       0.12055557 </v>
    <v>       0.23958333       0.25819337       0.62568993 </v>
    <v>       0.23567684       0.73507419       0.12511659 </v>
    <v>       0.24726727       0.74716285       0.62727722 </v>
    <v>       0.75033355       0.24613314       0.12468209 </v>
    <v>       0.76880358       0.26485476       0.61919431 </v>
    <v>       0.74903368       0.74157357       0.12427946 </v>
    <v>       0.75860918       0.74731394       0.62484373 </v>
   </varray>
  </structure>
  <varray name="forces" >
   <v>      -0.00582682      -0.00071449       0.00447613 </v>
   <v>       0.00441310       0.01101709      -0.00101004 </v>
   <v>       0.00462244       0.00397154       0.00611841 </v>
   <v>       0.00289909       0.00457075      -0.01000021 </v>
   <v>       0.00363750       0.00071023      -0.00073987 </v>
   <v>      -0.00709094      -0.00520446       0.00086820 </v>
   <v>      -0.00749937       0.00035929       0.00561391 </v>
   <v>       0.00153624      -0.00584310      -0.00383048 </v>
   <v>      -0.00555019       0.00441852       0.01373844 </v>
   <v>       0.00322133       0.00072024      -0.00178819 </v>
   <v>       0.00314021       0.00003527       0.00225418 </v>
   <v>       0.00303216       0.00634795      -0.00459889 </v>
   <v>       0.00135796      -0.00763710      -0.01148950 </v>
   <v>      -0.00184837       0.00428059       0.01214203 </v>
   <v>      -0.00951054       0.00207392      -0.00281210 </v>
   <v>      -0.00406940      -0.00092250      -0.00282364 </v>
   <v>       0.00038589      -0.00119938      -0.00300927 </v>
   <v>      -0.00367761      -0.00199161      -0.00743448 </v>
   <v>       0.00127923      -0.00437447       0.00235823 </v>
   <v>      -0.00752174      -0.01011030       0.00249926 </v>
   <v>       0.00324855       0.01043850       0.01543076 </v>
   <v>       0.00214299      -0.00355484      -0.00741486 </v>
   <v>      -0.00478083      -0.00392487       0.00706142 </v>
   <v>       0.00666309       0.01252417      -0.00683821 </v>
   <v>       0.00691114       0.00353854       0.00707851 </v>
   <v>       0.00529427       0.00433200      -0.00716905 </v>
   <v>      -0.01096688      -0.00776547       0.00707808 </v>
   <v>       0.00107875       0.00384323      -0.00186857 </v>
   <v>       0.01894075       0.00140990      -0.00661606 </v>
   <v>      -0.00437688       0.00809648      -0.00228881 </v>
   <v>       0.00238927       0.00350452       0.00753177 </v>
   <v>      -0.00118806       0.00532320       0.00846667 </v>
   <v>       0.05045636       0.02564151      -0.00008328 </v>
   <v>       0.00695771       0.01454724      -0.00675645 </v>
   <v>      -0.04210491      -0.09362776       0.00407719 </v>
   <v>      -0.01980650       0.01486462       0.00387298 </v>
   <v>       0.01231454       0.00284086      -0.00881137 </v>
   <v>      -0.00367270       0.01111813       0.00578631 </v>
   <v>      -0.00052618       0.02500094      -0.00282046 </v>
   <v>      -0.00355491      -0.00449732       0.01457416 </v>
   <v>       0.00660518      -0.01579820      -0.03465276 </v>
   <v>      -0.00756736      -0.01703036       0.01144334 </v>
   <v>      -0.01606001      -0.00544097      -0.00185700 </v>
   <v>      -0.00500156      -0.00126698      -0.01919277 </v>
   <v>       0.01205404      -0.01151152      -0.02216439 </v>
   <v>       0.00734859       0.00304313       0.06102005 </v>
   <v>       0.00450104       0.00199048      -0.03194998 </v>
   <v>       0.00815828       0.01255266      -0.00248316 </v>
   <v>      -0.05697317      -0.02524033       0.01421504 </v>
   <v>       0.01638610      -0.00638166      -0.02412813 </v>
   <v>       0.00930007       0.00445187      -0.00057410 </v>
   <v>      -0.00987621       0.00116539       0.00626283 </v>
   <v>       0.01551526      -0.00006484       0.00669045 </v>
   <v>      -0.00519738       0.01318783       0.01292408 </v>
   <v>      -0.01102132      -0.00166447      -0.00182811 </v>
   <v>      -0.00989742      -0.01625356      -0.00554942 </v>
   <v>      -0.02375772       0.00386636       0.00493416 </v>
   <v>      -0.00111302      -0.00980180       0.00222596 </v>
   <v>       0.01810920      -0.00088938      -0.01041182 </v>
   <v>      -0.01315488       0.00913504      -0.00530903 </v>
   <v>       0.00125616      -0.00332041       0.01002313 </v>
   <v>      -0.00150567       0.00055430       0.00045011 </v>
   <v>       0.00928602       0.00112906      -0.00485627 </v>
   <v>       0.00221762      -0.00001309      -0.00341871 </v>
   <v>       0.01211772       0.01341595      -0.00507828 </v>
   <v>      -0.00001225      -0.00388317      -0.00175709 </v>
   <v>       0.00369619       0.00045689      -0.00645971 </v>
   <v>      -0.00637192      -0.01296667      -0.01208446 </v>
   <v>       0.00419599       0.00658591       0.00568177 </v>
   <v>      -0.00627991      -0.01003151      -0.00611129 </v>
   <v>       0.00830212      -0.00141501      -0.00346295 </v>
   <v>      -0.00960364       0.00497612      -0.00388593 </v>
   <v>       0.00961761       0.00254732       0.01050391 </v>
   <v>       0.00733087       0.00241205       0.00590447 </v>
   <v>      -0.00316093       0.00361717      -0.00580062 </v>
   <v>       0.02015829       0.02127395      -0.01659417 </v>
   <v>      -0.01454859      -0.00690173       0.00428962 </v>
   <v>       0.00223303      -0.00494994      -0.00453125 </v>
[...]
       <r>   -16.5945     0.0000    32.0000 </r>
       <r>   -16.4418     0.0000    32.0000 </r>
       <r>   -16.2890     0.0000    32.0000 </r>
       <r>   -16.1363     0.0000    32.0000 </r>
       <r>   -15.9835     0.0000    32.0000 </r>
       <r>   -15.8308     0.0000    32.0000 </r>
       <r>   -15.6780     0.0000    32.0000 </r>
       <r>   -15.5253     0.0000    32.0000 </r>
       <r>   -15.3725     0.0000    32.0000 </r>
       <r>   -15.2198     0.0361    32.0055 </r>
       <r>   -15.0670    13.3709    34.0479 </r>
       <r>   -14.9143    44.4011    40.8300 </r>
       <r>   -14.7615    47.3023    48.0552 </r>
       <r>   -14.6088    39.5388    54.0946 </r>
       <r>   -14.4561    33.7524    59.2502 </r>
       <r>   -14.3033    39.7565    65.3228 </r>
       <r>   -14.1506    65.3411    75.3034 </r>
       <r>   -13.9978    99.4311    90.4912 </r>
       <r>   -13.8451    97.1479   105.3301 </r>
       <r>   -13.6923    68.5579   115.8021 </r>
       <r>   -13.5396    30.8305   120.5114 </r>
       <r>   -13.3868     9.7450   121.9999 </r>
       <r>   -13.2341     0.0009   122.0000 </r>
       <r>   -13.0813     0.0000   122.0000 </r>
       <r>   -12.9286     0.0000   122.0000 </r>
       <r>   -12.7758     0.9102   122.1390 </r>
       <r>   -12.6231    52.6757   130.1850 </r>
       <r>   -12.4703   134.4176   150.7168 </r>
       <r>   -12.3176   143.4922   172.6347 </r>
       <r>   -12.1649   119.5481   190.8953 </r>
       <r>   -12.0121   106.6543   207.1863 </r>
       <r>   -11.8594    55.4487   215.6559 </r>
       <r>   -11.7066    14.6632   217.8956 </r>
       <r>   -11.5539     0.6833   218.0000 </r>
       <r>   -11.4011     0.0000   218.0000 </r>
       <r>   -11.2484     0.0000   218.0000 </r>
       <r>   -11.0956     0.0000   218.0000 </r>
       <r>   -10.9429     0.0000   218.0000 </r>
       <r>   -10.7901     0.0000   218.0000 </r>
       <r>   -10.6374     0.0000   218.0000 </r>
       <r>   -10.4846     0.0000   218.0000 </r>
       <r>   -10.3319     0.0000   218.0000 </r>
       <r>   -10.1792     0.0000   218.0000 </r>
       <r>   -10.0264     0.0000   218.0000 </r>
       <r>    -9.8737     0.0000   218.0000 </r>
       <r>    -9.7209     0.0000   218.0000 </r>
       <r>    -9.5682     0.0000   218.0000 </r>
       <r>    -9.4154     0.0000   218.0000 </r>
       <r>    -9.2627     0.0000   218.0000 </r>
       <r>    -9.1099     0.0000   218.0000 </r>
       <r>    -8.9572     0.0000   218.0000 </r>
       <r>    -8.8044     0.0000   218.0000 </r>
       <r>    -8.6517     0.0000   218.0000 </r>
       <r>    -8.4989     0.0000   218.0000 </r>
       <r>    -8.3462     0.0000   218.0000 </r>
       <r>    -8.1935     0.0000   218.0000 </r>
       <r>    -8.0407     0.0000   218.0000 </r>
       <r>    -7.8880     0.0000   218.0000 </r>
       <r>    -7.7352     0.0000   218.0000 </r>
       <r>    -7.5825     0.0000   218.0000 </r>
       <r>    -7.4297     0.0000   218.0000 </r>
       <r>    -7.2770     0.0000   218.0000 </r>
       <r>    -7.1242     0.0000   218.0000 </r>
       <r>    -6.9715     0.0000   218.0000 </r>
       <r>    -6.8187     0.0000   218.0000 </r>
       <r>    -6.6660     0.0000   218.0000 </r>
       <r>    -6.5132     0.0000   218.0000 </r>
       <r>    -6.3605     0.0000   218.0000 </r>
       <r>    -6.2078     0.0000   218.0000 </r>
       <r>    -6.0550     0.0000   218.0000 </r>
       <r>    -5.9023     0.0000   218.0000 </r>
       <r>    -5.7495     0.0000   218.0000 </r>
       <r>    -5.5968     0.0000   218.0000 </r>
       <r>    -5.4440     0.0000   218.0000 </r>
       <r>    -5.2913     0.0000   218.0000 </r>
       <r>    -5.1385     0.0000   218.0000 </r>
       <r>    -4.9858     0.0000   218.0000 </r>
       <r>    -4.8330     0.0000   218.0000 </r>
       <r>    -4.6803     0.0000   218.0000 </r>
       <r>    -4.5275     0.0000   218.0000 </r>
       <r>    -4.3748     0.0000   218.0000 </r>
       <r>    -4.2221     0.0000   218.0000 </r>
       <r>    -4.0693     0.0000   218.0000 </r>
       <r>    -3.9166     0.0000   218.0000 </r>
       <r>    -3.7638     0.0000   218.0000 </r>
       <r>    -3.6111     0.0000   218.0000 </r>
       <r>    -3.4583     0.0000   218.0000 </r>
       <r>    -3.3056     0.0000   218.0000 </r>
       <r>    -3.1528     0.0000   218.0000 </r>
       <r>    -3.0001     0.0000   218.0000 </r>
       <r>    -2.8473     0.0000   218.0000 </r>
       <r>    -2.6946     0.0000   218.0000 </r>
       <r>    -2.5418     0.0173   218.0026 </r>
       <r>    -2.3891     8.1582   219.2488 </r>
       <r>    -2.2364    13.0072   221.2356 </r>
       <r>    -2.0836    20.6800   224.3944 </r>
       <r>    -1.9309    27.4780   228.5915 </r>
       <r>    -1.7781    30.7632   233.2905 </r>
       <r>    -1.6254    37.6527   239.0418 </r>
       <r>    -1.4726    48.5226   246.4534 </r>
       <r>    -1.3199    57.3516   255.2137 </r>
       <r>    -1.1671    78.2823   267.1710 </r>
       <r>    -1.0144    76.4851   278.8538 </r>
       <r>    -0.8616    76.4942   290.5380 </r>
       <r>    -0.7089    83.6682   303.3180 </r>
       <r>    -0.5561   102.2639   318.9385 </r>
       <r>    -0.4034    93.9321   333.2862 </r>
       <r>    -0.2506    76.7241   345.0056 </r>
       <r>    -0.0979    57.0084   353.7134 </r>
       <r>     0.0548    50.6884   361.4558 </r>
       <r>     0.2076    50.0504   369.1008 </r>
       <r>     0.3603    54.1375   377.3701 </r>
       <r>     0.5131    51.0288   385.1646 </r>
       <r>     0.6658    53.4707   393.3321 </r>
       <r>     0.8186    50.4942   401.0449 </r>
       <r>     0.9713    52.7751   409.1060 </r>
       <r>     1.1241    63.1567   418.7530 </r>
       <r>     1.2768    77.2791   430.5571 </r>
       <r>     1.4296    78.1733   442.4978 </r>
       <r>     1.5823    80.5641   454.8036 </r>
       <r>     1.7351    72.4680   465.8728 </r>
       <r>     1.8878    56.3051   474.4732 </r>
       <r>     2.0405    36.9071   480.1107 </r>
       <r>     2.1933    34.6164   485.3982 </r>
       <r>     2.3460    16.4119   487.9051 </r>
       <r>     2.4988     0.6216   488.0000 </r>
       <r>     2.6515     0.0000   488.0000 </r>
       <r>     2.8043     0.0000   488.0000 </r>
       <r>     2.9570     0.0000   488.0000 </r>
       <r>     3.1098     0.0000   488.0000 </r>
       <r>     3.2625     0.0000   488.0000 </r>
       <r>     3.4153     0.0000   488.0000 </r>
       <r>     3.5680     0.0000   488.0000 </r>
       <r>     3.7208     0.0000   488.0000 </r>
       <r>     3.8735     0.0000   488.0000 </r>
       <r>     4.0262     0.0000   488.0000 </r>
       <r>     4.1790     0.0000   488.0000 </r>
       <r>     4.3317     0.0130   488.0020 </r>
       <r>     4.4845     8.3341   489.2750 </r>
       <r>     4.6372    37.5341   495.0082 </r>
       <r>     4.7900    52.5496   503.0349 </r>
       <r>     4.9427    39.9843   509.1424 </r>
       <r>     5.0955    53.9433   517.3820 </r>
       <r>     5.2482    59.7731   526.5122 </r>
       <r>     5.4010    73.2536   537.7014 </r>
       <r>     5.5537    63.0067   547.3254 </r>
       <r>     5.7065    72.7637   558.4398 </r>
       <r>     5.8592    71.5353   569.3666 </r>
       <r>     6.0119    85.3667   582.4060 </r>
       <r>     6.1647    77.1420   594.1891 </r>
       <r>     6.3174    65.4661   604.1889 </r>
       <r>     6.4702    37.2469   609.8782 </r>
       <r>     6.6229    22.4419   613.3061 </r>
       <r>     6.7757    15.5234   615.6772 </r>
       <r>     6.9284    16.4859   618.1954 </r>
       <r>     7.0812    19.5585   621.1829 </r>
       <r>     7.2339    19.0977   624.1000 </r>
       <r>     7.3867    17.0207   626.6998 </r>
       <r>     7.5394    13.6463   628.7842 </r>
       <r>     7.6922    16.5034   631.3051 </r>
       <r>     7.8449    19.8284   634.3338 </r>
       <r>     7.9976    19.6086   637.3289 </r>
       <r>     8.1504    24.8805   641.1293 </r>
       <r>     8.3031    24.6001   644.8869 </r>
       <r>     8.4559    21.7685   648.2120 </r>
       <r>     8.6086    26.5066   652.2607 </r>
       <r>     8.7614    28.9540   656.6834 </r>
       <r>     8.9141    33.0127   661.7259 </r>
       <r>     9.0669    36.5649   667.3111 </r>
       <r>     9.2196    39.5175   673.3472 </r>
       <r>     9.3724    39.6630   679.4056 </r>
       <r>     9.5251    43.3515   686.0274 </r>
       <r>     9.6779    47.8770   693.3404 </r>
       <r>     9.8306    55.3641   701.7971 </r>
       <r>     9.9834    60.2433   710.9990 </r>
       <r>    10.1361    61.0246   720.3203 </r>
       <r>    10.2888    57.3616   729.0821 </r>
       <r>    10.4416    53.5192   737.2569 </r>
       <r>    10.5943    62.1082   746.7437 </r>
       <r>    10.7471    59.9659   755.9033 </r>
       <r>    10.8998    54.7371   764.2642 </r>
       <r>    11.0526    24.4376   767.9970 </r>
       <r>    11.2053     0.0199   768.0000 </r>
       <r>    11.3581     0.0000   768.0000 </r>
       <r>    11.5108     0.0000   768.0000 </r>
       <r>    11.6636     0.0000   768.0000 </r>
       <r>    11.8163     0.0000   768.0000 </r>
       <r>    11.9691     0.0000   768.0000 </r>
       <r>    12.1218     0.0000   768.0000 </r>
       <r>    12.2745     0.0000   768.0000 </r>
       <r>    12.4273     0.0000   768.0000 </r>
       <r>    12.5800     0.0000   768.0000 </r>
       <r>    12.7328     0.0000   768.0000 </r>
       <r>    12.8855     0.0000   768.0000 </r>
       <r>    13.0383     0.0000   768.0000 </r>
      </set>
     </set>
    </array>
   </total>
  </dos>
 </calculation>
 <structure name="finalpos" >
  <crystal>
   <varray name="basis" >
    <v>      11.23453318      -0.00471758       0.00035042 </v>
    <v>      -0.00469769      11.22467840      -0.00324290 </v>
    <v>       0.00060947      -0.00474630      15.94896475 </v>
   </varray>
   <i name="volume">   2011.22807132 </i>
   <varray name="rec_basis" >
    <v>       0.08901128       0.00003725      -0.00000339 </v>
    <v>       0.00003741       0.08908944       0.00002651 </v>
    <v>      -0.00000195       0.00001811       0.06270000 </v>
   </varray>
  </crystal>
  <varray name="positions" >
   <v>       0.99485311       0.24787785       0.12918977 </v>
   <v>       0.00246988       0.24813238       0.62642968 </v>
   <v>       0.00071572       0.75434697       0.11786075 </v>
   <v>       0.01212985       0.75372274       0.63557734 </v>
   <v>       0.50649032       0.24670248       0.12867096 </v>
   <v>       0.48836706       0.26317931       0.62588727 </v>
   <v>       0.49997877       0.74863697       0.12060665 </v>
   <v>       0.50066333       0.73605874       0.62750228 </v>
   <v>       0.99862974       0.23199320       0.37026150 </v>
   <v>       0.99820847       0.25814237       0.87329768 </v>
   <v>       0.01095210       0.76427161       0.37112777 </v>
   <v>       0.00373823       0.74246491       0.87633257 </v>
   <v>       0.48970021       0.25481195       0.36675057 </v>
   <v>       0.50445037       0.25131351       0.87675337 </v>
   <v>       0.48826543       0.74718965       0.36703641 </v>
   <v>       0.50336589       0.74610585       0.87883120 </v>
   <v>       0.25647729       0.99495728       0.13209738 </v>
   <v>       0.24195385       0.00352878       0.62542529 </v>
   <v>       0.25046379       0.50268533       0.12296183 </v>
   <v>       0.25418451       0.50141368       0.63020351 </v>
   <v>       0.74514721       0.00751132       0.12968577 </v>
   <v>       0.76562138       0.99583496       0.63230540 </v>
   <v>       0.74282869       0.49750576       0.11925865 </v>
   <v>       0.74982879       0.49704494       0.63383940 </v>
   <v>       0.24085553       0.00441809       0.36792732 </v>
   <v>       0.26006679       0.99505121       0.87260573 </v>
   <v>       0.25907682       0.49323303       0.37543108 </v>
   <v>       0.25082287       0.50601814       0.87363819 </v>
   <v>       0.75725897       0.00708206       0.36401158 </v>
   <v>       0.74474142       0.99896823       0.87552625 </v>
   <v>       0.72613929       0.49407176       0.37192549 </v>
   <v>       0.75308598       0.50120854       0.87847063 </v>
   <v>       0.98711562       0.99300857       0.00021371 </v>
   <v>       0.00167677       0.99838619       0.49825296 </v>
   <v>       0.01733271       0.51012579       0.49835409 </v>
   <v>       0.50328907       0.99748877       0.00442989 </v>
   <v>       0.25859729       0.26282542       0.00035249 </v>
   <v>       0.25187581       0.74738203       0.00164812 </v>
   <v>       0.26070717       0.75516977       0.50249129 </v>
   <v>       0.75037121       0.25282384       0.00224189 </v>
   <v>       0.73098598       0.22806424       0.50350665 </v>
   <v>       0.24756292       0.24675106       0.24896388 </v>
   <v>       0.24957157       0.24809371       0.74764355 </v>
   <v>       0.25678854       0.75408751       0.75036338 </v>
   <v>       0.74934475       0.24877752       0.74970486 </v>
   <v>       0.75052296       0.74967377       0.23884877 </v>
   <v>       0.74963766       0.75157495       0.75227171 </v>
   <v>       0.00209955       0.00095596       0.75383212 </v>
   <v>       0.98985570       0.49184120       0.25350871 </v>
   <v>       0.00094660       0.49962410       0.75255386 </v>
   <v>       0.49704805       0.49909589       0.24732750 </v>
   <v>       0.50173220       0.49955007       0.75262092 </v>
   <v>       0.99891376       0.50334756       0.00022237 </v>
   <v>       0.48064795       0.01419690       0.48851439 </v>
   <v>       0.50459148       0.50341104       0.99952577 </v>
   <v>       0.48932183       0.49537939       0.49920003 </v>
   <v>       0.24228418       0.25313073       0.49933681 </v>
   <v>       0.74783233       0.74474633       0.99602294 </v>
   <v>       0.77180217       0.72732170       0.50893004 </v>
   <v>       0.26244715       0.76038162       0.24774524 </v>
   <v>       0.74618640       0.24719877       0.25113737 </v>
   <v>       0.99955182       0.99829470       0.24667078 </v>
   <v>       0.50301837       0.00126357       0.25077574 </v>
   <v>       0.50246169       0.00083771       0.75809255 </v>
   <v>       0.11966060       0.12975464       0.25401195 </v>
   <v>       0.11389729       0.13404123       0.74329974 </v>
   <v>       0.11709415       0.63503532       0.75244361 </v>
   <v>       0.61708601       0.13367092       0.25958441 </v>
   <v>       0.61651214       0.13410042       0.73335047 </v>
   <v>       0.61845302       0.63386591       0.26048633 </v>
   <v>       0.61772576       0.63402721       0.75152593 </v>
   <v>       0.38154082       0.36396068       0.24059112 </v>
   <v>       0.38377040       0.36450200       0.75096903 </v>
   <v>       0.38749217       0.86809531       0.23718740 </v>
   <v>       0.38816721       0.86905349       0.74078836 </v>
   <v>       0.88198115       0.36884771       0.25636072 </v>
   <v>       0.88490292       0.36518834       0.74962540 </v>
   <v>       0.87829880       0.86619706       0.25184699 </v>
   <v>       0.88749974       0.86699447       0.75623137 </v>
   <v>       0.36573176       0.11773360       0.25369430 </v>
   <v>       0.36767316       0.11455784       0.73870278 </v>
   <v>       0.35342828       0.61130372       0.25411303 </v>
   <v>       0.36776534       0.61612218       0.74948971 </v>
   <v>       0.86902904       0.11811333       0.24979632 </v>
   <v>       0.86520932       0.11409093       0.75032713 </v>
   <v>       0.86852131       0.62452944       0.26890462 </v>
   <v>       0.86627740       0.61667685       0.75172899 </v>
   <v>       0.13351401       0.38924090       0.24524205 </v>
   <v>       0.13606443       0.38569575       0.75310271 </v>
   <v>       0.12435201       0.86449474       0.24926853 </v>
   <v>       0.13607046       0.88617874       0.74977345 </v>
   <v>       0.63022313       0.38346696       0.24776899 </v>
   <v>       0.63522637       0.38294716       0.74840336 </v>
   <v>       0.63913700       0.87681727       0.26005370 </v>
   <v>       0.63359867       0.88679145       0.73503946 </v>
   <v>       0.36108334       0.39039229       0.00147159 </v>
   <v>       0.35189070       0.39161951       0.50486141 </v>
   <v>       0.36478871       0.88641732       0.00874471 </v>
   <v>       0.38810623       0.88332477       0.52502794 </v>
   <v>       0.86032538       0.38983236       0.00386110 </v>
   <v>       0.85857600       0.89219721       0.00238316 </v>
   <v>       0.85712291       0.86595050       0.47847210 </v>
   <v>       0.13060399       0.11175856       0.50078093 </v>
   <v>       0.13870944       0.61522122       0.99171294 </v>
   <v>       0.13929282       0.61954167       0.50723925 </v>
   <v>       0.64205783       0.11078350       0.99774254 </v>
   <v>       0.63102214       0.09078188       0.51863790 </v>
   <v>       0.64045987       0.60937012       0.99539091 </v>
   <v>       0.62738999       0.66932480       0.47406320 </v>
   <v>       0.10983738       0.35332975       0.00343009 </v>
   <v>       0.08086408       0.35453492       0.49269661 </v>
   <v>       0.11819950       0.87508812       0.99715430 </v>
   <v>       0.11839465       0.86562093       0.50385733 </v>
   <v>       0.61134301       0.35777443       0.00171212 </v>
   <v>       0.62076404       0.36491896       0.50201063 </v>
   <v>       0.61007993       0.86160721       0.00185424 </v>
   <v>       0.37831323       0.13232194       0.99906048 </v>
   <v>       0.38253309       0.14208200       0.50766178 </v>
   <v>       0.38745518       0.63987426       0.99847859 </v>
   <v>       0.38337130       0.63714243       0.49995957 </v>
   <v>       0.89982379       0.14409142       0.99794391 </v>
   <v>       0.87935654       0.12928160       0.50133897 </v>
   <v>       0.89081992       0.64298151       0.99585268 </v>
   <v>       0.86024063       0.58150739       0.48983123 </v>
   <v>       0.01482364       0.01171243       0.11933637 </v>
   <v>       0.99191125       0.98924812       0.62456369 </v>
   <v>       0.00710392       0.52729165       0.13548940 </v>
   <v>       0.99695347       0.49786721       0.62156550 </v>
   <v>       0.51185309       0.00978575       0.12579282 </v>
   <v>       0.50283118       0.51135165       0.12631899 </v>
   <v>       0.50707887       0.50535318       0.62436924 </v>
   <v>       0.00351708       0.99882752       0.37586552 </v>
   <v>       0.01473804       0.01418557       0.87782455 </v>
   <v>       0.03466667       0.52857094       0.36951797 </v>
   <v>       0.99836007       0.49618650       0.87387069 </v>
   <v>       0.49896466       0.98323643       0.37721103 </v>
   <v>       0.50225910       0.00044966       0.87607833 </v>
   <v>       0.49485655       0.48943297       0.37418373 </v>
   <v>       0.49832559       0.49571987       0.87343770 </v>
   <v>       0.24945775       0.25562686       0.37362221 </v>
   <v>       0.24014232       0.23419289       0.87753302 </v>
   <v>       0.25445595       0.76289005       0.37896549 </v>
   <v>       0.25909548       0.75834509       0.87363621 </v>
   <v>       0.75674299       0.25460211       0.38502828 </v>
   <v>       0.74622881       0.24745288       0.87229287 </v>
   <v>       0.74362597       0.76097745       0.87216914 </v>
   <v>       0.23746240       0.23073297       0.12056056 </v>
   <v>       0.23964126       0.25838301       0.62578559 </v>
   <v>       0.23589286       0.73513717       0.12510891 </v>
   <v>       0.24748713       0.74717687       0.62724874 </v>
   <v>       0.75033011       0.24609065       0.12465275 </v>
   <v>       0.76881620       0.26499343       0.61919670 </v>
   <v>       0.74914908       0.74160970       0.12419042 </v>
   <v>       0.75884609       0.74750724       0.62490576 </v>
  </varray>
 </structure>
</modeling>
