       N       E                     dE             d eps       ncg     rms          rms(c)
DAV:   1    -0.105717444548E+04   -0.10572E+04   -0.22834E-02 13344   0.358E-01    0.371E-02
RMM:   2    -0.105717444354E+04    0.19462E-05   -0.32402E-05  6767   0.962E-03    0.653E-02
RMM:   3    -0.105717444388E+04   -0.34431E-06   -0.85827E-06  6277   0.536E-03    0.533E-03
RMM:   4    -0.105717444395E+04   -0.75568E-07   -0.22407E-06  3422   0.217E-03    0.389E-03
RMM:   5    -0.105717444403E+04   -0.78027E-07   -0.14470E-06  3299   0.240E-03    0.400E-03
RMM:   6    -0.105717444410E+04   -0.62093E-07   -0.66300E-07  2428   0.187E-03    0.114E-03
RMM:   7    -0.105717444411E+04   -0.18845E-07   -0.39935E-07  2104   0.193E-03    0.519E-04
RMM:   8    -0.105717444413E+04   -0.19834E-07   -0.17559E-07  1823   0.179E-03
   1 F= -.10571744E+04 E0= -.10571744E+04  d E =-.105717E+04  mag=    80.0000
       N       E                     dE             d eps       ncg     rms          rms(c)
DAV:   1    -0.105717418457E+04    0.25955E-03   -0.27342E-01 12416   0.613E-01    0.264E-01
RMM:   2    -0.105717507790E+04   -0.89334E-03   -0.83615E-03 12372   0.128E-01    0.184E-01
RMM:   3    -0.105717512998E+04   -0.52079E-04   -0.44752E-04 10115   0.384E-02    0.111E-01
RMM:   4    -0.105717507643E+04    0.53556E-04   -0.10275E-04  7408   0.144E-02    0.705E-02
RMM:   5    -0.105717505337E+04    0.23051E-04   -0.80884E-05  7328   0.115E-02    0.342E-02
RMM:   6    -0.105717505572E+04   -0.23491E-05   -0.20681E-05  6914   0.738E-03    0.200E-02
RMM:   7    -0.105717505648E+04   -0.75366E-06   -0.84588E-06  6213   0.443E-03    0.160E-02
RMM:   8    -0.105717505720E+04   -0.72335E-06   -0.38217E-06  5242   0.321E-03
   2 F= -.10571751E+04 E0= -.10571751E+04  d E =-.613067E-03  mag=    80.0000
       N       E                     dE             d eps       ncg     rms          rms(c)
DAV:   1    -0.105717506359E+04   -0.71098E-05   -0.64785E-03 13392   0.944E-02    0.408E-02
RMM:   2    -0.105717508249E+04   -0.18898E-04   -0.17266E-04  7518   0.201E-02    0.326E-02
RMM:   3    -0.105717508587E+04   -0.33807E-05   -0.20307E-05  6492   0.887E-03    0.196E-02
RMM:   4    -0.105717508500E+04    0.86092E-06   -0.52632E-06  5682   0.380E-03    0.142E-02
RMM:   5    -0.105717508403E+04    0.97016E-06   -0.26745E-06  4662   0.290E-03    0.685E-03
RMM:   6    -0.105717508388E+04    0.15562E-06   -0.42012E-07  2250   0.189E-03    0.292E-03
RMM:   7    -0.105717508384E+04    0.40935E-07   -0.86604E-09  1296   0.173E-03    0.180E-03
RMM:   8    -0.105717508379E+04    0.52780E-07   -0.12939E-08  1184   0.177E-03
   3 F= -.10571751E+04 E0= -.10571751E+04  d E =-.639652E-03  mag=    80.0000
       N       E                     dE             d eps       ncg     rms          rms(c)
DAV:   1    -0.105717479220E+04    0.29164E-03   -0.31434E-01 12568   0.660E-01    0.201E-01
RMM:   2    -0.105717569505E+04   -0.90285E-03   -0.81843E-03 12461   0.123E-01    0.127E-01
RMM:   3    -0.105717573678E+04   -0.41733E-04   -0.41484E-04  9677   0.383E-02    0.751E-02
RMM:   4    -0.105717571358E+04    0.23206E-04   -0.87211E-05  7159   0.130E-02    0.441E-02
RMM:   5    -0.105717570746E+04    0.61176E-05   -0.42971E-05  7096   0.915E-03    0.189E-02
RMM:   6    -0.105717570946E+04   -0.20045E-05   -0.13491E-05  6854   0.572E-03    0.130E-02
RMM:   7    -0.105717571028E+04   -0.81792E-06   -0.61540E-06  5896   0.379E-03    0.669E-03
RMM:   8    -0.105717571097E+04   -0.69440E-06   -0.31238E-06  4570   0.293E-03
   4 F= -.10571757E+04 E0= -.10571757E+04  d E =-.627189E-03  mag=    80.0000
