<?xml version="1.0" encoding="ISO-8859-1"?>
<modeling>
 <generator>
  <i name="program" type="string">vasp </i>
  <i name="version" type="string">5.4.1  </i>
  <i name="subversion" type="string">05Feb16 (build Jan 25 2017 20:16:33) complex                          parallel </i>
  <i name="platform" type="string">BWXE6 </i>
  <i name="date" type="string">2019 07 09 </i>
  <i name="time" type="string">13:58:33 </i>
 </generator>
 <incar>
  <i type="string" name="SYSTEM"> STF</i>
  <i type="string" name="PREC">normal</i>
  <i type="string" name="ALGO"> Fast</i>
  <i type="int" name="ISPIN">     2</i>
  <i type="int" name="NELM">    40</i>
  <i type="int" name="NELMIN">     8</i>
  <i type="int" name="IBRION">     2</i>
  <i name="EDIFF">      0.00010000</i>
  <i name="EDIFFG">     -0.03000000</i>
  <i type="int" name="NSW">    30</i>
  <i type="int" name="ISIF">     3</i>
  <i name="ENCUT">    520.00000000</i>
  <i type="int" name="NBANDS">   768</i>
  <v name="MAGMOM">      0.60000000      0.60000000      0.60000000      0.60000000      0.60000000      0.60000000      0.60000000      0.60000000      0.60000000      0.60000000      0.60000000      0.60000000      0.60000000      0.60000000      0.60000000      0.60000000      0.60000000      0.60000000      0.60000000      0.60000000
      0.60000000      0.60000000      0.60000000      0.60000000      0.60000000      0.60000000      0.60000000      0.60000000      0.60000000      0.60000000      0.60000000      0.60000000      0.60000000      0.60000000      0.60000000      0.60000000      0.60000000      0.60000000      0.60000000      0.60000000
      0.60000000      0.60000000      0.60000000      0.60000000      0.60000000      0.60000000      0.60000000      0.60000000      5.00000000      5.00000000      5.00000000      5.00000000      5.00000000      5.00000000      5.00000000      5.00000000      5.00000000      5.00000000      5.00000000      5.00000000
      5.00000000      5.00000000      5.00000000      5.00000000      0.60000000      0.60000000      0.60000000      0.60000000      0.60000000      0.60000000      0.60000000      0.60000000      0.60000000      0.60000000      0.60000000      0.60000000      0.60000000      0.60000000      0.60000000      0.60000000
      0.60000000      0.60000000      0.60000000      0.60000000      0.60000000      0.60000000      0.60000000      0.60000000      0.60000000      0.60000000      0.60000000      0.60000000      0.60000000      0.60000000      0.60000000      0.60000000      0.60000000      0.60000000      0.60000000      0.60000000
      0.60000000      0.60000000      0.60000000      0.60000000      0.60000000      0.60000000      0.60000000      0.60000000      0.60000000      0.60000000      0.60000000      0.60000000      0.60000000      0.60000000      0.60000000      0.60000000      0.60000000      0.60000000      0.60000000      0.60000000
      0.60000000      0.60000000      0.60000000      0.60000000      0.60000000      0.60000000      0.60000000      0.60000000      0.60000000      0.60000000      0.60000000      0.60000000      0.60000000      0.60000000      0.60000000      0.60000000      0.60000000      0.60000000      0.60000000      0.60000000
      0.60000000      0.60000000      0.60000000      0.60000000      0.60000000      0.60000000      0.60000000      0.60000000      0.60000000      0.60000000      0.60000000      0.60000000</v>
  <i type="string" name="LREAL"> Auto</i>
  <i type="int" name="ISMEAR">     0</i>
  <i name="SIGMA">      0.05000000</i>
  <i type="int" name="LMAXMIX">     4</i>
  <v type="int" name="KPOINT_BSE">    -1     0     0     0</v>
  <i type="int" name="NELM">    40</i>
  <i type="logical" name="LDAU"> T  </i>
  <v type="int" name="LDAUTYPE">     2</v>
  <v type="int" name="LDAUL">     0     2     2     0</v>
  <v name="LDAUU">      0.00000000      3.00000000      5.00000000      0.00000000</v>
  <v name="LDAUJ">      0.00000000      0.00000000      0.00000000      0.00000000</v>
  <i type="int" name="LDAUPRINT">     1</i>
 </incar>
 <kpoints>
  <generation param="Monkhorst-Pack">
   <v type="int" name="divisions">       2        2        2 </v>
   <v name="usershift">      0.00000000       0.00000000       0.00000000 </v>
   <v name="genvec1">      0.50000000       0.00000000      -0.00000000 </v>
   <v name="genvec2">      0.00000000       0.50000000       0.00000000 </v>
   <v name="genvec3">     -0.00000000       0.00000000       0.50000000 </v>
   <v name="shift">      0.50000000       0.50000000       0.50000000 </v>
  </generation>
  <varray name="kpointlist" >
   <v>       0.25000000       0.25000000       0.25000000 </v>
   <v>      -0.25000000       0.25000000       0.25000000 </v>
   <v>       0.25000000      -0.25000000       0.25000000 </v>
   <v>      -0.25000000      -0.25000000       0.25000000 </v>
  </varray>
  <varray name="weights" >
   <v>       0.25000000 </v>
   <v>       0.25000000 </v>
   <v>       0.25000000 </v>
   <v>       0.25000000 </v>
  </varray>
 </kpoints>
 <parameters>
  <separator name="general" >
   <i type="string" name="SYSTEM">STF</i>
   <i type="logical" name="LCOMPAT"> F  </i>
  </separator>
  <separator name="electronic" >
   <i type="string" name="PREC">normal</i>
   <i name="ENMAX">    520.00000000</i>
   <i name="ENAUG">    605.39200000</i>
   <i name="EDIFF">      0.00010000</i>
   <i type="int" name="IALGO">    68</i>
   <i type="int" name="IWAVPR">    11</i>
   <i type="int" name="NBANDS">   768</i>
   <i name="NELECT">   1040.00000000</i>
   <i type="int" name="TURBO">     0</i>
   <i type="int" name="IRESTART">     0</i>
   <i type="int" name="NREBOOT">     0</i>
   <i type="int" name="NMIN">     0</i>
   <i name="EREF">      0.00000000</i>
   <separator name="electronic smearing" >
    <i type="int" name="ISMEAR">     0</i>
    <i name="SIGMA">      0.05000000</i>
    <i name="KSPACING">      0.50000000</i>
    <i type="logical" name="KGAMMA"> T  </i>
   </separator>
   <separator name="electronic projectors" >
    <i type="logical" name="LREAL"> T  </i>
    <v name="ROPT">     -0.00050000     -0.00050000     -0.00050000     -0.00050000</v>
    <i type="int" name="LMAXPAW">  -100</i>
    <i type="int" name="LMAXMIX">     4</i>
    <i type="logical" name="NLSPLINE"> F  </i>
   </separator>
   <separator name="electronic startup" >
    <i type="int" name="ISTART">     1</i>
    <i type="int" name="ICHARG">     0</i>
    <i type="int" name="INIWAV">     1</i>
   </separator>
   <separator name="electronic spin" >
    <i type="int" name="ISPIN">     2</i>
    <i type="logical" name="LNONCOLLINEAR"> F  </i>
    <v name="MAGMOM">      0.60000000      0.60000000      0.60000000      0.60000000      0.60000000      0.60000000      0.60000000      0.60000000      0.60000000      0.60000000      0.60000000      0.60000000      0.60000000      0.60000000      0.60000000      0.60000000      0.60000000      0.60000000      0.60000000      0.60000000
      0.60000000      0.60000000      0.60000000      0.60000000      0.60000000      0.60000000      0.60000000      0.60000000      0.60000000      0.60000000      0.60000000      0.60000000      0.60000000      0.60000000      0.60000000      0.60000000      0.60000000      0.60000000      0.60000000      0.60000000
      0.60000000      0.60000000      0.60000000      0.60000000      0.60000000      0.60000000      0.60000000      0.60000000      5.00000000      5.00000000      5.00000000      5.00000000      5.00000000      5.00000000      5.00000000      5.00000000      5.00000000      5.00000000      5.00000000      5.00000000
      5.00000000      5.00000000      5.00000000      5.00000000      0.60000000      0.60000000      0.60000000      0.60000000      0.60000000      0.60000000      0.60000000      0.60000000      0.60000000      0.60000000      0.60000000      0.60000000      0.60000000      0.60000000      0.60000000      0.60000000
      0.60000000      0.60000000      0.60000000      0.60000000      0.60000000      0.60000000      0.60000000      0.60000000      0.60000000      0.60000000      0.60000000      0.60000000      0.60000000      0.60000000      0.60000000      0.60000000      0.60000000      0.60000000      0.60000000      0.60000000
      0.60000000      0.60000000      0.60000000      0.60000000      0.60000000      0.60000000      0.60000000      0.60000000      0.60000000      0.60000000      0.60000000      0.60000000      0.60000000      0.60000000      0.60000000      0.60000000      0.60000000      0.60000000      0.60000000      0.60000000
      0.60000000      0.60000000      0.60000000      0.60000000      0.60000000      0.60000000      0.60000000      0.60000000      0.60000000      0.60000000      0.60000000      0.60000000      0.60000000      0.60000000      0.60000000      0.60000000      0.60000000      0.60000000      0.60000000      0.60000000
      0.60000000      0.60000000      0.60000000      0.60000000      0.60000000      0.60000000      0.60000000      0.60000000      0.60000000      0.60000000      0.60000000      0.60000000</v>
    <i name="NUPDOWN">     -1.00000000</i>
    <i type="logical" name="LSORBIT"> F  </i>
    <v name="SAXIS">      0.00000000      0.00000000      1.00000000</v>
    <i type="logical" name="LSPIRAL"> F  </i>
    <v name="QSPIRAL">      0.00000000      0.00000000      0.00000000</v>
    <i type="logical" name="LZEROZ"> F  </i>
   </separator>
   <separator name="electronic exchange-correlation" >
    <i type="logical" name="LASPH"> F  </i>
    <i type="logical" name="LMETAGGA"> F  </i>
   </separator>
   <separator name="electronic convergence" >
    <i type="int" name="NELM">    40</i>
    <i type="int" name="NELMDL">     0</i>
    <i type="int" name="NELMIN">     8</i>
    <i name="ENINI">    520.00000000</i>
    <separator name="electronic convergence detail" >
     <i type="logical" name="LDIAG"> T  </i>
     <i type="logical" name="LSUBROT"> F  </i>
     <i name="WEIMIN">      0.00100000</i>
     <i name="EBREAK">      0.00000003</i>
     <i name="DEPER">      0.30000000</i>
     <i type="int" name="NRMM">     4</i>
     <i name="TIME">      0.40000000</i>
    </separator>
   </separator>
   <separator name="electronic mixer" >
    <i name="AMIX">      0.40000000</i>
    <i name="BMIX">      1.00000000</i>
    <i name="AMIN">      0.10000000</i>
    <i name="AMIX_MAG">      1.60000000</i>
    <i name="BMIX_MAG">      1.00000000</i>
    <separator name="electronic mixer details" >
     <i type="int" name="IMIX">     4</i>
     <i type="logical" name="MIXFIRST"> F  </i>
     <i type="int" name="MAXMIX">   -45</i>
     <i name="WC">    100.00000000</i>
     <i type="int" name="INIMIX">     1</i>
     <i type="int" name="MIXPRE">     1</i>
     <i type="int" name="MREMOVE">     5</i>
    </separator>
   </separator>
   <separator name="electronic dipolcorrection" >
    <i type="logical" name="LDIPOL"> F  </i>
    <i type="logical" name="LMONO"> F  </i>
    <i type="int" name="IDIPOL">     0</i>
    <i name="EPSILON">      1.00000000</i>
    <v name="DIPOL">   -100.00000000   -100.00000000   -100.00000000</v>
    <i name="EFIELD">      0.00000000</i>
   </separator>
  </separator>
  <separator name="grids" >
   <i type="int" name="NGX">    64</i>
   <i type="int" name="NGY">    64</i>
   <i type="int" name="NGZ">    90</i>
   <i type="int" name="NGXF">   128</i>
   <i type="int" name="NGYF">   128</i>
   <i type="int" name="NGZF">   180</i>
   <i type="logical" name="ADDGRID"> F  </i>
  </separator>
  <separator name="ionic" >
   <i type="int" name="NSW">    30</i>
   <i type="int" name="IBRION">     2</i>
   <i type="int" name="ISIF">     3</i>
   <i name="PSTRESS">      0.00000000</i>
   <i name="EDIFFG">     -0.03000000</i>
   <i type="int" name="NFREE">     1</i>
   <i name="POTIM">      0.50000000</i>
   <i name="SMASS">     -3.00000000</i>
   <i name="SCALEE">      1.00000000</i>
  </separator>
  <separator name="ionic md" >
   <i name="TEBEG">      0.00010000</i>
   <i name="TEEND">      0.00010000</i>
   <i type="int" name="NBLOCK">     1</i>
   <i type="int" name="KBLOCK">    30</i>
   <i type="int" name="NPACO">   256</i>
   <i name="APACO">     16.00000000</i>
  </separator>
  <separator name="symmetry" >
   <i type="int" name="ISYM">     2</i>
   <i name="SYMPREC">      0.00001000</i>
  </separator>
  <separator name="dos" >
   <i type="logical" name="LORBIT"> F  </i>
   <v name="RWIGS">     -1.00000000     -1.00000000     -1.00000000     -1.00000000</v>
   <i type="int" name="NEDOS">   301</i>
   <i name="EMIN">     10.00000000</i>
   <i name="EMAX">    -10.00000000</i>
   <i name="EFERMI">      0.00000000</i>
  </separator>
  <separator name="writing" >
   <i type="int" name="NWRITE">     2</i>
   <i type="logical" name="LWAVE"> T  </i>
   <i type="logical" name="LCHARG"> T  </i>
   <i type="logical" name="LPARD"> F  </i>
   <i type="logical" name="LVTOT"> F  </i>
   <i type="logical" name="LVHAR"> F  </i>
   <i type="logical" name="LELF"> F  </i>
   <i type="logical" name="LOPTICS"> F  </i>
   <v name="STM">      0.00000000      0.00000000      0.00000000      0.00000000      0.00000000      0.00000000      0.00000000</v>
  </separator>
  <separator name="performance" >
   <i type="int" name="NPAR">     2</i>
   <i type="int" name="NSIM">     4</i>
   <i type="int" name="NBLK">    -1</i>
   <i type="logical" name="LPLANE"> T  </i>
   <i type="logical" name="LSCALAPACK"> T  </i>
   <i type="logical" name="LSCAAWARE"> F  </i>
   <i type="logical" name="LSCALU"> F  </i>
   <i type="logical" name="LASYNC"> F  </i>
   <i type="logical" name="LORBITALREAL"> F  </i>
  </separator>
  <separator name="miscellaneous" >
   <i type="int" name="IDIOT">     3</i>
   <i type="logical" name="LMUSIC"> F  </i>
   <v name="POMASS">     87.62000000     47.88000000     55.84700000     16.00000000</v>
   <v name="DARWINR">      0.00000000      0.00000000      0.00000000      0.00000000</v>
   <v name="DARWINV">      1.00000000      1.00000000      1.00000000      1.00000000</v>
   <i type="logical" name="LCORR"> T  </i>
  </separator>
  <i type="logical" name="GGA_COMPAT"> T  </i>
  <i type="logical" name="LBERRY"> F  </i>
  <i type="int" name="ICORELEVEL">     0</i>
  <i type="logical" name="LDAU"> T  </i>
  <v type="int" name="LDAUTYPE">     2</v>
  <v type="int" name="LDAUL">     0</v>
  <v name="LDAUU">      0.00000000</v>
  <v name="LDAUJ">      0.00000000</v>
  <i type="int" name="LDAUPRINT">     1</i>
  <i type="int" name="I_CONSTRAINED_M">     0</i>
  <separator name="electronic exchange-correlation" >
   <i type="string" name="GGA">--</i>
   <i type="int" name="VOSKOWN">     0</i>
   <i type="logical" name="LHFCALC"> F  </i>
   <i type="string" name="PRECFOCK"></i>
   <i type="logical" name="LSYMGRAD"> F  </i>
   <i type="logical" name="LHFONE"> F  </i>
   <i type="logical" name="LRHFCALC"> F  </i>
   <i type="logical" name="LTHOMAS"> F  </i>
   <i type="logical" name="LMODELHF"> F  </i>
   <i name="ENCUT4O">     -1.00000000</i>
   <i type="int" name="EXXOEP">     0</i>
   <i type="int" name="FOURORBIT">     0</i>
   <i name="AEXX">      0.00000000</i>
   <i name="HFALPHA">      0.00000000</i>
   <i name="MCALPHA">      0.00000000</i>
   <i name="ALDAX">      1.00000000</i>
   <i name="AGGAX">      1.00000000</i>
   <i name="ALDAC">      1.00000000</i>
   <i name="AGGAC">      1.00000000</i>
   <i type="int" name="NKREDX">     1</i>
   <i type="int" name="NKREDY">     1</i>
   <i type="int" name="NKREDZ">     1</i>
   <i type="logical" name="SHIFTRED"> F  </i>
   <i type="logical" name="ODDONLY"> F  </i>
   <i type="logical" name="EVENONLY"> F  </i>
   <i type="int" name="LMAXFOCK">     0</i>
   <i type="int" name="NMAXFOCKAE">     0</i>
   <i type="logical" name="LFOCKAEDFT"> F  </i>
   <i name="HFSCREEN">      0.00000000</i>
   <i name="HFSCREENC">      0.00000000</i>
   <i type="int" name="NBANDSGWLOW">     0</i>
  </separator>
  <separator name="vdW DFT" >
   <i type="logical" name="LUSE_VDW"> F  </i>
   <i name="Zab_VDW">     -0.84910000</i>
   <i name="PARAM1">      0.12340000</i>
   <i name="PARAM2">      1.00000000</i>
   <i name="PARAM3">      0.00000000</i>
  </separator>
  <separator name="model GW" >
   <i type="int" name="MODEL_GW">     0</i>
   <i name="MODEL_EPS0">      7.89922689</i>
   <i name="MODEL_ALPHA">      1.00000000</i>
  </separator>
  <separator name="linear response parameters" >
   <i type="logical" name="LEPSILON"> F  </i>
   <i type="logical" name="LRPA"> F  </i>
   <i type="logical" name="LNABLA"> F  </i>
   <i type="logical" name="LVEL"> F  </i>
   <i type="int" name="KINTER">     0</i>
   <i name="CSHIFT">      0.10000000</i>
   <i name="OMEGAMAX">     -1.00000000</i>
   <i name="DEG_THRESHOLD">      0.00200000</i>
  </separator>
  <separator name="orbital magnetization" >
   <i type="logical" name="NUCIND"> F  </i>
   <v name="MAGPOS">      0.00000000      0.00000000      0.00000000</v>
   <i type="logical" name="LNICSALL"> T  </i>
   <i type="logical" name="ORBITALMAG"> F  </i>
   <i type="logical" name="LMAGBLOCH"> F  </i>
   <i type="logical" name="LCHIMAG"> F  </i>
   <i type="logical" name="LGAUGE"> T  </i>
   <i type="int" name="MAGATOM">     0</i>
   <v name="MAGDIPOL">      0.00000000      0.00000000      0.00000000</v>
   <v name="AVECCONST">      0.00000000      0.00000000      0.00000000</v>
  </separator>
  <separator name="response functions" >
   <i type="logical" name="LADDER"> F  </i>
   <i type="logical" name="LFXC"> F  </i>
   <i type="logical" name="LHARTREE"> T  </i>
   <i type="int" name="IBSE">     0</i>
   <v type="int" name="KPOINT">    -1     0     0     0</v>
   <i type="logical" name="LTCTE"> F  </i>
   <i type="logical" name="LTETE"> F  </i>
   <i type="logical" name="LTRIPLET"> F  </i>
   <i type="logical" name="LFXCEPS"> F  </i>
   <i type="logical" name="LFXHEG"> F  </i>
   <i type="int" name="NATURALO">     0</i>
   <i type="logical" name="L2ORDER"> F  </i>
   <i type="logical" name="LUSEW"> F  </i>
   <i name="ENCUTGW">     -2.00000000</i>
   <i name="ENCUTGWSOFT">     -2.00000000</i>
   <i name="ENCUTLF">     -1.00000000</i>
   <i type="int" name="LMAXMP2">    -1</i>
   <i name="SCISSOR">      0.00000000</i>
   <i type="int" name="NOMEGA">     0</i>
   <i type="int" name="NOMEGAR">     0</i>
   <i type="int" name="NBANDSGW">    -1</i>
   <i type="int" name="NBANDSO">    -1</i>
   <i type="int" name="NBANDSV">    -1</i>
   <i type="int" name="NELM">    40</i>
   <i type="int" name="NELMHF">     1</i>
   <i type="int" name="DIM">     3</i>
   <i type="int" name="ANTIRES">     0</i>
   <i name="OMEGAMAX">    -30.00000000</i>
   <i name="OMEGAMIN">    -30.00000000</i>
   <i name="OMEGATL">   -200.00000000</i>
   <i type="int" name="OMEGAGRID">     0</i>
   <i name="CSHIFT">     -0.10000000</i>
   <i type="logical" name="SELFENERGY"> F  </i>
   <i type="logical" name="LSPECTRAL"> F  </i>
   <i type="logical" name="LSPECTRALGW"> F  </i>
   <i type="logical" name="LSINGLES"> F  </i>
   <i type="logical" name="LFERMIGW"> F  </i>
   <i type="logical" name="ODDONLYGW"> F  </i>
   <i type="logical" name="EVENONLYGW"> F  </i>
   <i type="int" name="NKREDLFX">     1</i>
   <i type="int" name="NKREDLFY">     1</i>
   <i type="int" name="NKREDLFZ">     1</i>
   <i type="int" name="MAXMEM">  1800</i>
   <i type="int" name="TELESCOPE">     0</i>
   <i type="int" name="TAUPAR">     1</i>
   <i type="int" name="OMEGAPAR">    -1</i>
   <i name="LAMBDA">      1.00000000</i>
  </separator>
  <separator name="External order field" >
   <i name="OFIELD_KAPPA">      0.00000000</i>
   <v name="OFIELD_K">      0.00000000      0.00000000      0.00000000</v>
   <i name="OFIELD_Q6_NEAR">      0.00000000</i>
   <i name="OFIELD_Q6_FAR">      0.00000000</i>
   <i name="OFIELD_A">      0.00000000</i>
  </separator>
 </parameters>
 <atominfo>
  <atoms>     152 </atoms>
  <types>       4 </types>
  <array name="atoms" >
   <dimension dim="1">ion</dimension>
   <field type="string">element</field>
   <field type="int">atomtype</field>
   <set>
    <rc><c>Sr</c><c>   1</c></rc>
    <rc><c>Sr</c><c>   1</c></rc>
    <rc><c>Sr</c><c>   1</c></rc>
    <rc><c>Sr</c><c>   1</c></rc>
    <rc><c>Sr</c><c>   1</c></rc>
    <rc><c>Sr</c><c>   1</c></rc>
    <rc><c>Sr</c><c>   1</c></rc>
    <rc><c>Sr</c><c>   1</c></rc>
    <rc><c>Sr</c><c>   1</c></rc>
    <rc><c>Sr</c><c>   1</c></rc>
    <rc><c>Sr</c><c>   1</c></rc>
    <rc><c>Sr</c><c>   1</c></rc>
    <rc><c>Sr</c><c>   1</c></rc>
    <rc><c>Sr</c><c>   1</c></rc>
    <rc><c>Sr</c><c>   1</c></rc>
    <rc><c>Sr</c><c>   1</c></rc>
    <rc><c>Sr</c><c>   1</c></rc>
    <rc><c>Sr</c><c>   1</c></rc>
    <rc><c>Sr</c><c>   1</c></rc>
    <rc><c>Sr</c><c>   1</c></rc>
    <rc><c>Sr</c><c>   1</c></rc>
    <rc><c>Sr</c><c>   1</c></rc>
    <rc><c>Sr</c><c>   1</c></rc>
    <rc><c>Sr</c><c>   1</c></rc>
    <rc><c>Sr</c><c>   1</c></rc>
    <rc><c>Sr</c><c>   1</c></rc>
    <rc><c>Sr</c><c>   1</c></rc>
    <rc><c>Sr</c><c>   1</c></rc>
    <rc><c>Sr</c><c>   1</c></rc>
    <rc><c>Sr</c><c>   1</c></rc>
    <rc><c>Sr</c><c>   1</c></rc>
    <rc><c>Sr</c><c>   1</c></rc>
    <rc><c>Ti</c><c>   2</c></rc>
    <rc><c>Ti</c><c>   2</c></rc>
    <rc><c>Ti</c><c>   2</c></rc>
    <rc><c>Ti</c><c>   2</c></rc>
    <rc><c>Ti</c><c>   2</c></rc>
    <rc><c>Ti</c><c>   2</c></rc>
    <rc><c>Ti</c><c>   2</c></rc>
    <rc><c>Ti</c><c>   2</c></rc>
    <rc><c>Ti</c><c>   2</c></rc>
    <rc><c>Ti</c><c>   2</c></rc>
    <rc><c>Ti</c><c>   2</c></rc>
    <rc><c>Ti</c><c>   2</c></rc>
    <rc><c>Ti</c><c>   2</c></rc>
    <rc><c>Ti</c><c>   2</c></rc>
    <rc><c>Ti</c><c>   2</c></rc>
    <rc><c>Ti</c><c>   2</c></rc>
    <rc><c>Fe</c><c>   3</c></rc>
    <rc><c>Fe</c><c>   3</c></rc>
    <rc><c>Fe</c><c>   3</c></rc>
    <rc><c>Fe</c><c>   3</c></rc>
    <rc><c>Fe</c><c>   3</c></rc>
    <rc><c>Fe</c><c>   3</c></rc>
    <rc><c>Fe</c><c>   3</c></rc>
    <rc><c>Fe</c><c>   3</c></rc>
    <rc><c>Fe</c><c>   3</c></rc>
    <rc><c>Fe</c><c>   3</c></rc>
    <rc><c>Fe</c><c>   3</c></rc>
    <rc><c>Fe</c><c>   3</c></rc>
    <rc><c>Fe</c><c>   3</c></rc>
    <rc><c>Fe</c><c>   3</c></rc>
    <rc><c>Fe</c><c>   3</c></rc>
    <rc><c>Fe</c><c>   3</c></rc>
    <rc><c>O </c><c>   4</c></rc>
    <rc><c>O </c><c>   4</c></rc>
    <rc><c>O </c><c>   4</c></rc>
    <rc><c>O </c><c>   4</c></rc>
    <rc><c>O </c><c>   4</c></rc>
    <rc><c>O </c><c>   4</c></rc>
    <rc><c>O </c><c>   4</c></rc>
    <rc><c>O </c><c>   4</c></rc>
    <rc><c>O </c><c>   4</c></rc>
    <rc><c>O </c><c>   4</c></rc>
    <rc><c>O </c><c>   4</c></rc>
    <rc><c>O </c><c>   4</c></rc>
    <rc><c>O </c><c>   4</c></rc>
    <rc><c>O </c><c>   4</c></rc>
    <rc><c>O </c><c>   4</c></rc>
    <rc><c>O </c><c>   4</c></rc>
    <rc><c>O </c><c>   4</c></rc>
    <rc><c>O </c><c>   4</c></rc>
    <rc><c>O </c><c>   4</c></rc>
    <rc><c>O </c><c>   4</c></rc>
    <rc><c>O </c><c>   4</c></rc>
    <rc><c>O </c><c>   4</c></rc>
    <rc><c>O </c><c>   4</c></rc>
    <rc><c>O </c><c>   4</c></rc>
    <rc><c>O </c><c>   4</c></rc>
    <rc><c>O </c><c>   4</c></rc>
    <rc><c>O </c><c>   4</c></rc>
    <rc><c>O </c><c>   4</c></rc>
    <rc><c>O </c><c>   4</c></rc>
    <rc><c>O </c><c>   4</c></rc>
    <rc><c>O </c><c>   4</c></rc>
    <rc><c>O </c><c>   4</c></rc>
    <rc><c>O </c><c>   4</c></rc>
    <rc><c>O </c><c>   4</c></rc>
    <rc><c>O </c><c>   4</c></rc>
    <rc><c>O </c><c>   4</c></rc>
    <rc><c>O </c><c>   4</c></rc>
    <rc><c>O </c><c>   4</c></rc>
    <rc><c>O </c><c>   4</c></rc>
    <rc><c>O </c><c>   4</c></rc>
    <rc><c>O </c><c>   4</c></rc>
    <rc><c>O </c><c>   4</c></rc>
    <rc><c>O </c><c>   4</c></rc>
    <rc><c>O </c><c>   4</c></rc>
    <rc><c>O </c><c>   4</c></rc>
    <rc><c>O </c><c>   4</c></rc>
    <rc><c>O </c><c>   4</c></rc>
    <rc><c>O </c><c>   4</c></rc>
    <rc><c>O </c><c>   4</c></rc>
    <rc><c>O </c><c>   4</c></rc>
    <rc><c>O </c><c>   4</c></rc>
    <rc><c>O </c><c>   4</c></rc>
    <rc><c>O </c><c>   4</c></rc>
    <rc><c>O </c><c>   4</c></rc>
    <rc><c>O </c><c>   4</c></rc>
    <rc><c>O </c><c>   4</c></rc>
    <rc><c>O </c><c>   4</c></rc>
    <rc><c>O </c><c>   4</c></rc>
    <rc><c>O </c><c>   4</c></rc>
    <rc><c>O </c><c>   4</c></rc>
    <rc><c>O </c><c>   4</c></rc>
    <rc><c>O </c><c>   4</c></rc>
    <rc><c>O </c><c>   4</c></rc>
    <rc><c>O </c><c>   4</c></rc>
    <rc><c>O </c><c>   4</c></rc>
    <rc><c>O </c><c>   4</c></rc>
    <rc><c>O </c><c>   4</c></rc>
    <rc><c>O </c><c>   4</c></rc>
    <rc><c>O </c><c>   4</c></rc>
    <rc><c>O </c><c>   4</c></rc>
    <rc><c>O </c><c>   4</c></rc>
    <rc><c>O </c><c>   4</c></rc>
    <rc><c>O </c><c>   4</c></rc>
    <rc><c>O </c><c>   4</c></rc>
    <rc><c>O </c><c>   4</c></rc>
    <rc><c>O </c><c>   4</c></rc>
    <rc><c>O </c><c>   4</c></rc>
    <rc><c>O </c><c>   4</c></rc>
    <rc><c>O </c><c>   4</c></rc>
    <rc><c>O </c><c>   4</c></rc>
    <rc><c>O </c><c>   4</c></rc>
    <rc><c>O </c><c>   4</c></rc>
    <rc><c>O </c><c>   4</c></rc>
    <rc><c>O </c><c>   4</c></rc>
    <rc><c>O </c><c>   4</c></rc>
    <rc><c>O </c><c>   4</c></rc>
    <rc><c>O </c><c>   4</c></rc>
    <rc><c>O </c><c>   4</c></rc>
   </set>
  </array>
  <array name="atomtypes" >
   <dimension dim="1">type</dimension>
   <field type="int">atomspertype</field>
   <field type="string">element</field>
   <field>mass</field>
   <field>valence</field>
   <field type="string">pseudopotential</field>
   <set>
    <rc><c>  32</c><c>Sr</c><c>     87.62000000</c><c>     10.00000000</c><c>  PAW_PBE Sr_sv 07Sep2000               </c></rc>
    <rc><c>  16</c><c>Ti</c><c>     47.88000000</c><c>      4.00000000</c><c>  PAW_PBE Ti 08Apr2002                  </c></rc>
    <rc><c>  16</c><c>Fe</c><c>     55.84700000</c><c>      8.00000000</c><c>  PAW_PBE Fe 06Sep2000                  </c></rc>
    <rc><c>  88</c><c>O </c><c>     16.00000000</c><c>      6.00000000</c><c>  PAW_PBE O 08Apr2002                   </c></rc>
   </set>
  </array>
 </atominfo>
 <structure name="initialpos" >
  <crystal>
   <varray name="basis" >
    <v>      11.20590243      -0.01545670      -0.01585442 </v>
    <v>      -0.01544850      11.19950270      -0.00606150 </v>
    <v>      -0.02318175      -0.00862966      15.94531848 </v>
   </varray>
   <i name="volume">   2001.13747919 </i>
   <varray name="rec_basis" >
    <v>       0.08923904       0.00012317       0.00012980 </v>
    <v>       0.00012323       0.08928988       0.00004850 </v>
    <v>       0.00008878       0.00003407       0.06271448 </v>
   </varray>
  </crystal>
  <varray name="positions" >
   <v>       0.99133421       0.24984298       0.12885085 </v>
   <v>       0.01112008       0.24176422       0.61877788 </v>
   <v>       0.99692675       0.75144773       0.12716344 </v>
   <v>       0.00259474       0.76108399       0.61703153 </v>
   <v>       0.50901218       0.24977529       0.13008258 </v>
   <v>       0.49209839       0.24460836       0.61333703 </v>
   <v>       0.50229139       0.75046239       0.12858211 </v>
   <v>       0.50282655       0.75024824       0.62146630 </v>
   <v>       0.99437209       0.24631078       0.37590605 </v>
   <v>       0.01273031       0.24829427       0.87960925 </v>
   <v>       0.99919826       0.75638265       0.37562135 </v>
   <v>       0.00089183       0.75025842       0.87622435 </v>
   <v>       0.50175129       0.25062725       0.37175190 </v>
   <v>       0.49655954       0.25080172       0.88328248 </v>
   <v>       0.50287412       0.74918374       0.37358885 </v>
   <v>       0.49158751       0.75076944       0.89114847 </v>
   <v>       0.24806645       0.00259744       0.12719595 </v>
   <v>       0.24380709       0.00364670       0.62078899 </v>
   <v>       0.25087042       0.49822795       0.12748850 </v>
   <v>       0.24605903       0.49852087       0.61956772 </v>
   <v>       0.74886194       0.00919105       0.12921879 </v>
   <v>       0.76324086       0.99735929       0.61749514 </v>
   <v>       0.74714319       0.49172365       0.12971306 </v>
   <v>       0.75539681       0.50377527       0.61904358 </v>
   <v>       0.24581177       0.00191729       0.37791048 </v>
   <v>       0.24566201       0.00123291       0.87906867 </v>
   <v>       0.24805442       0.50041808       0.37421815 </v>
   <v>       0.24855247       0.49577737       0.88110036 </v>
   <v>       0.75268649       0.00577194       0.37407199 </v>
   <v>       0.75368302       0.99699584       0.87804021 </v>
   <v>       0.74958621       0.49429933       0.37281259 </v>
   <v>       0.74765353       0.50581685       0.88389176 </v>
   <v>       0.75003390       0.74902446       0.50185839 </v>
   <v>       0.99867877       0.50087081       0.24585256 </v>
   <v>       0.74924592       0.25178781       0.99793203 </v>
   <v>       0.00110294       0.50159816       0.00385391 </v>
   <v>       0.75512851       0.74731684       0.74657699 </v>
   <v>       0.00038910       0.99911058       0.00206877 </v>
   <v>       0.24363376       0.74373509       0.74717503 </v>
   <v>       0.24988648       0.25174465       0.50169069 </v>
   <v>       0.49772217       0.99892872       0.24695895 </v>
   <v>       0.00696445       0.99949983       0.75113072 </v>
   <v>       0.25273655       0.75104898       0.50412762 </v>
   <v>       0.49827732       0.00095371       0.00471191 </v>
   <v>       0.49879617       0.50247368       0.00631164 </v>
   <v>       0.74689485       0.25074179       0.50468695 </v>
   <v>       0.99907743       0.00135183       0.24886621 </v>
   <v>       0.49799286       0.50077289       0.24727542 </v>
   <v>       0.00070984       0.00033601       0.49765781 </v>
   <v>       0.25394341       0.25599867       0.74521952 </v>
   <v>       0.74953577       0.25061371       0.25460465 </v>
   <v>       0.25295548       0.24919084       0.98835597 </v>
   <v>       0.78287766       0.25257311       0.74716315 </v>
   <v>       0.49885629       0.50218964       0.48950549 </v>
   <v>       0.00679588       0.50261646       0.76225087 </v>
   <v>       0.24805916       0.25103977       0.26056642 </v>
   <v>       0.49926437       0.99798526       0.48714158 </v>
   <v>       0.74655310       0.75110757       0.98763639 </v>
   <v>       0.74967986       0.74860730       0.26093024 </v>
   <v>       0.00018204       0.50175551       0.48875940 </v>
   <v>       0.24504199       0.74758810       0.99183927 </v>
   <v>       0.49083283       0.97574381       0.76276631 </v>
   <v>       0.25049415       0.75005296       0.25965905 </v>
   <v>       0.48543672       0.51197087       0.76272336 </v>
   <v>       0.12301219       0.13197104       0.23831598 </v>
   <v>       0.12084767       0.13231126       0.75129393 </v>
   <v>       0.12264758       0.63102864       0.23641767 </v>
   <v>       0.10207413       0.63701491       0.73027795 </v>
   <v>       0.61936077       0.12760665       0.25453801 </v>
   <v>       0.88635870       0.85938027       0.75837358 </v>
   <v>       0.12319179       0.36647957       0.00593256 </v>
   <v>       0.37526012       0.36863780       0.24120896 </v>
   <v>       0.42804228       0.35749757       0.74131761 </v>
   <v>       0.37300794       0.86897222       0.23161189 </v>
   <v>       0.38992304       0.84255012       0.75938471 </v>
   <v>       0.89896427       0.37310241       0.73051065 </v>
   <v>       0.74906001       0.73532278       0.37916967 </v>
   <v>       0.48994224       0.51013820       0.37075601 </v>
   <v>       0.49058029       0.98555342       0.36905837 </v>
   <v>       0.36852117       0.62341872       0.23592806 </v>
   <v>       0.87015235       0.12268585       0.25350787 </v>
   <v>       0.86584387       0.10751986       0.75621767 </v>
   <v>       0.86820870       0.62497492       0.23566040 </v>
   <v>       0.85985476       0.61151761       0.75560428 </v>
   <v>       0.12881368       0.37857862       0.23910878 </v>
   <v>       0.14814464       0.39357860       0.74881233 </v>
   <v>       0.12813568       0.87674896       0.24228088 </v>
   <v>       0.14059994       0.88591269       0.75572905 </v>
   <v>       0.62611597       0.37886457       0.25542495 </v>
   <v>       0.62936137       0.87442842       0.24291558 </v>
   <v>       0.13203331       0.12172473       0.00483744 </v>
   <v>       0.98678991       0.00871861       0.12307279 </v>
   <v>       0.37269832       0.38259978       0.50764536 </v>
   <v>       0.36549404       0.88097323       0.00204097 </v>
   <v>       0.86950583       0.37946392       0.98559951 </v>
   <v>       0.87266695       0.37807652       0.51350434 </v>
   <v>       0.86453620       0.87913927       0.00194116 </v>
   <v>       0.87166645       0.87690251       0.49399820 </v>
   <v>       0.87506040       0.87048509       0.24448066 </v>
   <v>       0.12798614       0.12405886       0.49962927 </v>
   <v>       0.13076894       0.62178422       0.02166217 </v>
   <v>       0.12935726       0.62130061       0.50856522 </v>
   <v>       0.63199650       0.12164458       0.99550039 </v>
   <v>       0.62428130       0.11667800       0.50608638 </v>
   <v>       0.63359605       0.62343796       0.01580375 </v>
   <v>       0.62711355       0.61982490       0.51047302 </v>
   <v>       0.11767667       0.37599267       0.50848300 </v>
   <v>       0.12089771       0.86756649       0.01299106 </v>
   <v>       0.87738105       0.37345387       0.25756190 </v>
   <v>       0.61940932       0.37200960       0.99736637 </v>
   <v>       0.61835019       0.37614683       0.50679108 </v>
   <v>       0.61838920       0.86895920       0.00867848 </v>
   <v>       0.62118628       0.87063021       0.50578453 </v>
   <v>       0.87827204       0.13341311       0.98536642 </v>
   <v>       0.37779534       0.12763325       0.49841136 </v>
   <v>       0.37594586       0.88215309       0.51390060 </v>
   <v>       0.38209946       0.62749549       0.51670008 </v>
   <v>       0.37905930       0.13579515       0.01585428 </v>
   <v>       0.87536279       0.13044320       0.50763742 </v>
   <v>       0.87833727       0.63303786       0.99880024 </v>
   <v>       0.88242548       0.62464181       0.51313448 </v>
   <v>       0.63670445       0.90264845       0.73354076 </v>
   <v>       0.36819430       0.12281277       0.24396630 </v>
   <v>       0.98252845       0.48582966       0.12296781 </v>
   <v>       0.49820262       0.00878897       0.87899442 </v>
   <v>       0.50886829       0.00701009       0.12487572 </v>
   <v>       0.36816091       0.38207501       0.00293188 </v>
   <v>       0.61364752       0.60645827       0.72475572 </v>
   <v>       0.00330648       0.00366775       0.37110752 </v>
   <v>       0.01001787       0.99329946       0.87854967 </v>
   <v>       0.00291063       0.51132110       0.37016895 </v>
   <v>       0.01827143       0.50893882       0.88023090 </v>
   <v>       0.50472863       0.48837901       0.12557415 </v>
   <v>       0.00134635       0.99367831       0.62810960 </v>
   <v>       0.40492186       0.09930641       0.71693874 </v>
   <v>       0.50209750       0.51682506       0.88082438 </v>
   <v>       0.24647855       0.26011800       0.37838547 </v>
   <v>       0.26650093       0.24084086       0.86851751 </v>
   <v>       0.26393383       0.74482414       0.37883165 </v>
   <v>       0.23593997       0.72894894       0.87379418 </v>
   <v>       0.74674646       0.25163978       0.38343828 </v>
   <v>       0.71891561       0.26709674       0.85533456 </v>
   <v>       0.34924171       0.60185924       0.74125283 </v>
   <v>       0.72029020       0.74802172       0.86827394 </v>
   <v>       0.12495906       0.87121061       0.49382309 </v>
   <v>       0.24975953       0.24898943       0.62483999 </v>
   <v>       0.62188030       0.62946853       0.24021024 </v>
   <v>       0.24634489       0.76342804       0.62701417 </v>
   <v>       0.75397182       0.25186379       0.12017192 </v>
   <v>       0.71787119       0.24625392       0.63861793 </v>
   <v>       0.37831288       0.63570915       0.01419899 </v>
   <v>       0.75969684       0.75524492       0.62619174 </v>
  </varray>
 </structure>
 <calculation>
  <scstep>
   <time name="dav">  300.23  300.25</time>
   <time name="total">  303.99  304.04</time>
   <energy>
    <i name="alphaZ">   5627.91792649 </i>
    <i name="ewald"> -62456.92857989 </i>
    <i name="hartreedc"> -17161.46227187 </i>
    <i name="XCdc">   3185.57621755 </i>
    <i name="pawpsdc"> 113153.45436305 </i>
    <i name="pawaedc">-112358.52187610 </i>
    <i name="eentropy">     -0.00000000 </i>
    <i name="bandstr">  -7097.38635108 </i>
    <i name="atom">  76050.17612637 </i>
    <i name="e_fr_energy">  -1057.17444548 </i>
    <i name="e_wo_entrp">  -1057.17444548 </i>
    <i name="e_0_energy">  -1057.17444548 </i>
   </energy>
  </scstep>
  <scstep>
   <time name="diag">   33.16   33.17</time>
   <time name="diis">   30.74   30.74</time>
   <time name="orth">   18.81   18.81</time>
   <time name="total">   86.50   86.53</time>
   <energy>
    <i name="e_fr_energy">  -1057.17444354 </i>
    <i name="e_wo_entrp">  -1057.17444354 </i>
    <i name="e_0_energy">  -1057.17444354 </i>
   </energy>
  </scstep>
  <scstep>
   <time name="diag">   33.18   33.18</time>
   <time name="diis">   29.38   29.39</time>
   <time name="orth">   18.79   18.79</time>
   <time name="total">   85.15   85.23</time>
   <energy>
    <i name="e_fr_energy">  -1057.17444388 </i>
    <i name="e_wo_entrp">  -1057.17444388 </i>
    <i name="e_0_energy">  -1057.17444388 </i>
   </energy>
  </scstep>
  <scstep>
   <time name="diag">   33.15   33.15</time>
   <time name="diis">   24.91   24.92</time>
   <time name="orth">   18.77   18.76</time>
   <time name="total">   80.60   80.72</time>
   <energy>
    <i name="e_fr_energy">  -1057.17444395 </i>
    <i name="e_wo_entrp">  -1057.17444395 </i>
    <i name="e_0_energy">  -1057.17444395 </i>
   </energy>
  </scstep>
  <scstep>
   <time name="diag">   33.14   33.14</time>
   <time name="diis">   24.54   24.55</time>
   <time name="orth">   18.77   18.77</time>
   <time name="total">   80.22   80.30</time>
   <energy>
    <i name="e_fr_energy">  -1057.17444403 </i>
    <i name="e_wo_entrp">  -1057.17444403 </i>
    <i name="e_0_energy">  -1057.17444403 </i>
   </energy>
  </scstep>
  <scstep>
   <time name="diag">   33.17   33.17</time>
   <time name="diis">   23.15   23.16</time>
   <time name="orth">   18.78   18.78</time>
   <time name="total">   78.88   79.01</time>
   <energy>
    <i name="e_fr_energy">  -1057.17444410 </i>
    <i name="e_wo_entrp">  -1057.17444410 </i>
    <i name="e_0_energy">  -1057.17444410 </i>
   </energy>
  </scstep>
  <scstep>
   <time name="diag">   33.15   33.15</time>
   <time name="diis">   22.59   22.60</time>
   <time name="orth">   18.81   18.81</time>
   <time name="total">   78.33   78.40</time>
   <energy>
    <i name="e_fr_energy">  -1057.17444411 </i>
    <i name="e_wo_entrp">  -1057.17444411 </i>
    <i name="e_0_energy">  -1057.17444411 </i>
   </energy>
  </scstep>
  <scstep>
   <time name="diag">   33.18   33.18</time>
   <time name="diis">   22.17   22.19</time>
   <time name="orth">   18.79   18.80</time>
   <time name="total">   74.71   74.82</time>
   <energy>
    <i name="alphaZ">   5627.91792649 </i>
    <i name="ewald"> -62456.92857989 </i>
    <i name="hartreedc"> -17161.48034070 </i>
    <i name="XCdc">   3185.57555838 </i>
    <i name="pawpsdc"> 113152.66711201 </i>
    <i name="pawaedc">-112357.73931752 </i>
    <i name="eentropy">     -0.00000000 </i>
    <i name="bandstr">  -7097.36292927 </i>
    <i name="atom">  76050.17612637 </i>
    <i name="e_fr_energy">  -1057.17444413 </i>
    <i name="e_wo_entrp">  -1057.17444413 </i>
    <i name="e_0_energy">  -1057.17444413 </i>
   </energy>
  </scstep>
  <structure>
   <crystal>
    <varray name="basis" >
     <v>      11.20590243      -0.01545670      -0.01585442 </v>
     <v>      -0.01544850      11.19950270      -0.00606150 </v>
     <v>      -0.02318175      -0.00862966      15.94531848 </v>
    </varray>
    <i name="volume">   2001.13747919 </i>
    <varray name="rec_basis" >
     <v>       0.08923904       0.00012317       0.00012980 </v>
     <v>       0.00012323       0.08928988       0.00004850 </v>
     <v>       0.00008878       0.00003407       0.06271448 </v>
    </varray>
   </crystal>
   <varray name="positions" >
    <v>       0.99133421       0.24984298       0.12885085 </v>
    <v>       0.01112008       0.24176422       0.61877788 </v>
    <v>       0.99692675       0.75144773       0.12716344 </v>
    <v>       0.00259474       0.76108399       0.61703153 </v>
    <v>       0.50901218       0.24977529       0.13008258 </v>
    <v>       0.49209839       0.24460836       0.61333703 </v>
    <v>       0.50229139       0.75046239       0.12858211 </v>
    <v>       0.50282655       0.75024824       0.62146630 </v>
    <v>       0.99437209       0.24631078       0.37590605 </v>
    <v>       0.01273031       0.24829427       0.87960925 </v>
    <v>       0.99919826       0.75638265       0.37562135 </v>
    <v>       0.00089183       0.75025842       0.87622435 </v>
    <v>       0.50175129       0.25062725       0.37175190 </v>
    <v>       0.49655954       0.25080172       0.88328248 </v>
    <v>       0.50287412       0.74918374       0.37358885 </v>
    <v>       0.49158751       0.75076944       0.89114847 </v>
    <v>       0.24806645       0.00259744       0.12719595 </v>
    <v>       0.24380709       0.00364670       0.62078899 </v>
    <v>       0.25087042       0.49822795       0.12748850 </v>
    <v>       0.24605903       0.49852087       0.61956772 </v>
    <v>       0.74886194       0.00919105       0.12921879 </v>
    <v>       0.76324086       0.99735929       0.61749514 </v>
    <v>       0.74714319       0.49172365       0.12971306 </v>
    <v>       0.75539681       0.50377527       0.61904358 </v>
    <v>       0.24581177       0.00191729       0.37791048 </v>
    <v>       0.24566201       0.00123291       0.87906867 </v>
    <v>       0.24805442       0.50041808       0.37421815 </v>
    <v>       0.24855247       0.49577737       0.88110036 </v>
    <v>       0.75268649       0.00577194       0.37407199 </v>
    <v>       0.75368302       0.99699584       0.87804021 </v>
    <v>       0.74958621       0.49429933       0.37281259 </v>
    <v>       0.74765353       0.50581685       0.88389176 </v>
    <v>       0.75003390       0.74902446       0.50185839 </v>
    <v>       0.99867877       0.50087081       0.24585256 </v>
    <v>       0.74924592       0.25178781       0.99793203 </v>
    <v>       0.00110294       0.50159816       0.00385391 </v>
    <v>       0.75512851       0.74731684       0.74657699 </v>
    <v>       0.00038910       0.99911058       0.00206877 </v>
    <v>       0.24363376       0.74373509       0.74717503 </v>
    <v>       0.24988648       0.25174465       0.50169069 </v>
    <v>       0.49772217       0.99892872       0.24695895 </v>
    <v>       0.00696445       0.99949983       0.75113072 </v>
    <v>       0.25273655       0.75104898       0.50412762 </v>
    <v>       0.49827732       0.00095371       0.00471191 </v>
    <v>       0.49879617       0.50247368       0.00631164 </v>
    <v>       0.74689485       0.25074179       0.50468695 </v>
    <v>       0.99907743       0.00135183       0.24886621 </v>
    <v>       0.49799286       0.50077289       0.24727542 </v>
    <v>       0.00070984       0.00033601       0.49765781 </v>
    <v>       0.25394341       0.25599867       0.74521952 </v>
    <v>       0.74953577       0.25061371       0.25460465 </v>
    <v>       0.25295548       0.24919084       0.98835597 </v>
    <v>       0.78287766       0.25257311       0.74716315 </v>
    <v>       0.49885629       0.50218964       0.48950549 </v>
    <v>       0.00679588       0.50261646       0.76225087 </v>
    <v>       0.24805916       0.25103977       0.26056642 </v>
    <v>       0.49926437       0.99798526       0.48714158 </v>
    <v>       0.74655310       0.75110757       0.98763639 </v>
    <v>       0.74967986       0.74860730       0.26093024 </v>
    <v>       0.00018204       0.50175551       0.48875940 </v>
    <v>       0.24504199       0.74758810       0.99183927 </v>
    <v>       0.49083283       0.97574381       0.76276631 </v>
    <v>       0.25049415       0.75005296       0.25965905 </v>
    <v>       0.48543672       0.51197087       0.76272336 </v>
    <v>       0.12301219       0.13197104       0.23831598 </v>
    <v>       0.12084767       0.13231126       0.75129393 </v>
    <v>       0.12264758       0.63102864       0.23641767 </v>
    <v>       0.10207413       0.63701491       0.73027795 </v>
    <v>       0.61936077       0.12760665       0.25453801 </v>
    <v>       0.88635870       0.85938027       0.75837358 </v>
    <v>       0.12319179       0.36647957       0.00593256 </v>
    <v>       0.37526012       0.36863780       0.24120896 </v>
    <v>       0.42804228       0.35749757       0.74131761 </v>
    <v>       0.37300794       0.86897222       0.23161189 </v>
    <v>       0.38992304       0.84255012       0.75938471 </v>
    <v>       0.89896427       0.37310241       0.73051065 </v>
    <v>       0.74906001       0.73532278       0.37916967 </v>
    <v>       0.48994224       0.51013820       0.37075601 </v>
    <v>       0.49058029       0.98555342       0.36905837 </v>
    <v>       0.36852117       0.62341872       0.23592806 </v>
    <v>       0.87015235       0.12268585       0.25350787 </v>
    <v>       0.86584387       0.10751986       0.75621767 </v>
    <v>       0.86820870       0.62497492       0.23566040 </v>
    <v>       0.85985476       0.61151761       0.75560428 </v>
    <v>       0.12881368       0.37857862       0.23910878 </v>
    <v>       0.14814464       0.39357860       0.74881233 </v>
    <v>       0.12813568       0.87674896       0.24228088 </v>
    <v>       0.14059994       0.88591269       0.75572905 </v>
    <v>       0.62611597       0.37886457       0.25542495 </v>
    <v>       0.62936137       0.87442842       0.24291558 </v>
    <v>       0.13203331       0.12172473       0.00483744 </v>
    <v>       0.98678991       0.00871861       0.12307279 </v>
    <v>       0.37269832       0.38259978       0.50764536 </v>
    <v>       0.36549404       0.88097323       0.00204097 </v>
    <v>       0.86950583       0.37946392       0.98559951 </v>
    <v>       0.87266695       0.37807652       0.51350434 </v>
    <v>       0.86453620       0.87913927       0.00194116 </v>
    <v>       0.87166645       0.87690251       0.49399820 </v>
    <v>       0.87506040       0.87048509       0.24448066 </v>
    <v>       0.12798614       0.12405886       0.49962927 </v>
    <v>       0.13076894       0.62178422       0.02166217 </v>
    <v>       0.12935726       0.62130061       0.50856522 </v>
    <v>       0.63199650       0.12164458       0.99550039 </v>
    <v>       0.62428130       0.11667800       0.50608638 </v>
    <v>       0.63359605       0.62343796       0.01580375 </v>
    <v>       0.62711355       0.61982490       0.51047302 </v>
    <v>       0.11767667       0.37599267       0.50848300 </v>
    <v>       0.12089771       0.86756649       0.01299106 </v>
    <v>       0.87738105       0.37345387       0.25756190 </v>
    <v>       0.61940932       0.37200960       0.99736637 </v>
    <v>       0.61835019       0.37614683       0.50679108 </v>
    <v>       0.61838920       0.86895920       0.00867848 </v>
    <v>       0.62118628       0.87063021       0.50578453 </v>
    <v>       0.87827204       0.13341311       0.98536642 </v>
    <v>       0.37779534       0.12763325       0.49841136 </v>
    <v>       0.37594586       0.88215309       0.51390060 </v>
    <v>       0.38209946       0.62749549       0.51670008 </v>
    <v>       0.37905930       0.13579515       0.01585428 </v>
    <v>       0.87536279       0.13044320       0.50763742 </v>
    <v>       0.87833727       0.63303786       0.99880024 </v>
    <v>       0.88242548       0.62464181       0.51313448 </v>
    <v>       0.63670445       0.90264845       0.73354076 </v>
    <v>       0.36819430       0.12281277       0.24396630 </v>
    <v>       0.98252845       0.48582966       0.12296781 </v>
    <v>       0.49820262       0.00878897       0.87899442 </v>
    <v>       0.50886829       0.00701009       0.12487572 </v>
    <v>       0.36816091       0.38207501       0.00293188 </v>
    <v>       0.61364752       0.60645827       0.72475572 </v>
    <v>       0.00330648       0.00366775       0.37110752 </v>
    <v>       0.01001787       0.99329946       0.87854967 </v>
    <v>       0.00291063       0.51132110       0.37016895 </v>
    <v>       0.01827143       0.50893882       0.88023090 </v>
    <v>       0.50472863       0.48837901       0.12557415 </v>
    <v>       0.00134635       0.99367831       0.62810960 </v>
    <v>       0.40492186       0.09930641       0.71693874 </v>
    <v>       0.50209750       0.51682506       0.88082438 </v>
    <v>       0.24647855       0.26011800       0.37838547 </v>
    <v>       0.26650093       0.24084086       0.86851751 </v>
    <v>       0.26393383       0.74482414       0.37883165 </v>
    <v>       0.23593997       0.72894894       0.87379418 </v>
    <v>       0.74674646       0.25163978       0.38343828 </v>
    <v>       0.71891561       0.26709674       0.85533456 </v>
    <v>       0.34924171       0.60185924       0.74125283 </v>
    <v>       0.72029020       0.74802172       0.86827394 </v>
    <v>       0.12495906       0.87121061       0.49382309 </v>
    <v>       0.24975953       0.24898943       0.62483999 </v>
    <v>       0.62188030       0.62946853       0.24021024 </v>
    <v>       0.24634489       0.76342804       0.62701417 </v>
    <v>       0.75397182       0.25186379       0.12017192 </v>
    <v>       0.71787119       0.24625392       0.63861793 </v>
    <v>       0.37831288       0.63570915       0.01419899 </v>
    <v>       0.75969684       0.75524492       0.62619174 </v>
   </varray>
  </structure>
  <varray name="forces" >
   <v>       0.00122395       0.00501053      -0.00287008 </v>
   <v>      -0.00183285      -0.00175749       0.01853839 </v>
   <v>      -0.00471175       0.00735478       0.00006535 </v>
   <v>       0.00250876      -0.00401084       0.01398424 </v>
   <v>       0.00220911      -0.00309712      -0.00200983 </v>
   <v>      -0.00802546      -0.00188810      -0.00650658 </v>
   <v>      -0.00074090       0.00239698       0.00341251 </v>
   <v>      -0.00656374       0.00226902      -0.00250166 </v>
   <v>       0.00294927      -0.00008363      -0.00512805 </v>
   <v>       0.00256041      -0.00761970      -0.01313628 </v>
   <v>      -0.00397703      -0.00060908      -0.00517841 </v>
   <v>      -0.00018162       0.00352898       0.01331342 </v>
   <v>       0.00014012      -0.00555102      -0.00377841 </v>
   <v>       0.00765292       0.00122020       0.00100117 </v>
   <v>      -0.00305247       0.00731966      -0.00189984 </v>
   <v>       0.00233675       0.00297546      -0.00421666 </v>
   <v>       0.00177850      -0.00228081       0.00378359 </v>
   <v>       0.00151568       0.00844219       0.00622342 </v>
   <v>      -0.01015197       0.00047537       0.00257163 </v>
   <v>      -0.00535053      -0.00493934       0.00287559 </v>
   <v>      -0.00391183       0.00143525       0.00416707 </v>
   <v>      -0.01214263      -0.00448700       0.00624532 </v>
   <v>       0.00586769       0.00176421       0.00284273 </v>
   <v>      -0.00031060      -0.00714568       0.00225476 </v>
   <v>      -0.00454943       0.00147045      -0.00261411 </v>
   <v>      -0.00061333      -0.00470609      -0.00394745 </v>
   <v>       0.00222393      -0.00522442      -0.00515649 </v>
   <v>       0.00937909       0.00565348       0.00797512 </v>
   <v>      -0.00462938      -0.00605858      -0.00514048 </v>
   <v>       0.00810344      -0.00172771       0.01119043 </v>
   <v>       0.00031785       0.00205203      -0.00016549 </v>
   <v>      -0.00058721       0.00547834      -0.00169207 </v>
   <v>      -0.00799952       0.00597031      -0.02195351 </v>
   <v>      -0.00815103      -0.01295595      -0.01213375 </v>
   <v>      -0.00248667      -0.01612251      -0.00688729 </v>
   <v>       0.00995303       0.00926117       0.02693490 </v>
   <v>      -0.00009534       0.00199603       0.03288320 </v>
   <v>      -0.02075493      -0.00620826       0.00826220 </v>
   <v>       0.00807397       0.01619141       0.02098403 </v>
   <v>      -0.01111452      -0.00591403      -0.01138268 </v>
   <v>       0.00891005      -0.00294893      -0.01796475 </v>
   <v>       0.00326670       0.00464394       0.01513747 </v>
   <v>      -0.00216059      -0.01330002       0.00827273 </v>
   <v>       0.01690713      -0.00074543       0.00656464 </v>
   <v>      -0.00622985       0.01789918      -0.01682747 </v>
   <v>      -0.01136063       0.00874570      -0.00141095 </v>
   <v>      -0.00552828      -0.00303659      -0.01421766 </v>
   <v>       0.00160372      -0.02078772      -0.02291096 </v>
   <v>       0.00976532      -0.00109106      -0.00183347 </v>
   <v>      -0.01484365      -0.00250694       0.00016075 </v>
   <v>      -0.00910372       0.00491260      -0.00394415 </v>
   <v>      -0.00234020       0.01342524       0.00287487 </v>
   <v>       0.00386980      -0.00237270       0.02344939 </v>
   <v>       0.00626847       0.00444066      -0.01065426 </v>
   <v>      -0.00545961       0.00416739       0.00435586 </v>
   <v>       0.00734729       0.01410846       0.00287861 </v>
   <v>      -0.00101481      -0.00867340      -0.01459797 </v>
   <v>      -0.00803000       0.00880048      -0.01300350 </v>
   <v>      -0.00072342       0.00242618       0.00094761 </v>
   <v>       0.00760647       0.00467034      -0.01508353 </v>
   <v>      -0.00586271      -0.00788964       0.00570228 </v>
   <v>      -0.00295694       0.01188537       0.01217894 </v>
   <v>      -0.00069765      -0.00233268      -0.01371890 </v>
   <v>      -0.00407178       0.01657648       0.01030423 </v>
   <v>       0.00115226      -0.00676353      -0.01261569 </v>
   <v>      -0.00084133      -0.00283096       0.00179412 </v>
   <v>       0.00951225       0.00411261      -0.00480014 </v>
   <v>      -0.01396176      -0.01287987      -0.00380246 </v>
   <v>       0.00644233      -0.00227065      -0.00550548 </v>
   <v>       0.00842166       0.00411075      -0.00821015 </v>
   <v>       0.00560435       0.00347098      -0.01199565 </v>
   <v>      -0.00331723      -0.00448081      -0.00137730 </v>
   <v>      -0.01352808       0.00209408      -0.00767593 </v>
   <v>       0.00025967      -0.01123923       0.00430640 </v>
   <v>      -0.00243579       0.00356647       0.00679276 </v>
   <v>       0.00004083       0.00924422       0.00602196 </v>
   <v>      -0.00779052      -0.00477995       0.01254387 </v>
   <v>      -0.00090654       0.00219616       0.01946107 </v>
   <v>       0.00156956       0.00756424       0.02724310 </v>
   <v>       0.00143623       0.00565940      -0.00674734 </v>
   <v>       0.01466547       0.00658997       0.00963667 </v>
   <v>       0.00139546      -0.00584297      -0.00283770 </v>
   <v>       0.00141737       0.00630146       0.00669686 </v>
   <v>       0.01267013      -0.00966796      -0.01414583 </v>
   <v>       0.00408000       0.00347049      -0.00701104 </v>
   <v>      -0.00105888       0.00006135      -0.00808693 </v>
   <v>      -0.00012330      -0.00377730       0.00191588 </v>
   <v>      -0.00952541      -0.01392576      -0.00236959 </v>
   <v>       0.00262396       0.00467307      -0.00925677 </v>
   <v>       0.00004212      -0.00618416      -0.00298521 </v>
   <v>       0.00538340       0.01023101       0.00572840 </v>
   <v>      -0.00879180      -0.00619655       0.00908294 </v>
   <v>       0.00052542       0.00376876       0.00432261 </v>
   <v>      -0.00039656      -0.00346380       0.00636779 </v>
   <v>       0.00773397      -0.00491988      -0.01524189 </v>
   <v>       0.00473230       0.00310131      -0.00554960 </v>
   <v>       0.00063665      -0.01322031      -0.00098357 </v>
   <v>       0.00492850       0.00014680      -0.00735216 </v>
   <v>      -0.00830564       0.00366821      -0.00036255 </v>
   <v>      -0.00706222       0.00100725       0.00690216 </v>
   <v>      -0.00041209       0.00102772       0.00349911 </v>
   <v>       0.00006776       0.00995978       0.01883708 </v>
   <v>      -0.00993636      -0.00198844      -0.00199607 </v>
   <v>      -0.00117541      -0.00135384       0.00825362 </v>
   <v>       0.00635418      -0.00271954       0.00558998 </v>
   <v>      -0.00526831       0.00628363       0.01083974 </v>
   <v>      -0.00407185      -0.00250971       0.00054340 </v>
   <v>       0.00640018       0.00949399      -0.00055960 </v>
   <v>      -0.00597386       0.00106964       0.00798917 </v>
   <v>       0.01657619       0.01109191      -0.00159727 </v>
   <v>       0.01474292      -0.00156840       0.01140675 </v>
   <v>       0.00431190      -0.00419132       0.00220144 </v>
   <v>      -0.00485950       0.00963435       0.00572394 </v>
   <v>       0.00317343      -0.00255723      -0.00155762 </v>
   <v>       0.00479426       0.00011783       0.00396553 </v>
   <v>       0.00916277       0.00255650      -0.00120923 </v>
   <v>      -0.01508641      -0.00310636      -0.00063347 </v>
   <v>      -0.00613164      -0.00722284      -0.00620497 </v>
   <v>       0.00220671       0.00110497      -0.00081677 </v>
   <v>      -0.01118298      -0.00283636       0.00686539 </v>
   <v>      -0.00595975      -0.01048044       0.00206635 </v>
   <v>      -0.00531103      -0.00727459       0.00143361 </v>
   <v>       0.00893630       0.00954516      -0.00347649 </v>
   <v>       0.01007635       0.00273256      -0.00623992 </v>
   <v>       0.00615870       0.01186039      -0.01380501 </v>
   <v>      -0.00641607      -0.00777027      -0.00038245 </v>
   <v>      -0.01308356      -0.00685240       0.00730062 </v>
   <v>       0.00134704       0.00603779       0.00933001 </v>
   <v>      -0.00579371       0.01055062       0.00777465 </v>
   <v>       0.00503908       0.00517398      -0.01652836 </v>
   <v>       0.00522167       0.00104591       0.00501091 </v>
   <v>      -0.00978090       0.00052797      -0.02145018 </v>
   <v>      -0.00730158      -0.01019016       0.00620793 </v>
   <v>       0.00357751       0.00234975      -0.00756673 </v>
   <v>       0.00566644      -0.01312719      -0.01660385 </v>
   <v>       0.00386029      -0.01002834      -0.01613188 </v>
   <v>      -0.00828550      -0.00870828       0.01356557 </v>
   <v>       0.00411259       0.00461086      -0.00639085 </v>
   <v>      -0.01340744      -0.00812710       0.02032257 </v>
   <v>      -0.00018296       0.00421670      -0.00332639 </v>
   <v>       0.00529876      -0.00836360       0.00400747 </v>
   <v>       0.00189086      -0.00735518      -0.00377711 </v>
   <v>       0.00704225       0.01962470      -0.01158451 </v>
   <v>       0.00318813      -0.01489006      -0.01141731 </v>
   <v>      -0.00170948      -0.00700298       0.00974370 </v>
   <v>       0.01115154       0.01002463       0.00770457 </v>
   <v>       0.00811307       0.00320349      -0.00528383 </v>
   <v>       0.01289189      -0.00003612      -0.02410732 </v>
   <v>       0.00093564       0.00371896       0.00775163 </v>
   <v>       0.01251115       0.00026620      -0.01428127 </v>
   <v>       0.00377864      -0.01263698       0.00558858 </v>
   <v>       0.00349252       0.00157745      -0.00436822 </v>
  </varray>
  <varray name="stress" >
   <v>      -0.03177356       0.06004746       0.07432576 </v>
   <v>       0.06004726      -0.01151423      -0.05551126 </v>
   <v>       0.07432596      -0.05551092      -0.18122704 </v>
  </varray>
  <energy>
   <i name="e_fr_energy">  -1057.17444413 </i>
   <i name="e_wo_entrp">  -1057.17444413 </i>
   <i name="e_0_energy">     -0.00000000 </i>
  </energy>
  <time name="totalsc"> 1020.12 1022.54</time>
 </calculation>
 <calculation>
  <scstep>
   <time name="dav">  283.26  283.29</time>
   <time name="total">  287.02  287.10</time>
   <energy>
    <i name="alphaZ">   5628.41886967 </i>
    <i name="ewald"> -62458.48123686 </i>
    <i name="hartreedc"> -17162.30321156 </i>
    <i name="XCdc">   3185.69939007 </i>
    <i name="pawpsdc"> 113152.64615392 </i>
    <i name="pawaedc">-112357.71831067 </i>
    <i name="eentropy">     -0.00000000 </i>
    <i name="bandstr">  -7095.61196551 </i>
    <i name="atom">  76050.17612637 </i>
    <i name="e_fr_energy">  -1057.17418457 </i>
    <i name="e_wo_entrp">  -1057.17418457 </i>
    <i name="e_0_energy">  -1057.17418457 </i>
   </energy>
  </scstep>
  <scstep>
   <time name="diag">   33.14   33.15</time>
   <time name="diis">   52.11   52.11</time>
   <time name="orth">   18.75   18.75</time>
   <time name="total">  107.77  107.84</time>
   <energy>
    <i name="e_fr_energy">  -1057.17507790 </i>
    <i name="e_wo_entrp">  -1057.17507790 </i>
    <i name="e_0_energy">  -1057.17507790 </i>
   </energy>
  </scstep>
  <scstep>
   <time name="diag">   33.13   33.14</time>
   <time name="diis">   43.41   43.43</time>
   <time name="orth">   18.77   18.76</time>
   <time name="total">   99.09   99.21</time>
   <energy>
    <i name="e_fr_energy">  -1057.17512998 </i>
    <i name="e_wo_entrp">  -1057.17512998 </i>
    <i name="e_0_energy">  -1057.17512998 </i>
   </energy>
  </scstep>
  <scstep>
   <time name="diag">   33.13   33.12</time>
   <time name="diis">   32.85   32.86</time>
   <time name="orth">   18.75   18.74</time>
   <time name="total">   88.50   88.57</time>
   <energy>
    <i name="e_fr_energy">  -1057.17507643 </i>
    <i name="e_wo_entrp">  -1057.17507643 </i>
    <i name="e_0_energy">  -1057.17507643 </i>
   </energy>
  </scstep>
  <scstep>
   <time name="diag">   33.17   33.18</time>
   <time name="diis">   32.56   32.57</time>
   <time name="orth">   18.75   18.75</time>
   <time name="total">   88.25   88.33</time>
   <energy>
    <i name="e_fr_energy">  -1057.17505337 </i>
    <i name="e_wo_entrp">  -1057.17505337 </i>
    <i name="e_0_energy">  -1057.17505337 </i>
   </energy>
  </scstep>
  <scstep>
   <time name="diag">   33.13   33.16</time>
   <time name="diis">   31.44   31.48</time>
   <time name="orth">   18.75   18.75</time>
   <time name="total">   87.12   87.23</time>
   <energy>
    <i name="e_fr_energy">  -1057.17505572 </i>
    <i name="e_wo_entrp">  -1057.17505572 </i>
    <i name="e_0_energy">  -1057.17505572 </i>
   </energy>
  </scstep>
  <scstep>
   <time name="diag">   33.10   33.13</time>
   <time name="diis">   30.29   30.31</time>
   <time name="orth">   18.72   18.72</time>
   <time name="total">   85.87   85.98</time>
   <energy>
    <i name="e_fr_energy">  -1057.17505648 </i>
    <i name="e_wo_entrp">  -1057.17505648 </i>
    <i name="e_0_energy">  -1057.17505648 </i>
   </energy>
  </scstep>
  <scstep>
   <time name="diag">   33.14   33.16</time>
   <time name="diis">   28.83   28.83</time>
   <time name="orth">   18.71   18.71</time>
   <time name="total">   81.25   81.37</time>
   <energy>
    <i name="alphaZ">   5628.41886967 </i>
    <i name="ewald"> -62458.48123686 </i>
    <i name="hartreedc"> -17161.00123942 </i>
    <i name="XCdc">   3185.60865324 </i>
    <i name="pawpsdc"> 113166.14242472 </i>
    <i name="pawaedc">-112371.23515887 </i>
    <i name="eentropy">     -0.00000000 </i>
    <i name="bandstr">  -7096.80349605 </i>
    <i name="atom">  76050.17612637 </i>
    <i name="e_fr_energy">  -1057.17505720 </i>
    <i name="e_wo_entrp">  -1057.17505720 </i>
    <i name="e_0_energy">  -1057.17505720 </i>
   </energy>
  </scstep>
  <structure>
   <crystal>
    <varray name="basis" >
     <v>      11.20576045      -0.01518954      -0.01552276 </v>
     <v>      -0.01518189      11.19945135      -0.00630797 </v>
     <v>      -0.02271185      -0.00898105      15.94417245 </v>
    </varray>
    <i name="volume">   2000.95937301 </i>
    <varray name="rec_basis" >
     <v>       0.08924016       0.00012104       0.00012719 </v>
     <v>       0.00012110       0.08929028       0.00005047 </v>
     <v>       0.00008693       0.00003544       0.06271898 </v>
    </varray>
   </crystal>
   <varray name="positions" >
    <v>       0.99133949       0.24986456       0.12884218 </v>
    <v>       0.01111229       0.24175668       0.61883396 </v>
    <v>       0.99690651       0.75147938       0.12716363 </v>
    <v>       0.00260561       0.76106676       0.61707384 </v>
    <v>       0.50902166       0.24976196       0.13007650 </v>
    <v>       0.49206378       0.24460016       0.61331731 </v>
    <v>       0.50228824       0.75047272       0.12859244 </v>
    <v>       0.50279829       0.75025797       0.62145871 </v>
    <v>       0.99438476       0.24631043       0.37589055 </v>
    <v>       0.01274120       0.24826143       0.87956951 </v>
    <v>       0.99918111       0.75637999       0.37560566 </v>
    <v>       0.00089116       0.75027365       0.87626463 </v>
    <v>       0.50175183       0.25060333       0.37174046 </v>
    <v>       0.49659250       0.25080702       0.88328555 </v>
    <v>       0.50286101       0.74921525       0.37358310 </v>
    <v>       0.49159756       0.75078226       0.89113573 </v>
    <v>       0.24807411       0.00258763       0.12720740 </v>
    <v>       0.24381370       0.00368309       0.62080784 </v>
    <v>       0.25082673       0.49822994       0.12749624 </v>
    <v>       0.24603598       0.49849957       0.61957638 </v>
    <v>       0.74884513       0.00919721       0.12923138 </v>
    <v>       0.76318860       0.99733990       0.61751398 </v>
    <v>       0.74716848       0.49173129       0.12972169 </v>
    <v>       0.75539544       0.50374450       0.61905039 </v>
    <v>       0.24579218       0.00192359       0.37790255 </v>
    <v>       0.24565931       0.00121263       0.87905672 </v>
    <v>       0.24806393       0.50039558       0.37420255 </v>
    <v>       0.24859293       0.49580180       0.88112453 </v>
    <v>       0.75266650       0.00574581       0.37405641 </v>
    <v>       0.75371797       0.99698847       0.87807410 </v>
    <v>       0.74958759       0.49430817       0.37281209 </v>
    <v>       0.74765102       0.50584044       0.88388665 </v>
    <v>       0.74999936       0.74905008       0.50179194 </v>
    <v>       0.99864353       0.50081492       0.24581580 </v>
    <v>       0.74923507       0.25171833       0.99791116 </v>
    <v>       0.00114602       0.50163818       0.00393546 </v>
    <v>       0.75512832       0.74732552       0.74667648 </v>
    <v>       0.00029976       0.99908374       0.00209367 </v>
    <v>       0.24366874       0.74380493       0.74723857 </v>
    <v>       0.24983852       0.25171908       0.50165619 </v>
    <v>       0.49776040       0.99891603       0.24690463 </v>
    <v>       0.00697864       0.99951989       0.75117654 </v>
    <v>       0.25272722       0.75099170       0.50415262 </v>
    <v>       0.49835015       0.00095062       0.00473184 </v>
    <v>       0.49876935       0.50255070       0.00626073 </v>
    <v>       0.74684598       0.25077939       0.50468265 </v>
    <v>       0.99905352       0.00133868       0.24882316 </v>
    <v>       0.49799950       0.50068330       0.24720608 </v>
    <v>       0.00075186       0.00033136       0.49765230 </v>
    <v>       0.25387949       0.25598778       0.74521994 </v>
    <v>       0.74949658       0.25063480       0.25459269 </v>
    <v>       0.25294550       0.24924867       0.98836468 </v>
    <v>       0.78289445       0.25256297       0.74723411 </v>
    <v>       0.49888323       0.50220878       0.48947329 </v>
    <v>       0.00677243       0.50263439       0.76226404 </v>
    <v>       0.24809089       0.25110060       0.26057519 </v>
    <v>       0.49925986       0.99794785       0.48709739 </v>
    <v>       0.74651850       0.75114540       0.98759703 </v>
    <v>       0.74967676       0.74861775       0.26093311 </v>
    <v>       0.00021472       0.50177564       0.48871380 </v>
    <v>       0.24501674       0.74755410       0.99185649 </v>
    <v>       0.49082024       0.97579502       0.76280317 </v>
    <v>       0.25049105       0.75004288       0.25961753 </v>
    <v>       0.48541935       0.51204227       0.76275455 </v>
    <v>       0.12301703       0.13194188       0.23827780 </v>
    <v>       0.12084405       0.13229907       0.75129935 </v>
    <v>       0.12268853       0.63104640       0.23640320 </v>
    <v>       0.10201392       0.63695933       0.73026636 </v>
    <v>       0.61938846       0.12759690       0.25452138 </v>
    <v>       0.88639493       0.85939801       0.75834878 </v>
    <v>       0.12321587       0.36649453       0.00589629 </v>
    <v>       0.37524580       0.36861847       0.24120477 </v>
    <v>       0.42798400       0.35750649       0.74129433 </v>
    <v>       0.37300902       0.86892382       0.23162491 </v>
    <v>       0.38991261       0.84256548       0.75940525 </v>
    <v>       0.89896454       0.37314225       0.73052888 </v>
    <v>       0.74902652       0.73530217       0.37920758 </v>
    <v>       0.48993847       0.51014770       0.37081489 </v>
    <v>       0.49058727       0.98558608       0.36914081 </v>
    <v>       0.36852734       0.62344309       0.23590766 </v>
    <v>       0.87021558       0.12271435       0.25353710 </v>
    <v>       0.86584982       0.10749470       0.75620908 </v>
    <v>       0.86821488       0.62500209       0.23568067 </v>
    <v>       0.85990916       0.61147601       0.75556152 </v>
    <v>       0.12883122       0.37859358       0.23908759 </v>
    <v>       0.14814003       0.39357884       0.74878785 </v>
    <v>       0.12813514       0.87673270       0.24228667 </v>
    <v>       0.14055883       0.88585264       0.75572182 </v>
    <v>       0.62612724       0.37888469       0.25539696 </v>
    <v>       0.62936149       0.87440178       0.24290654 </v>
    <v>       0.13205658       0.12176884       0.00485481 </v>
    <v>       0.98675208       0.00869189       0.12310022 </v>
    <v>       0.37270063       0.38261602       0.50765844 </v>
    <v>       0.36549236       0.88095833       0.00206023 </v>
    <v>       0.86953900       0.37944274       0.98555342 </v>
    <v>       0.87268731       0.37808989       0.51348757 </v>
    <v>       0.86453885       0.87908232       0.00193816 </v>
    <v>       0.87168763       0.87690315       0.49397597 </v>
    <v>       0.87502466       0.87050084       0.24447954 </v>
    <v>       0.12795578       0.12406317       0.49965012 </v>
    <v>       0.13076719       0.62178865       0.02167276 </v>
    <v>       0.12935772       0.62134356       0.50862223 </v>
    <v>       0.63195370       0.12163595       0.99549430 </v>
    <v>       0.62427628       0.11667218       0.50611135 </v>
    <v>       0.63362342       0.62342630       0.01582069 </v>
    <v>       0.62709098       0.61985196       0.51050580 </v>
    <v>       0.11765913       0.37598183       0.50848463 </v>
    <v>       0.12092532       0.86760742       0.01298941 </v>
    <v>       0.87735539       0.37345846       0.25758604 </v>
    <v>       0.61948074       0.37205748       0.99736163 </v>
    <v>       0.61841373       0.37614019       0.50682565 </v>
    <v>       0.61840775       0.86894117       0.00868515 </v>
    <v>       0.62116546       0.87067169       0.50580184 </v>
    <v>       0.87828567       0.13340211       0.98536172 </v>
    <v>       0.37781600       0.12763379       0.49842338 </v>
    <v>       0.37598531       0.88216415       0.51389698 </v>
    <v>       0.38203449       0.62748202       0.51669810 </v>
    <v>       0.37903282       0.13576399       0.01583546 </v>
    <v>       0.87537229       0.13044798       0.50763496 </v>
    <v>       0.87828915       0.63302560       0.99882096 </v>
    <v>       0.88239977       0.62459664       0.51314069 </v>
    <v>       0.63668155       0.90261709       0.73354506 </v>
    <v>       0.36823281       0.12285393       0.24395584 </v>
    <v>       0.98257181       0.48584148       0.12294898 </v>
    <v>       0.49822911       0.00884006       0.87895270 </v>
    <v>       0.50884062       0.00697658       0.12487452 </v>
    <v>       0.36810459       0.38204543       0.00295390 </v>
    <v>       0.61365342       0.60648431       0.72478397 </v>
    <v>       0.00328165       0.00371318       0.37113103 </v>
    <v>       0.01003949       0.99332173       0.87849970 </v>
    <v>       0.00293315       0.51132565       0.37018414 </v>
    <v>       0.01822920       0.50894099       0.88016596 </v>
    <v>       0.50469717       0.48833509       0.12559289 </v>
    <v>       0.00136172       0.99368844       0.62808673 </v>
    <v>       0.40494607       0.09924986       0.71688851 </v>
    <v>       0.50211396       0.51678185       0.88077558 </v>
    <v>       0.24644291       0.26008048       0.37842646 </v>
    <v>       0.26651862       0.24086073       0.86849820 </v>
    <v>       0.26387619       0.74478910       0.37889307 </v>
    <v>       0.23593919       0.72896709       0.87378412 </v>
    <v>       0.74676925       0.25160379       0.38345041 </v>
    <v>       0.71892368       0.26706506       0.85532313 </v>
    <v>       0.34927207       0.60194379       0.74121784 </v>
    <v>       0.72030376       0.74795757       0.86823938 </v>
    <v>       0.12495172       0.87118046       0.49385255 </v>
    <v>       0.24980765       0.24903270       0.62486336 </v>
    <v>       0.62191521       0.62948237       0.24019430 </v>
    <v>       0.24640024       0.76342791       0.62694129 </v>
    <v>       0.75397592       0.25187984       0.12019538 </v>
    <v>       0.71792497       0.24625511       0.63857478 </v>
    <v>       0.37832911       0.63565475       0.01421589 </v>
    <v>       0.75971186       0.75525173       0.62617854 </v>
   </varray>
  </structure>
  <varray name="forces" >
   <v>       0.00336283       0.00022289      -0.00391986 </v>
   <v>      -0.00532281       0.00145956       0.00843819 </v>
   <v>      -0.00471171       0.00753297       0.00569365 </v>
   <v>      -0.00359202      -0.00254992       0.00787177 </v>
   <v>      -0.00167117      -0.00037340      -0.00300817 </v>
   <v>      -0.00670493      -0.00165263      -0.00810824 </v>
   <v>      -0.00149103      -0.00138250       0.00757850 </v>
   <v>      -0.00497255       0.00309516      -0.00633096 </v>
   <v>      -0.00248126      -0.00408023       0.00510167 </v>
   <v>       0.00660189       0.00068969      -0.01461724 </v>
   <v>       0.00193250       0.00136437       0.00319538 </v>
   <v>       0.00094593      -0.00124470       0.00371326 </v>
   <v>       0.00015959      -0.00754392       0.00603293 </v>
   <v>       0.00015257       0.00144592      -0.00530152 </v>
   <v>      -0.00874488       0.00399432       0.00427674 </v>
   <v>      -0.00021782       0.00528239      -0.01087798 </v>
   <v>       0.00172629       0.00200069       0.00153881 </v>
   <v>       0.00105328       0.00375270      -0.00081873 </v>
   <v>      -0.00489683      -0.00110994       0.00564707 </v>
   <v>      -0.00386760      -0.00450821       0.00142599 </v>
   <v>      -0.00086859       0.00218397       0.00954954 </v>
   <v>      -0.00802542      -0.00524952      -0.00148880 </v>
   <v>       0.00063514       0.00250607      -0.00196834 </v>
   <v>       0.00259216      -0.00143976      -0.00055693 </v>
   <v>      -0.00432233      -0.00379962       0.00295610 </v>
   <v>       0.00076183       0.00107354      -0.00053793 </v>
   <v>       0.00490443       0.00187632       0.00266867 </v>
   <v>      -0.00155799      -0.00159174      -0.00357506 </v>
   <v>       0.00246108      -0.00002827       0.00754776 </v>
   <v>       0.00632989       0.00076157      -0.00191729 </v>
   <v>       0.00080123       0.00253208       0.00853274 </v>
   <v>       0.00743518       0.00074417      -0.00487189 </v>
   <v>       0.00019303      -0.00062889       0.02438175 </v>
   <v>       0.01021790       0.01061434       0.01975238 </v>
   <v>       0.00169659       0.02008945      -0.00464925 </v>
   <v>       0.00239138      -0.00363684      -0.03784491 </v>
   <v>       0.01077108      -0.00258487      -0.04140358 </v>
   <v>       0.00973083       0.00145788      -0.00356605 </v>
   <v>      -0.01524395      -0.00705886      -0.01873987 </v>
   <v>      -0.00147429      -0.00500373       0.01625935 </v>
   <v>      -0.00184095      -0.00583212       0.02120032 </v>
   <v>      -0.00247673      -0.00686783      -0.02126380 </v>
   <v>      -0.00250660      -0.00320719       0.00653587 </v>
   <v>      -0.01078915       0.00408619      -0.01396534 </v>
   <v>       0.00260525      -0.01873528      -0.00117211 </v>
   <v>       0.00723596      -0.00484973       0.01257843 </v>
   <v>       0.00648190       0.00892335       0.01901100 </v>
   <v>      -0.00354425       0.01771281       0.02262354 </v>
   <v>      -0.00052576      -0.00358166       0.00504919 </v>
   <v>      -0.00873707       0.00783615      -0.00520495 </v>
   <v>       0.00062753      -0.00176885       0.00626216 </v>
   <v>      -0.00071319       0.00051435      -0.00654630 </v>
   <v>       0.00544996       0.00099496      -0.01969658 </v>
   <v>       0.00037510       0.00243794       0.01017790 </v>
   <v>      -0.00413354      -0.00008628      -0.01028350 </v>
   <v>      -0.00113875      -0.00317346       0.00499086 </v>
   <v>      -0.00106920      -0.00082075       0.01524922 </v>
   <v>      -0.00136965      -0.01030480      -0.00310940 </v>
   <v>      -0.00214571      -0.00333719       0.00585392 </v>
   <v>      -0.00184268       0.00385344       0.01174807 </v>
   <v>       0.00038200       0.00654048       0.00263355 </v>
   <v>       0.00455559       0.00290164      -0.00682935 </v>
   <v>      -0.00330469      -0.00709118       0.01255642 </v>
   <v>      -0.00700117      -0.00141476      -0.01960543 </v>
   <v>       0.00603180      -0.00004417      -0.01324344 </v>
   <v>       0.00065655      -0.00304038       0.00474270 </v>
   <v>      -0.00056523      -0.00476917      -0.01056556 </v>
   <v>       0.01156480       0.00514089      -0.00286512 </v>
   <v>       0.00361397      -0.00354689      -0.00978270 </v>
   <v>       0.00337806       0.00081921       0.00472034 </v>
   <v>      -0.00092950       0.01114486      -0.00615985 </v>
   <v>      -0.00097040      -0.00200455      -0.00120084 </v>
   <v>      -0.00423436       0.01241196       0.00070495 </v>
   <v>       0.00544236       0.00200780       0.00059361 </v>
   <v>      -0.00225458       0.00691202       0.01285868 </v>
   <v>      -0.01001335      -0.01110500       0.00797945 </v>
   <v>      -0.00920987      -0.00450703      -0.01754599 </v>
   <v>       0.00100056      -0.00016788      -0.01975263 </v>
   <v>       0.00379047       0.00878606      -0.03269947 </v>
   <v>       0.00673837      -0.00206831      -0.00925123 </v>
   <v>       0.00654810       0.00845153       0.00214117 </v>
   <v>      -0.00218629       0.00022023       0.00657322 </v>
   <v>       0.00677036       0.00115689       0.00249934 </v>
   <v>      -0.00396426       0.00417380      -0.00520984 </v>
   <v>       0.00152829       0.00244847      -0.00951436 </v>
   <v>      -0.00089820      -0.00292956      -0.00384940 </v>
   <v>      -0.00298016      -0.00173622      -0.00309205 </v>
   <v>      -0.00448843      -0.01169343       0.00272803 </v>
[...]
       <r>   -17.1011     0.0000    32.0000 </r>
       <r>   -16.9474     0.0000    32.0000 </r>
       <r>   -16.7938     0.0000    32.0000 </r>
       <r>   -16.6401     0.0000    32.0000 </r>
       <r>   -16.4864     0.0000    32.0000 </r>
       <r>   -16.3327     0.0000    32.0000 </r>
       <r>   -16.1791     0.0000    32.0000 </r>
       <r>   -16.0254     0.0000    32.0000 </r>
       <r>   -15.8717     0.0000    32.0000 </r>
       <r>   -15.7181     0.0000    32.0000 </r>
       <r>   -15.5644     0.0000    32.0000 </r>
       <r>   -15.4107     0.0000    32.0000 </r>
       <r>   -15.2571     0.0000    32.0000 </r>
       <r>   -15.1034     1.5949    32.2451 </r>
       <r>   -14.9497    25.5183    36.1665 </r>
       <r>   -14.7961    52.0824    44.1699 </r>
       <r>   -14.6424    43.3094    50.8252 </r>
       <r>   -14.4887    33.4456    55.9647 </r>
       <r>   -14.3351    29.1507    60.4443 </r>
       <r>   -14.1814    53.1450    68.6110 </r>
       <r>   -14.0277    90.9449    82.5864 </r>
       <r>   -13.8740    89.1961    96.2930 </r>
       <r>   -13.7204    78.3288   108.3297 </r>
       <r>   -13.5667    58.0260   117.2465 </r>
       <r>   -13.4130    17.9108   119.9988 </r>
       <r>   -13.2594     0.0076   120.0000 </r>
       <r>   -13.1057     0.0000   120.0000 </r>
       <r>   -12.9520     0.0020   120.0003 </r>
       <r>   -12.7984    16.6038   122.5518 </r>
       <r>   -12.6447   106.8369   138.9693 </r>
       <r>   -12.4910    98.7988   154.1516 </r>
       <r>   -12.3374    96.2728   168.9457 </r>
       <r>   -12.1837   107.1994   185.4189 </r>
       <r>   -12.0300    82.8880   198.1562 </r>
       <r>   -11.8764    70.4690   208.9851 </r>
       <r>   -11.7227    32.0275   213.9067 </r>
       <r>   -11.5690     7.5247   215.0630 </r>
       <r>   -11.4153     6.0821   215.9976 </r>
       <r>   -11.2617     0.0155   216.0000 </r>
       <r>   -11.1080     0.0000   216.0000 </r>
       <r>   -10.9543     0.0000   216.0000 </r>
       <r>   -10.8007     0.0000   216.0000 </r>
       <r>   -10.6470     0.0000   216.0000 </r>
       <r>   -10.4933     0.0000   216.0000 </r>
       <r>   -10.3397     0.0000   216.0000 </r>
       <r>   -10.1860     0.0000   216.0000 </r>
       <r>   -10.0323     0.0000   216.0000 </r>
       <r>    -9.8787     0.0000   216.0000 </r>
       <r>    -9.7250     0.0000   216.0000 </r>
       <r>    -9.5713     0.0000   216.0000 </r>
       <r>    -9.4177     0.0000   216.0000 </r>
       <r>    -9.2640     0.0000   216.0000 </r>
       <r>    -9.1103     0.0000   216.0000 </r>
       <r>    -8.9566     0.0000   216.0000 </r>
       <r>    -8.8030     0.0000   216.0000 </r>
       <r>    -8.6493     0.0000   216.0000 </r>
       <r>    -8.4956     0.0000   216.0000 </r>
       <r>    -8.3420     0.0000   216.0000 </r>
       <r>    -8.1883     0.0000   216.0000 </r>
       <r>    -8.0346     0.0000   216.0000 </r>
       <r>    -7.8810     0.0000   216.0000 </r>
       <r>    -7.7273     0.0000   216.0000 </r>
       <r>    -7.5736     0.0000   216.0000 </r>
       <r>    -7.4200     0.0000   216.0000 </r>
       <r>    -7.2663     0.0000   216.0000 </r>
       <r>    -7.1126     0.0000   216.0000 </r>
       <r>    -6.9590     0.0000   216.0000 </r>
       <r>    -6.8053     0.0000   216.0000 </r>
       <r>    -6.6516     0.0000   216.0000 </r>
       <r>    -6.4979     0.0000   216.0000 </r>
       <r>    -6.3443     0.0000   216.0000 </r>
       <r>    -6.1906     0.0000   216.0000 </r>
       <r>    -6.0369     0.0000   216.0000 </r>
       <r>    -5.8833     0.0000   216.0000 </r>
       <r>    -5.7296     0.0000   216.0000 </r>
       <r>    -5.5759     0.0000   216.0000 </r>
       <r>    -5.4223     0.0000   216.0000 </r>
       <r>    -5.2686     0.0000   216.0000 </r>
       <r>    -5.1149     0.0000   216.0000 </r>
       <r>    -4.9613     0.0000   216.0000 </r>
       <r>    -4.8076     0.0000   216.0000 </r>
       <r>    -4.6539     0.0000   216.0000 </r>
       <r>    -4.5003     0.0000   216.0000 </r>
       <r>    -4.3466     0.0000   216.0000 </r>
       <r>    -4.1929     0.0000   216.0000 </r>
       <r>    -4.0392     0.0000   216.0000 </r>
       <r>    -3.8856     0.0000   216.0000 </r>
       <r>    -3.7319     0.0000   216.0000 </r>
       <r>    -3.5782     0.0000   216.0000 </r>
       <r>    -3.4246     0.0000   216.0000 </r>
       <r>    -3.2709     0.0000   216.0000 </r>
       <r>    -3.1172     0.0000   216.0000 </r>
       <r>    -2.9636     0.0000   216.0000 </r>
       <r>    -2.8099     0.0000   216.0000 </r>
       <r>    -2.6562     0.0000   216.0000 </r>
       <r>    -2.5026     0.0008   216.0001 </r>
       <r>    -2.3489     5.1446   216.7907 </r>
       <r>    -2.1952    17.4909   219.4785 </r>
       <r>    -2.0416    33.1619   224.5744 </r>
       <r>    -1.8879    26.8742   228.7042 </r>
       <r>    -1.7342    31.4449   233.5363 </r>
       <r>    -1.5805    28.2618   237.8792 </r>
       <r>    -1.4269    38.8632   243.8513 </r>
       <r>    -1.2732    49.6704   251.4840 </r>
       <r>    -1.1195    83.4591   264.3091 </r>
       <r>    -0.9659    73.7270   275.6386 </r>
       <r>    -0.8122    73.3858   286.9157 </r>
       <r>    -0.6585    84.9622   299.9718 </r>
       <r>    -0.5049   102.7037   315.7541 </r>
       <r>    -0.3512    90.9255   329.7265 </r>
       <r>    -0.1975    69.2992   340.3756 </r>
       <r>    -0.0439    44.7398   347.2507 </r>
       <r>     0.1098    43.8614   353.9908 </r>
       <r>     0.2635    53.6281   362.2318 </r>
       <r>     0.4171    59.3816   371.3569 </r>
       <r>     0.5708    66.2680   381.5402 </r>
       <r>     0.7245    59.9639   390.7548 </r>
       <r>     0.8781    53.4928   398.9750 </r>
       <r>     1.0318    52.7806   407.0857 </r>
       <r>     1.1855    55.6820   415.6423 </r>
       <r>     1.3392    65.1495   425.6537 </r>
       <r>     1.4928    75.2610   437.2190 </r>
       <r>     1.6465    78.3412   449.2576 </r>
       <r>     1.8002    78.8544   461.3750 </r>
       <r>     1.9538    47.6579   468.6985 </r>
       <r>     2.1075    49.4938   476.3042 </r>
       <r>     2.2612     5.6700   477.1755 </r>
       <r>     2.4148     8.4466   478.4735 </r>
       <r>     2.5685     9.9135   479.9969 </r>
       <r>     2.7222     0.0204   480.0000 </r>
       <r>     2.8758     0.0000   480.0000 </r>
       <r>     3.0295     0.0000   480.0000 </r>
       <r>     3.1832     0.0000   480.0000 </r>
       <r>     3.3368     0.0000   480.0000 </r>
       <r>     3.4905     0.0000   480.0000 </r>
       <r>     3.6442     0.0000   480.0000 </r>
       <r>     3.7979     0.0000   480.0000 </r>
       <r>     3.9515     0.0000   480.0000 </r>
       <r>     4.1052     0.0000   480.0000 </r>
       <r>     4.2589     0.0003   480.0000 </r>
       <r>     4.4125     5.4343   480.8351 </r>
       <r>     4.5662    33.9109   486.0462 </r>
       <r>     4.7199    53.2196   494.2243 </r>
       <r>     4.8735    58.4206   503.2018 </r>
       <r>     5.0272    44.8253   510.0900 </r>
       <r>     5.1809    58.3603   519.0582 </r>
       <r>     5.3345    94.5528   533.5880 </r>
       <r>     5.4882    67.7579   544.0002 </r>
       <r>     5.6419    67.8287   554.4234 </r>
       <r>     5.7955    56.3295   563.0795 </r>
       <r>     5.9492    75.1281   574.6243 </r>
       <r>     6.1029    81.3498   587.1252 </r>
       <r>     6.2566    80.2728   599.4606 </r>
       <r>     6.4102    51.4053   607.3600 </r>
       <r>     6.5639     4.5138   608.0537 </r>
       <r>     6.7176    12.2380   609.9343 </r>
       <r>     6.8712    10.5713   611.5587 </r>
       <r>     7.0249    11.8670   613.3823 </r>
       <r>     7.1786    13.6340   615.4774 </r>
       <r>     7.3322    17.4707   618.1621 </r>
       <r>     7.4859    19.3698   621.1387 </r>
       <r>     7.6396    20.3106   624.2598 </r>
       <r>     7.7932    13.8505   626.3881 </r>
       <r>     7.9469    26.7805   630.5035 </r>
       <r>     8.1006    29.1838   634.9881 </r>
       <r>     8.2542    24.5259   638.7570 </r>
       <r>     8.4079    20.0341   641.8356 </r>
       <r>     8.5616    25.9055   645.8164 </r>
       <r>     8.7153    40.5830   652.0528 </r>
       <r>     8.8689    32.5053   657.0478 </r>
       <r>     9.0226    32.7908   662.0867 </r>
       <r>     9.1763    33.0125   667.1597 </r>
       <r>     9.3299    36.9691   672.8407 </r>
       <r>     9.4836    45.8210   679.8820 </r>
       <r>     9.6373    48.8332   687.3861 </r>
       <r>     9.7909    53.3846   695.5896 </r>
       <r>     9.9446    62.6622   705.2189 </r>
       <r>    10.0983    63.6723   715.0033 </r>
       <r>    10.2519    59.8161   724.1952 </r>
       <r>    10.4056    57.3034   733.0009 </r>
       <r>    10.5593    53.1639   741.1705 </r>
       <r>    10.7129    46.6785   748.3436 </r>
       <r>    10.8666    47.0135   755.5680 </r>
       <r>    11.0203    58.5992   764.5729 </r>
       <r>    11.1740    22.2888   767.9980 </r>
       <r>    11.3276     0.0130   768.0000 </r>
       <r>    11.4813     0.0000   768.0000 </r>
       <r>    11.6350     0.0000   768.0000 </r>
       <r>    11.7886     0.0000   768.0000 </r>
       <r>    11.9423     0.0000   768.0000 </r>
       <r>    12.0960     0.0000   768.0000 </r>
       <r>    12.2496     0.0000   768.0000 </r>
       <r>    12.4033     0.0000   768.0000 </r>
       <r>    12.5570     0.0000   768.0000 </r>
       <r>    12.7106     0.0000   768.0000 </r>
       <r>    12.8643     0.0000   768.0000 </r>
       <r>    13.0180     0.0000   768.0000 </r>
       <r>    13.1716     0.0000   768.0000 </r>
      </set>
     </set>
    </array>
   </total>
  </dos>
 </calculation>
 <structure name="finalpos" >
  <crystal>
   <varray name="basis" >
    <v>      11.20567666      -0.01520639      -0.01527299 </v>
    <v>      -0.01519894      11.19953965      -0.00652849 </v>
    <v>      -0.02235748      -0.00929487      15.94360891 </v>
   </varray>
   <i name="volume">   2000.88953504 </i>
   <varray name="rec_basis" >
    <v>       0.08924082       0.00012118       0.00012521 </v>
    <v>       0.00012124       0.08928958       0.00005222 </v>
    <v>       0.00008554       0.00003668       0.06272120 </v>
   </varray>
  </crystal>
  <varray name="positions" >
   <v>       0.99135306       0.24987908       0.12882731 </v>
   <v>       0.01109034       0.24175938       0.61888706 </v>
   <v>       0.99687751       0.75152402       0.12717595 </v>
   <v>       0.00259863       0.76104953       0.61711766 </v>
   <v>       0.50902161       0.24975319       0.13006665 </v>
   <v>       0.49202097       0.24458915       0.61328819 </v>
   <v>       0.50228180       0.75047411       0.12861446 </v>
   <v>       0.50276498       0.75027407       0.62144107 </v>
   <v>       0.99438387       0.24629753       0.37589313 </v>
   <v>       0.01276950       0.24824445       0.87951245 </v>
   <v>       0.99917896       0.75638229       0.37559998 </v>
   <v>       0.00089401       0.75027934       0.87629902 </v>
   <v>       0.50175281       0.25056444       0.37174711 </v>
   <v>       0.49661381       0.25081435       0.88327524 </v>
   <v>       0.50282447       0.74924652       0.37359025 </v>
   <v>       0.49160406       0.75080664       0.89110265 </v>
   <v>       0.24808578       0.00258886       0.12721711 </v>
   <v>       0.24382202       0.00372134       0.62081750 </v>
   <v>       0.25078485       0.49822598       0.12751341 </v>
   <v>       0.24601028       0.49847224       0.61958581 </v>
   <v>       0.74883201       0.00920786       0.12926007 </v>
   <v>       0.76313037       0.99730959       0.61752289 </v>
   <v>       0.74718556       0.49174367       0.12972155 </v>
   <v>       0.75540252       0.50372291       0.61905426 </v>
   <v>       0.24576684       0.00191458       0.37790398 </v>
   <v>       0.24566027       0.00120083       0.87904660 </v>
   <v>       0.24808674       0.50038774       0.37419943 </v>
   <v>       0.24861602       0.49581393       0.88113170 </v>
   <v>       0.75265666       0.00572897       0.37406032 </v>
   <v>       0.75376366       0.99698454       0.87809184 </v>
   <v>       0.74959102       0.49432184       0.37283174 </v>
   <v>       0.74767392       0.50585688       0.88387285 </v>
   <v>       0.74997838       0.74905718       0.50181396 </v>
   <v>       0.99866143       0.50082429       0.24584064 </v>
   <v>       0.74923236       0.25175039       0.99788807 </v>
   <v>       0.00118208       0.50164914       0.00388636 </v>
   <v>       0.75516547       0.74732201       0.74663255 </v>
   <v>       0.00028122       0.99906600       0.00210296 </v>
   <v>       0.24362905       0.74381430       0.74723207 </v>
   <v>       0.24980045       0.25168565       0.50167277 </v>
   <v>       0.49777687       0.99888749       0.24692440 </v>
   <v>       0.00696942       0.99952268       0.75115556 </v>
   <v>       0.25271222       0.75094693       0.50418344 </v>
   <v>       0.49835533       0.00096328       0.00470892 </v>
   <v>       0.49876774       0.50252310       0.00622589 </v>
   <v>       0.74684375       0.25078531       0.50471144 </v>
   <v>       0.99906535       0.00136612       0.24884472 </v>
   <v>       0.49799728       0.50070604       0.24720791 </v>
   <v>       0.00077587       0.00031597       0.49766180 </v>
   <v>       0.25380980       0.25600911       0.74520807 </v>
   <v>       0.74947555       0.25064257       0.25460125 </v>
   <v>       0.25293740       0.24928565       0.98835371 </v>
   <v>       0.78292277       0.25255959       0.74722878 </v>
   <v>       0.49890119       0.50222858       0.48947916 </v>
   <v>       0.00674304       0.50264282       0.76224679 </v>
   <v>       0.24810726       0.25112809       0.26059085 </v>
   <v>       0.49925262       0.99791843       0.48710506 </v>
   <v>       0.74648905       0.75113743       0.98756425 </v>
   <v>       0.74966732       0.74861241       0.26094946 </v>
   <v>       0.00022630       0.50180045       0.48871776 </v>
   <v>       0.24499675       0.74754882       0.99187188 </v>
   <v>       0.49082858       0.97583665       0.76281005 </v>
   <v>       0.25047798       0.75001264       0.25962159 </v>
   <v>       0.48538454       0.51207988       0.76272570 </v>
   <v>       0.12303964       0.13192442       0.23822295 </v>
   <v>       0.12084484       0.13228022       0.75131561 </v>
   <v>       0.12271029       0.63103995       0.23636820 </v>
   <v>       0.10202186       0.63694462       0.73025377 </v>
   <v>       0.61942032       0.12757294       0.25448497 </v>
   <v>       0.88642728       0.85941039       0.75834362 </v>
   <v>       0.12322692       0.36654246       0.00586137 </v>
   <v>       0.37523477       0.36860028       0.24119990 </v>
   <v>       0.42793719       0.35755407       0.74128480 </v>
   <v>       0.37302806       0.86890409       0.23163310 </v>
   <v>       0.38989845       0.84259931       0.75945103 </v>
   <v>       0.89892917       0.37312316       0.73055981 </v>
   <v>       0.74897382       0.73527412       0.37918635 </v>
   <v>       0.48994014       0.51015200       0.37080073 </v>
   <v>       0.49060532       0.98563704       0.36910770 </v>
   <v>       0.36855480       0.62344972       0.23587236 </v>
   <v>       0.87027518       0.12275985       0.25355879 </v>
   <v>       0.86584531       0.10747751       0.75621868 </v>
   <v>       0.86824255       0.62502181       0.23569863 </v>
   <v>       0.85993107       0.61146244       0.75552332 </v>
   <v>       0.12884646       0.37861088       0.23905177 </v>
   <v>       0.14813408       0.39356850       0.74876516 </v>
   <v>       0.12812379       0.87671685       0.24228204 </v>
   <v>       0.14051980       0.88577649       0.75572683 </v>
   <v>       0.62614501       0.37890082       0.25536086 </v>
   <v>       0.62934999       0.87438795       0.24288628 </v>
   <v>       0.13203520       0.12178799       0.00488100 </v>
   <v>       0.98668422       0.00864994       0.12309565 </v>
   <v>       0.37270234       0.38262697       0.50766423 </v>
   <v>       0.36551661       0.88092860       0.00208515 </v>
   <v>       0.86957611       0.37939224       0.98550666 </v>
   <v>       0.87270405       0.37810212       0.51345459 </v>
   <v>       0.86454895       0.87902465       0.00193087 </v>
   <v>       0.87170508       0.87688806       0.49394140 </v>
   <v>       0.87496719       0.87052008       0.24446959 </v>
   <v>       0.12794080       0.12408277       0.49967518 </v>
   <v>       0.13077472       0.62181026       0.02168947 </v>
   <v>       0.12933004       0.62136411       0.50869314 </v>
   <v>       0.63192832       0.12162536       0.99548963 </v>
   <v>       0.62426981       0.11667353       0.50613720 </v>
   <v>       0.63363811       0.62341821       0.01583588 </v>
   <v>       0.62704334       0.61987980       0.51053306 </v>
   <v>       0.11764631       0.37596460       0.50848094 </v>
   <v>       0.12094456       0.86764826       0.01298378 </v>
   <v>       0.87733311       0.37348348       0.25760067 </v>
   <v>       0.61956023       0.37211158       0.99735717 </v>
   <v>       0.61846066       0.37616026       0.50685673 </v>
   <v>       0.61843983       0.86892368       0.00868870 </v>
   <v>       0.62115781       0.87070852       0.50581581 </v>
   <v>       0.87828545       0.13336144       0.98536239 </v>
   <v>       0.37781639       0.12765461       0.49843094 </v>
   <v>       0.37602847       0.88217133       0.51388937 </v>
   <v>       0.38198160       0.62744831       0.51668946 </v>
   <v>       0.37902412       0.13571131       0.01582335 </v>
   <v>       0.87537660       0.13046280       0.50762903 </v>
   <v>       0.87823471       0.63302015       0.99886113 </v>
   <v>       0.88236938       0.62454385       0.51313444 </v>
   <v>       0.63664454       0.90258369       0.73357320 </v>
   <v>       0.36829903       0.12290187       0.24393750 </v>
   <v>       0.98261399       0.48584190       0.12295300 </v>
   <v>       0.49827571       0.00890359       0.87896534 </v>
   <v>       0.50881687       0.00693843       0.12486496 </v>
   <v>       0.36807584       0.38205609       0.00298500 </v>
   <v>       0.61365932       0.60652390       0.72484203 </v>
   <v>       0.00325601       0.00376528       0.37110504 </v>
   <v>       0.01006126       0.99334588       0.87850366 </v>
   <v>       0.00296772       0.51132433       0.37013031 </v>
   <v>       0.01817823       0.50896187       0.88018332 </v>
   <v>       0.50465871       0.48827431       0.12556585 </v>
   <v>       0.00138935       0.99370790       0.62809617 </v>
   <v>       0.40497133       0.09918592       0.71683222 </v>
   <v>       0.50212435       0.51674135       0.88078343 </v>
   <v>       0.24639413       0.26003397       0.37841553 </v>
   <v>       0.26654394       0.24088357       0.86849701 </v>
   <v>       0.26379648       0.74474514       0.37889118 </v>
   <v>       0.23594361       0.72898822       0.87381112 </v>
   <v>       0.74678183       0.25156616       0.38341316 </v>
   <v>       0.71891201       0.26701132       0.85535966 </v>
   <v>       0.34931588       0.60205664       0.74118680 </v>
   <v>       0.72030974       0.74788255       0.86826127 </v>
   <v>       0.12493366       0.87116073       0.49388224 </v>
   <v>       0.24986067       0.24907846       0.62487856 </v>
   <v>       0.62195035       0.62948301       0.24016525 </v>
   <v>       0.24647917       0.76343194       0.62695461 </v>
   <v>       0.75397956       0.25188833       0.12020782 </v>
   <v>       0.71801452       0.24625882       0.63857843 </v>
   <v>       0.37833465       0.63560252       0.01422707 </v>
   <v>       0.75971398       0.75526273       0.62620705 </v>
  </varray>
 </structure>
</modeling>
