       N       E                     dE             d eps       ncg     rms          rms(c)
DAV:   1    -0.108693371670E+04   -0.10869E+04   -0.22412E-02 13320   0.351E-01    0.349E-02
RMM:   2    -0.108693371677E+04   -0.69907E-07   -0.33558E-05  6768   0.104E-02    0.589E-02
RMM:   3    -0.108693371672E+04    0.55777E-07   -0.71637E-06  6375   0.563E-03    0.135E-02
RMM:   4    -0.108693371691E+04   -0.19392E-06   -0.29879E-06  4115   0.272E-03    0.711E-03
RMM:   5    -0.108693371705E+04   -0.14069E-06   -0.18545E-06  3900   0.294E-03    0.307E-03
RMM:   6    -0.108693371716E+04   -0.10812E-06   -0.83900E-07  2496   0.202E-03    0.144E-03
RMM:   7    -0.108693371719E+04   -0.31883E-07   -0.51128E-07  2335   0.216E-03    0.940E-04
RMM:   8    -0.108693371720E+04   -0.81054E-08   -0.12228E-07  1723   0.187E-03
   1 F= -.10869337E+04 E0= -.10869337E+04  d E =-.108693E+04  mag=    50.0000
       N       E                     dE             d eps       ncg     rms          rms(c)
DAV:   1    -0.108693346433E+04    0.25286E-03   -0.32591E-01 12480   0.671E-01    0.252E-01
RMM:   2    -0.108693454151E+04   -0.10772E-02   -0.97845E-03 12339   0.135E-01    0.201E-01
RMM:   3    -0.108693457859E+04   -0.37078E-04   -0.50341E-04 10540   0.481E-02    0.118E-01
RMM:   4    -0.108693452588E+04    0.52712E-04   -0.18911E-04  7715   0.186E-02    0.649E-02
RMM:   5    -0.108693452056E+04    0.53218E-05   -0.65240E-05  7273   0.132E-02    0.460E-02
RMM:   6    -0.108693452167E+04   -0.11098E-05   -0.19029E-05  7005   0.845E-03    0.117E-02
RMM:   7    -0.108693452215E+04   -0.48187E-06   -0.88011E-06  6730   0.457E-03    0.843E-03
RMM:   8    -0.108693452265E+04   -0.49427E-06   -0.51795E-06  6301   0.408E-03
   2 F= -.10869345E+04 E0= -.10869345E+04  d E =-.805445E-03  mag=    50.0000
       N       E                     dE             d eps       ncg     rms          rms(c)
DAV:   1    -0.108693452120E+04    0.94931E-06   -0.27311E-03 12768   0.617E-02    0.241E-02
RMM:   2    -0.108693452921E+04   -0.80114E-05   -0.74268E-05  6639   0.132E-02    0.214E-02
RMM:   3    -0.108693453051E+04   -0.13001E-05   -0.83146E-06  6144   0.610E-03    0.102E-02
RMM:   4    -0.108693453027E+04    0.24345E-06   -0.23712E-06  5152   0.291E-03    0.753E-03
RMM:   5    -0.108693453011E+04    0.15720E-06   -0.58696E-07  3204   0.221E-03    0.230E-03
RMM:   6    -0.108693453011E+04   -0.81491E-09   -0.11033E-07  1684   0.191E-03    0.697E-04
RMM:   7    -0.108693453011E+04    0.32014E-08   -0.67917E-10  1246   0.184E-03    0.397E-04
RMM:   8    -0.108693453011E+04    0.33469E-09   -0.17756E-09  1160   0.185E-03
   3 F= -.10869345E+04 E0= -.10869345E+04  d E =-.812910E-03  mag=    50.0000
       N       E                     dE             d eps       ncg     rms          rms(c)
DAV:   1    -0.108693449182E+04    0.38288E-04   -0.25470E-01 12464   0.597E-01    0.173E-01
RMM:   2    -0.108693521032E+04   -0.71850E-03   -0.66834E-03 12377   0.111E-01    0.115E-01
RMM:   3    -0.108693524017E+04   -0.29844E-04   -0.34358E-04  8995   0.438E-02    0.669E-02
RMM:   4    -0.108693521998E+04    0.20182E-04   -0.10588E-04  7200   0.149E-02    0.392E-02
RMM:   5    -0.108693521866E+04    0.13247E-05   -0.36514E-05  7017   0.109E-02    0.339E-02
RMM:   6    -0.108693522012E+04   -0.14597E-05   -0.16089E-05  6861   0.672E-03    0.729E-03
RMM:   7    -0.108693522085E+04   -0.73432E-06   -0.71796E-06  6564   0.486E-03    0.536E-03
RMM:   8    -0.108693522133E+04   -0.47256E-06   -0.45720E-06  5466   0.332E-03
   4 F= -.10869352E+04 E0= -.10869352E+04  d E =-.691215E-03  mag=    50.0000
