<?xml version="1.0" encoding="ISO-8859-1"?>
<modeling>
 <generator>
  <i name="program" type="string">vasp </i>
  <i name="version" type="string">5.4.1  </i>
  <i name="subversion" type="string">05Feb16 (build Jan 25 2017 20:16:33) complex                          parallel </i>
  <i name="platform" type="string">BWXE6 </i>
  <i name="date" type="string">2019 06 18 </i>
  <i name="time" type="string">09:40:52 </i>
 </generator>
 <incar>
  <i type="string" name="SYSTEM"> STF</i>
  <i type="string" name="PREC">normal</i>
  <i type="string" name="ALGO"> Fast</i>
  <i type="int" name="ISPIN">     2</i>
  <i type="int" name="NELM">    40</i>
  <i type="int" name="NELMIN">     8</i>
  <i type="int" name="IBRION">     2</i>
  <i name="EDIFF">      0.00010000</i>
  <i name="EDIFFG">     -0.03000000</i>
  <i type="int" name="NSW">    30</i>
  <i type="int" name="ISIF">     3</i>
  <i name="ENCUT">    520.00000000</i>
  <i type="int" name="NBANDS">   768</i>
  <v name="MAGMOM">      0.60000000      0.60000000      0.60000000      0.60000000      0.60000000      0.60000000      0.60000000      0.60000000      0.60000000      0.60000000      0.60000000      0.60000000      0.60000000      0.60000000      0.60000000      0.60000000      0.60000000      0.60000000      0.60000000      0.60000000
      0.60000000      0.60000000      0.60000000      0.60000000      0.60000000      0.60000000      0.60000000      0.60000000      0.60000000      0.60000000      0.60000000      0.60000000      0.60000000      0.60000000      0.60000000      0.60000000      0.60000000      0.60000000      0.60000000      0.60000000
      0.60000000      0.60000000      0.60000000      0.60000000      0.60000000      0.60000000      0.60000000      0.60000000      0.60000000      0.60000000      0.60000000      0.60000000      5.00000000      5.00000000      5.00000000      5.00000000      5.00000000      5.00000000      5.00000000      5.00000000
      5.00000000      5.00000000      5.00000000      5.00000000      0.60000000      0.60000000      0.60000000      0.60000000      0.60000000      0.60000000      0.60000000      0.60000000      0.60000000      0.60000000      0.60000000      0.60000000      0.60000000      0.60000000      0.60000000      0.60000000
      0.60000000      0.60000000      0.60000000      0.60000000      0.60000000      0.60000000      0.60000000      0.60000000      0.60000000      0.60000000      0.60000000      0.60000000      0.60000000      0.60000000      0.60000000      0.60000000      0.60000000      0.60000000      0.60000000      0.60000000
      0.60000000      0.60000000      0.60000000      0.60000000      0.60000000      0.60000000      0.60000000      0.60000000      0.60000000      0.60000000      0.60000000      0.60000000      0.60000000      0.60000000      0.60000000      0.60000000      0.60000000      0.60000000      0.60000000      0.60000000
      0.60000000      0.60000000      0.60000000      0.60000000      0.60000000      0.60000000      0.60000000      0.60000000      0.60000000      0.60000000      0.60000000      0.60000000      0.60000000      0.60000000      0.60000000      0.60000000      0.60000000      0.60000000      0.60000000      0.60000000
      0.60000000      0.60000000      0.60000000      0.60000000      0.60000000      0.60000000      0.60000000      0.60000000      0.60000000      0.60000000      0.60000000      0.60000000      0.60000000      0.60000000</v>
  <i type="string" name="LREAL"> Auto</i>
  <i type="int" name="ISMEAR">     0</i>
  <i name="SIGMA">      0.05000000</i>
  <i type="int" name="LMAXMIX">     4</i>
  <v type="int" name="KPOINT_BSE">    -1     0     0     0</v>
  <i type="int" name="NELM">    40</i>
  <i type="logical" name="LDAU"> T  </i>
  <v type="int" name="LDAUTYPE">     2</v>
  <v type="int" name="LDAUL">     0     2     2     0</v>
  <v name="LDAUU">      0.00000000      3.00000000      5.00000000      0.00000000</v>
  <v name="LDAUJ">      0.00000000      0.00000000      0.00000000      0.00000000</v>
  <i type="int" name="LDAUPRINT">     1</i>
 </incar>
 <kpoints>
  <generation param="Monkhorst-Pack">
   <v type="int" name="divisions">       2        2        2 </v>
   <v name="usershift">      0.00000000       0.00000000       0.00000000 </v>
   <v name="genvec1">      0.50000000       0.00000000       0.00000000 </v>
   <v name="genvec2">     -0.00000000       0.50000000       0.00000000 </v>
   <v name="genvec3">     -0.00000000       0.00000000       0.50000000 </v>
   <v name="shift">      0.50000000       0.50000000       0.50000000 </v>
  </generation>
  <varray name="kpointlist" >
   <v>       0.25000000       0.25000000       0.25000000 </v>
   <v>      -0.25000000       0.25000000       0.25000000 </v>
   <v>       0.25000000      -0.25000000       0.25000000 </v>
   <v>      -0.25000000      -0.25000000       0.25000000 </v>
  </varray>
  <varray name="weights" >
   <v>       0.25000000 </v>
   <v>       0.25000000 </v>
   <v>       0.25000000 </v>
   <v>       0.25000000 </v>
  </varray>
 </kpoints>
 <parameters>
  <separator name="general" >
   <i type="string" name="SYSTEM">STF</i>
   <i type="logical" name="LCOMPAT"> F  </i>
  </separator>
  <separator name="electronic" >
   <i type="string" name="PREC">normal</i>
   <i name="ENMAX">    520.00000000</i>
   <i name="ENAUG">    605.39200000</i>
   <i name="EDIFF">      0.00010000</i>
   <i type="int" name="IALGO">    68</i>
   <i type="int" name="IWAVPR">    11</i>
   <i type="int" name="NBANDS">   768</i>
   <i name="NELECT">   1036.00000000</i>
   <i type="int" name="TURBO">     0</i>
   <i type="int" name="IRESTART">     0</i>
   <i type="int" name="NREBOOT">     0</i>
   <i type="int" name="NMIN">     0</i>
   <i name="EREF">      0.00000000</i>
   <separator name="electronic smearing" >
    <i type="int" name="ISMEAR">     0</i>
    <i name="SIGMA">      0.05000000</i>
    <i name="KSPACING">      0.50000000</i>
    <i type="logical" name="KGAMMA"> T  </i>
   </separator>
   <separator name="electronic projectors" >
    <i type="logical" name="LREAL"> T  </i>
    <v name="ROPT">     -0.00050000     -0.00050000     -0.00050000     -0.00050000</v>
    <i type="int" name="LMAXPAW">  -100</i>
    <i type="int" name="LMAXMIX">     4</i>
    <i type="logical" name="NLSPLINE"> F  </i>
   </separator>
   <separator name="electronic startup" >
    <i type="int" name="ISTART">     1</i>
    <i type="int" name="ICHARG">     0</i>
    <i type="int" name="INIWAV">     1</i>
   </separator>
   <separator name="electronic spin" >
    <i type="int" name="ISPIN">     2</i>
    <i type="logical" name="LNONCOLLINEAR"> F  </i>
    <v name="MAGMOM">      0.60000000      0.60000000      0.60000000      0.60000000      0.60000000      0.60000000      0.60000000      0.60000000      0.60000000      0.60000000      0.60000000      0.60000000      0.60000000      0.60000000      0.60000000      0.60000000      0.60000000      0.60000000      0.60000000      0.60000000
      0.60000000      0.60000000      0.60000000      0.60000000      0.60000000      0.60000000      0.60000000      0.60000000      0.60000000      0.60000000      0.60000000      0.60000000      0.60000000      0.60000000      0.60000000      0.60000000      0.60000000      0.60000000      0.60000000      0.60000000
      0.60000000      0.60000000      0.60000000      0.60000000      0.60000000      0.60000000      0.60000000      0.60000000      0.60000000      0.60000000      0.60000000      0.60000000      5.00000000      5.00000000      5.00000000      5.00000000      5.00000000      5.00000000      5.00000000      5.00000000
      5.00000000      5.00000000      5.00000000      5.00000000      0.60000000      0.60000000      0.60000000      0.60000000      0.60000000      0.60000000      0.60000000      0.60000000      0.60000000      0.60000000      0.60000000      0.60000000      0.60000000      0.60000000      0.60000000      0.60000000
      0.60000000      0.60000000      0.60000000      0.60000000      0.60000000      0.60000000      0.60000000      0.60000000      0.60000000      0.60000000      0.60000000      0.60000000      0.60000000      0.60000000      0.60000000      0.60000000      0.60000000      0.60000000      0.60000000      0.60000000
      0.60000000      0.60000000      0.60000000      0.60000000      0.60000000      0.60000000      0.60000000      0.60000000      0.60000000      0.60000000      0.60000000      0.60000000      0.60000000      0.60000000      0.60000000      0.60000000      0.60000000      0.60000000      0.60000000      0.60000000
      0.60000000      0.60000000      0.60000000      0.60000000      0.60000000      0.60000000      0.60000000      0.60000000      0.60000000      0.60000000      0.60000000      0.60000000      0.60000000      0.60000000      0.60000000      0.60000000      0.60000000      0.60000000      0.60000000      0.60000000
      0.60000000      0.60000000      0.60000000      0.60000000      0.60000000      0.60000000      0.60000000      0.60000000      0.60000000      0.60000000      0.60000000      0.60000000      0.60000000      0.60000000</v>
    <i name="NUPDOWN">     -1.00000000</i>
    <i type="logical" name="LSORBIT"> F  </i>
    <v name="SAXIS">      0.00000000      0.00000000      1.00000000</v>
    <i type="logical" name="LSPIRAL"> F  </i>
    <v name="QSPIRAL">      0.00000000      0.00000000      0.00000000</v>
    <i type="logical" name="LZEROZ"> F  </i>
   </separator>
   <separator name="electronic exchange-correlation" >
    <i type="logical" name="LASPH"> F  </i>
    <i type="logical" name="LMETAGGA"> F  </i>
   </separator>
   <separator name="electronic convergence" >
    <i type="int" name="NELM">    40</i>
    <i type="int" name="NELMDL">     0</i>
    <i type="int" name="NELMIN">     8</i>
    <i name="ENINI">    520.00000000</i>
    <separator name="electronic convergence detail" >
     <i type="logical" name="LDIAG"> T  </i>
     <i type="logical" name="LSUBROT"> F  </i>
     <i name="WEIMIN">      0.00100000</i>
     <i name="EBREAK">      0.00000003</i>
     <i name="DEPER">      0.30000000</i>
     <i type="int" name="NRMM">     4</i>
     <i name="TIME">      0.40000000</i>
    </separator>
   </separator>
   <separator name="electronic mixer" >
    <i name="AMIX">      0.40000000</i>
    <i name="BMIX">      1.00000000</i>
    <i name="AMIN">      0.10000000</i>
    <i name="AMIX_MAG">      1.60000000</i>
    <i name="BMIX_MAG">      1.00000000</i>
    <separator name="electronic mixer details" >
     <i type="int" name="IMIX">     4</i>
     <i type="logical" name="MIXFIRST"> F  </i>
     <i type="int" name="MAXMIX">   -45</i>
     <i name="WC">    100.00000000</i>
     <i type="int" name="INIMIX">     1</i>
     <i type="int" name="MIXPRE">     1</i>
     <i type="int" name="MREMOVE">     5</i>
    </separator>
   </separator>
   <separator name="electronic dipolcorrection" >
    <i type="logical" name="LDIPOL"> F  </i>
    <i type="logical" name="LMONO"> F  </i>
    <i type="int" name="IDIPOL">     0</i>
    <i name="EPSILON">      1.00000000</i>
    <v name="DIPOL">   -100.00000000   -100.00000000   -100.00000000</v>
    <i name="EFIELD">      0.00000000</i>
   </separator>
  </separator>
  <separator name="grids" >
   <i type="int" name="NGX">    64</i>
   <i type="int" name="NGY">    64</i>
   <i type="int" name="NGZ">    90</i>
   <i type="int" name="NGXF">   128</i>
   <i type="int" name="NGYF">   128</i>
   <i type="int" name="NGZF">   180</i>
   <i type="logical" name="ADDGRID"> F  </i>
  </separator>
  <separator name="ionic" >
   <i type="int" name="NSW">    30</i>
   <i type="int" name="IBRION">     2</i>
   <i type="int" name="ISIF">     3</i>
   <i name="PSTRESS">      0.00000000</i>
   <i name="EDIFFG">     -0.03000000</i>
   <i type="int" name="NFREE">     1</i>
   <i name="POTIM">      0.50000000</i>
   <i name="SMASS">     -3.00000000</i>
   <i name="SCALEE">      1.00000000</i>
  </separator>
  <separator name="ionic md" >
   <i name="TEBEG">      0.00010000</i>
   <i name="TEEND">      0.00010000</i>
   <i type="int" name="NBLOCK">     1</i>
   <i type="int" name="KBLOCK">    30</i>
   <i type="int" name="NPACO">   256</i>
   <i name="APACO">     16.00000000</i>
  </separator>
  <separator name="symmetry" >
   <i type="int" name="ISYM">     2</i>
   <i name="SYMPREC">      0.00001000</i>
  </separator>
  <separator name="dos" >
   <i type="logical" name="LORBIT"> F  </i>
   <v name="RWIGS">     -1.00000000     -1.00000000     -1.00000000     -1.00000000</v>
   <i type="int" name="NEDOS">   301</i>
   <i name="EMIN">     10.00000000</i>
   <i name="EMAX">    -10.00000000</i>
   <i name="EFERMI">      0.00000000</i>
  </separator>
  <separator name="writing" >
   <i type="int" name="NWRITE">     2</i>
   <i type="logical" name="LWAVE"> T  </i>
   <i type="logical" name="LCHARG"> T  </i>
   <i type="logical" name="LPARD"> F  </i>
   <i type="logical" name="LVTOT"> F  </i>
   <i type="logical" name="LVHAR"> F  </i>
   <i type="logical" name="LELF"> F  </i>
   <i type="logical" name="LOPTICS"> F  </i>
   <v name="STM">      0.00000000      0.00000000      0.00000000      0.00000000      0.00000000      0.00000000      0.00000000</v>
  </separator>
  <separator name="performance" >
   <i type="int" name="NPAR">     2</i>
   <i type="int" name="NSIM">     4</i>
   <i type="int" name="NBLK">    -1</i>
   <i type="logical" name="LPLANE"> T  </i>
   <i type="logical" name="LSCALAPACK"> T  </i>
   <i type="logical" name="LSCAAWARE"> F  </i>
   <i type="logical" name="LSCALU"> F  </i>
   <i type="logical" name="LASYNC"> F  </i>
   <i type="logical" name="LORBITALREAL"> F  </i>
  </separator>
  <separator name="miscellaneous" >
   <i type="int" name="IDIOT">     3</i>
   <i type="logical" name="LMUSIC"> F  </i>
   <v name="POMASS">     87.62000000     47.88000000     55.84700000     16.00000000</v>
   <v name="DARWINR">      0.00000000      0.00000000      0.00000000      0.00000000</v>
   <v name="DARWINV">      1.00000000      1.00000000      1.00000000      1.00000000</v>
   <i type="logical" name="LCORR"> T  </i>
  </separator>
  <i type="logical" name="GGA_COMPAT"> T  </i>
  <i type="logical" name="LBERRY"> F  </i>
  <i type="int" name="ICORELEVEL">     0</i>
  <i type="logical" name="LDAU"> T  </i>
  <v type="int" name="LDAUTYPE">     2</v>
  <v type="int" name="LDAUL">     0</v>
  <v name="LDAUU">      0.00000000</v>
  <v name="LDAUJ">      0.00000000</v>
  <i type="int" name="LDAUPRINT">     1</i>
  <i type="int" name="I_CONSTRAINED_M">     0</i>
  <separator name="electronic exchange-correlation" >
   <i type="string" name="GGA">--</i>
   <i type="int" name="VOSKOWN">     0</i>
   <i type="logical" name="LHFCALC"> F  </i>
   <i type="string" name="PRECFOCK"></i>
   <i type="logical" name="LSYMGRAD"> F  </i>
   <i type="logical" name="LHFONE"> F  </i>
   <i type="logical" name="LRHFCALC"> F  </i>
   <i type="logical" name="LTHOMAS"> F  </i>
   <i type="logical" name="LMODELHF"> F  </i>
   <i name="ENCUT4O">     -1.00000000</i>
   <i type="int" name="EXXOEP">     0</i>
   <i type="int" name="FOURORBIT">     0</i>
   <i name="AEXX">      0.00000000</i>
   <i name="HFALPHA">      0.00000000</i>
   <i name="MCALPHA">      0.00000000</i>
   <i name="ALDAX">      1.00000000</i>
   <i name="AGGAX">      1.00000000</i>
   <i name="ALDAC">      1.00000000</i>
   <i name="AGGAC">      1.00000000</i>
   <i type="int" name="NKREDX">     1</i>
   <i type="int" name="NKREDY">     1</i>
   <i type="int" name="NKREDZ">     1</i>
   <i type="logical" name="SHIFTRED"> F  </i>
   <i type="logical" name="ODDONLY"> F  </i>
   <i type="logical" name="EVENONLY"> F  </i>
   <i type="int" name="LMAXFOCK">     0</i>
   <i type="int" name="NMAXFOCKAE">     0</i>
   <i type="logical" name="LFOCKAEDFT"> F  </i>
   <i name="HFSCREEN">      0.00000000</i>
   <i name="HFSCREENC">      0.00000000</i>
   <i type="int" name="NBANDSGWLOW">     0</i>
  </separator>
  <separator name="vdW DFT" >
   <i type="logical" name="LUSE_VDW"> F  </i>
   <i name="Zab_VDW">     -0.84910000</i>
   <i name="PARAM1">      0.12340000</i>
   <i name="PARAM2">      1.00000000</i>
   <i name="PARAM3">      0.00000000</i>
  </separator>
  <separator name="model GW" >
   <i type="int" name="MODEL_GW">     0</i>
   <i name="MODEL_EPS0">      7.81025762</i>
   <i name="MODEL_ALPHA">      1.00000000</i>
  </separator>
  <separator name="linear response parameters" >
   <i type="logical" name="LEPSILON"> F  </i>
   <i type="logical" name="LRPA"> F  </i>
   <i type="logical" name="LNABLA"> F  </i>
   <i type="logical" name="LVEL"> F  </i>
   <i type="int" name="KINTER">     0</i>
   <i name="CSHIFT">      0.10000000</i>
   <i name="OMEGAMAX">     -1.00000000</i>
   <i name="DEG_THRESHOLD">      0.00200000</i>
  </separator>
  <separator name="orbital magnetization" >
   <i type="logical" name="NUCIND"> F  </i>
   <v name="MAGPOS">      0.00000000      0.00000000      0.00000000</v>
   <i type="logical" name="LNICSALL"> T  </i>
   <i type="logical" name="ORBITALMAG"> F  </i>
   <i type="logical" name="LMAGBLOCH"> F  </i>
   <i type="logical" name="LCHIMAG"> F  </i>
   <i type="logical" name="LGAUGE"> T  </i>
   <i type="int" name="MAGATOM">     0</i>
   <v name="MAGDIPOL">      0.00000000      0.00000000      0.00000000</v>
   <v name="AVECCONST">      0.00000000      0.00000000      0.00000000</v>
  </separator>
  <separator name="response functions" >
   <i type="logical" name="LADDER"> F  </i>
   <i type="logical" name="LFXC"> F  </i>
   <i type="logical" name="LHARTREE"> T  </i>
   <i type="int" name="IBSE">     0</i>
   <v type="int" name="KPOINT">    -1     0     0     0</v>
   <i type="logical" name="LTCTE"> F  </i>
   <i type="logical" name="LTETE"> F  </i>
   <i type="logical" name="LTRIPLET"> F  </i>
   <i type="logical" name="LFXCEPS"> F  </i>
   <i type="logical" name="LFXHEG"> F  </i>
   <i type="int" name="NATURALO">     0</i>
   <i type="logical" name="L2ORDER"> F  </i>
   <i type="logical" name="LUSEW"> F  </i>
   <i name="ENCUTGW">     -2.00000000</i>
   <i name="ENCUTGWSOFT">     -2.00000000</i>
   <i name="ENCUTLF">     -1.00000000</i>
   <i type="int" name="LMAXMP2">    -1</i>
   <i name="SCISSOR">      0.00000000</i>
   <i type="int" name="NOMEGA">     0</i>
   <i type="int" name="NOMEGAR">     0</i>
   <i type="int" name="NBANDSGW">    -1</i>
   <i type="int" name="NBANDSO">    -1</i>
   <i type="int" name="NBANDSV">    -1</i>
   <i type="int" name="NELM">    40</i>
   <i type="int" name="NELMHF">     1</i>
   <i type="int" name="DIM">     3</i>
   <i type="int" name="ANTIRES">     0</i>
   <i name="OMEGAMAX">    -30.00000000</i>
   <i name="OMEGAMIN">    -30.00000000</i>
   <i name="OMEGATL">   -200.00000000</i>
   <i type="int" name="OMEGAGRID">     0</i>
   <i name="CSHIFT">     -0.10000000</i>
   <i type="logical" name="SELFENERGY"> F  </i>
   <i type="logical" name="LSPECTRAL"> F  </i>
   <i type="logical" name="LSPECTRALGW"> F  </i>
   <i type="logical" name="LSINGLES"> F  </i>
   <i type="logical" name="LFERMIGW"> F  </i>
   <i type="logical" name="ODDONLYGW"> F  </i>
   <i type="logical" name="EVENONLYGW"> F  </i>
   <i type="int" name="NKREDLFX">     1</i>
   <i type="int" name="NKREDLFY">     1</i>
   <i type="int" name="NKREDLFZ">     1</i>
   <i type="int" name="MAXMEM">  1800</i>
   <i type="int" name="TELESCOPE">     0</i>
   <i type="int" name="TAUPAR">     1</i>
   <i type="int" name="OMEGAPAR">    -1</i>
   <i name="LAMBDA">      1.00000000</i>
  </separator>
  <separator name="External order field" >
   <i name="OFIELD_KAPPA">      0.00000000</i>
   <v name="OFIELD_K">      0.00000000      0.00000000      0.00000000</v>
   <i name="OFIELD_Q6_NEAR">      0.00000000</i>
   <i name="OFIELD_Q6_FAR">      0.00000000</i>
   <i name="OFIELD_A">      0.00000000</i>
  </separator>
 </parameters>
 <atominfo>
  <atoms>     154 </atoms>
  <types>       4 </types>
  <array name="atoms" >
   <dimension dim="1">ion</dimension>
   <field type="string">element</field>
   <field type="int">atomtype</field>
   <set>
    <rc><c>Sr</c><c>   1</c></rc>
    <rc><c>Sr</c><c>   1</c></rc>
    <rc><c>Sr</c><c>   1</c></rc>
    <rc><c>Sr</c><c>   1</c></rc>
    <rc><c>Sr</c><c>   1</c></rc>
    <rc><c>Sr</c><c>   1</c></rc>
    <rc><c>Sr</c><c>   1</c></rc>
    <rc><c>Sr</c><c>   1</c></rc>
    <rc><c>Sr</c><c>   1</c></rc>
    <rc><c>Sr</c><c>   1</c></rc>
    <rc><c>Sr</c><c>   1</c></rc>
    <rc><c>Sr</c><c>   1</c></rc>
    <rc><c>Sr</c><c>   1</c></rc>
    <rc><c>Sr</c><c>   1</c></rc>
    <rc><c>Sr</c><c>   1</c></rc>
    <rc><c>Sr</c><c>   1</c></rc>
    <rc><c>Sr</c><c>   1</c></rc>
    <rc><c>Sr</c><c>   1</c></rc>
    <rc><c>Sr</c><c>   1</c></rc>
    <rc><c>Sr</c><c>   1</c></rc>
    <rc><c>Sr</c><c>   1</c></rc>
    <rc><c>Sr</c><c>   1</c></rc>
    <rc><c>Sr</c><c>   1</c></rc>
    <rc><c>Sr</c><c>   1</c></rc>
    <rc><c>Sr</c><c>   1</c></rc>
    <rc><c>Sr</c><c>   1</c></rc>
    <rc><c>Sr</c><c>   1</c></rc>
    <rc><c>Sr</c><c>   1</c></rc>
    <rc><c>Sr</c><c>   1</c></rc>
    <rc><c>Sr</c><c>   1</c></rc>
    <rc><c>Sr</c><c>   1</c></rc>
    <rc><c>Sr</c><c>   1</c></rc>
    <rc><c>Ti</c><c>   2</c></rc>
    <rc><c>Ti</c><c>   2</c></rc>
    <rc><c>Ti</c><c>   2</c></rc>
    <rc><c>Ti</c><c>   2</c></rc>
    <rc><c>Ti</c><c>   2</c></rc>
    <rc><c>Ti</c><c>   2</c></rc>
    <rc><c>Ti</c><c>   2</c></rc>
    <rc><c>Ti</c><c>   2</c></rc>
    <rc><c>Ti</c><c>   2</c></rc>
    <rc><c>Ti</c><c>   2</c></rc>
    <rc><c>Ti</c><c>   2</c></rc>
    <rc><c>Ti</c><c>   2</c></rc>
    <rc><c>Ti</c><c>   2</c></rc>
    <rc><c>Ti</c><c>   2</c></rc>
    <rc><c>Ti</c><c>   2</c></rc>
    <rc><c>Ti</c><c>   2</c></rc>
    <rc><c>Ti</c><c>   2</c></rc>
    <rc><c>Ti</c><c>   2</c></rc>
    <rc><c>Ti</c><c>   2</c></rc>
    <rc><c>Ti</c><c>   2</c></rc>
    <rc><c>Fe</c><c>   3</c></rc>
    <rc><c>Fe</c><c>   3</c></rc>
    <rc><c>Fe</c><c>   3</c></rc>
    <rc><c>Fe</c><c>   3</c></rc>
    <rc><c>Fe</c><c>   3</c></rc>
    <rc><c>Fe</c><c>   3</c></rc>
    <rc><c>Fe</c><c>   3</c></rc>
    <rc><c>Fe</c><c>   3</c></rc>
    <rc><c>Fe</c><c>   3</c></rc>
    <rc><c>Fe</c><c>   3</c></rc>
    <rc><c>Fe</c><c>   3</c></rc>
    <rc><c>Fe</c><c>   3</c></rc>
    <rc><c>O </c><c>   4</c></rc>
    <rc><c>O </c><c>   4</c></rc>
    <rc><c>O </c><c>   4</c></rc>
    <rc><c>O </c><c>   4</c></rc>
    <rc><c>O </c><c>   4</c></rc>
    <rc><c>O </c><c>   4</c></rc>
    <rc><c>O </c><c>   4</c></rc>
    <rc><c>O </c><c>   4</c></rc>
    <rc><c>O </c><c>   4</c></rc>
    <rc><c>O </c><c>   4</c></rc>
    <rc><c>O </c><c>   4</c></rc>
    <rc><c>O </c><c>   4</c></rc>
    <rc><c>O </c><c>   4</c></rc>
    <rc><c>O </c><c>   4</c></rc>
    <rc><c>O </c><c>   4</c></rc>
    <rc><c>O </c><c>   4</c></rc>
    <rc><c>O </c><c>   4</c></rc>
    <rc><c>O </c><c>   4</c></rc>
    <rc><c>O </c><c>   4</c></rc>
    <rc><c>O </c><c>   4</c></rc>
    <rc><c>O </c><c>   4</c></rc>
    <rc><c>O </c><c>   4</c></rc>
    <rc><c>O </c><c>   4</c></rc>
    <rc><c>O </c><c>   4</c></rc>
    <rc><c>O </c><c>   4</c></rc>
    <rc><c>O </c><c>   4</c></rc>
    <rc><c>O </c><c>   4</c></rc>
    <rc><c>O </c><c>   4</c></rc>
    <rc><c>O </c><c>   4</c></rc>
    <rc><c>O </c><c>   4</c></rc>
    <rc><c>O </c><c>   4</c></rc>
    <rc><c>O </c><c>   4</c></rc>
    <rc><c>O </c><c>   4</c></rc>
    <rc><c>O </c><c>   4</c></rc>
    <rc><c>O </c><c>   4</c></rc>
    <rc><c>O </c><c>   4</c></rc>
    <rc><c>O </c><c>   4</c></rc>
    <rc><c>O </c><c>   4</c></rc>
    <rc><c>O </c><c>   4</c></rc>
    <rc><c>O </c><c>   4</c></rc>
    <rc><c>O </c><c>   4</c></rc>
    <rc><c>O </c><c>   4</c></rc>
    <rc><c>O </c><c>   4</c></rc>
    <rc><c>O </c><c>   4</c></rc>
    <rc><c>O </c><c>   4</c></rc>
    <rc><c>O </c><c>   4</c></rc>
    <rc><c>O </c><c>   4</c></rc>
    <rc><c>O </c><c>   4</c></rc>
    <rc><c>O </c><c>   4</c></rc>
    <rc><c>O </c><c>   4</c></rc>
    <rc><c>O </c><c>   4</c></rc>
    <rc><c>O </c><c>   4</c></rc>
    <rc><c>O </c><c>   4</c></rc>
    <rc><c>O </c><c>   4</c></rc>
    <rc><c>O </c><c>   4</c></rc>
    <rc><c>O </c><c>   4</c></rc>
    <rc><c>O </c><c>   4</c></rc>
    <rc><c>O </c><c>   4</c></rc>
    <rc><c>O </c><c>   4</c></rc>
    <rc><c>O </c><c>   4</c></rc>
    <rc><c>O </c><c>   4</c></rc>
    <rc><c>O </c><c>   4</c></rc>
    <rc><c>O </c><c>   4</c></rc>
    <rc><c>O </c><c>   4</c></rc>
    <rc><c>O </c><c>   4</c></rc>
    <rc><c>O </c><c>   4</c></rc>
    <rc><c>O </c><c>   4</c></rc>
    <rc><c>O </c><c>   4</c></rc>
    <rc><c>O </c><c>   4</c></rc>
    <rc><c>O </c><c>   4</c></rc>
    <rc><c>O </c><c>   4</c></rc>
    <rc><c>O </c><c>   4</c></rc>
    <rc><c>O </c><c>   4</c></rc>
    <rc><c>O </c><c>   4</c></rc>
    <rc><c>O </c><c>   4</c></rc>
    <rc><c>O </c><c>   4</c></rc>
    <rc><c>O </c><c>   4</c></rc>
    <rc><c>O </c><c>   4</c></rc>
    <rc><c>O </c><c>   4</c></rc>
    <rc><c>O </c><c>   4</c></rc>
    <rc><c>O </c><c>   4</c></rc>
    <rc><c>O </c><c>   4</c></rc>
    <rc><c>O </c><c>   4</c></rc>
    <rc><c>O </c><c>   4</c></rc>
    <rc><c>O </c><c>   4</c></rc>
    <rc><c>O </c><c>   4</c></rc>
    <rc><c>O </c><c>   4</c></rc>
    <rc><c>O </c><c>   4</c></rc>
    <rc><c>O </c><c>   4</c></rc>
    <rc><c>O </c><c>   4</c></rc>
   </set>
  </array>
  <array name="atomtypes" >
   <dimension dim="1">type</dimension>
   <field type="int">atomspertype</field>
   <field type="string">element</field>
   <field>mass</field>
   <field>valence</field>
   <field type="string">pseudopotential</field>
   <set>
    <rc><c>  32</c><c>Sr</c><c>     87.62000000</c><c>     10.00000000</c><c>  PAW_PBE Sr_sv 07Sep2000               </c></rc>
    <rc><c>  20</c><c>Ti</c><c>     47.88000000</c><c>      4.00000000</c><c>  PAW_PBE Ti 08Apr2002                  </c></rc>
    <rc><c>  12</c><c>Fe</c><c>     55.84700000</c><c>      8.00000000</c><c>  PAW_PBE Fe 06Sep2000                  </c></rc>
    <rc><c>  90</c><c>O </c><c>     16.00000000</c><c>      6.00000000</c><c>  PAW_PBE O 08Apr2002                   </c></rc>
   </set>
  </array>
 </atominfo>
 <structure name="initialpos" >
  <crystal>
   <varray name="basis" >
    <v>      11.23746956       0.00131341       0.00408381 </v>
    <v>       0.00129434      11.24958120      -0.01205530 </v>
    <v>       0.00588494      -0.01702843      15.85734630 </v>
   </varray>
   <i name="volume">   2004.63278947 </i>
   <varray name="rec_basis" >
    <v>       0.08898802      -0.00001027      -0.00003304 </v>
    <v>      -0.00001042       0.08889230       0.00009546 </v>
    <v>      -0.00002293       0.00006758       0.06306234 </v>
   </varray>
  </crystal>
  <varray name="positions" >
   <v>       0.00591988       0.23683761       0.12992737 </v>
   <v>       0.00030419       0.25125803       0.62407021 </v>
   <v>       0.00023728       0.75614327       0.11744156 </v>
   <v>       0.00944869       0.74906541       0.62252161 </v>
   <v>       0.48992957       0.24599085       0.12491432 </v>
   <v>       0.50449311       0.25655340       0.62165770 </v>
   <v>       0.50024824       0.75178529       0.12249133 </v>
   <v>       0.48913275       0.74793150       0.62457051 </v>
   <v>       0.00865132       0.25205492       0.37471454 </v>
   <v>       0.99040215       0.24358849       0.87599630 </v>
   <v>       0.00589347       0.73484356       0.36939013 </v>
   <v>       0.00721527       0.75801143       0.87837762 </v>
   <v>       0.49185061       0.24361531       0.37642652 </v>
   <v>       0.51083175       0.25968369       0.87284402 </v>
   <v>       0.50760170       0.75376883       0.37521667 </v>
   <v>       0.49475331       0.74987339       0.88025793 </v>
   <v>       0.23907178       0.00087075       0.12277523 </v>
   <v>       0.24585668       0.99979237       0.62427129 </v>
   <v>       0.24224250       0.50399527       0.13107788 </v>
   <v>       0.24559465       0.50587607       0.61894288 </v>
   <v>       0.75645707       0.99013710       0.12290383 </v>
   <v>       0.75565434       0.01269145       0.62277435 </v>
   <v>       0.76324898       0.50747842       0.12182383 </v>
   <v>       0.75960221       0.48880083       0.62710986 </v>
   <v>       0.24677025       0.01007646       0.37151298 </v>
   <v>       0.23536214       0.99125430       0.88138006 </v>
   <v>       0.23806653       0.48215618       0.37911241 </v>
   <v>       0.25288640       0.50894301       0.87491399 </v>
   <v>       0.75249917       0.99773319       0.37111210 </v>
   <v>       0.75907490       0.01023386       0.88222939 </v>
   <v>       0.76451847       0.49871105       0.37690574 </v>
   <v>       0.74933175       0.48932166       0.88157046 </v>
   <v>       0.00532859       0.00141634       0.49562368 </v>
   <v>       0.50332482       0.99537933       0.00052232 </v>
   <v>       0.49859492       0.99779965       0.49998356 </v>
   <v>       0.49665382       0.50408747       0.00302191 </v>
   <v>       0.26166308       0.24264007       0.99584635 </v>
   <v>       0.25001113       0.24845614       0.50209425 </v>
   <v>       0.75151028       0.25141152       0.50408291 </v>
   <v>       0.74976393       0.75231419       0.99722560 </v>
   <v>       0.75701587       0.76066319       0.50204805 </v>
   <v>       0.24670159       0.25702214       0.75056034 </v>
   <v>       0.24944378       0.74969188       0.75323402 </v>
   <v>       0.75272352       0.24335307       0.25665091 </v>
   <v>       0.75300493       0.74747387       0.24946791 </v>
   <v>       0.75733211       0.73603592       0.75228449 </v>
   <v>       0.99833960       0.00300288       0.74952918 </v>
   <v>       0.00447107       0.49460945       0.75179869 </v>
   <v>       0.49802223       0.99896583       0.24865359 </v>
   <v>       0.48639850       0.01185656       0.75420284 </v>
   <v>       0.51530354       0.48792642       0.24875819 </v>
   <v>       0.50344836       0.50265446       0.74721757 </v>
   <v>       0.99726095       0.00034183       0.00314501 </v>
   <v>       0.99335390       0.51202512       0.99935819 </v>
   <v>       0.99974541       0.49906948       0.50029159 </v>
   <v>       0.48901042       0.49301110       0.49664420 </v>
   <v>       0.24956068       0.74911278       0.00021633 </v>
   <v>       0.25030460       0.75098595       0.50638279 </v>
   <v>       0.75031511       0.25064126       0.99546176 </v>
   <v>       0.24650480       0.24909093       0.24914415 </v>
   <v>       0.24413395       0.76812104       0.24029708 </v>
   <v>       0.75067836       0.25090726       0.74897826 </v>
   <v>       0.00093826       0.99760956       0.25089593 </v>
   <v>       0.99688754       0.48856513       0.24792697 </v>
   <v>       0.11972130       0.12863609       0.24961099 </v>
   <v>       0.11175185       0.14069569       0.75064710 </v>
   <v>       0.17790690       0.62789852       0.27579759 </v>
   <v>       0.10849102       0.64109229       0.75373554 </v>
   <v>       0.61721103       0.13674920       0.23649539 </v>
   <v>       0.61405500       0.12727956       0.74710522 </v>
   <v>       0.60909344       0.63688908       0.24367658 </v>
   <v>       0.60459825       0.65075420       0.75423626 </v>
   <v>       0.38222347       0.37918038       0.25592817 </v>
   <v>       0.39203661       0.36062007       0.74625700 </v>
   <v>       0.38525637       0.85438389       0.26545099 </v>
   <v>       0.39601836       0.86084701       0.75250685 </v>
   <v>       0.87269268       0.36234889       0.23364639 </v>
   <v>       0.89086416       0.36307298       0.74513734 </v>
   <v>       0.87572687       0.86562055       0.25970596 </v>
   <v>       0.87359789       0.86488413       0.74419433 </v>
   <v>       0.36980868       0.11753365       0.25051483 </v>
   <v>       0.35797420       0.11338082       0.76744986 </v>
   <v>       0.35978242       0.60971829       0.74598886 </v>
   <v>       0.86032725       0.12003709       0.23249284 </v>
   <v>       0.86468951       0.11387630       0.74583271 </v>
   <v>       0.87002967       0.61826427       0.25389925 </v>
   <v>       0.85827512       0.60752087       0.76243222 </v>
   <v>       0.12790483       0.37699253       0.25040662 </v>
   <v>       0.14360353       0.39278373       0.73674824 </v>
   <v>       0.12621860       0.87715892       0.26599438 </v>
   <v>       0.13694704       0.88855667       0.75248280 </v>
   <v>       0.63659578       0.37746844       0.22959370 </v>
   <v>       0.63782245       0.39275803       0.74969214 </v>
   <v>       0.63234388       0.88398602       0.24561286 </v>
   <v>       0.35846112       0.38936173       0.99950972 </v>
   <v>       0.36642798       0.38049202       0.50417659 </v>
   <v>       0.36842785       0.88968156       0.99289775 </v>
   <v>       0.36220437       0.88671651       0.48875773 </v>
   <v>       0.87746738       0.37565760       0.01205347 </v>
   <v>       0.86979514       0.37599718       0.50252785 </v>
   <v>       0.86531789       0.87930804       0.99783615 </v>
   <v>       0.86470925       0.88326042       0.49991190 </v>
   <v>       0.12635946       0.13439063       0.99769936 </v>
   <v>       0.13703102       0.11337417       0.50098987 </v>
   <v>       0.13859719       0.60576819       0.99606394 </v>
   <v>       0.13290534       0.62206273       0.49158041 </v>
   <v>       0.62815081       0.12097357       0.01500223 </v>
   <v>       0.63598797       0.11245930       0.50133002 </v>
   <v>       0.63434404       0.61714685       0.00076237 </v>
   <v>       0.12074174       0.36416959       0.50617792 </v>
   <v>       0.11833511       0.86895962       0.99608133 </v>
   <v>       0.11587543       0.86503505       0.48292157 </v>
   <v>       0.61873750       0.36999755       0.01823406 </v>
   <v>       0.62283618       0.37489779       0.49378619 </v>
   <v>       0.61655732       0.86654792       0.01145641 </v>
   <v>       0.60817336       0.85283659       0.50072008 </v>
   <v>       0.38558075       0.13524246       0.98446605 </v>
   <v>       0.38956133       0.13292927       0.50280747 </v>
   <v>       0.38910475       0.63733784       0.99582623 </v>
   <v>       0.38935943       0.64022292       0.49116706 </v>
   <v>       0.87244349       0.13014986       0.01195666 </v>
   <v>       0.88256644       0.13136560       0.50927134 </v>
   <v>       0.87852320       0.63519593       0.98399568 </v>
   <v>       0.85741584       0.62322667       0.50320208 </v>
   <v>       0.00621532       0.98711267       0.12668298 </v>
   <v>       0.00769569       0.99066834       0.62300747 </v>
   <v>       0.01039636       0.51583501       0.12536581 </v>
   <v>       0.99764174       0.51362327       0.62675185 </v>
   <v>       0.47906515       0.99528577       0.12524320 </v>
   <v>       0.50205691       0.98952660       0.62912900 </v>
   <v>       0.47468497       0.51909664       0.13080380 </v>
   <v>       0.51559464       0.51424880       0.62007004 </v>
   <v>       0.98457662       0.01939914       0.37615955 </v>
   <v>       0.99348639       0.00206271       0.87292887 </v>
   <v>       0.99313974       0.49229498       0.37434985 </v>
   <v>       0.01253503       0.47475395       0.87628962 </v>
   <v>       0.51152784       0.00770618       0.37395206 </v>
   <v>       0.52909980       0.98611692       0.87241577 </v>
   <v>       0.51325655       0.51165211       0.37215993 </v>
   <v>       0.50448190       0.49389240       0.87617571 </v>
   <v>       0.25257701       0.24695251       0.37919279 </v>
   <v>       0.22930082       0.27652806       0.87650322 </v>
   <v>       0.25210613       0.74992812       0.87262210 </v>
   <v>       0.75423776       0.24395896       0.37291763 </v>
   <v>       0.74540811       0.25313901       0.87554219 </v>
   <v>       0.73348440       0.73628857       0.37987123 </v>
   <v>       0.73012088       0.77458676       0.87045820 </v>
   <v>       0.24816433       0.25689405       0.11822750 </v>
   <v>       0.25723826       0.23621326       0.62831063 </v>
   <v>       0.25353064       0.75171058       0.12401178 </v>
   <v>       0.24690475       0.75607462       0.62589257 </v>
   <v>       0.74082784       0.25338187       0.62468339 </v>
   <v>       0.76220714       0.74470751       0.12380588 </v>
   <v>       0.73196968       0.74728852       0.62724969 </v>
  </varray>
 </structure>
 <calculation>
  <scstep>
   <time name="dav">  592.51  592.53</time>
   <time name="total">  599.68  599.78</time>
   <energy>
    <i name="alphaZ">   5623.97745411 </i>
    <i name="ewald"> -61625.49449276 </i>
    <i name="hartreedc"> -16948.30024694 </i>
    <i name="XCdc">   3073.66900654 </i>
    <i name="pawpsdc"> 113290.20185894 </i>
    <i name="pawaedc">-112341.57359931 </i>
    <i name="eentropy">     -0.00000000 </i>
    <i name="bandstr">  -7076.22565883 </i>
    <i name="atom">  74916.81196153 </i>
    <i name="e_fr_energy">  -1086.93371670 </i>
    <i name="e_wo_entrp">  -1086.93371670 </i>
    <i name="e_0_energy">  -1086.93371670 </i>
   </energy>
  </scstep>
  <scstep>
   <time name="diag">   64.72   64.72</time>
   <time name="diis">   61.98   61.99</time>
   <time name="orth">   33.29   33.29</time>
   <time name="total">  167.22  167.25</time>
   <energy>
    <i name="e_fr_energy">  -1086.93371677 </i>
    <i name="e_wo_entrp">  -1086.93371677 </i>
    <i name="e_0_energy">  -1086.93371677 </i>
   </energy>
  </scstep>
  <scstep>
   <time name="diag">   64.69   64.69</time>
   <time name="diis">   58.82   58.82</time>
   <time name="orth">   33.26   33.26</time>
   <time name="total">  163.97  164.01</time>
   <energy>
    <i name="e_fr_energy">  -1086.93371672 </i>
    <i name="e_wo_entrp">  -1086.93371672 </i>
    <i name="e_0_energy">  -1086.93371672 </i>
   </energy>
  </scstep>
  <scstep>
   <time name="diag">   64.68   64.68</time>
   <time name="diis">   50.84   50.85</time>
   <time name="orth">   33.31   33.31</time>
   <time name="total">  156.02  156.61</time>
   <energy>
    <i name="e_fr_energy">  -1086.93371691 </i>
    <i name="e_wo_entrp">  -1086.93371691 </i>
    <i name="e_0_energy">  -1086.93371691 </i>
   </energy>
  </scstep>
  <scstep>
   <time name="diag">   64.63   64.63</time>
   <time name="diis">   50.21   50.21</time>
   <time name="orth">   33.25   33.25</time>
   <time name="total">  155.29  155.33</time>
   <energy>
    <i name="e_fr_energy">  -1086.93371705 </i>
    <i name="e_wo_entrp">  -1086.93371705 </i>
    <i name="e_0_energy">  -1086.93371705 </i>
   </energy>
  </scstep>
  <scstep>
   <time name="diag">   64.62   64.62</time>
   <time name="diis">   45.77   45.77</time>
   <time name="orth">   33.34   33.34</time>
   <time name="total">  150.93  150.97</time>
   <energy>
    <i name="e_fr_energy">  -1086.93371716 </i>
    <i name="e_wo_entrp">  -1086.93371716 </i>
    <i name="e_0_energy">  -1086.93371716 </i>
   </energy>
  </scstep>
  <scstep>
   <time name="diag">   64.83   64.83</time>
   <time name="diis">   45.15   45.15</time>
   <time name="orth">   33.37   33.36</time>
   <time name="total">  150.61  150.65</time>
   <energy>
    <i name="e_fr_energy">  -1086.93371719 </i>
    <i name="e_wo_entrp">  -1086.93371719 </i>
    <i name="e_0_energy">  -1086.93371719 </i>
   </energy>
  </scstep>
  <scstep>
   <time name="diag">   64.82   64.82</time>
   <time name="diis">   43.19   43.18</time>
   <time name="orth">   33.35   33.34</time>
   <time name="total">  142.40  142.46</time>
   <energy>
    <i name="alphaZ">   5623.97745411 </i>
    <i name="ewald"> -61625.49449276 </i>
    <i name="hartreedc"> -16948.28280490 </i>
    <i name="XCdc">   3073.66869332 </i>
    <i name="pawpsdc"> 113289.57017950 </i>
    <i name="pawaedc">-112340.93494409 </i>
    <i name="eentropy">     -0.00000000 </i>
    <i name="bandstr">  -7076.24976393 </i>
    <i name="atom">  74916.81196153 </i>
    <i name="e_fr_energy">  -1086.93371720 </i>
    <i name="e_wo_entrp">  -1086.93371720 </i>
    <i name="e_0_energy">  -1086.93371720 </i>
   </energy>
  </scstep>
  <structure>
   <crystal>
    <varray name="basis" >
     <v>      11.23746956       0.00131341       0.00408381 </v>
     <v>       0.00129434      11.24958120      -0.01205530 </v>
     <v>       0.00588494      -0.01702843      15.85734630 </v>
    </varray>
    <i name="volume">   2004.63278947 </i>
    <varray name="rec_basis" >
     <v>       0.08898802      -0.00001027      -0.00003304 </v>
     <v>      -0.00001042       0.08889230       0.00009546 </v>
     <v>      -0.00002293       0.00006758       0.06306234 </v>
    </varray>
   </crystal>
   <varray name="positions" >
    <v>       0.00591988       0.23683761       0.12992737 </v>
    <v>       0.00030419       0.25125803       0.62407021 </v>
    <v>       0.00023728       0.75614327       0.11744156 </v>
    <v>       0.00944869       0.74906541       0.62252161 </v>
    <v>       0.48992957       0.24599085       0.12491432 </v>
    <v>       0.50449311       0.25655340       0.62165770 </v>
    <v>       0.50024824       0.75178529       0.12249133 </v>
    <v>       0.48913275       0.74793150       0.62457051 </v>
    <v>       0.00865132       0.25205492       0.37471454 </v>
    <v>       0.99040215       0.24358849       0.87599630 </v>
    <v>       0.00589347       0.73484356       0.36939013 </v>
    <v>       0.00721527       0.75801143       0.87837762 </v>
    <v>       0.49185061       0.24361531       0.37642652 </v>
    <v>       0.51083175       0.25968369       0.87284402 </v>
    <v>       0.50760170       0.75376883       0.37521667 </v>
    <v>       0.49475331       0.74987339       0.88025793 </v>
    <v>       0.23907178       0.00087075       0.12277523 </v>
    <v>       0.24585668       0.99979237       0.62427129 </v>
    <v>       0.24224250       0.50399527       0.13107788 </v>
    <v>       0.24559465       0.50587607       0.61894288 </v>
    <v>       0.75645707       0.99013710       0.12290383 </v>
    <v>       0.75565434       0.01269145       0.62277435 </v>
    <v>       0.76324898       0.50747842       0.12182383 </v>
    <v>       0.75960221       0.48880083       0.62710986 </v>
    <v>       0.24677025       0.01007646       0.37151298 </v>
    <v>       0.23536214       0.99125430       0.88138006 </v>
    <v>       0.23806653       0.48215618       0.37911241 </v>
    <v>       0.25288640       0.50894301       0.87491399 </v>
    <v>       0.75249917       0.99773319       0.37111210 </v>
    <v>       0.75907490       0.01023386       0.88222939 </v>
    <v>       0.76451847       0.49871105       0.37690574 </v>
    <v>       0.74933175       0.48932166       0.88157046 </v>
    <v>       0.00532859       0.00141634       0.49562368 </v>
    <v>       0.50332482       0.99537933       0.00052232 </v>
    <v>       0.49859492       0.99779965       0.49998356 </v>
    <v>       0.49665382       0.50408747       0.00302191 </v>
    <v>       0.26166308       0.24264007       0.99584635 </v>
    <v>       0.25001113       0.24845614       0.50209425 </v>
    <v>       0.75151028       0.25141152       0.50408291 </v>
    <v>       0.74976393       0.75231419       0.99722560 </v>
    <v>       0.75701587       0.76066319       0.50204805 </v>
    <v>       0.24670159       0.25702214       0.75056034 </v>
    <v>       0.24944378       0.74969188       0.75323402 </v>
    <v>       0.75272352       0.24335307       0.25665091 </v>
    <v>       0.75300493       0.74747387       0.24946791 </v>
    <v>       0.75733211       0.73603592       0.75228449 </v>
    <v>       0.99833960       0.00300288       0.74952918 </v>
    <v>       0.00447107       0.49460945       0.75179869 </v>
    <v>       0.49802223       0.99896583       0.24865359 </v>
    <v>       0.48639850       0.01185656       0.75420284 </v>
    <v>       0.51530354       0.48792642       0.24875819 </v>
    <v>       0.50344836       0.50265446       0.74721757 </v>
    <v>       0.99726095       0.00034183       0.00314501 </v>
    <v>       0.99335390       0.51202512       0.99935819 </v>
    <v>       0.99974541       0.49906948       0.50029159 </v>
    <v>       0.48901042       0.49301110       0.49664420 </v>
    <v>       0.24956068       0.74911278       0.00021633 </v>
    <v>       0.25030460       0.75098595       0.50638279 </v>
    <v>       0.75031511       0.25064126       0.99546176 </v>
    <v>       0.24650480       0.24909093       0.24914415 </v>
    <v>       0.24413395       0.76812104       0.24029708 </v>
    <v>       0.75067836       0.25090726       0.74897826 </v>
    <v>       0.00093826       0.99760956       0.25089593 </v>
    <v>       0.99688754       0.48856513       0.24792697 </v>
    <v>       0.11972130       0.12863609       0.24961099 </v>
    <v>       0.11175185       0.14069569       0.75064710 </v>
    <v>       0.17790690       0.62789852       0.27579759 </v>
    <v>       0.10849102       0.64109229       0.75373554 </v>
    <v>       0.61721103       0.13674920       0.23649539 </v>
    <v>       0.61405500       0.12727956       0.74710522 </v>
    <v>       0.60909344       0.63688908       0.24367658 </v>
    <v>       0.60459825       0.65075420       0.75423626 </v>
    <v>       0.38222347       0.37918038       0.25592817 </v>
    <v>       0.39203661       0.36062007       0.74625700 </v>
    <v>       0.38525637       0.85438389       0.26545099 </v>
    <v>       0.39601836       0.86084701       0.75250685 </v>
    <v>       0.87269268       0.36234889       0.23364639 </v>
    <v>       0.89086416       0.36307298       0.74513734 </v>
    <v>       0.87572687       0.86562055       0.25970596 </v>
    <v>       0.87359789       0.86488413       0.74419433 </v>
    <v>       0.36980868       0.11753365       0.25051483 </v>
    <v>       0.35797420       0.11338082       0.76744986 </v>
    <v>       0.35978242       0.60971829       0.74598886 </v>
    <v>       0.86032725       0.12003709       0.23249284 </v>
    <v>       0.86468951       0.11387630       0.74583271 </v>
    <v>       0.87002967       0.61826427       0.25389925 </v>
    <v>       0.85827512       0.60752087       0.76243222 </v>
    <v>       0.12790483       0.37699253       0.25040662 </v>
    <v>       0.14360353       0.39278373       0.73674824 </v>
    <v>       0.12621860       0.87715892       0.26599438 </v>
    <v>       0.13694704       0.88855667       0.75248280 </v>
    <v>       0.63659578       0.37746844       0.22959370 </v>
    <v>       0.63782245       0.39275803       0.74969214 </v>
    <v>       0.63234388       0.88398602       0.24561286 </v>
    <v>       0.35846112       0.38936173       0.99950972 </v>
    <v>       0.36642798       0.38049202       0.50417659 </v>
    <v>       0.36842785       0.88968156       0.99289775 </v>
    <v>       0.36220437       0.88671651       0.48875773 </v>
    <v>       0.87746738       0.37565760       0.01205347 </v>
    <v>       0.86979514       0.37599718       0.50252785 </v>
    <v>       0.86531789       0.87930804       0.99783615 </v>
    <v>       0.86470925       0.88326042       0.49991190 </v>
    <v>       0.12635946       0.13439063       0.99769936 </v>
    <v>       0.13703102       0.11337417       0.50098987 </v>
    <v>       0.13859719       0.60576819       0.99606394 </v>
    <v>       0.13290534       0.62206273       0.49158041 </v>
    <v>       0.62815081       0.12097357       0.01500223 </v>
    <v>       0.63598797       0.11245930       0.50133002 </v>
    <v>       0.63434404       0.61714685       0.00076237 </v>
    <v>       0.12074174       0.36416959       0.50617792 </v>
    <v>       0.11833511       0.86895962       0.99608133 </v>
    <v>       0.11587543       0.86503505       0.48292157 </v>
    <v>       0.61873750       0.36999755       0.01823406 </v>
    <v>       0.62283618       0.37489779       0.49378619 </v>
    <v>       0.61655732       0.86654792       0.01145641 </v>
    <v>       0.60817336       0.85283659       0.50072008 </v>
    <v>       0.38558075       0.13524246       0.98446605 </v>
    <v>       0.38956133       0.13292927       0.50280747 </v>
    <v>       0.38910475       0.63733784       0.99582623 </v>
    <v>       0.38935943       0.64022292       0.49116706 </v>
    <v>       0.87244349       0.13014986       0.01195666 </v>
    <v>       0.88256644       0.13136560       0.50927134 </v>
    <v>       0.87852320       0.63519593       0.98399568 </v>
    <v>       0.85741584       0.62322667       0.50320208 </v>
    <v>       0.00621532       0.98711267       0.12668298 </v>
    <v>       0.00769569       0.99066834       0.62300747 </v>
    <v>       0.01039636       0.51583501       0.12536581 </v>
    <v>       0.99764174       0.51362327       0.62675185 </v>
    <v>       0.47906515       0.99528577       0.12524320 </v>
    <v>       0.50205691       0.98952660       0.62912900 </v>
    <v>       0.47468497       0.51909664       0.13080380 </v>
    <v>       0.51559464       0.51424880       0.62007004 </v>
    <v>       0.98457662       0.01939914       0.37615955 </v>
    <v>       0.99348639       0.00206271       0.87292887 </v>
    <v>       0.99313974       0.49229498       0.37434985 </v>
    <v>       0.01253503       0.47475395       0.87628962 </v>
    <v>       0.51152784       0.00770618       0.37395206 </v>
    <v>       0.52909980       0.98611692       0.87241577 </v>
    <v>       0.51325655       0.51165211       0.37215993 </v>
    <v>       0.50448190       0.49389240       0.87617571 </v>
    <v>       0.25257701       0.24695251       0.37919279 </v>
    <v>       0.22930082       0.27652806       0.87650322 </v>
    <v>       0.25210613       0.74992812       0.87262210 </v>
    <v>       0.75423776       0.24395896       0.37291763 </v>
    <v>       0.74540811       0.25313901       0.87554219 </v>
    <v>       0.73348440       0.73628857       0.37987123 </v>
    <v>       0.73012088       0.77458676       0.87045820 </v>
    <v>       0.24816433       0.25689405       0.11822750 </v>
    <v>       0.25723826       0.23621326       0.62831063 </v>
    <v>       0.25353064       0.75171058       0.12401178 </v>
    <v>       0.24690475       0.75607462       0.62589257 </v>
    <v>       0.74082784       0.25338187       0.62468339 </v>
    <v>       0.76220714       0.74470751       0.12380588 </v>
    <v>       0.73196968       0.74728852       0.62724969 </v>
   </varray>
  </structure>
  <varray name="forces" >
   <v>      -0.00600553      -0.00364865      -0.00843844 </v>
   <v>      -0.00604369      -0.00196113      -0.01205828 </v>
   <v>      -0.00584981      -0.00477506       0.00702437 </v>
   <v>      -0.00774320      -0.00248529       0.00628684 </v>
   <v>       0.00800448      -0.00277597       0.00133668 </v>
   <v>      -0.00568596      -0.00922488      -0.00332958 </v>
   <v>      -0.00678235       0.00038419      -0.00094045 </v>
   <v>       0.01022134       0.00049945      -0.00121458 </v>
   <v>      -0.00182176      -0.01316814      -0.00314467 </v>
   <v>       0.00660121       0.00488512       0.01002103 </v>
   <v>       0.00740559       0.00741769      -0.01134841 </v>
   <v>       0.00376626      -0.00169854      -0.00108461 </v>
   <v>      -0.00173608       0.00173375       0.00868846 </v>
   <v>      -0.00432560       0.00455654      -0.00446859 </v>
   <v>      -0.00839283       0.00573273       0.00670223 </v>
   <v>      -0.00176069       0.00194260      -0.00177928 </v>
   <v>       0.00025944       0.00934930       0.00021215 </v>
   <v>       0.00449821      -0.00193493       0.00766727 </v>
   <v>       0.00429463      -0.00240945      -0.00181210 </v>
   <v>      -0.00333319       0.00178800      -0.00215484 </v>
   <v>       0.00341601       0.00256675       0.00524935 </v>
   <v>      -0.00257623      -0.00664552       0.00342014 </v>
   <v>      -0.00825077       0.00017400       0.00184755 </v>
   <v>      -0.00409997       0.00583580      -0.00461804 </v>
   <v>      -0.00313546      -0.00676753       0.00270205 </v>
   <v>       0.00520182       0.00140418      -0.00870454 </v>
   <v>      -0.00212439       0.01858580      -0.00758616 </v>
   <v>       0.01135778      -0.01127638       0.00182589 </v>
   <v>       0.00888120       0.00383150       0.00680805 </v>
   <v>      -0.00828791      -0.01311578      -0.00781280 </v>
   <v>      -0.00932684      -0.00755099       0.00207826 </v>
   <v>      -0.00816102       0.00577991       0.00058726 </v>
   <v>      -0.01237720       0.00391512      -0.01390999 </v>
   <v>      -0.00520019       0.00472056       0.00035386 </v>
   <v>       0.00159461       0.00740016      -0.00040201 </v>
   <v>      -0.00304134      -0.01487942      -0.00910529 </v>
   <v>      -0.00061925      -0.00319824       0.00379028 </v>
   <v>       0.00654116      -0.00004139       0.00468445 </v>
   <v>       0.00357245      -0.01065771      -0.03019513 </v>
   <v>       0.00293192       0.00027424       0.00202184 </v>
   <v>       0.01867443       0.00423901       0.00178699 </v>
   <v>       0.01064177      -0.00504437       0.00437625 </v>
   <v>       0.00708370       0.02101381       0.00391644 </v>
   <v>       0.02269529       0.01102745       0.03910564 </v>
   <v>       0.01027415      -0.00253631       0.00501696 </v>
   <v>       0.01875508       0.01688549      -0.00385351 </v>
   <v>      -0.01230173      -0.01516623       0.01419075 </v>
   <v>       0.00180846       0.00436813      -0.00787462 </v>
   <v>      -0.00014268       0.00695439       0.01274541 </v>
   <v>      -0.01756887       0.01105759      -0.00139863 </v>
   <v>      -0.00591214      -0.00776853      -0.01813554 </v>
   <v>       0.00617331      -0.00438303       0.01419103 </v>
   <v>       0.00646543       0.00819596      -0.00175285 </v>
   <v>       0.00682183      -0.01293991      -0.00319219 </v>
   <v>      -0.00345670       0.00417664       0.00532456 </v>
   <v>       0.00263126      -0.00983255       0.00068214 </v>
   <v>       0.00327907       0.00822718       0.00011788 </v>
   <v>      -0.00049744      -0.00428384      -0.02283512 </v>
   <v>       0.00181466      -0.01000854       0.00995469 </v>
   <v>      -0.00002205       0.00515752      -0.00100638 </v>
   <v>      -0.00195781       0.00242765       0.01666315 </v>
   <v>      -0.00995099      -0.01054431      -0.01566370 </v>
   <v>      -0.01330870       0.01689008       0.01811682 </v>
   <v>      -0.00731991      -0.00177265       0.00144179 </v>
   <v>       0.01344896       0.00112575      -0.00594296 </v>
   <v>      -0.00302284      -0.00051010      -0.01342195 </v>
   <v>      -0.00299887       0.01417026      -0.01185806 </v>
   <v>       0.00566619      -0.00407495      -0.00138971 </v>
   <v>       0.00117270      -0.01651930      -0.00620799 </v>
   <v>       0.00420806      -0.00088219      -0.00845864 </v>
   <v>       0.00647973       0.01083840      -0.00322778 </v>
   <v>      -0.01613150      -0.01316597       0.00058663 </v>
   <v>       0.00073664      -0.00813052       0.00400160 </v>
   <v>       0.00562296       0.00990917      -0.00328973 </v>
   <v>      -0.00062036       0.01523862      -0.00232656 </v>
   <v>       0.00085791      -0.00827125       0.00494258 </v>
   <v>       0.00658507      -0.00424036       0.00081870 </v>
   <v>      -0.00118518      -0.00365689       0.00797009 </v>
   <v>      -0.00572720       0.00189755       0.00589015 </v>
   <v>      -0.00345434       0.00906013       0.00381923 </v>
   <v>       0.01580248       0.00606535       0.01755512 </v>
   <v>       0.01647400      -0.00364526       0.00004663 </v>
   <v>       0.00057775       0.01126953       0.00242077 </v>
   <v>       0.00627424       0.00879840       0.00476281 </v>
   <v>       0.00995116       0.00331710      -0.00093951 </v>
   <v>       0.01224046       0.00313095       0.00042752 </v>
   <v>      -0.00161037       0.00439051       0.01767403 </v>
   <v>       0.01407346       0.00201960      -0.00589372 </v>
   <v>      -0.01553448       0.00270130      -0.00256855 </v>
   <v>       0.00421214       0.00223650      -0.01187767 </v>
   <v>      -0.01069050      -0.00289363      -0.00600193 </v>
   <v>      -0.00274725       0.00516945       0.01313838 </v>
   <v>      -0.00023198      -0.00237071       0.00223640 </v>
   <v>      -0.00813213      -0.00429380      -0.01242595 </v>
   <v>       0.00719304      -0.00430744       0.00048603 </v>
   <v>       0.01349460       0.00794438      -0.00720826 </v>
   <v>       0.00664318      -0.01689270       0.00897754 </v>
   <v>       0.00067848      -0.00262660      -0.00488045 </v>
   <v>      -0.00230520       0.01487082      -0.01107588 </v>
   <v>       0.01849543      -0.00177891      -0.00585063 </v>
   <v>      -0.00496217      -0.00153307       0.00026705 </v>
   <v>      -0.02052699      -0.02747285       0.00219492 </v>
   <v>       0.00445134       0.00828657       0.00354728 </v>
   <v>      -0.00967335      -0.01129801       0.01036701 </v>
   <v>      -0.01072769       0.00232571       0.00230309 </v>
   <v>      -0.00360566      -0.01055243       0.00975794 </v>
   <v>       0.00373755       0.00423977      -0.00155047 </v>
   <v>      -0.01666769      -0.00923231       0.00219928 </v>
   <v>      -0.00123176      -0.00509828       0.00260820 </v>
   <v>      -0.01019367       0.00394566       0.01120588 </v>
   <v>      -0.01474169       0.01136005       0.01073484 </v>
   <v>       0.00073654       0.00430473       0.00545048 </v>
   <v>      -0.01224031       0.00615460      -0.01211003 </v>
   <v>      -0.01873155       0.00189904       0.00095690 </v>
   <v>       0.00871665      -0.00245092       0.00629084 </v>
   <v>      -0.01131627       0.00016486       0.00160510 </v>
   <v>      -0.03373297       0.01330091      -0.00200469 </v>
   <v>       0.00207953      -0.00899358      -0.01479349 </v>
   <v>      -0.00918111       0.00244448       0.00117373 </v>
   <v>      -0.00396335       0.00905146       0.01107372 </v>
   <v>      -0.00196789      -0.00300196      -0.00359778 </v>
   <v>      -0.00941507       0.00254744       0.00136715 </v>
   <v>       0.00406049      -0.00716019       0.00437803 </v>
   <v>      -0.00141549      -0.00464096      -0.00981124 </v>
   <v>      -0.00911298       0.00311170      -0.01352959 </v>
   <v>       0.00589713       0.00454673       0.01519790 </v>
   <v>       0.00121517      -0.00655309      -0.00294961 </v>
   <v>       0.00076472      -0.00671552       0.00966346 </v>
   <v>      -0.01167708       0.01094841      -0.00696275 </v>
   <v>      -0.01582672       0.00511857      -0.01761465 </v>
   <v>       0.01063455      -0.01345969      -0.00440995 </v>
   <v>      -0.00310864      -0.00468223       0.00992234 </v>
   <v>       0.01291108      -0.00199068       0.00165915 </v>
   <v>       0.01830651       0.00248375       0.00770542 </v>
   <v>       0.01422499       0.00177323      -0.00473796 </v>
   <v>       0.00115216       0.00324865       0.00793305 </v>
   <v>       0.01140385      -0.00247034      -0.01094839 </v>
   <v>       0.00357924       0.00315366      -0.01176080 </v>
   <v>       0.00701515       0.00031254      -0.00755202 </v>
   <v>       0.00580895      -0.00175503       0.00095991 </v>
   <v>      -0.01346831       0.01084406      -0.00633462 </v>
   <v>      -0.00908962      -0.00524648       0.00206447 </v>
   <v>       0.00092951       0.00865701       0.01417980 </v>
   <v>      -0.01739975      -0.00614346      -0.01921636 </v>
   <v>      -0.00145618      -0.00767736      -0.00472065 </v>
   <v>       0.00042863       0.00917823       0.01355302 </v>
   <v>      -0.00364555      -0.00863491      -0.01454609 </v>
   <v>       0.00851388      -0.00925871      -0.01206064 </v>
   <v>       0.01465682      -0.00123291      -0.00051939 </v>
   <v>       0.01025803      -0.00616995      -0.01486968 </v>
   <v>       0.00089756      -0.00170450       0.00141525 </v>
   <v>       0.01265140      -0.00714988       0.02393717 </v>
   <v>      -0.00091284       0.00944115       0.00286734 </v>
   <v>       0.01191819      -0.00735985       0.00603468 </v>
  </varray>
  <varray name="stress" >
   <v>       0.02439740       0.07889944      -0.02179431 </v>
   <v>       0.07889954       0.08972120      -0.03154696 </v>
   <v>      -0.02179500      -0.03154739      -0.14210370 </v>
  </varray>
  <energy>
   <i name="e_fr_energy">  -1086.93371720 </i>
   <i name="e_wo_entrp">  -1086.93371720 </i>
   <i name="e_0_energy">     -0.00000000 </i>
  </energy>
  <time name="totalsc"> 1950.65 1953.14</time>
 </calculation>
 <calculation>
  <scstep>
   <time name="dav">  560.95  560.99</time>
   <time name="total">  568.21  568.28</time>
   <energy>
    <i name="alphaZ">   5624.03916221 </i>
    <i name="ewald"> -61626.22747710 </i>
    <i name="hartreedc"> -16947.79771268 </i>
    <i name="XCdc">   3073.68133008 </i>
    <i name="pawpsdc"> 113289.56899913 </i>
    <i name="pawaedc">-112340.93378555 </i>
    <i name="eentropy">     -0.00000000 </i>
    <i name="bandstr">  -7076.07594196 </i>
    <i name="atom">  74916.81196153 </i>
    <i name="e_fr_energy">  -1086.93346433 </i>
    <i name="e_wo_entrp">  -1086.93346433 </i>
    <i name="e_0_energy">  -1086.93346433 </i>
   </energy>
  </scstep>
  <scstep>
   <time name="diag">   64.79   64.79</time>
   <time name="diis">  104.31  104.32</time>
   <time name="orth">   33.36   33.36</time>
   <time name="total">  209.60  209.72</time>
   <energy>
    <i name="e_fr_energy">  -1086.93454151 </i>
    <i name="e_wo_entrp">  -1086.93454151 </i>
    <i name="e_0_energy">  -1086.93454151 </i>
   </energy>
  </scstep>
  <scstep>
   <time name="diag">   64.77   64.77</time>
   <time name="diis">   90.63   90.64</time>
   <time name="orth">   33.39   33.39</time>
   <time name="total">  195.91  196.03</time>
   <energy>
    <i name="e_fr_energy">  -1086.93457859 </i>
    <i name="e_wo_entrp">  -1086.93457859 </i>
    <i name="e_0_energy">  -1086.93457859 </i>
   </energy>
  </scstep>
  <scstep>
   <time name="diag">   64.78   64.79</time>
   <time name="diis">   67.70   67.71</time>
   <time name="orth">   33.42   33.42</time>
   <time name="total">  173.03  173.14</time>
   <energy>
    <i name="e_fr_energy">  -1086.93452588 </i>
    <i name="e_wo_entrp">  -1086.93452588 </i>
    <i name="e_0_energy">  -1086.93452588 </i>
   </energy>
  </scstep>
  <scstep>
   <time name="diag">   64.74   64.75</time>
   <time name="diis">   64.77   64.77</time>
   <time name="orth">   33.37   33.38</time>
   <time name="total">  170.02  170.05</time>
   <energy>
    <i name="e_fr_energy">  -1086.93452056 </i>
    <i name="e_wo_entrp">  -1086.93452056 </i>
    <i name="e_0_energy">  -1086.93452056 </i>
   </energy>
  </scstep>
  <scstep>
   <time name="diag">   64.73   64.73</time>
   <time name="diis">   62.82   62.82</time>
   <time name="orth">   33.39   33.39</time>
   <time name="total">  168.05  168.11</time>
   <energy>
    <i name="e_fr_energy">  -1086.93452167 </i>
    <i name="e_wo_entrp">  -1086.93452167 </i>
    <i name="e_0_energy">  -1086.93452167 </i>
   </energy>
  </scstep>
  <scstep>
   <time name="diag">   65.00   65.00</time>
   <time name="diis">   61.72   61.73</time>
   <time name="orth">   33.33   33.33</time>
   <time name="total">  167.37  167.39</time>
   <energy>
    <i name="e_fr_energy">  -1086.93452215 </i>
    <i name="e_wo_entrp">  -1086.93452215 </i>
    <i name="e_0_energy">  -1086.93452215 </i>
   </energy>
  </scstep>
  <scstep>
   <time name="diag">   65.00   65.01</time>
   <time name="diis">   60.15   60.15</time>
   <time name="orth">   33.35   33.35</time>
   <time name="total">  159.55  159.65</time>
   <energy>
    <i name="alphaZ">   5624.03916221 </i>
    <i name="ewald"> -61626.22747710 </i>
    <i name="hartreedc"> -16947.72276982 </i>
    <i name="XCdc">   3073.67067321 </i>
    <i name="pawpsdc"> 113285.85439208 </i>
    <i name="pawaedc">-112337.21917677 </i>
    <i name="eentropy">     -0.00000000 </i>
    <i name="bandstr">  -7076.14128799 </i>
    <i name="atom">  74916.81196153 </i>
    <i name="e_fr_energy">  -1086.93452265 </i>
    <i name="e_wo_entrp">  -1086.93452265 </i>
    <i name="e_0_energy">  -1086.93452265 </i>
   </energy>
  </scstep>
  <structure>
   <crystal>
    <varray name="basis" >
     <v>      11.23757703       0.00166092       0.00398757 </v>
     <v>       0.00164234      11.24997700      -0.01219374 </v>
     <v>       0.00574901      -0.01722493      15.85646324 </v>
    </varray>
    <i name="volume">   2004.61079423 </i>
    <varray name="rec_basis" >
     <v>       0.08898717      -0.00001303      -0.00003228 </v>
     <v>      -0.00001317       0.08888918       0.00009657 </v>
     <v>      -0.00002239       0.00006836       0.06306585 </v>
    </varray>
   </crystal>
   <varray name="positions" >
    <v>       0.00589411       0.23682192       0.12990169 </v>
    <v>       0.00027826       0.25124957       0.62403352 </v>
    <v>       0.00021216       0.75612283       0.11746292 </v>
    <v>       0.00941543       0.74905478       0.62254074 </v>
    <v>       0.48996393       0.24597895       0.12491837 </v>
    <v>       0.50446871       0.25651383       0.62164754 </v>
    <v>       0.50021913       0.75178694       0.12248848 </v>
    <v>       0.48917663       0.74793363       0.62456680 </v>
    <v>       0.00864351       0.25199844       0.37470493 </v>
    <v>       0.99043047       0.24360949       0.87602680 </v>
    <v>       0.00592528       0.73487531       0.36935562 </v>
    <v>       0.00723144       0.75800414       0.87837431 </v>
    <v>       0.49184314       0.24362278       0.37645296 </v>
    <v>       0.51081318       0.25970321       0.87283045 </v>
    <v>       0.50756565       0.75379345       0.37523709 </v>
    <v>       0.49474575       0.74988171       0.88025253 </v>
    <v>       0.23907288       0.00091084       0.12277590 </v>
    <v>       0.24587598       0.99978411       0.62429460 </v>
    <v>       0.24226094       0.50398493       0.13107236 </v>
    <v>       0.24558034       0.50588373       0.61893633 </v>
    <v>       0.75647173       0.99014813       0.12291981 </v>
    <v>       0.75564328       0.01266297       0.62278474 </v>
    <v>       0.76321356       0.50747918       0.12182946 </v>
    <v>       0.75958461       0.48882584       0.62709583 </v>
    <v>       0.24675679       0.01004745       0.37152119 </v>
    <v>       0.23538448       0.99126028       0.88135357 </v>
    <v>       0.23805741       0.48223585       0.37908939 </v>
    <v>       0.25293516       0.50889466       0.87491949 </v>
    <v>       0.75253728       0.99774965       0.37113281 </v>
    <v>       0.75903934       0.01017759       0.88220558 </v>
    <v>       0.76447843       0.49867868       0.37691205 </v>
    <v>       0.74929671       0.48934646       0.88157228 </v>
    <v>       0.00527548       0.00143308       0.49558138 </v>
    <v>       0.50330250       0.99539958       0.00052342 </v>
    <v>       0.49860176       0.99783139       0.49998236 </v>
    <v>       0.49664079       0.50402362       0.00299416 </v>
    <v>       0.26166042       0.24262637       0.99585787 </v>
    <v>       0.25003920       0.24845598       0.50210849 </v>
    <v>       0.75152567       0.25136568       0.50399101 </v>
    <v>       0.74977651       0.75231537       0.99723175 </v>
    <v>       0.75709603       0.76068136       0.50205348 </v>
    <v>       0.24674727       0.25700052       0.75057362 </v>
    <v>       0.24947417       0.74978201       0.75324599 </v>
    <v>       0.75282088       0.24340053       0.25676989 </v>
    <v>       0.75304903       0.74746301       0.24948315 </v>
    <v>       0.75741262       0.73610831       0.75227280 </v>
    <v>       0.99828677       0.00293791       0.74957231 </v>
    <v>       0.00447884       0.49462815       0.75177474 </v>
    <v>       0.49802160       0.99899571       0.24869239 </v>
    <v>       0.48632307       0.01190398       0.75419864 </v>
    <v>       0.51527819       0.48789303       0.24870299 </v>
    <v>       0.50347484       0.50263572       0.74726072 </v>
    <v>       0.99728870       0.00037697       0.00313970 </v>
    <v>       0.99338320       0.51196961       0.99934843 </v>
    <v>       0.99973056       0.49908742       0.50030780 </v>
    <v>       0.48902172       0.49296894       0.49664624 </v>
    <v>       0.24957475       0.74914806       0.00021671 </v>
    <v>       0.25030251       0.75096748       0.50631331 </v>
    <v>       0.75032289       0.25059838       0.99549201 </v>
    <v>       0.24650470       0.24911304       0.24914111 </v>
    <v>       0.24412551       0.76813153       0.24034779 </v>
    <v>       0.75063567       0.25086197       0.74893058 </v>
    <v>       0.00088109       0.99768208       0.25095112 </v>
    <v>       0.99685611       0.48855754       0.24793136 </v>
    <v>       0.11977904       0.12864089       0.24959290 </v>
    <v>       0.11173889       0.14069344       0.75060627 </v>
    <v>       0.17789404       0.62795924       0.27576156 </v>
    <v>       0.10851534       0.64107481       0.75373129 </v>
    <v>       0.61721609       0.13667833       0.23647645 </v>
    <v>       0.61407308       0.12727574       0.74707948 </v>
    <v>       0.60912126       0.63693554       0.24366679 </v>
    <v>       0.60452900       0.65069775       0.75423802 </v>
    <v>       0.38222663       0.37914553       0.25594031 </v>
    <v>       0.39206075       0.36066255       0.74624702 </v>
    <v>       0.38525371       0.85444923       0.26544396 </v>
    <v>       0.39602204       0.86081156       0.75252185 </v>
    <v>       0.87272095       0.36233070       0.23364886 </v>
    <v>       0.89085906       0.36305733       0.74516158 </v>
    <v>       0.87570227       0.86562871       0.25972389 </v>
    <v>       0.87358305       0.86492300       0.74420598 </v>
    <v>       0.36987649       0.11755974       0.25056824 </v>
    <v>       0.35804493       0.11336517       0.76744997 </v>
    <v>       0.35978489       0.60976663       0.74599626 </v>
    <v>       0.86035417       0.12007484       0.23250735 </v>
    <v>       0.86473223       0.11389051       0.74582985 </v>
    <v>       0.87008221       0.61827769       0.25390055 </v>
    <v>       0.85826817       0.60753978       0.76248600 </v>
    <v>       0.12796525       0.37700116       0.25038869 </v>
    <v>       0.14353684       0.39279531       0.73674045 </v>
    <v>       0.12623670       0.87716845       0.26595825 </v>
    <v>       0.13690116       0.88854423       0.75246454 </v>
    <v>       0.63658397       0.37749067       0.22963369 </v>
    <v>       0.63782145       0.39274787       0.74969894 </v>
    <v>       0.63230899       0.88396755       0.24557505 </v>
    <v>       0.35849200       0.38934326       0.99951118 </v>
    <v>       0.36648592       0.38052605       0.50415467 </v>
    <v>       0.36845636       0.88960916       0.99292500 </v>
    <v>       0.36220729       0.88670522       0.48874287 </v>
    <v>       0.87745749       0.37572133       0.01201982 </v>
    <v>       0.86987455       0.37598952       0.50251003 </v>
    <v>       0.86529658       0.87930147       0.99783696 </v>
    <v>       0.86462114       0.88314263       0.49991851 </v>
    <v>       0.12637856       0.13442618       0.99771017 </v>
    <v>       0.13698948       0.11332577       0.50102138 </v>
    <v>       0.13855113       0.60577818       0.99607096 </v>
    <v>       0.13288985       0.62201752       0.49161006 </v>
    <v>       0.62816685       0.12099174       0.01499752 </v>
    <v>       0.63591641       0.11241972       0.50133670 </v>
    <v>       0.63433875       0.61712500       0.00077029 </v>
    <v>       0.12069796       0.36418657       0.50621203 </v>
    <v>       0.11827180       0.86900840       0.99611404 </v>
    <v>       0.11587858       0.86505353       0.48293817 </v>
    <v>       0.61868497       0.37002390       0.01819725 </v>
    <v>       0.62275577       0.37490595       0.49378913 </v>
    <v>       0.61659473       0.86653743       0.01147553 </v>
    <v>       0.60812478       0.85283731       0.50072498 </v>
    <v>       0.38543593       0.13529950       0.98446003 </v>
    <v>       0.38957029       0.13289063       0.50276243 </v>
    <v>       0.38906533       0.63734834       0.99582981 </v>
    <v>       0.38934240       0.64026179       0.49120079 </v>
    <v>       0.87243505       0.13013697       0.01194571 </v>
    <v>       0.88252602       0.13137654       0.50927551 </v>
    <v>       0.87854063       0.63516524       0.98400897 </v>
    <v>       0.85740978       0.62320672       0.50317221 </v>
    <v>       0.00617621       0.98712595       0.12664184 </v>
    <v>       0.00772098       0.99068791       0.62305372 </v>
    <v>       0.01040159       0.51580689       0.12535681 </v>
    <v>       0.99764501       0.51359452       0.62678122 </v>
    <v>       0.47901503       0.99533269       0.12522207 </v>
    <v>       0.50198899       0.98954848       0.62907544 </v>
    <v>       0.47473064       0.51903889       0.13079033 </v>
    <v>       0.51558128       0.51422877       0.62010022 </v>
    <v>       0.98463205       0.01939061       0.37616458 </v>
    <v>       0.99356497       0.00207339       0.87295230 </v>
    <v>       0.99320081       0.49230256       0.37433542 </v>
    <v>       0.01253996       0.47476792       0.87631376 </v>
    <v>       0.51157681       0.00769553       0.37391873 </v>
    <v>       0.52911518       0.98613039       0.87238000 </v>
    <v>       0.51328668       0.51165342       0.37213695 </v>
    <v>       0.50450683       0.49388487       0.87617861 </v>
    <v>       0.25251920       0.24699899       0.37917357 </v>
    <v>       0.22926179       0.27650558       0.87650950 </v>
    <v>       0.25211010       0.74996531       0.87266527 </v>
    <v>       0.75416310       0.24393253       0.37285916 </v>
    <v>       0.74540187       0.25310606       0.87552781 </v>
    <v>       0.73348621       0.73632799       0.37991250 </v>
    <v>       0.73010526       0.77454966       0.87041392 </v>
    <v>       0.24820090       0.25685428       0.11819077 </v>
    <v>       0.25730118       0.23620796       0.62830903 </v>
    <v>       0.25357470       0.75168405       0.12396651 </v>
    <v>       0.24690860       0.75606732       0.62589687 </v>
    <v>       0.74088212       0.25335131       0.62475618 </v>
    <v>       0.76220321       0.74474801       0.12381464 </v>
    <v>       0.73202084       0.74725698       0.62726801 </v>
   </varray>
  </structure>
  <varray name="forces" >
   <v>      -0.00327595      -0.00238855      -0.00987440 </v>
   <v>      -0.00612355      -0.00132934       0.00035335 </v>
   <v>      -0.00302148      -0.00362905       0.00192413 </v>
   <v>       0.00073134      -0.00294037       0.00763271 </v>
   <v>       0.00886756      -0.00549020       0.00227181 </v>
   <v>      -0.00173684      -0.00505580      -0.00080474 </v>
   <v>      -0.00412253       0.00336999      -0.00150288 </v>
   <v>       0.00662893      -0.00308516       0.00020509 </v>
   <v>       0.01102912      -0.00452863      -0.00299700 </v>
   <v>       0.00097043       0.00782183       0.00227021 </v>
   <v>       0.00577317       0.00358592      -0.01111107 </v>
   <v>       0.00650629      -0.00759257       0.00501423 </v>
   <v>      -0.00686494       0.00270914      -0.00046954 </v>
   <v>       0.00164976       0.00592611      -0.00230737 </v>
   <v>      -0.00490762       0.00572834       0.00545724 </v>
   <v>      -0.00082159      -0.00179125      -0.00128944 </v>
   <v>      -0.00098498       0.00430876       0.00053829 </v>
   <v>      -0.00371549      -0.00632787       0.00183907 </v>
   <v>       0.00163721       0.00152406      -0.00547364 </v>
   <v>      -0.00084299       0.00632687       0.00359197 </v>
   <v>      -0.00069796       0.00051620       0.00334353 </v>
   <v>      -0.00381351      -0.00346390       0.00852635 </v>
   <v>      -0.00844723       0.00352530      -0.00384086 </v>
   <v>      -0.00616774       0.00259131       0.00161467 </v>
   <v>       0.00078644      -0.00467640       0.00060802 </v>
   <v>       0.00148846      -0.00036385      -0.00285378 </v>
   <v>      -0.00117522       0.01086761      -0.00397601 </v>
   <v>       0.00461404      -0.00430871       0.00258821 </v>
   <v>      -0.00462639      -0.00609300      -0.00071504 </v>
   <v>      -0.00574287      -0.00555936      -0.00400193 </v>
   <v>      -0.01048586       0.00313731       0.00137182 </v>
   <v>      -0.00444767       0.00417070      -0.00038628 </v>
   <v>       0.00907734      -0.01105109       0.02100616 </v>
   <v>       0.00596783      -0.01032977       0.01179453 </v>
   <v>      -0.00517643      -0.01818258      -0.00312615 </v>
   <v>      -0.00329262      -0.00279050      -0.01009595 </v>
   <v>      -0.01965229       0.01598976       0.00290262 </v>
   <v>      -0.00453470       0.00892057      -0.00633684 </v>
   <v>      -0.00602258       0.01262286       0.04262002 </v>
   <v>       0.00612958      -0.00710057       0.00315647 </v>
   <v>      -0.03818638      -0.02293189       0.00318298 </v>
   <v>      -0.01599658       0.01242833       0.00463200 </v>
   <v>      -0.00023783      -0.01814619       0.00219800 </v>
   <v>      -0.02105733      -0.00646654      -0.06589424 </v>
   <v>      -0.01093705      -0.00060678       0.00093137 </v>
   <v>      -0.01281439      -0.01376923       0.00532463 </v>
   <v>       0.00415352       0.01136959       0.00214859 </v>
   <v>      -0.00545722      -0.00357434       0.00949237 </v>
   <v>       0.00335092       0.00005558       0.00339041 </v>
   <v>       0.04280787      -0.00377457      -0.00887117 </v>
   <v>       0.00024428       0.00802273       0.01171898 </v>
   <v>       0.00320566       0.00956808      -0.00056607 </v>
   <v>       0.00469558      -0.00021866      -0.00145497 </v>
   <v>       0.00362219      -0.00251066      -0.00782047 </v>
   <v>       0.00199842       0.00600653       0.00306007 </v>
   <v>       0.00389069       0.00903344       0.00223584 </v>
   <v>      -0.00202200       0.00244136       0.00069398 </v>
   <v>       0.00264734      -0.00106154      -0.00097804 </v>
   <v>       0.00163916      -0.00325916      -0.00784485 </v>
   <v>       0.00663523       0.00165979      -0.00175837 </v>
   <v>       0.01373228       0.01040227      -0.01931637 </v>
   <v>      -0.00022869      -0.00285881       0.00258710 </v>
   <v>       0.00302025       0.00346412      -0.01220863 </v>
   <v>       0.00417560      -0.00160351      -0.00528329 </v>
   <v>       0.00370201      -0.00423194      -0.00283469 </v>
   <v>       0.00980954       0.00019475      -0.01011739 </v>
   <v>      -0.00401565       0.00070787      -0.00253165 </v>
   <v>       0.00426218       0.00225044      -0.00015883 </v>
   <v>       0.02196307       0.00255921       0.00333281 </v>
   <v>      -0.00562284      -0.00907739      -0.01031936 </v>
   <v>       0.00592792       0.00027981      -0.00178307 </v>
   <v>       0.00422314      -0.00109442      -0.00052929 </v>
   <v>       0.00029708      -0.00514476       0.00105799 </v>
   <v>      -0.00548149      -0.00273925      -0.00001063 </v>
   <v>      -0.00748363       0.01004247       0.00130458 </v>
   <v>       0.00129915       0.00552136       0.00201887 </v>
   <v>       0.00624328      -0.00288630       0.00688528 </v>
   <v>      -0.00096504       0.00319855       0.00375550 </v>
[...]
       <r>   -16.6167     0.0000    32.0000 </r>
       <r>   -16.4637     0.0000    32.0000 </r>
       <r>   -16.3106     0.0000    32.0000 </r>
       <r>   -16.1576     0.0000    32.0000 </r>
       <r>   -16.0046     0.0000    32.0000 </r>
       <r>   -15.8515     0.0000    32.0000 </r>
       <r>   -15.6985     0.0000    32.0000 </r>
       <r>   -15.5455     0.0000    32.0000 </r>
       <r>   -15.3924     0.0000    32.0000 </r>
       <r>   -15.2394     0.4104    32.0628 </r>
       <r>   -15.0863    21.6140    35.3706 </r>
       <r>   -14.9333    38.0468    41.1932 </r>
       <r>   -14.7803    40.6519    47.4145 </r>
       <r>   -14.6272    41.3057    53.7359 </r>
       <r>   -14.4742    44.3874    60.5288 </r>
       <r>   -14.3211    39.8924    66.6339 </r>
       <r>   -14.1681    54.8478    75.0277 </r>
       <r>   -14.0151    86.5581    88.2745 </r>
       <r>   -13.8620    86.4257   101.5009 </r>
       <r>   -13.7090    72.5118   112.5980 </r>
       <r>   -13.5560    32.4211   117.5597 </r>
       <r>   -13.4029    17.0278   120.1656 </r>
       <r>   -13.2499    11.3766   121.9067 </r>
       <r>   -13.0968     0.6099   122.0000 </r>
       <r>   -12.9438     0.0000   122.0000 </r>
       <r>   -12.7908     1.2798   122.1959 </r>
       <r>   -12.6377    55.4311   130.6789 </r>
       <r>   -12.4847   116.1767   148.4584 </r>
       <r>   -12.3316   122.8636   167.2613 </r>
       <r>   -12.1786   116.7611   185.1302 </r>
       <r>   -12.0256    92.6157   199.3040 </r>
       <r>   -11.8725    75.6176   210.8764 </r>
       <r>   -11.7195    41.7709   217.2690 </r>
       <r>   -11.5665     4.7768   218.0000 </r>
       <r>   -11.4134     0.0000   218.0000 </r>
       <r>   -11.2604     0.0000   218.0000 </r>
       <r>   -11.1073     0.0000   218.0000 </r>
       <r>   -10.9543     0.0000   218.0000 </r>
       <r>   -10.8013     0.0000   218.0000 </r>
       <r>   -10.6482     0.0000   218.0000 </r>
       <r>   -10.4952     0.0000   218.0000 </r>
       <r>   -10.3421     0.0000   218.0000 </r>
       <r>   -10.1891     0.0000   218.0000 </r>
       <r>   -10.0361     0.0000   218.0000 </r>
       <r>    -9.8830     0.0000   218.0000 </r>
       <r>    -9.7300     0.0000   218.0000 </r>
       <r>    -9.5770     0.0000   218.0000 </r>
       <r>    -9.4239     0.0000   218.0000 </r>
       <r>    -9.2709     0.0000   218.0000 </r>
       <r>    -9.1178     0.0000   218.0000 </r>
       <r>    -8.9648     0.0000   218.0000 </r>
       <r>    -8.8118     0.0000   218.0000 </r>
       <r>    -8.6587     0.0000   218.0000 </r>
       <r>    -8.5057     0.0000   218.0000 </r>
       <r>    -8.3526     0.0000   218.0000 </r>
       <r>    -8.1996     0.0000   218.0000 </r>
       <r>    -8.0466     0.0000   218.0000 </r>
       <r>    -7.8935     0.0000   218.0000 </r>
       <r>    -7.7405     0.0000   218.0000 </r>
       <r>    -7.5875     0.0000   218.0000 </r>
       <r>    -7.4344     0.0000   218.0000 </r>
       <r>    -7.2814     0.0000   218.0000 </r>
       <r>    -7.1283     0.0000   218.0000 </r>
       <r>    -6.9753     0.0000   218.0000 </r>
       <r>    -6.8223     0.0000   218.0000 </r>
       <r>    -6.6692     0.0000   218.0000 </r>
       <r>    -6.5162     0.0000   218.0000 </r>
       <r>    -6.3631     0.0000   218.0000 </r>
       <r>    -6.2101     0.0000   218.0000 </r>
       <r>    -6.0571     0.0000   218.0000 </r>
       <r>    -5.9040     0.0000   218.0000 </r>
       <r>    -5.7510     0.0000   218.0000 </r>
       <r>    -5.5980     0.0000   218.0000 </r>
       <r>    -5.4449     0.0000   218.0000 </r>
       <r>    -5.2919     0.0000   218.0000 </r>
       <r>    -5.1388     0.0000   218.0000 </r>
       <r>    -4.9858     0.0000   218.0000 </r>
       <r>    -4.8328     0.0000   218.0000 </r>
       <r>    -4.6797     0.0000   218.0000 </r>
       <r>    -4.5267     0.0000   218.0000 </r>
       <r>    -4.3736     0.2740   218.0419 </r>
       <r>    -4.2206    12.6384   219.9761 </r>
       <r>    -4.0676     2.4517   220.3513 </r>
       <r>    -3.9145    13.9329   222.4836 </r>
       <r>    -3.7615     3.3745   223.0000 </r>
       <r>    -3.6085     0.0000   223.0000 </r>
       <r>    -3.4554     0.0000   223.0000 </r>
       <r>    -3.3024     0.0000   223.0000 </r>
       <r>    -3.1493     0.0000   223.0000 </r>
       <r>    -2.9963     0.0000   223.0000 </r>
       <r>    -2.8433     0.0000   223.0000 </r>
       <r>    -2.6902     0.0000   223.0000 </r>
       <r>    -2.5372     0.0011   223.0002 </r>
       <r>    -2.3841     5.6171   223.8598 </r>
       <r>    -2.2311    13.0664   225.8595 </r>
       <r>    -2.0781    23.1143   229.3968 </r>
       <r>    -1.9250    26.1427   233.3977 </r>
       <r>    -1.7720    37.9753   239.2094 </r>
       <r>    -1.6190    47.1248   246.4213 </r>
       <r>    -1.4659    52.1507   254.4023 </r>
       <r>    -1.3129    57.7501   263.2403 </r>
       <r>    -1.1598    63.6831   272.9863 </r>
       <r>    -1.0068    65.7540   283.0492 </r>
       <r>    -0.8538    66.6842   293.2544 </r>
       <r>    -0.7007    83.2331   305.9923 </r>
       <r>    -0.5477    98.7554   321.1057 </r>
       <r>    -0.3946   101.0386   336.5685 </r>
       <r>    -0.2416    70.9857   347.4320 </r>
       <r>    -0.0886    54.4585   355.7662 </r>
       <r>     0.0645    51.6630   363.6727 </r>
       <r>     0.2175    51.3666   371.5337 </r>
       <r>     0.3705    50.7177   379.2955 </r>
       <r>     0.5236    51.4235   387.1653 </r>
       <r>     0.6766    53.6875   395.3815 </r>
       <r>     0.8297    48.9239   402.8688 </r>
       <r>     0.9827    56.1232   411.4578 </r>
       <r>     1.1357    68.7170   421.9741 </r>
       <r>     1.2888    73.1954   433.1758 </r>
       <r>     1.4418    73.0588   444.3566 </r>
       <r>     1.5949    77.1903   456.1697 </r>
       <r>     1.7479    73.1874   467.3702 </r>
       <r>     1.9009    63.6865   477.1167 </r>
       <r>     2.0540    41.4528   483.4606 </r>
       <r>     2.2070    34.6791   488.7678 </r>
       <r>     2.3600    26.9894   492.8982 </r>
       <r>     2.5131     0.6651   493.0000 </r>
       <r>     2.6661     0.0000   493.0000 </r>
       <r>     2.8192     0.0000   493.0000 </r>
       <r>     2.9722     0.0000   493.0000 </r>
       <r>     3.1252     0.0000   493.0000 </r>
       <r>     3.2783     0.0000   493.0000 </r>
       <r>     3.4313     0.0000   493.0000 </r>
       <r>     3.5844     0.0000   493.0000 </r>
       <r>     3.7374     0.0000   493.0000 </r>
       <r>     3.8904     0.0000   493.0000 </r>
       <r>     4.0435     0.0000   493.0000 </r>
       <r>     4.1965     0.0000   493.0000 </r>
       <r>     4.3495     0.0002   493.0000 </r>
       <r>     4.5026     6.5060   493.9957 </r>
       <r>     4.6556    39.7518   500.0793 </r>
       <r>     4.8087    40.6722   506.3037 </r>
       <r>     4.9617    36.5588   511.8986 </r>
       <r>     5.1147    49.2692   519.4387 </r>
       <r>     5.2678    64.2207   529.2669 </r>
       <r>     5.4208    70.0785   539.9916 </r>
       <r>     5.5739    63.7736   549.7514 </r>
       <r>     5.7269    75.9901   561.3808 </r>
       <r>     5.8799    87.1453   574.7174 </r>
       <r>     6.0330    79.7312   586.9193 </r>
       <r>     6.1860    73.7295   598.2028 </r>
       <r>     6.3390    58.5049   607.1563 </r>
       <r>     6.4921    31.5321   611.9819 </r>
       <r>     6.6451    17.4369   614.6504 </r>
       <r>     6.7982    12.6136   616.5808 </r>
       <r>     6.9512    14.1980   618.7536 </r>
       <r>     7.1042    20.9678   621.9625 </r>
       <r>     7.2573    14.3341   624.1562 </r>
       <r>     7.4103    15.9145   626.5917 </r>
       <r>     7.5634    15.5983   628.9788 </r>
       <r>     7.7164    15.7450   631.3884 </r>
       <r>     7.8694    18.2664   634.1839 </r>
       <r>     8.0225    22.1295   637.5706 </r>
       <r>     8.1755    22.7470   641.0517 </r>
       <r>     8.3285    20.4132   644.1757 </r>
       <r>     8.4816    27.2337   648.3435 </r>
       <r>     8.6346    29.5256   652.8621 </r>
       <r>     8.7877    34.1187   658.0836 </r>
       <r>     8.9407    31.7231   662.9384 </r>
       <r>     9.0937    35.0628   668.3044 </r>
       <r>     9.2468    37.0499   673.9744 </r>
       <r>     9.3998    39.2667   679.9838 </r>
       <r>     9.5529    44.7070   686.8256 </r>
       <r>     9.7059    49.2803   694.3674 </r>
       <r>     9.8589    58.9007   703.3815 </r>
       <r>    10.0120    60.2661   712.6046 </r>
       <r>    10.1650    62.2136   722.1256 </r>
       <r>    10.3180    56.8726   730.8293 </r>
       <r>    10.4711    55.9071   739.3853 </r>
       <r>    10.6241    55.6512   747.9020 </r>
       <r>    10.7772    55.4884   756.3939 </r>
       <r>    10.9302    55.3880   764.8704 </r>
       <r>    11.0832    20.4384   767.9982 </r>
       <r>    11.2363     0.0115   768.0000 </r>
       <r>    11.3893     0.0000   768.0000 </r>
       <r>    11.5424     0.0000   768.0000 </r>
       <r>    11.6954     0.0000   768.0000 </r>
       <r>    11.8484     0.0000   768.0000 </r>
       <r>    12.0015     0.0000   768.0000 </r>
       <r>    12.1545     0.0000   768.0000 </r>
       <r>    12.3075     0.0000   768.0000 </r>
       <r>    12.4606     0.0000   768.0000 </r>
       <r>    12.6136     0.0000   768.0000 </r>
       <r>    12.7667     0.0000   768.0000 </r>
       <r>    12.9197     0.0000   768.0000 </r>
       <r>    13.0727     0.0000   768.0000 </r>
      </set>
     </set>
    </array>
   </total>
  </dos>
 </calculation>
 <structure name="finalpos" >
  <crystal>
   <varray name="basis" >
    <v>      11.23769180       0.00192114       0.00388392 </v>
    <v>       0.00190295      11.25024807      -0.01224643 </v>
    <v>       0.00560264      -0.01730008      15.85588696 </v>
   </varray>
   <i name="volume">   2004.60669004 </i>
   <varray name="rec_basis" >
    <v>       0.08898626      -0.00001509      -0.00003146 </v>
    <v>      -0.00001523       0.08888704       0.00009699 </v>
    <v>      -0.00002181       0.00006866       0.06306814 </v>
   </varray>
  </crystal>
  <varray name="positions" >
   <v>       0.00587168       0.23680791       0.12987075 </v>
   <v>       0.00024785       0.25124100       0.62401417 </v>
   <v>       0.00019088       0.75610285       0.11747796 </v>
   <v>       0.00939943       0.74904178       0.62256496 </v>
   <v>       0.49000604       0.24595810       0.12492481 </v>
   <v>       0.50445208       0.25647892       0.62164039 </v>
   <v>       0.50019372       0.75179689       0.12248421 </v>
   <v>       0.48921806       0.74792769       0.62456547 </v>
   <v>       0.00866767       0.25195587       0.37469436 </v>
   <v>       0.99044784       0.24364028       0.87604681 </v>
   <v>       0.00595740       0.73490186       0.36931689 </v>
   <v>       0.00725760       0.75798061       0.87838197 </v>
   <v>       0.49182184       0.24363413       0.37646560 </v>
   <v>       0.51080749       0.25972863       0.87281913 </v>
   <v>       0.50753419       0.75382125       0.37525797 </v>
   <v>       0.49473988       0.74988207       0.88024738 </v>
   <v>       0.23907038       0.00094305       0.12277725 </v>
   <v>       0.24588006       0.99976368       0.62431337 </v>
   <v>       0.24227518       0.50398311       0.13105959 </v>
   <v>       0.24557083       0.50590393       0.61893955 </v>
   <v>       0.75647800       0.99015619       0.12293476 </v>
   <v>       0.75562734       0.01263857       0.62280589 </v>
   <v>       0.76317301       0.50748805       0.12182609 </v>
   <v>       0.75955955       0.48884537       0.62709055 </v>
   <v>       0.24675102       0.01002056       0.37152667 </v>
   <v>       0.23540128       0.99126276       0.88133411 </v>
   <v>       0.23804982       0.48230510       0.37907030 </v>
   <v>       0.25297299       0.50885772       0.87492788 </v>
   <v>       0.75254587       0.99774302       0.37114265 </v>
   <v>       0.75900639       0.01013397       0.88218563 </v>
   <v>       0.76443013       0.49866900       0.37691819 </v>
   <v>       0.74926649       0.48937053       0.88157232 </v>
   <v>       0.00527220       0.00141089       0.49559963 </v>
   <v>       0.50330924       0.99538063       0.00054692 </v>
   <v>       0.49859388       0.99780250       0.49997826 </v>
   <v>       0.49662493       0.50398184       0.00296014 </v>
   <v>       0.26160554       0.24266283       0.99586969 </v>
   <v>       0.25004087       0.24848031       0.50210270 </v>
   <v>       0.75151307       0.25137780       0.50401874 </v>
   <v>       0.74980018       0.75229672       0.99724102 </v>
   <v>       0.75703163       0.76062946       0.50206300 </v>
   <v>       0.24672768       0.25702346       0.75058925 </v>
   <v>       0.24948492       0.74977820       0.75325937 </v>
   <v>       0.75281500       0.24340259       0.25670375 </v>
   <v>       0.75304283       0.74745553       0.24949343 </v>
   <v>       0.75741835       0.73610753       0.75227729 </v>
   <v>       0.99827735       0.00293727       0.74960334 </v>
   <v>       0.00446716       0.49462814       0.75178086 </v>
   <v>       0.49804366       0.99902475       0.24872056 </v>
   <v>       0.48637835       0.01189317       0.75417739 </v>
   <v>       0.51526714       0.48789770       0.24870044 </v>
   <v>       0.50349640       0.50265129       0.74728128 </v>
   <v>       0.99731402       0.00039689       0.00313265 </v>
   <v>       0.99340854       0.51193388       0.99932798 </v>
   <v>       0.99972820       0.49911356       0.50032228 </v>
   <v>       0.48903871       0.49297107       0.49665156 </v>
   <v>       0.24957733       0.74917332       0.00021823 </v>
   <v>       0.25030893       0.75095502       0.50627495 </v>
   <v>       0.75033186       0.25056640       0.99549268 </v>
   <v>       0.24652428       0.24913135       0.24913522 </v>
   <v>       0.24415876       0.76816528       0.24033630 </v>
   <v>       0.75061049       0.25082962       0.74890923 </v>
   <v>       0.00086089       0.99772806       0.25095583 </v>
   <v>       0.99684826       0.48855197       0.24792492 </v>
   <v>       0.11981865       0.12863240       0.24957856 </v>
   <v>       0.11175562       0.14069495       0.75056449 </v>
   <v>       0.17787428       0.62799664       0.27573569 </v>
   <v>       0.10853876       0.64107205       0.75372903 </v>
   <v>       0.61727925       0.13664867       0.23647438 </v>
   <v>       0.61406700       0.12724869       0.74704574 </v>
   <v>       0.60914885       0.63696318       0.24365693 </v>
   <v>       0.60450489       0.65066579       0.75423794 </v>
   <v>       0.38222900       0.37911396       0.25594844 </v>
   <v>       0.39205859       0.36067624       0.74624205 </v>
   <v>       0.38522966       0.85451241       0.26543938 </v>
   <v>       0.39602933       0.86080572       0.75253575 </v>
   <v>       0.87275246       0.36231251       0.23366445 </v>
   <v>       0.89085319       0.36305786       0.74518052 </v>
   <v>       0.87569889       0.86566352       0.25975317 </v>
   <v>       0.87357533       0.86497561       0.74421999 </v>
   <v>       0.36992063       0.11760416       0.25062851 </v>
   <v>       0.35805847       0.11339901       0.76745589 </v>
   <v>       0.35978411       0.60981934       0.74601176 </v>
   <v>       0.86039713       0.12010628       0.23253800 </v>
   <v>       0.86477492       0.11388682       0.74583002 </v>
   <v>       0.87014346       0.61828983       0.25390564 </v>
   <v>       0.85826305       0.60757414       0.76253424 </v>
   <v>       0.12800559       0.37702387       0.25036953 </v>
   <v>       0.14352113       0.39276326       0.73672659 </v>
   <v>       0.12622080       0.87720276       0.26592412 </v>
   <v>       0.13685852       0.88852876       0.75245103 </v>
   <v>       0.63660870       0.37747542       0.22967852 </v>
   <v>       0.63782029       0.39273099       0.74970667 </v>
   <v>       0.63228066       0.88394668       0.24554157 </v>
   <v>       0.35852389       0.38932371       0.99950925 </v>
   <v>       0.36650900       0.38051587       0.50413028 </v>
   <v>       0.36850355       0.88956252       0.99294621 </v>
   <v>       0.36220395       0.88669986       0.48871785 </v>
   <v>       0.87742942       0.37576424       0.01198964 </v>
   <v>       0.86990658       0.37593433       0.50247738 </v>
   <v>       0.86527332       0.87929837       0.99782966 </v>
   <v>       0.86463374       0.88314211       0.49992317 </v>
   <v>       0.12637925       0.13445677       0.99772184 </v>
   <v>       0.13694527       0.11329870       0.50104817 </v>
   <v>       0.13851228       0.60579620       0.99607860 </v>
   <v>       0.13286910       0.62199398       0.49163441 </v>
   <v>       0.62815576       0.12100244       0.01498898 </v>
   <v>       0.63589366       0.11242648       0.50133463 </v>
   <v>       0.63433424       0.61710786       0.00077915 </v>
   <v>       0.12068051       0.36417815       0.50624883 </v>
   <v>       0.11822126       0.86905572       0.99614281 </v>
   <v>       0.11585684       0.86508079       0.48294709 </v>
   <v>       0.61864813       0.37002388       0.01816184 </v>
   <v>       0.62272853       0.37487359       0.49378841 </v>
   <v>       0.61660997       0.86655824       0.01148879 </v>
   <v>       0.60810389       0.85283657       0.50073468 </v>
   <v>       0.38536504       0.13527907       0.98444220 </v>
   <v>       0.38955642       0.13287881       0.50271593 </v>
   <v>       0.38904292       0.63732859       0.99583431 </v>
   <v>       0.38932464       0.64028706       0.49122792 </v>
   <v>       0.87243149       0.13013411       0.01193703 </v>
   <v>       0.88246704       0.13137502       0.50925774 </v>
   <v>       0.87854087       0.63514573       0.98402545 </v>
   <v>       0.85742198       0.62317001       0.50314434 </v>
   <v>       0.00613280       0.98715111       0.12664030 </v>
   <v>       0.00771760       0.99069881       0.62306097 </v>
   <v>       0.01040595       0.51576685       0.12536486 </v>
   <v>       0.99763319       0.51357486       0.62679186 </v>
   <v>       0.47895539       0.99539490       0.12518889 </v>
   <v>       0.50190864       0.98958093       0.62904197 </v>
   <v>       0.47477348       0.51897524       0.13077889 </v>
   <v>       0.51556512       0.51420619       0.62011178 </v>
   <v>       0.98467576       0.01938777       0.37616248 </v>
   <v>       0.99364263       0.00208027       0.87297657 </v>
   <v>       0.99325222       0.49230701       0.37432169 </v>
   <v>       0.01255263       0.47477921       0.87633031 </v>
   <v>       0.51163836       0.00768759       0.37390173 </v>
   <v>       0.52912131       0.98614976       0.87234936 </v>
   <v>       0.51331742       0.51165859       0.37211382 </v>
   <v>       0.50452689       0.49386957       0.87618603 </v>
   <v>       0.25244999       0.24704616       0.37917668 </v>
   <v>       0.22922732       0.27648255       0.87649583 </v>
   <v>       0.25210808       0.75001899       0.87269585 </v>
   <v>       0.75410115       0.24390448       0.37292934 </v>
   <v>       0.74538900       0.25306298       0.87552865 </v>
   <v>       0.73349380       0.73636925       0.37994260 </v>
   <v>       0.73009049       0.77452901       0.87038074 </v>
   <v>       0.24823997       0.25681789       0.11818092 </v>
   <v>       0.25737609       0.23619410       0.62829578 </v>
   <v>       0.25361621       0.75166225       0.12396930 </v>
   <v>       0.24690783       0.75607308       0.62588024 </v>
   <v>       0.74094273       0.25331527       0.62473399 </v>
   <v>       0.76221808       0.74478279       0.12382351 </v>
   <v>       0.73208349       0.74722881       0.62728335 </v>
  </varray>
 </structure>
</modeling>
