       N       E                     dE             d eps       ncg     rms          rms(c)
DAV:   1    -0.108980428188E+04   -0.10898E+04   -0.19606E-01 13592   0.102E+00    0.290E-02
RMM:   2    -0.108980428892E+04   -0.70453E-05   -0.78241E-05  7262   0.158E-02    0.267E-02
RMM:   3    -0.108980429160E+04   -0.26804E-05   -0.29552E-05  7138   0.996E-03    0.153E-02
RMM:   4    -0.108980429666E+04   -0.50586E-05   -0.21886E-05  6801   0.629E-03    0.167E-02
RMM:   5    -0.108980429889E+04   -0.22312E-05   -0.12265E-05  6410   0.561E-03    0.627E-03
RMM:   6    -0.108980429994E+04   -0.10495E-05   -0.91773E-06  5692   0.375E-03    0.498E-03
RMM:   7    -0.108980430042E+04   -0.47806E-06   -0.52322E-06  4707   0.359E-03    0.328E-03
RMM:   8    -0.108980430074E+04   -0.32224E-06   -0.34656E-06  3768   0.266E-03
   1 F= -.10898043E+04 E0= -.10898043E+04  d E =-.108980E+04  mag=    60.0000
       N       E                     dE             d eps       ncg     rms          rms(c)
DAV:   1    -0.108981586374E+04   -0.11563E-01   -0.36350E+00 12416   0.232E+00    0.112E+00
RMM:   2    -0.108981876139E+04   -0.28977E-02   -0.12606E-01 12365   0.479E-01    0.852E-01
RMM:   3    -0.108981725447E+04    0.15069E-02   -0.83577E-03 12769   0.168E-01    0.451E-01
RMM:   4    -0.108981624629E+04    0.10082E-02   -0.32565E-03 12975   0.666E-02    0.304E-01
RMM:   5    -0.108981598856E+04    0.25773E-03   -0.69692E-04 11770   0.352E-02    0.168E-01
RMM:   6    -0.108981597255E+04    0.16010E-04   -0.18727E-04  8239   0.163E-02    0.782E-02
RMM:   7    -0.108981596919E+04    0.33544E-05   -0.78730E-05  7383   0.130E-02    0.561E-02
RMM:   8    -0.108981596621E+04    0.29868E-05   -0.44967E-05  7244   0.978E-03
   2 F= -.10898160E+04 E0= -.10898160E+04  d E =-.116655E-01  mag=    60.0000
       N       E                     dE             d eps       ncg     rms          rms(c)
DAV:   1    -0.108981603423E+04   -0.65032E-04   -0.25763E-02 13824   0.196E-01    0.928E-02
RMM:   2    -0.108981605853E+04   -0.24302E-04   -0.93368E-04 12136   0.401E-02    0.688E-02
RMM:   3    -0.108981604641E+04    0.12117E-04   -0.46806E-05  7176   0.139E-02    0.374E-02
RMM:   4    -0.108981604085E+04    0.55643E-05   -0.25822E-05  7074   0.683E-03    0.278E-02
RMM:   5    -0.108981603811E+04    0.27379E-05   -0.10782E-05  6796   0.521E-03    0.251E-02
RMM:   6    -0.108981603675E+04    0.13540E-05   -0.52706E-06  6270   0.344E-03    0.749E-03
RMM:   7    -0.108981603574E+04    0.10186E-05   -0.21996E-06  4267   0.277E-03    0.434E-03
RMM:   8    -0.108981603494E+04    0.79753E-06   -0.13555E-06  3536   0.241E-03
   3 F= -.10898160E+04 E0= -.10898160E+04  d E =-.117342E-01  mag=    60.0000
       N       E                     dE             d eps       ncg     rms          rms(c)
DAV:   1    -0.108981596900E+04    0.66738E-04   -0.33931E+00 12320   0.220E+00    0.694E-01
RMM:   2    -0.108982547829E+04   -0.95093E-02   -0.90619E-02 12433   0.410E-01    0.449E-01
RMM:   3    -0.108982590454E+04   -0.42625E-03   -0.52150E-03 12857   0.131E-01    0.262E-01
RMM:   4    -0.108982557723E+04    0.32731E-03   -0.13636E-03 13924   0.425E-02    0.130E-01
RMM:   5    -0.108982551515E+04    0.62078E-04   -0.38691E-04 10084   0.215E-02    0.498E-02
RMM:   6    -0.108982551889E+04   -0.37331E-05   -0.58885E-05  7289   0.121E-02    0.408E-02
RMM:   7    -0.108982552245E+04   -0.35617E-05   -0.30250E-05  7168   0.781E-03    0.209E-02
RMM:   8    -0.108982552556E+04   -0.31084E-05   -0.19354E-05  7103   0.681E-03
   4 F= -.10898255E+04 E0= -.10898255E+04  d E =-.949062E-02  mag=    60.0000
       N       E                     dE             d eps       ncg     rms          rms(c)
DAV:   1    -0.108981668651E+04    0.88359E-02   -0.44732E+00 12288   0.253E+00    0.796E-01
RMM:   2    -0.108982926267E+04   -0.12576E-01   -0.11988E-01 12436   0.471E-01    0.516E-01
RMM:   3    -0.108982982555E+04   -0.56288E-03   -0.69565E-03 13035   0.151E-01    0.302E-01
RMM:   4    -0.108982939633E+04    0.42922E-03   -0.18527E-03 14578   0.487E-02    0.150E-01
RMM:   5    -0.108982931758E+04    0.78754E-04   -0.54549E-04 11545   0.239E-02    0.540E-02
RMM:   6    -0.108982931993E+04   -0.23511E-05   -0.68262E-05  7338   0.119E-02    0.410E-02
RMM:   7    -0.108982932406E+04   -0.41297E-05   -0.35431E-05  7240   0.846E-03    0.226E-02
RMM:   8    -0.108982932800E+04   -0.39402E-05   -0.24496E-05  7143   0.716E-03
   5 F= -.10898293E+04 E0= -.10898293E+04  d E =-.132931E-01  mag=    60.0000
       N       E                     dE             d eps       ncg     rms          rms(c)
DAV:   1    -0.108982571351E+04    0.36105E-02   -0.42585E+00 12752   0.247E+00    0.731E-01
RMM:   2    -0.108983677999E+04   -0.11066E-01   -0.11520E-01 12431   0.460E-01    0.470E-01
RMM:   3    -0.108983719640E+04   -0.41641E-03   -0.69254E-03 13046   0.148E-01    0.283E-01
RMM:   4    -0.108983686004E+04    0.33636E-03   -0.16325E-03 14982   0.459E-02    0.165E-01
RMM:   5    -0.108983675329E+04    0.10675E-03   -0.61305E-04 11696   0.250E-02    0.639E-02
RMM:   6    -0.108983676245E+04   -0.91542E-05   -0.92186E-05  7398   0.136E-02    0.470E-02
RMM:   7    -0.108983676994E+04   -0.74974E-05   -0.46255E-05  7246   0.963E-03    0.235E-02
RMM:   8    -0.108983677684E+04   -0.69009E-05   -0.31745E-05  7159   0.834E-03
   6 F= -.10898368E+04 E0= -.10898368E+04  d E =-.744884E-02  mag=    60.0000
       N       E                     dE             d eps       ncg     rms          rms(c)
DAV:   1    -0.108983467617E+04    0.20938E-02   -0.12033E+00 12704   0.131E+00    0.387E-01
RMM:   2    -0.108983783864E+04   -0.31625E-02   -0.32692E-02 12434   0.245E-01    0.248E-01
RMM:   3    -0.108983796335E+04   -0.12472E-03   -0.20083E-03 12815   0.792E-02    0.151E-01
RMM:   4    -0.108983786338E+04    0.99973E-04   -0.39848E-04  9837   0.247E-02    0.881E-02
RMM:   5    -0.108983783575E+04    0.27628E-04   -0.15991E-04  7397   0.173E-02    0.458E-02
RMM:   6    -0.108983784229E+04   -0.65400E-05   -0.51079E-05  7183   0.126E-02    0.421E-02
RMM:   7    -0.108983784657E+04   -0.42759E-05   -0.28679E-05  7133   0.731E-03    0.154E-02
RMM:   8    -0.108983784986E+04   -0.32904E-05   -0.16162E-05  7049   0.725E-03
   7 F= -.10898378E+04 E0= -.10898378E+04  d E =-.852186E-02  mag=    60.0000
       N       E                     dE             d eps       ncg     rms          rms(c)
DAV:   1    -0.108983370023E+04    0.41463E-02   -0.44376E+00 12288   0.252E+00    0.704E-01
RMM:   2    -0.108984479999E+04   -0.11100E-01   -0.11799E-01 12451   0.469E-01    0.445E-01
RMM:   3    -0.108984517046E+04   -0.37047E-03   -0.72172E-03 13335   0.149E-01    0.273E-01
RMM:   4    -0.108984483694E+04    0.33352E-03   -0.14137E-03 14567   0.431E-02    0.161E-01
RMM:   5    -0.108984469414E+04    0.14280E-03   -0.61947E-04 11501   0.255E-02    0.604E-02
RMM:   6    -0.108984469418E+04   -0.37093E-07   -0.78711E-05  7325   0.135E-02    0.470E-02
RMM:   7    -0.108984469732E+04   -0.31443E-05   -0.38402E-05  7209   0.892E-03    0.253E-02
RMM:   8    -0.108984469736E+04   -0.34110E-07   -0.24507E-05  7143   0.769E-03
   8 F= -.10898447E+04 E0= -.10898447E+04  d E =-.684750E-02  mag=    60.0000
       N       E                     dE             d eps       ncg     rms          rms(c)
DAV:   1    -0.108983635292E+04    0.83444E-02   -0.42794E+00 12288   0.248E+00    0.690E-01
RMM:   2    -0.108984707882E+04   -0.10726E-01   -0.11386E-01 12446   0.461E-01    0.435E-01
RMM:   3    -0.108984743892E+04   -0.36010E-03   -0.69695E-03 13308   0.147E-01    0.268E-01
RMM:   4    -0.108984712114E+04    0.31778E-03   -0.13734E-03 14540   0.424E-02    0.158E-01
RMM:   5    -0.108984698522E+04    0.13592E-03   -0.60003E-04 11472   0.253E-02    0.605E-02
RMM:   6    -0.108984698558E+04   -0.36495E-06   -0.82348E-05  7339   0.135E-02    0.485E-02
RMM:   7    -0.108984698882E+04   -0.32307E-05   -0.39682E-05  7226   0.916E-03    0.251E-02
RMM:   8    -0.108984698893E+04   -0.11337E-06   -0.25691E-05  7152   0.776E-03
   9 F= -.10898470E+04 E0= -.10898470E+04  d E =-.913907E-02  mag=    60.0000
       N       E                     dE             d eps       ncg     rms          rms(c)
DAV:   1    -0.108984352613E+04    0.34627E-02   -0.33805E+00 12312   0.218E+00    0.566E-01
RMM:   2    -0.108985244439E+04   -0.89183E-02   -0.87190E-02 12613   0.397E-01    0.353E-01
RMM:   3    -0.108985278083E+04   -0.33644E-03   -0.48619E-03 13276   0.121E-01    0.203E-01
RMM:   4    -0.108985258378E+04    0.19705E-03   -0.84918E-04 13148   0.341E-02    0.123E-01
RMM:   5    -0.108985249751E+04    0.86278E-04   -0.48961E-04 10299   0.227E-02    0.405E-02
RMM:   6    -0.108985250050E+04   -0.29895E-05   -0.62613E-05  7259   0.129E-02    0.316E-02
RMM:   7    -0.108985250368E+04   -0.31868E-05   -0.34680E-05  7109   0.772E-03    0.170E-02
RMM:   8    -0.108985250445E+04   -0.76566E-06   -0.20906E-05  6958   0.709E-03
  10 F= -.10898525E+04 E0= -.10898525E+04  d E =-.551552E-02  mag=    60.0000
       N       E                     dE             d eps       ncg     rms          rms(c)
DAV:   1    -0.108983118808E+04    0.21316E-01   -0.94101E+00 12288   0.364E+00    0.941E-01
RMM:   2    -0.108985596902E+04   -0.24781E-01   -0.24234E-01 12588   0.663E-01    0.587E-01
RMM:   3    -0.108985694682E+04   -0.97780E-03   -0.13662E-02 13352   0.203E-01    0.340E-01
RMM:   4    -0.108985640668E+04    0.54014E-03   -0.24859E-03 15622   0.566E-02    0.206E-01
RMM:   5    -0.108985616386E+04    0.24282E-03   -0.13985E-03 13109   0.345E-02    0.621E-02
RMM:   6    -0.108985616331E+04    0.55222E-06   -0.13119E-04  7666   0.174E-02    0.477E-02
RMM:   7    -0.108985616836E+04   -0.50495E-05   -0.59729E-05  7291   0.102E-02    0.264E-02
RMM:   8    -0.108985616949E+04   -0.11315E-05   -0.42495E-05  7207   0.997E-03
  11 F= -.10898562E+04 E0= -.10898562E+04  d E =-.918056E-02  mag=    60.0000
       N       E                     dE             d eps       ncg     rms          rms(c)
DAV:   1    -0.108984880336E+04    0.73650E-02   -0.50438E+00 12432   0.265E+00    0.743E-01
RMM:   2    -0.108986216274E+04   -0.13359E-01   -0.13230E-01 12663   0.488E-01    0.449E-01
RMM:   3    -0.108986259693E+04   -0.43419E-03   -0.74353E-03 13527   0.146E-01    0.257E-01
RMM:   4    -0.108986226569E+04    0.33124E-03   -0.14266E-03 14574   0.425E-02    0.154E-01
RMM:   5    -0.108986215737E+04    0.10833E-03   -0.60394E-04 11658   0.251E-02    0.541E-02
RMM:   6    -0.108986216858E+04   -0.11213E-04   -0.86073E-05  7339   0.135E-02    0.404E-02
RMM:   7    -0.108986217564E+04   -0.70593E-05   -0.43740E-05  7214   0.910E-03    0.246E-02
RMM:   8    -0.108986218206E+04   -0.64201E-05   -0.28848E-05  7149   0.803E-03
  12 F= -.10898622E+04 E0= -.10898622E+04  d E =-.601257E-02  mag=    60.0000
       N       E                     dE             d eps       ncg     rms          rms(c)
DAV:   1    -0.108984179547E+04    0.20380E-01   -0.88346E+00 12520   0.351E+00    0.985E-01
RMM:   2    -0.108986507284E+04   -0.23277E-01   -0.23087E-01 12631   0.646E-01    0.595E-01
RMM:   3    -0.108986586982E+04   -0.79698E-03   -0.13074E-02 13527   0.194E-01    0.341E-01
RMM:   4    -0.108986530214E+04    0.56768E-03   -0.25039E-03 15785   0.564E-02    0.204E-01
RMM:   5    -0.108986511729E+04    0.18485E-03   -0.10981E-03 13405   0.317E-02    0.718E-02
RMM:   6    -0.108986513092E+04   -0.13633E-04   -0.14154E-04  7601   0.163E-02    0.506E-02
RMM:   7    -0.108986514128E+04   -0.10364E-04   -0.62128E-05  7296   0.104E-02    0.308E-02
RMM:   8    -0.108986515005E+04   -0.87688E-05   -0.42954E-05  7213   0.981E-03
  13 F= -.10898652E+04 E0= -.10898652E+04  d E =-.898056E-02  mag=    60.0000
       N       E                     dE             d eps       ncg     rms          rms(c)
DAV:   1    -0.108985698858E+04    0.81527E-02   -0.50062E+00 12304   0.263E+00    0.714E-01
RMM:   2    -0.108987043583E+04   -0.13447E-01   -0.12819E-01 12669   0.478E-01    0.409E-01
RMM:   3    -0.108987094230E+04   -0.50647E-03   -0.71975E-03 13561   0.142E-01    0.225E-01
RMM:   4    -0.108987060547E+04    0.33682E-03   -0.13504E-03 14161   0.414E-02    0.131E-01
RMM:   5    -0.108987049943E+04    0.10604E-03   -0.52727E-04 11381   0.243E-02    0.509E-02
RMM:   6    -0.108987050197E+04   -0.25450E-05   -0.76802E-05  7303   0.126E-02    0.345E-02
RMM:   7    -0.108987050502E+04   -0.30450E-05   -0.39454E-05  7193   0.861E-03    0.227E-02
RMM:   8    -0.108987050479E+04    0.22573E-06   -0.25286E-05  7108   0.724E-03
  14 F= -.10898705E+04 E0= -.10898705E+04  d E =-.535474E-02  mag=    60.0000
       N       E                     dE             d eps       ncg     rms          rms(c)
DAV:   1    -0.108984509804E+04    0.25407E-01   -0.10404E+01 12288   0.379E+00    0.103E+00
RMM:   2    -0.108987296377E+04   -0.27866E-01   -0.26514E-01 12641   0.688E-01    0.589E-01
RMM:   3    -0.108987405070E+04   -0.10869E-02   -0.14852E-02 13527   0.206E-01    0.324E-01
RMM:   4    -0.108987336254E+04    0.68817E-03   -0.28462E-03 15606   0.597E-02    0.188E-01
RMM:   5    -0.108987315173E+04    0.21080E-03   -0.11440E-03 13350   0.327E-02    0.710E-02
RMM:   6    -0.108987315179E+04   -0.59983E-07   -0.14256E-04  7783   0.157E-02    0.462E-02
RMM:   7    -0.108987315589E+04   -0.40970E-05   -0.59533E-05  7294   0.988E-03    0.298E-02
RMM:   8    -0.108987315606E+04   -0.16758E-06   -0.44294E-05  7216   0.928E-03
  15 F= -.10898732E+04 E0= -.10898732E+04  d E =-.800601E-02  mag=    60.0000
       N       E                     dE             d eps       ncg     rms          rms(c)
DAV:   1    -0.108985579334E+04    0.17363E-01   -0.80235E+00 12704   0.331E+00    0.919E-01
RMM:   2    -0.108987830623E+04   -0.22513E-01   -0.20271E-01 12630   0.601E-01    0.543E-01
RMM:   3    -0.108987939036E+04   -0.10841E-02   -0.11356E-02 13400   0.178E-01    0.293E-01
RMM:   4    -0.108987891990E+04    0.47046E-03   -0.20371E-03 15136   0.508E-02    0.177E-01
RMM:   5    -0.108987874761E+04    0.17229E-03   -0.10251E-03 12532   0.308E-02    0.639E-02
RMM:   6    -0.108987874775E+04   -0.14564E-06   -0.11389E-04  7435   0.155E-02    0.474E-02
RMM:   7    -0.108987875200E+04   -0.42489E-05   -0.56821E-05  7246   0.970E-03    0.278E-02
RMM:   8    -0.108987875105E+04    0.95149E-06   -0.37959E-05  7177   0.930E-03
  16 F= -.10898788E+04 E0= -.10898788E+04  d E =-.559499E-02  mag=    60.0000
       N       E                     dE             d eps       ncg     rms          rms(c)
DAV:   1    -0.108986544542E+04    0.13307E-01   -0.51828E+00 12656   0.266E+00    0.738E-01
RMM:   2    -0.108988002653E+04   -0.14581E-01   -0.13131E-01 12633   0.483E-01    0.436E-01
RMM:   3    -0.108988072801E+04   -0.70147E-03   -0.73683E-03 13396   0.143E-01    0.236E-01
RMM:   4    -0.108988042121E+04    0.30679E-03   -0.12721E-03 14060   0.406E-02    0.143E-01
RMM:   5    -0.108988030800E+04    0.11321E-03   -0.66666E-04 11515   0.262E-02    0.535E-02
RMM:   6    -0.108988030892E+04   -0.92041E-06   -0.78778E-05  7316   0.138E-02    0.411E-02
RMM:   7    -0.108988031240E+04   -0.34727E-05   -0.43886E-05  7199   0.855E-03    0.234E-02
RMM:   8    -0.108988031129E+04    0.11107E-05   -0.27051E-05  7143   0.833E-03
  17 F= -.10898803E+04 E0= -.10898803E+04  d E =-.715523E-02  mag=    60.0000
       N       E                     dE             d eps       ncg     rms          rms(c)
DAV:   1    -0.108986998161E+04    0.10331E-01   -0.62649E+00 12400   0.293E+00    0.838E-01
RMM:   2    -0.108988539226E+04   -0.15411E-01   -0.16442E-01 12636   0.536E-01    0.536E-01
RMM:   3    -0.108988554358E+04   -0.15131E-03   -0.90501E-03 13353   0.162E-01    0.280E-01
RMM:   4    -0.108988506861E+04    0.47497E-03   -0.20299E-03 14883   0.501E-02    0.168E-01
RMM:   5    -0.108988493736E+04    0.13124E-03   -0.63350E-04 11946   0.262E-02    0.716E-02
RMM:   6    -0.108988495275E+04   -0.15388E-04   -0.10160E-04  7397   0.133E-02    0.429E-02
RMM:   7    -0.108988496292E+04   -0.10167E-04   -0.47435E-05  7238   0.964E-03    0.260E-02
RMM:   8    -0.108988497120E+04   -0.82846E-05   -0.32631E-05  7147   0.772E-03
  18 F= -.10898850E+04 E0= -.10898850E+04  d E =-.465992E-02  mag=    60.0000
       N       E                     dE             d eps       ncg     rms          rms(c)
DAV:   1    -0.108988268561E+04    0.22773E-02   -0.11144E+00 12656   0.124E+00    0.353E-01
RMM:   2    -0.108988546643E+04   -0.27808E-02   -0.29421E-02 12691   0.226E-01    0.226E-01
RMM:   3    -0.108988549081E+04   -0.24374E-04   -0.16210E-03 12554   0.675E-02    0.118E-01
RMM:   4    -0.108988540555E+04    0.85251E-04   -0.31688E-04  8817   0.216E-02    0.713E-02
RMM:   5    -0.108988538622E+04    0.19338E-04   -0.11506E-04  7281   0.148E-02    0.387E-02
RMM:   6    -0.108988539224E+04   -0.60260E-05   -0.35479E-05  7140   0.100E-02    0.323E-02
RMM:   7    -0.108988539609E+04   -0.38510E-05   -0.19531E-05  7048   0.617E-03    0.152E-02
RMM:   8    -0.108988539986E+04   -0.37683E-05   -0.11588E-05  6994   0.589E-03
  19 F= -.10898854E+04 E0= -.10898854E+04  d E =-.508857E-02  mag=    60.0000
       N       E                     dE             d eps       ncg     rms          rms(c)
DAV:   1    -0.108987784685E+04    0.75492E-02   -0.42728E+00 12352   0.241E+00    0.616E-01
RMM:   2    -0.108988878748E+04   -0.10941E-01   -0.10889E-01 12546   0.441E-01    0.398E-01
RMM:   3    -0.108988910415E+04   -0.31667E-03   -0.62647E-03 13293   0.133E-01    0.250E-01
RMM:   4    -0.108988881002E+04    0.29414E-03   -0.10031E-03 13424   0.366E-02    0.151E-01
RMM:   5    -0.108988868899E+04    0.12103E-03   -0.59892E-04 10892   0.251E-02    0.482E-02
RMM:   6    -0.108988869051E+04   -0.15240E-05   -0.62393E-05  7283   0.133E-02    0.399E-02
RMM:   7    -0.108988869369E+04   -0.31747E-05   -0.33925E-05  7157   0.760E-03    0.207E-02
RMM:   8    -0.108988869285E+04    0.83981E-06   -0.20011E-05  7090   0.749E-03
  20 F= -.10898887E+04 E0= -.10898887E+04  d E =-.329299E-02  mag=    60.0000
       N       E                     dE             d eps       ncg     rms          rms(c)
DAV:   1    -0.108988737962E+04    0.13141E-02   -0.63356E-01 12592   0.928E-01    0.237E-01
RMM:   2    -0.108988901862E+04   -0.16390E-02   -0.16317E-02 12579   0.170E-01    0.153E-01
RMM:   3    -0.108988905784E+04   -0.39218E-04   -0.90476E-04 11326   0.511E-02    0.969E-02
RMM:   4    -0.108988901358E+04    0.44265E-04   -0.12787E-04  7316   0.156E-02    0.598E-02
RMM:   5    -0.108988899593E+04    0.17648E-04   -0.81810E-05  7150   0.116E-02    0.224E-02
RMM:   6    -0.108988899844E+04   -0.25146E-05   -0.22865E-05  7086   0.748E-03    0.113E-02
RMM:   7    -0.108988899931E+04   -0.87041E-06   -0.12223E-05  6673   0.458E-03    0.938E-03
RMM:   8    -0.108988899930E+04    0.17273E-07   -0.65857E-06  5781   0.428E-03
  21 F= -.10898890E+04 E0= -.10898890E+04  d E =-.359943E-02  mag=    60.0000
       N       E                     dE             d eps       ncg     rms          rms(c)
DAV:   1    -0.108988560864E+04    0.33907E-02   -0.22634E+00 12816   0.175E+00    0.463E-01
RMM:   2    -0.108989120586E+04   -0.55972E-02   -0.58887E-02 12445   0.325E-01    0.318E-01
RMM:   3    -0.108989133504E+04   -0.12918E-03   -0.34181E-03 12734   0.100E-01    0.188E-01
RMM:   4    -0.108989116622E+04    0.16883E-03   -0.64156E-04 11892   0.301E-02    0.114E-01
RMM:   5    -0.108989109982E+04    0.66397E-04   -0.31811E-04  8648   0.204E-02    0.507E-02
RMM:   6    -0.108989110210E+04   -0.22792E-05   -0.54548E-05  7205   0.129E-02    0.391E-02
RMM:   7    -0.108989110401E+04   -0.19103E-05   -0.31045E-05  7117   0.732E-03    0.176E-02
RMM:   8    -0.108989110222E+04    0.17918E-05   -0.17680E-05  7069   0.741E-03
  22 F= -.10898911E+04 E0= -.10898911E+04  d E =-.210292E-02  mag=    60.0000
       N       E                     dE             d eps       ncg     rms          rms(c)
DAV:   1    -0.108989080888E+04    0.29513E-03   -0.16783E-01 12976   0.478E-01    0.125E-01
RMM:   2    -0.108989123160E+04   -0.42272E-03   -0.44478E-03 12415   0.889E-02    0.856E-02
RMM:   3    -0.108989123452E+04   -0.29132E-05   -0.20124E-04  7799   0.276E-02    0.529E-02
RMM:   4    -0.108989122541E+04    0.91094E-05   -0.56138E-05  7088   0.114E-02    0.319E-02
RMM:   5    -0.108989122079E+04    0.46143E-05   -0.32117E-05  7040   0.804E-03    0.308E-02
RMM:   6    -0.108989122108E+04   -0.29072E-06   -0.13080E-05  6702   0.593E-03    0.132E-02
RMM:   7    -0.108989122124E+04   -0.15191E-06   -0.64698E-06  5737   0.360E-03    0.568E-03
RMM:   8    -0.108989122101E+04    0.22317E-06   -0.38686E-06  5099   0.341E-03
  23 F= -.10898912E+04 E0= -.10898912E+04  d E =-.222172E-02  mag=    60.0000
       N       E                     dE             d eps       ncg     rms          rms(c)
DAV:   1    -0.108988739650E+04    0.38247E-02   -0.20932E+00 12320   0.170E+00    0.474E-01
RMM:   2    -0.108989277978E+04   -0.53833E-02   -0.54758E-02 12445   0.315E-01    0.297E-01
RMM:   3    -0.108989295021E+04   -0.17043E-03   -0.32568E-03 12881   0.992E-02    0.173E-01
RMM:   4    -0.108989279196E+04    0.15824E-03   -0.61030E-04 11521   0.297E-02    0.104E-01
RMM:   5    -0.108989273677E+04    0.55189E-04   -0.23905E-04  7978   0.196E-02    0.507E-02
RMM:   6    -0.108989274317E+04   -0.63920E-05   -0.53507E-05  7173   0.126E-02    0.428E-02
RMM:   7    -0.108989274740E+04   -0.42316E-05   -0.26539E-05  7111   0.745E-03    0.182E-02
RMM:   8    -0.108989275034E+04   -0.29408E-05   -0.14824E-05  7027   0.669E-03
  24 F= -.10898928E+04 E0= -.10898928E+04  d E =-.152933E-02  mag=    60.0000
       N       E                     dE             d eps       ncg     rms          rms(c)
DAV:   1    -0.108989263906E+04    0.10834E-03   -0.56452E-02 12912   0.279E-01    0.776E-02
RMM:   2    -0.108989279164E+04   -0.15258E-03   -0.15345E-03 12266   0.524E-02    0.488E-02
RMM:   3    -0.108989279371E+04   -0.20708E-05   -0.70329E-05  7062   0.168E-02    0.296E-02
RMM:   4    -0.108989279218E+04    0.15316E-05   -0.23914E-05  6971   0.720E-03    0.185E-02
RMM:   5    -0.108989279245E+04   -0.26880E-06   -0.11707E-05  6417   0.492E-03    0.173E-02
RMM:   6    -0.108989279303E+04   -0.58548E-06   -0.51952E-06  5622   0.370E-03    0.834E-03
RMM:   7    -0.108989279353E+04   -0.50155E-06   -0.24287E-06  4151   0.263E-03    0.294E-03
RMM:   8    -0.108989279382E+04   -0.28966E-06   -0.12601E-06  3421   0.243E-03
  25 F= -.10898928E+04 E0= -.10898928E+04  d E =-.157281E-02  mag=    60.0000
       N       E                     dE             d eps       ncg     rms          rms(c)
DAV:   1    -0.108989022780E+04    0.25657E-02   -0.13979E+00 12320   0.140E+00    0.385E-01
RMM:   2    -0.108989396396E+04   -0.37362E-02   -0.36476E-02 12426   0.260E-01    0.262E-01
RMM:   3    -0.108989413875E+04   -0.17479E-03   -0.22069E-03 12897   0.807E-02    0.154E-01
RMM:   4    -0.108989403133E+04    0.10742E-03   -0.32033E-04  9031   0.227E-02    0.936E-02
RMM:   5    -0.108989398427E+04    0.47066E-04   -0.20692E-04  7637   0.180E-02    0.380E-02
RMM:   6    -0.108989398841E+04   -0.41438E-05   -0.48247E-05  7137   0.127E-02    0.422E-02
RMM:   7    -0.108989399032E+04   -0.19078E-05   -0.21424E-05  6964   0.645E-03    0.117E-02
RMM:   8    -0.108989399101E+04   -0.69036E-06   -0.11129E-05  6758   0.605E-03
  26 F= -.10898940E+04 E0= -.10898940E+04  d E =-.119719E-02  mag=    60.0000
