<?xml version="1.0" encoding="ISO-8859-1"?>
<modeling>
 <generator>
  <i name="program" type="string">vasp </i>
  <i name="version" type="string">5.4.1  </i>
  <i name="subversion" type="string">05Feb16 (build Jan 25 2017 20:16:33) complex                          parallel </i>
  <i name="platform" type="string">BWXE6 </i>
  <i name="date" type="string">2019 08 12 </i>
  <i name="time" type="string">10:31:46 </i>
 </generator>
 <incar>
  <i type="string" name="SYSTEM"> STF</i>
  <i type="string" name="PREC">normal</i>
  <i type="string" name="ALGO"> Fast</i>
  <i type="int" name="ISPIN">     2</i>
  <i type="int" name="NELM">    40</i>
  <i type="int" name="NELMIN">     8</i>
  <i type="int" name="IBRION">     2</i>
  <i name="EDIFF">      0.00010000</i>
  <i name="EDIFFG">     -0.03000000</i>
  <i type="int" name="NSW">    30</i>
  <i type="int" name="ISIF">     3</i>
  <i name="ENCUT">    520.00000000</i>
  <i type="int" name="NBANDS">   768</i>
  <v name="MAGMOM">      0.60000000      0.60000000      0.60000000      0.60000000      0.60000000      0.60000000      0.60000000      0.60000000      0.60000000      0.60000000      0.60000000      0.60000000      0.60000000      0.60000000      0.60000000      0.60000000      0.60000000      0.60000000      0.60000000      0.60000000
      0.60000000      0.60000000      0.60000000      0.60000000      0.60000000      0.60000000      0.60000000      0.60000000      0.60000000      0.60000000      0.60000000      0.60000000      0.60000000      0.60000000      0.60000000      0.60000000      0.60000000      0.60000000      0.60000000      0.60000000
      0.60000000      0.60000000      0.60000000      0.60000000      0.60000000      0.60000000      0.60000000      0.60000000      0.60000000      0.60000000      0.60000000      0.60000000      5.00000000      5.00000000      5.00000000      5.00000000      5.00000000      5.00000000      5.00000000      5.00000000
      5.00000000      5.00000000      5.00000000      5.00000000      0.60000000      0.60000000      0.60000000      0.60000000      0.60000000      0.60000000      0.60000000      0.60000000      0.60000000      0.60000000      0.60000000      0.60000000      0.60000000      0.60000000      0.60000000      0.60000000
      0.60000000      0.60000000      0.60000000      0.60000000      0.60000000      0.60000000      0.60000000      0.60000000      0.60000000      0.60000000      0.60000000      0.60000000      0.60000000      0.60000000      0.60000000      0.60000000      0.60000000      0.60000000      0.60000000      0.60000000
      0.60000000      0.60000000      0.60000000      0.60000000      0.60000000      0.60000000      0.60000000      0.60000000      0.60000000      0.60000000      0.60000000      0.60000000      0.60000000      0.60000000      0.60000000      0.60000000      0.60000000      0.60000000      0.60000000      0.60000000
      0.60000000      0.60000000      0.60000000      0.60000000      0.60000000      0.60000000      0.60000000      0.60000000      0.60000000      0.60000000      0.60000000      0.60000000      0.60000000      0.60000000      0.60000000      0.60000000      0.60000000      0.60000000      0.60000000      0.60000000
      0.60000000      0.60000000      0.60000000      0.60000000      0.60000000      0.60000000      0.60000000      0.60000000      0.60000000      0.60000000      0.60000000      0.60000000      0.60000000      0.60000000</v>
  <i type="string" name="LREAL"> Auto</i>
  <i type="int" name="ISMEAR">     0</i>
  <i name="SIGMA">      0.05000000</i>
  <i type="int" name="LMAXMIX">     4</i>
  <v type="int" name="KPOINT_BSE">    -1     0     0     0</v>
  <i type="int" name="NELM">    40</i>
  <i type="logical" name="LDAU"> T  </i>
  <v type="int" name="LDAUTYPE">     2</v>
  <v type="int" name="LDAUL">     0     2     2     0</v>
  <v name="LDAUU">      0.00000000      3.00000000      5.00000000      0.00000000</v>
  <v name="LDAUJ">      0.00000000      0.00000000      0.00000000      0.00000000</v>
  <i type="int" name="LDAUPRINT">     1</i>
 </incar>
 <kpoints>
  <generation param="Monkhorst-Pack">
   <v type="int" name="divisions">       2        2        2 </v>
   <v name="usershift">      0.00000000       0.00000000       0.00000000 </v>
   <v name="genvec1">      0.50000000      -0.00000000       0.00000000 </v>
   <v name="genvec2">     -0.00000000       0.50000000       0.00000000 </v>
   <v name="genvec3">      0.00000000       0.00000000       0.50000000 </v>
   <v name="shift">      0.50000000       0.50000000       0.50000000 </v>
  </generation>
  <varray name="kpointlist" >
   <v>       0.25000000       0.25000000       0.25000000 </v>
   <v>      -0.25000000       0.25000000       0.25000000 </v>
   <v>       0.25000000      -0.25000000       0.25000000 </v>
   <v>      -0.25000000      -0.25000000       0.25000000 </v>
  </varray>
  <varray name="weights" >
   <v>       0.25000000 </v>
   <v>       0.25000000 </v>
   <v>       0.25000000 </v>
   <v>       0.25000000 </v>
  </varray>
 </kpoints>
 <parameters>
  <separator name="general" >
   <i type="string" name="SYSTEM">STF</i>
   <i type="logical" name="LCOMPAT"> F  </i>
  </separator>
  <separator name="electronic" >
   <i type="string" name="PREC">normal</i>
   <i name="ENMAX">    520.00000000</i>
   <i name="ENAUG">    605.39200000</i>
   <i name="EDIFF">      0.00010000</i>
   <i type="int" name="IALGO">    68</i>
   <i type="int" name="IWAVPR">    11</i>
   <i type="int" name="NBANDS">   768</i>
   <i name="NELECT">   1036.00000000</i>
   <i type="int" name="TURBO">     0</i>
   <i type="int" name="IRESTART">     0</i>
   <i type="int" name="NREBOOT">     0</i>
   <i type="int" name="NMIN">     0</i>
   <i name="EREF">      0.00000000</i>
   <separator name="electronic smearing" >
    <i type="int" name="ISMEAR">     0</i>
    <i name="SIGMA">      0.05000000</i>
    <i name="KSPACING">      0.50000000</i>
    <i type="logical" name="KGAMMA"> T  </i>
   </separator>
   <separator name="electronic projectors" >
    <i type="logical" name="LREAL"> T  </i>
    <v name="ROPT">     -0.00050000     -0.00050000     -0.00050000     -0.00050000</v>
    <i type="int" name="LMAXPAW">  -100</i>
    <i type="int" name="LMAXMIX">     4</i>
    <i type="logical" name="NLSPLINE"> F  </i>
   </separator>
   <separator name="electronic startup" >
    <i type="int" name="ISTART">     1</i>
    <i type="int" name="ICHARG">     0</i>
    <i type="int" name="INIWAV">     1</i>
   </separator>
   <separator name="electronic spin" >
    <i type="int" name="ISPIN">     2</i>
    <i type="logical" name="LNONCOLLINEAR"> F  </i>
    <v name="MAGMOM">      0.60000000      0.60000000      0.60000000      0.60000000      0.60000000      0.60000000      0.60000000      0.60000000      0.60000000      0.60000000      0.60000000      0.60000000      0.60000000      0.60000000      0.60000000      0.60000000      0.60000000      0.60000000      0.60000000      0.60000000
      0.60000000      0.60000000      0.60000000      0.60000000      0.60000000      0.60000000      0.60000000      0.60000000      0.60000000      0.60000000      0.60000000      0.60000000      0.60000000      0.60000000      0.60000000      0.60000000      0.60000000      0.60000000      0.60000000      0.60000000
      0.60000000      0.60000000      0.60000000      0.60000000      0.60000000      0.60000000      0.60000000      0.60000000      0.60000000      0.60000000      0.60000000      0.60000000      5.00000000      5.00000000      5.00000000      5.00000000      5.00000000      5.00000000      5.00000000      5.00000000
      5.00000000      5.00000000      5.00000000      5.00000000      0.60000000      0.60000000      0.60000000      0.60000000      0.60000000      0.60000000      0.60000000      0.60000000      0.60000000      0.60000000      0.60000000      0.60000000      0.60000000      0.60000000      0.60000000      0.60000000
      0.60000000      0.60000000      0.60000000      0.60000000      0.60000000      0.60000000      0.60000000      0.60000000      0.60000000      0.60000000      0.60000000      0.60000000      0.60000000      0.60000000      0.60000000      0.60000000      0.60000000      0.60000000      0.60000000      0.60000000
      0.60000000      0.60000000      0.60000000      0.60000000      0.60000000      0.60000000      0.60000000      0.60000000      0.60000000      0.60000000      0.60000000      0.60000000      0.60000000      0.60000000      0.60000000      0.60000000      0.60000000      0.60000000      0.60000000      0.60000000
      0.60000000      0.60000000      0.60000000      0.60000000      0.60000000      0.60000000      0.60000000      0.60000000      0.60000000      0.60000000      0.60000000      0.60000000      0.60000000      0.60000000      0.60000000      0.60000000      0.60000000      0.60000000      0.60000000      0.60000000
      0.60000000      0.60000000      0.60000000      0.60000000      0.60000000      0.60000000      0.60000000      0.60000000      0.60000000      0.60000000      0.60000000      0.60000000      0.60000000      0.60000000</v>
    <i name="NUPDOWN">     -1.00000000</i>
    <i type="logical" name="LSORBIT"> F  </i>
    <v name="SAXIS">      0.00000000      0.00000000      1.00000000</v>
    <i type="logical" name="LSPIRAL"> F  </i>
    <v name="QSPIRAL">      0.00000000      0.00000000      0.00000000</v>
    <i type="logical" name="LZEROZ"> F  </i>
   </separator>
   <separator name="electronic exchange-correlation" >
    <i type="logical" name="LASPH"> F  </i>
    <i type="logical" name="LMETAGGA"> F  </i>
   </separator>
   <separator name="electronic convergence" >
    <i type="int" name="NELM">    40</i>
    <i type="int" name="NELMDL">     0</i>
    <i type="int" name="NELMIN">     8</i>
    <i name="ENINI">    520.00000000</i>
    <separator name="electronic convergence detail" >
     <i type="logical" name="LDIAG"> T  </i>
     <i type="logical" name="LSUBROT"> F  </i>
     <i name="WEIMIN">      0.00100000</i>
     <i name="EBREAK">      0.00000003</i>
     <i name="DEPER">      0.30000000</i>
     <i type="int" name="NRMM">     4</i>
     <i name="TIME">      0.40000000</i>
    </separator>
   </separator>
   <separator name="electronic mixer" >
    <i name="AMIX">      0.40000000</i>
    <i name="BMIX">      1.00000000</i>
    <i name="AMIN">      0.10000000</i>
    <i name="AMIX_MAG">      1.60000000</i>
    <i name="BMIX_MAG">      1.00000000</i>
    <separator name="electronic mixer details" >
     <i type="int" name="IMIX">     4</i>
     <i type="logical" name="MIXFIRST"> F  </i>
     <i type="int" name="MAXMIX">   -45</i>
     <i name="WC">    100.00000000</i>
     <i type="int" name="INIMIX">     1</i>
     <i type="int" name="MIXPRE">     1</i>
     <i type="int" name="MREMOVE">     5</i>
    </separator>
   </separator>
   <separator name="electronic dipolcorrection" >
    <i type="logical" name="LDIPOL"> F  </i>
    <i type="logical" name="LMONO"> F  </i>
    <i type="int" name="IDIPOL">     0</i>
    <i name="EPSILON">      1.00000000</i>
    <v name="DIPOL">   -100.00000000   -100.00000000   -100.00000000</v>
    <i name="EFIELD">      0.00000000</i>
   </separator>
  </separator>
  <separator name="grids" >
   <i type="int" name="NGX">    64</i>
   <i type="int" name="NGY">    64</i>
   <i type="int" name="NGZ">    90</i>
   <i type="int" name="NGXF">   128</i>
   <i type="int" name="NGYF">   128</i>
   <i type="int" name="NGZF">   180</i>
   <i type="logical" name="ADDGRID"> F  </i>
  </separator>
  <separator name="ionic" >
   <i type="int" name="NSW">    30</i>
   <i type="int" name="IBRION">     2</i>
   <i type="int" name="ISIF">     3</i>
   <i name="PSTRESS">      0.00000000</i>
   <i name="EDIFFG">     -0.03000000</i>
   <i type="int" name="NFREE">     1</i>
   <i name="POTIM">      0.50000000</i>
   <i name="SMASS">     -3.00000000</i>
   <i name="SCALEE">      1.00000000</i>
  </separator>
  <separator name="ionic md" >
   <i name="TEBEG">      0.00010000</i>
   <i name="TEEND">      0.00010000</i>
   <i type="int" name="NBLOCK">     1</i>
   <i type="int" name="KBLOCK">    30</i>
   <i type="int" name="NPACO">   256</i>
   <i name="APACO">     16.00000000</i>
  </separator>
  <separator name="symmetry" >
   <i type="int" name="ISYM">     2</i>
   <i name="SYMPREC">      0.00001000</i>
  </separator>
  <separator name="dos" >
   <i type="logical" name="LORBIT"> F  </i>
   <v name="RWIGS">     -1.00000000     -1.00000000     -1.00000000     -1.00000000</v>
   <i type="int" name="NEDOS">   301</i>
   <i name="EMIN">     10.00000000</i>
   <i name="EMAX">    -10.00000000</i>
   <i name="EFERMI">      0.00000000</i>
  </separator>
  <separator name="writing" >
   <i type="int" name="NWRITE">     2</i>
   <i type="logical" name="LWAVE"> T  </i>
   <i type="logical" name="LCHARG"> T  </i>
   <i type="logical" name="LPARD"> F  </i>
   <i type="logical" name="LVTOT"> F  </i>
   <i type="logical" name="LVHAR"> F  </i>
   <i type="logical" name="LELF"> F  </i>
   <i type="logical" name="LOPTICS"> F  </i>
   <v name="STM">      0.00000000      0.00000000      0.00000000      0.00000000      0.00000000      0.00000000      0.00000000</v>
  </separator>
  <separator name="performance" >
   <i type="int" name="NPAR">     2</i>
   <i type="int" name="NSIM">     4</i>
   <i type="int" name="NBLK">    -1</i>
   <i type="logical" name="LPLANE"> T  </i>
   <i type="logical" name="LSCALAPACK"> T  </i>
   <i type="logical" name="LSCAAWARE"> F  </i>
   <i type="logical" name="LSCALU"> F  </i>
   <i type="logical" name="LASYNC"> F  </i>
   <i type="logical" name="LORBITALREAL"> F  </i>
  </separator>
  <separator name="miscellaneous" >
   <i type="int" name="IDIOT">     3</i>
   <i type="logical" name="LMUSIC"> F  </i>
   <v name="POMASS">     87.62000000     47.88000000     55.84700000     16.00000000</v>
   <v name="DARWINR">      0.00000000      0.00000000      0.00000000      0.00000000</v>
   <v name="DARWINV">      1.00000000      1.00000000      1.00000000      1.00000000</v>
   <i type="logical" name="LCORR"> T  </i>
  </separator>
  <i type="logical" name="GGA_COMPAT"> T  </i>
  <i type="logical" name="LBERRY"> F  </i>
  <i type="int" name="ICORELEVEL">     0</i>
  <i type="logical" name="LDAU"> T  </i>
  <v type="int" name="LDAUTYPE">     2</v>
  <v type="int" name="LDAUL">     0</v>
  <v name="LDAUU">      0.00000000</v>
  <v name="LDAUJ">      0.00000000</v>
  <i type="int" name="LDAUPRINT">     1</i>
  <i type="int" name="I_CONSTRAINED_M">     0</i>
  <separator name="electronic exchange-correlation" >
   <i type="string" name="GGA">--</i>
   <i type="int" name="VOSKOWN">     0</i>
   <i type="logical" name="LHFCALC"> F  </i>
   <i type="string" name="PRECFOCK"></i>
   <i type="logical" name="LSYMGRAD"> F  </i>
   <i type="logical" name="LHFONE"> F  </i>
   <i type="logical" name="LRHFCALC"> F  </i>
   <i type="logical" name="LTHOMAS"> F  </i>
   <i type="logical" name="LMODELHF"> F  </i>
   <i name="ENCUT4O">     -1.00000000</i>
   <i type="int" name="EXXOEP">     0</i>
   <i type="int" name="FOURORBIT">     0</i>
   <i name="AEXX">      0.00000000</i>
   <i name="HFALPHA">      0.00000000</i>
   <i name="MCALPHA">      0.00000000</i>
   <i name="ALDAX">      1.00000000</i>
   <i name="AGGAX">      1.00000000</i>
   <i name="ALDAC">      1.00000000</i>
   <i name="AGGAC">      1.00000000</i>
   <i type="int" name="NKREDX">     1</i>
   <i type="int" name="NKREDY">     1</i>
   <i type="int" name="NKREDZ">     1</i>
   <i type="logical" name="SHIFTRED"> F  </i>
   <i type="logical" name="ODDONLY"> F  </i>
   <i type="logical" name="EVENONLY"> F  </i>
   <i type="int" name="LMAXFOCK">     0</i>
   <i type="int" name="NMAXFOCKAE">     0</i>
   <i type="logical" name="LFOCKAEDFT"> F  </i>
   <i name="HFSCREEN">      0.00000000</i>
   <i name="HFSCREENC">      0.00000000</i>
   <i type="int" name="NBANDSGWLOW">     0</i>
  </separator>
  <separator name="vdW DFT" >
   <i type="logical" name="LUSE_VDW"> F  </i>
   <i name="Zab_VDW">     -0.84910000</i>
   <i name="PARAM1">      0.12340000</i>
   <i name="PARAM2">      1.00000000</i>
   <i name="PARAM3">      0.00000000</i>
  </separator>
  <separator name="model GW" >
   <i type="int" name="MODEL_GW">     0</i>
   <i name="MODEL_EPS0">      7.80734339</i>
   <i name="MODEL_ALPHA">      1.00000000</i>
  </separator>
  <separator name="linear response parameters" >
   <i type="logical" name="LEPSILON"> F  </i>
   <i type="logical" name="LRPA"> F  </i>
   <i type="logical" name="LNABLA"> F  </i>
   <i type="logical" name="LVEL"> F  </i>
   <i type="int" name="KINTER">     0</i>
   <i name="CSHIFT">      0.10000000</i>
   <i name="OMEGAMAX">     -1.00000000</i>
   <i name="DEG_THRESHOLD">      0.00200000</i>
  </separator>
  <separator name="orbital magnetization" >
   <i type="logical" name="NUCIND"> F  </i>
   <v name="MAGPOS">      0.00000000      0.00000000      0.00000000</v>
   <i type="logical" name="LNICSALL"> T  </i>
   <i type="logical" name="ORBITALMAG"> F  </i>
   <i type="logical" name="LMAGBLOCH"> F  </i>
   <i type="logical" name="LCHIMAG"> F  </i>
   <i type="logical" name="LGAUGE"> T  </i>
   <i type="int" name="MAGATOM">     0</i>
   <v name="MAGDIPOL">      0.00000000      0.00000000      0.00000000</v>
   <v name="AVECCONST">      0.00000000      0.00000000      0.00000000</v>
  </separator>
  <separator name="response functions" >
   <i type="logical" name="LADDER"> F  </i>
   <i type="logical" name="LFXC"> F  </i>
   <i type="logical" name="LHARTREE"> T  </i>
   <i type="int" name="IBSE">     0</i>
   <v type="int" name="KPOINT">    -1     0     0     0</v>
   <i type="logical" name="LTCTE"> F  </i>
   <i type="logical" name="LTETE"> F  </i>
   <i type="logical" name="LTRIPLET"> F  </i>
   <i type="logical" name="LFXCEPS"> F  </i>
   <i type="logical" name="LFXHEG"> F  </i>
   <i type="int" name="NATURALO">     0</i>
   <i type="logical" name="L2ORDER"> F  </i>
   <i type="logical" name="LUSEW"> F  </i>
   <i name="ENCUTGW">     -2.00000000</i>
   <i name="ENCUTGWSOFT">     -2.00000000</i>
   <i name="ENCUTLF">     -1.00000000</i>
   <i type="int" name="LMAXMP2">    -1</i>
   <i name="SCISSOR">      0.00000000</i>
   <i type="int" name="NOMEGA">     0</i>
   <i type="int" name="NOMEGAR">     0</i>
   <i type="int" name="NBANDSGW">    -1</i>
   <i type="int" name="NBANDSO">    -1</i>
   <i type="int" name="NBANDSV">    -1</i>
   <i type="int" name="NELM">    40</i>
   <i type="int" name="NELMHF">     1</i>
   <i type="int" name="DIM">     3</i>
   <i type="int" name="ANTIRES">     0</i>
   <i name="OMEGAMAX">    -30.00000000</i>
   <i name="OMEGAMIN">    -30.00000000</i>
   <i name="OMEGATL">   -200.00000000</i>
   <i type="int" name="OMEGAGRID">     0</i>
   <i name="CSHIFT">     -0.10000000</i>
   <i type="logical" name="SELFENERGY"> F  </i>
   <i type="logical" name="LSPECTRAL"> F  </i>
   <i type="logical" name="LSPECTRALGW"> F  </i>
   <i type="logical" name="LSINGLES"> F  </i>
   <i type="logical" name="LFERMIGW"> F  </i>
   <i type="logical" name="ODDONLYGW"> F  </i>
   <i type="logical" name="EVENONLYGW"> F  </i>
   <i type="int" name="NKREDLFX">     1</i>
   <i type="int" name="NKREDLFY">     1</i>
   <i type="int" name="NKREDLFZ">     1</i>
   <i type="int" name="MAXMEM">  1800</i>
   <i type="int" name="TELESCOPE">     0</i>
   <i type="int" name="TAUPAR">     1</i>
   <i type="int" name="OMEGAPAR">    -1</i>
   <i name="LAMBDA">      1.00000000</i>
  </separator>
  <separator name="External order field" >
   <i name="OFIELD_KAPPA">      0.00000000</i>
   <v name="OFIELD_K">      0.00000000      0.00000000      0.00000000</v>
   <i name="OFIELD_Q6_NEAR">      0.00000000</i>
   <i name="OFIELD_Q6_FAR">      0.00000000</i>
   <i name="OFIELD_A">      0.00000000</i>
  </separator>
 </parameters>
 <atominfo>
  <atoms>     154 </atoms>
  <types>       4 </types>
  <array name="atoms" >
   <dimension dim="1">ion</dimension>
   <field type="string">element</field>
   <field type="int">atomtype</field>
   <set>
    <rc><c>Sr</c><c>   1</c></rc>
    <rc><c>Sr</c><c>   1</c></rc>
    <rc><c>Sr</c><c>   1</c></rc>
    <rc><c>Sr</c><c>   1</c></rc>
    <rc><c>Sr</c><c>   1</c></rc>
    <rc><c>Sr</c><c>   1</c></rc>
    <rc><c>Sr</c><c>   1</c></rc>
    <rc><c>Sr</c><c>   1</c></rc>
    <rc><c>Sr</c><c>   1</c></rc>
    <rc><c>Sr</c><c>   1</c></rc>
    <rc><c>Sr</c><c>   1</c></rc>
    <rc><c>Sr</c><c>   1</c></rc>
    <rc><c>Sr</c><c>   1</c></rc>
    <rc><c>Sr</c><c>   1</c></rc>
    <rc><c>Sr</c><c>   1</c></rc>
    <rc><c>Sr</c><c>   1</c></rc>
    <rc><c>Sr</c><c>   1</c></rc>
    <rc><c>Sr</c><c>   1</c></rc>
    <rc><c>Sr</c><c>   1</c></rc>
    <rc><c>Sr</c><c>   1</c></rc>
    <rc><c>Sr</c><c>   1</c></rc>
    <rc><c>Sr</c><c>   1</c></rc>
    <rc><c>Sr</c><c>   1</c></rc>
    <rc><c>Sr</c><c>   1</c></rc>
    <rc><c>Sr</c><c>   1</c></rc>
    <rc><c>Sr</c><c>   1</c></rc>
    <rc><c>Sr</c><c>   1</c></rc>
    <rc><c>Sr</c><c>   1</c></rc>
    <rc><c>Sr</c><c>   1</c></rc>
    <rc><c>Sr</c><c>   1</c></rc>
    <rc><c>Sr</c><c>   1</c></rc>
    <rc><c>Sr</c><c>   1</c></rc>
    <rc><c>Ti</c><c>   2</c></rc>
    <rc><c>Ti</c><c>   2</c></rc>
    <rc><c>Ti</c><c>   2</c></rc>
    <rc><c>Ti</c><c>   2</c></rc>
    <rc><c>Ti</c><c>   2</c></rc>
    <rc><c>Ti</c><c>   2</c></rc>
    <rc><c>Ti</c><c>   2</c></rc>
    <rc><c>Ti</c><c>   2</c></rc>
    <rc><c>Ti</c><c>   2</c></rc>
    <rc><c>Ti</c><c>   2</c></rc>
    <rc><c>Ti</c><c>   2</c></rc>
    <rc><c>Ti</c><c>   2</c></rc>
    <rc><c>Ti</c><c>   2</c></rc>
    <rc><c>Ti</c><c>   2</c></rc>
    <rc><c>Ti</c><c>   2</c></rc>
    <rc><c>Ti</c><c>   2</c></rc>
    <rc><c>Ti</c><c>   2</c></rc>
    <rc><c>Ti</c><c>   2</c></rc>
    <rc><c>Ti</c><c>   2</c></rc>
    <rc><c>Ti</c><c>   2</c></rc>
    <rc><c>Fe</c><c>   3</c></rc>
    <rc><c>Fe</c><c>   3</c></rc>
    <rc><c>Fe</c><c>   3</c></rc>
    <rc><c>Fe</c><c>   3</c></rc>
    <rc><c>Fe</c><c>   3</c></rc>
    <rc><c>Fe</c><c>   3</c></rc>
    <rc><c>Fe</c><c>   3</c></rc>
    <rc><c>Fe</c><c>   3</c></rc>
    <rc><c>Fe</c><c>   3</c></rc>
    <rc><c>Fe</c><c>   3</c></rc>
    <rc><c>Fe</c><c>   3</c></rc>
    <rc><c>Fe</c><c>   3</c></rc>
    <rc><c>O </c><c>   4</c></rc>
    <rc><c>O </c><c>   4</c></rc>
    <rc><c>O </c><c>   4</c></rc>
    <rc><c>O </c><c>   4</c></rc>
    <rc><c>O </c><c>   4</c></rc>
    <rc><c>O </c><c>   4</c></rc>
    <rc><c>O </c><c>   4</c></rc>
    <rc><c>O </c><c>   4</c></rc>
    <rc><c>O </c><c>   4</c></rc>
    <rc><c>O </c><c>   4</c></rc>
    <rc><c>O </c><c>   4</c></rc>
    <rc><c>O </c><c>   4</c></rc>
    <rc><c>O </c><c>   4</c></rc>
    <rc><c>O </c><c>   4</c></rc>
    <rc><c>O </c><c>   4</c></rc>
    <rc><c>O </c><c>   4</c></rc>
    <rc><c>O </c><c>   4</c></rc>
    <rc><c>O </c><c>   4</c></rc>
    <rc><c>O </c><c>   4</c></rc>
    <rc><c>O </c><c>   4</c></rc>
    <rc><c>O </c><c>   4</c></rc>
    <rc><c>O </c><c>   4</c></rc>
    <rc><c>O </c><c>   4</c></rc>
    <rc><c>O </c><c>   4</c></rc>
    <rc><c>O </c><c>   4</c></rc>
    <rc><c>O </c><c>   4</c></rc>
    <rc><c>O </c><c>   4</c></rc>
    <rc><c>O </c><c>   4</c></rc>
    <rc><c>O </c><c>   4</c></rc>
    <rc><c>O </c><c>   4</c></rc>
    <rc><c>O </c><c>   4</c></rc>
    <rc><c>O </c><c>   4</c></rc>
    <rc><c>O </c><c>   4</c></rc>
    <rc><c>O </c><c>   4</c></rc>
    <rc><c>O </c><c>   4</c></rc>
    <rc><c>O </c><c>   4</c></rc>
    <rc><c>O </c><c>   4</c></rc>
    <rc><c>O </c><c>   4</c></rc>
    <rc><c>O </c><c>   4</c></rc>
    <rc><c>O </c><c>   4</c></rc>
    <rc><c>O </c><c>   4</c></rc>
    <rc><c>O </c><c>   4</c></rc>
    <rc><c>O </c><c>   4</c></rc>
    <rc><c>O </c><c>   4</c></rc>
    <rc><c>O </c><c>   4</c></rc>
    <rc><c>O </c><c>   4</c></rc>
    <rc><c>O </c><c>   4</c></rc>
    <rc><c>O </c><c>   4</c></rc>
    <rc><c>O </c><c>   4</c></rc>
    <rc><c>O </c><c>   4</c></rc>
    <rc><c>O </c><c>   4</c></rc>
    <rc><c>O </c><c>   4</c></rc>
    <rc><c>O </c><c>   4</c></rc>
    <rc><c>O </c><c>   4</c></rc>
    <rc><c>O </c><c>   4</c></rc>
    <rc><c>O </c><c>   4</c></rc>
    <rc><c>O </c><c>   4</c></rc>
    <rc><c>O </c><c>   4</c></rc>
    <rc><c>O </c><c>   4</c></rc>
    <rc><c>O </c><c>   4</c></rc>
    <rc><c>O </c><c>   4</c></rc>
    <rc><c>O </c><c>   4</c></rc>
    <rc><c>O </c><c>   4</c></rc>
    <rc><c>O </c><c>   4</c></rc>
    <rc><c>O </c><c>   4</c></rc>
    <rc><c>O </c><c>   4</c></rc>
    <rc><c>O </c><c>   4</c></rc>
    <rc><c>O </c><c>   4</c></rc>
    <rc><c>O </c><c>   4</c></rc>
    <rc><c>O </c><c>   4</c></rc>
    <rc><c>O </c><c>   4</c></rc>
    <rc><c>O </c><c>   4</c></rc>
    <rc><c>O </c><c>   4</c></rc>
    <rc><c>O </c><c>   4</c></rc>
    <rc><c>O </c><c>   4</c></rc>
    <rc><c>O </c><c>   4</c></rc>
    <rc><c>O </c><c>   4</c></rc>
    <rc><c>O </c><c>   4</c></rc>
    <rc><c>O </c><c>   4</c></rc>
    <rc><c>O </c><c>   4</c></rc>
    <rc><c>O </c><c>   4</c></rc>
    <rc><c>O </c><c>   4</c></rc>
    <rc><c>O </c><c>   4</c></rc>
    <rc><c>O </c><c>   4</c></rc>
    <rc><c>O </c><c>   4</c></rc>
    <rc><c>O </c><c>   4</c></rc>
    <rc><c>O </c><c>   4</c></rc>
    <rc><c>O </c><c>   4</c></rc>
    <rc><c>O </c><c>   4</c></rc>
    <rc><c>O </c><c>   4</c></rc>
   </set>
  </array>
  <array name="atomtypes" >
   <dimension dim="1">type</dimension>
   <field type="int">atomspertype</field>
   <field type="string">element</field>
   <field>mass</field>
   <field>valence</field>
   <field type="string">pseudopotential</field>
   <set>
    <rc><c>  32</c><c>Sr</c><c>     87.62000000</c><c>     10.00000000</c><c>  PAW_PBE Sr_sv 07Sep2000               </c></rc>
    <rc><c>  20</c><c>Ti</c><c>     47.88000000</c><c>      4.00000000</c><c>  PAW_PBE Ti 08Apr2002                  </c></rc>
    <rc><c>  12</c><c>Fe</c><c>     55.84700000</c><c>      8.00000000</c><c>  PAW_PBE Fe 06Sep2000                  </c></rc>
    <rc><c>  90</c><c>O </c><c>     16.00000000</c><c>      6.00000000</c><c>  PAW_PBE O 08Apr2002                   </c></rc>
   </set>
  </array>
 </atominfo>
 <structure name="initialpos" >
  <crystal>
   <varray name="basis" >
    <v>      11.27077647       0.00460930       0.00162202 </v>
    <v>       0.00471319      11.29758646      -0.00010985 </v>
    <v>       0.00230934      -0.00014150      15.73741237 </v>
   </varray>
   <i name="volume">   2003.88480292 </i>
   <varray name="rec_basis" >
    <v>       0.08872505      -0.00003701      -0.00001302 </v>
    <v>      -0.00003620       0.08851450       0.00000080 </v>
    <v>      -0.00000914       0.00000062       0.06354285 </v>
   </varray>
  </crystal>
  <varray name="positions" >
   <v>       0.99216575       0.24891853       0.11585701 </v>
   <v>       0.98988941       0.24911529       0.62347924 </v>
   <v>       0.98961264       0.74339938       0.11464925 </v>
   <v>       0.00247117       0.75094450       0.62599330 </v>
   <v>       0.50343564       0.25092099       0.12206476 </v>
   <v>       0.51061770       0.24965229       0.62052078 </v>
   <v>       0.50680902       0.74681580       0.12189663 </v>
   <v>       0.50090146       0.75194700       0.62279237 </v>
   <v>       0.99164883       0.24889764       0.38323180 </v>
   <v>       0.98967718       0.24893875       0.87707621 </v>
   <v>       0.99202419       0.74401251       0.38304473 </v>
   <v>       0.00035661       0.75093014       0.87612732 </v>
   <v>       0.50450344       0.25055571       0.37779893 </v>
   <v>       0.51043426       0.24990474       0.88070219 </v>
   <v>       0.50486871       0.74730846       0.37677816 </v>
   <v>       0.50277634       0.75223465       0.87960292 </v>
   <v>       0.24565699       0.00901336       0.11267038 </v>
   <v>       0.25354513       0.98744627       0.62375121 </v>
   <v>       0.24526453       0.50043844       0.11448341 </v>
   <v>       0.25125163       0.51200084       0.61977270 </v>
   <v>       0.75314948       0.00422965       0.12094261 </v>
   <v>       0.75053914       0.00251356       0.62339119 </v>
   <v>       0.75228900       0.49957694       0.11960998 </v>
   <v>       0.74770979       0.49338263       0.62425761 </v>
   <v>       0.24582924       0.00832757       0.38697142 </v>
   <v>       0.25334307       0.98739933       0.87721136 </v>
   <v>       0.24588074       0.50108494       0.38485362 </v>
   <v>       0.25122250       0.51170176       0.88064735 </v>
   <v>       0.75285601       0.00663547       0.37787000 </v>
   <v>       0.75019029       0.00035717       0.87901568 </v>
   <v>       0.75209942       0.49825432       0.37833662 </v>
   <v>       0.74776391       0.49621976       0.87773456 </v>
   <v>       0.99768726       0.00032184       0.00118470 </v>
   <v>       0.75300054       0.24314611       0.24959585 </v>
   <v>       0.49967209       0.49889023       0.49919771 </v>
   <v>       0.99902676       0.49853472       0.50190930 </v>
   <v>       0.24914848       0.25156968       0.50599060 </v>
   <v>       0.24906442       0.25159633       0.99286628 </v>
   <v>       0.24922922       0.74945157       0.49570928 </v>
   <v>       0.50114318       0.00078796       0.00421847 </v>
   <v>       0.99898966       0.00144644       0.49911597 </v>
   <v>       0.74968556       0.75020256       0.50086913 </v>
   <v>       0.99773461       0.49932279       0.99778358 </v>
   <v>       0.74810721       0.25121940       0.75046489 </v>
   <v>       0.50053562       0.49986163       0.00079886 </v>
   <v>       0.75344014       0.74215542       0.24808831 </v>
   <v>       0.24890165       0.74930086       0.00471283 </v>
   <v>       0.99614097       0.99490998       0.75028774 </v>
   <v>       0.74850249       0.75377208       0.75174599 </v>
   <v>       0.25020671       0.74665268       0.75060002 </v>
   <v>       0.50275104       0.99615730       0.75054898 </v>
   <v>       0.50039025       0.00129451       0.49664766 </v>
   <v>       0.74895890       0.25006961       0.49932557 </v>
   <v>       0.25612442       0.79381532       0.24951641 </v>
   <v>       0.25317746       0.28908812       0.25034595 </v>
   <v>       0.52144602       0.99142804       0.25007634 </v>
   <v>       0.74902241       0.75015721       0.99923780 </v>
   <v>       0.99191518       0.98728158       0.24973122 </v>
   <v>       0.50745685       0.51286037       0.75024684 </v>
   <v>       0.74884729       0.24992337       0.00084836 </v>
   <v>       0.98604138       0.50898811       0.74998414 </v>
   <v>       0.98835781       0.48586558       0.24967923 </v>
   <v>       0.24401189       0.22112472       0.74974437 </v>
   <v>       0.52210891       0.49133690       0.24979066 </v>
   <v>       0.01168877       0.02025925       0.12610616 </v>
   <v>       0.99869617       0.98656368       0.62476975 </v>
   <v>       0.00268764       0.51220116       0.12477830 </v>
   <v>       0.01654357       0.48305004       0.62894490 </v>
   <v>       0.48296971       0.01996658       0.12973087 </v>
   <v>       0.49549676       0.98787938       0.62300916 </v>
   <v>       0.48937436       0.51412992       0.12850359 </v>
   <v>       0.48634104       0.48493842       0.62617267 </v>
   <v>       0.01145111       0.01940651       0.37419771 </v>
   <v>       0.99988899       0.98712713       0.87478298 </v>
   <v>       0.00257441       0.51275609       0.37555847 </v>
   <v>       0.01678158       0.48215451       0.87033677 </v>
   <v>       0.48332551       0.01887005       0.37087552 </v>
   <v>       0.49520037       0.98876861       0.87661664 </v>
   <v>       0.49137689       0.51425080       0.37213312 </v>
   <v>       0.48605487       0.48415739       0.87334863 </v>
   <v>       0.23852114       0.22674367       0.36351615 </v>
   <v>       0.25364972       0.28349943       0.86231524 </v>
   <v>       0.23922530       0.72537708       0.36024069 </v>
   <v>       0.24881249       0.75457516       0.87745580 </v>
   <v>       0.75313696       0.24494600       0.37493237 </v>
   <v>       0.74595123       0.25306982       0.87450053 </v>
   <v>       0.75401065       0.73731542       0.37681475 </v>
   <v>       0.74540059       0.76148809       0.87423627 </v>
   <v>       0.23827584       0.22631675       0.13824401 </v>
   <v>       0.25323303       0.28350723       0.63700234 </v>
   <v>       0.23885681       0.72504904       0.13932458 </v>
   <v>       0.24919457       0.75465132       0.62230450 </v>
   <v>       0.75342100       0.24395457       0.12524832 </v>
   <v>       0.74619659       0.25236163       0.62537775 </v>
   <v>       0.75337239       0.73891990       0.12477674 </v>
   <v>       0.74560298       0.76439200       0.62388669 </v>
   <v>       0.60714798       0.14526666       0.25042844 </v>
   <v>       0.86135086       0.10289552       0.25029724 </v>
   <v>       0.15473518       0.42521433       0.25029791 </v>
   <v>       0.40456493       0.35616488       0.25063912 </v>
   <v>       0.65832275       0.39469893       0.24949748 </v>
   <v>       0.90473669       0.34271150       0.25002002 </v>
   <v>       0.60756769       0.64575277       0.25040196 </v>
   <v>       0.86149557       0.60379209       0.25025263 </v>
   <v>       0.16152073       0.93127538       0.25010966 </v>
   <v>       0.41081560       0.85157771       0.24967568 </v>
   <v>       0.65933534       0.89466506       0.25076333 </v>
   <v>       0.90698437       0.84350776       0.25008633 </v>
   <v>       0.13528936       0.11908262       0.51433944 </v>
   <v>       0.37804986       0.13419787       0.50854430 </v>
   <v>       0.62871250       0.11549615       0.50188456 </v>
   <v>       0.88391427       0.13025020       0.50437946 </v>
   <v>       0.11879202       0.36487555       0.49280954 </v>
   <v>       0.36480987       0.37882954       0.49088791 </v>
   <v>       0.61426688       0.37007789       0.49500254 </v>
   <v>       0.86921044       0.38514093       0.49879751 </v>
   <v>       0.13202840       0.61842823       0.50239959 </v>
   <v>       0.37944662       0.63240164       0.50105413 </v>
   <v>       0.63056921       0.61692321       0.50704122 </v>
   <v>       0.88355994       0.63231769       0.51133830 </v>
   <v>       0.11893028       0.86646010       0.49158570 </v>
   <v>       0.36532233       0.87874274       0.49040928 </v>
   <v>       0.61568033       0.86847078       0.48992209 </v>
   <v>       0.86902221       0.88243442       0.49143762 </v>
   <v>       0.09906958       0.14225407       0.74940164 </v>
   <v>       0.35979030       0.10483158       0.74961792 </v>
   <v>       0.60543304       0.13715691       0.74982650 </v>
   <v>       0.85701182       0.10499831       0.75035871 </v>
   <v>       0.62895465       0.38437724       0.74962063 </v>
   <v>       0.88875789       0.35727840       0.74954898 </v>
   <v>       0.11257070       0.63586489       0.74986039 </v>
   <v>       0.35373135       0.60189291       0.74982732 </v>
   <v>       0.60821955       0.64606818       0.74918902 </v>
   <v>       0.85239250       0.61039459       0.74876361 </v>
   <v>       0.14171530       0.88856603       0.74968351 </v>
   <v>       0.39095057       0.85400358       0.75005617 </v>
   <v>       0.64160909       0.89429000       0.74974824 </v>
   <v>       0.89232897       0.85502635       0.74985560 </v>
   <v>       0.13482565       0.12010146       0.98560811 </v>
   <v>       0.37709749       0.13365816       0.99135655 </v>
   <v>       0.62783911       0.11710251       0.99810028 </v>
   <v>       0.88317974       0.12980233       0.99525225 </v>
   <v>       0.11958280       0.36528152       0.00698683 </v>
   <v>       0.36515121       0.37775482       0.00890238 </v>
   <v>       0.61471456       0.37034843       0.00564147 </v>
   <v>       0.86987578       0.38319874       0.00126402 </v>
   <v>       0.13114937       0.61915961       0.99738240 </v>
   <v>       0.37770159       0.63144546       0.99866210 </v>
   <v>       0.62771589       0.61625906       0.99324717 </v>
   <v>       0.88357502       0.62909526       0.98844315 </v>
   <v>       0.12001063       0.86732848       0.00827927 </v>
   <v>       0.36560562       0.87833071       0.00946015 </v>
   <v>       0.61507677       0.87125410       0.00965241 </v>
   <v>       0.87125862       0.88296611       0.00805998 </v>
  </varray>
 </structure>
 <calculation>
  <scstep>
   <time name="dav">  304.49  304.51</time>
   <time name="total">  308.24  308.28</time>
   <energy>
    <i name="alphaZ">   5626.07670626 </i>
    <i name="ewald"> -61858.03598867 </i>
    <i name="hartreedc"> -16714.59992937 </i>
    <i name="XCdc">   3075.62707286 </i>
    <i name="pawpsdc"> 114840.40878887 </i>
    <i name="pawaedc">-113892.13574043 </i>
    <i name="eentropy">     -0.00000000 </i>
    <i name="bandstr">  -7083.95715293 </i>
    <i name="atom">  74916.81196153 </i>
    <i name="e_fr_energy">  -1089.80428188 </i>
    <i name="e_wo_entrp">  -1089.80428188 </i>
    <i name="e_0_energy">  -1089.80428188 </i>
   </energy>
  </scstep>
  <scstep>
   <time name="diag">   33.16   33.17</time>
   <time name="diis">   32.08   32.09</time>
   <time name="orth">   18.81   18.81</time>
   <time name="total">   87.75   87.78</time>
   <energy>
    <i name="e_fr_energy">  -1089.80428892 </i>
    <i name="e_wo_entrp">  -1089.80428892 </i>
    <i name="e_0_energy">  -1089.80428892 </i>
   </energy>
  </scstep>
  <scstep>
   <time name="diag">   33.15   33.15</time>
   <time name="diis">   31.69   31.69</time>
   <time name="orth">   18.85   18.85</time>
   <time name="total">   87.39   87.45</time>
   <energy>
    <i name="e_fr_energy">  -1089.80429160 </i>
    <i name="e_wo_entrp">  -1089.80429160 </i>
    <i name="e_0_energy">  -1089.80429160 </i>
   </energy>
  </scstep>
  <scstep>
   <time name="diag">   33.12   33.12</time>
   <time name="diis">   30.92   30.92</time>
   <time name="orth">   18.84   18.84</time>
   <time name="total">   86.58   86.67</time>
   <energy>
    <i name="e_fr_energy">  -1089.80429666 </i>
    <i name="e_wo_entrp">  -1089.80429666 </i>
    <i name="e_0_energy">  -1089.80429666 </i>
   </energy>
  </scstep>
  <scstep>
   <time name="diag">   33.13   33.13</time>
   <time name="diis">   30.27   30.28</time>
   <time name="orth">   18.85   18.85</time>
   <time name="total">   85.94   86.05</time>
   <energy>
    <i name="e_fr_energy">  -1089.80429889 </i>
    <i name="e_wo_entrp">  -1089.80429889 </i>
    <i name="e_0_energy">  -1089.80429889 </i>
   </energy>
  </scstep>
  <scstep>
   <time name="diag">   33.13   33.14</time>
   <time name="diis">   29.06   29.06</time>
   <time name="orth">   18.84   18.87</time>
   <time name="total">   84.73   84.91</time>
   <energy>
    <i name="e_fr_energy">  -1089.80429994 </i>
    <i name="e_wo_entrp">  -1089.80429994 </i>
    <i name="e_0_energy">  -1089.80429994 </i>
   </energy>
  </scstep>
  <scstep>
   <time name="diag">   33.15   33.18</time>
   <time name="diis">   27.52   27.55</time>
   <time name="orth">   18.87   18.87</time>
   <time name="total">   83.25   83.43</time>
   <energy>
    <i name="e_fr_energy">  -1089.80430042 </i>
    <i name="e_wo_entrp">  -1089.80430042 </i>
    <i name="e_0_energy">  -1089.80430042 </i>
   </energy>
  </scstep>
  <scstep>
   <time name="diag">   33.22   33.22</time>
   <time name="diis">   26.06   26.07</time>
   <time name="orth">   18.87   18.86</time>
   <time name="total">   78.72   78.81</time>
   <energy>
    <i name="alphaZ">   5626.07670626 </i>
    <i name="ewald"> -61858.03598867 </i>
    <i name="hartreedc"> -16714.57508719 </i>
    <i name="XCdc">   3075.62334613 </i>
    <i name="pawpsdc"> 114833.15983592 </i>
    <i name="pawaedc">-113884.86333928 </i>
    <i name="eentropy">     -0.00000000 </i>
    <i name="bandstr">  -7084.00173545 </i>
    <i name="atom">  74916.81196153 </i>
    <i name="e_fr_energy">  -1089.80430074 </i>
    <i name="e_wo_entrp">  -1089.80430074 </i>
    <i name="e_0_energy">  -1089.80430074 </i>
   </energy>
  </scstep>
  <structure>
   <crystal>
    <varray name="basis" >
     <v>      11.27077647       0.00460930       0.00162202 </v>
     <v>       0.00471319      11.29758646      -0.00010985 </v>
     <v>       0.00230934      -0.00014150      15.73741237 </v>
    </varray>
    <i name="volume">   2003.88480292 </i>
    <varray name="rec_basis" >
     <v>       0.08872505      -0.00003701      -0.00001302 </v>
     <v>      -0.00003620       0.08851450       0.00000080 </v>
     <v>      -0.00000914       0.00000062       0.06354285 </v>
    </varray>
   </crystal>
   <varray name="positions" >
    <v>       0.99216575       0.24891853       0.11585701 </v>
    <v>       0.98988941       0.24911529       0.62347924 </v>
    <v>       0.98961264       0.74339938       0.11464925 </v>
    <v>       0.00247117       0.75094450       0.62599330 </v>
    <v>       0.50343564       0.25092099       0.12206476 </v>
    <v>       0.51061770       0.24965229       0.62052078 </v>
    <v>       0.50680902       0.74681580       0.12189663 </v>
    <v>       0.50090146       0.75194700       0.62279237 </v>
    <v>       0.99164883       0.24889764       0.38323180 </v>
    <v>       0.98967718       0.24893875       0.87707621 </v>
    <v>       0.99202419       0.74401251       0.38304473 </v>
    <v>       0.00035661       0.75093014       0.87612732 </v>
    <v>       0.50450344       0.25055571       0.37779893 </v>
    <v>       0.51043426       0.24990474       0.88070219 </v>
    <v>       0.50486871       0.74730846       0.37677816 </v>
    <v>       0.50277634       0.75223465       0.87960292 </v>
    <v>       0.24565699       0.00901336       0.11267038 </v>
    <v>       0.25354513       0.98744627       0.62375121 </v>
    <v>       0.24526453       0.50043844       0.11448341 </v>
    <v>       0.25125163       0.51200084       0.61977270 </v>
    <v>       0.75314948       0.00422965       0.12094261 </v>
    <v>       0.75053914       0.00251356       0.62339119 </v>
    <v>       0.75228900       0.49957694       0.11960998 </v>
    <v>       0.74770979       0.49338263       0.62425761 </v>
    <v>       0.24582924       0.00832757       0.38697142 </v>
    <v>       0.25334307       0.98739933       0.87721136 </v>
    <v>       0.24588074       0.50108494       0.38485362 </v>
    <v>       0.25122250       0.51170176       0.88064735 </v>
    <v>       0.75285601       0.00663547       0.37787000 </v>
    <v>       0.75019029       0.00035717       0.87901568 </v>
    <v>       0.75209942       0.49825432       0.37833662 </v>
    <v>       0.74776391       0.49621976       0.87773456 </v>
    <v>       0.99768726       0.00032184       0.00118470 </v>
    <v>       0.75300054       0.24314611       0.24959585 </v>
    <v>       0.49967209       0.49889023       0.49919771 </v>
    <v>       0.99902676       0.49853472       0.50190930 </v>
    <v>       0.24914848       0.25156968       0.50599060 </v>
    <v>       0.24906442       0.25159633       0.99286628 </v>
    <v>       0.24922922       0.74945157       0.49570928 </v>
    <v>       0.50114318       0.00078796       0.00421847 </v>
    <v>       0.99898966       0.00144644       0.49911597 </v>
    <v>       0.74968556       0.75020256       0.50086913 </v>
    <v>       0.99773461       0.49932279       0.99778358 </v>
    <v>       0.74810721       0.25121940       0.75046489 </v>
    <v>       0.50053562       0.49986163       0.00079886 </v>
    <v>       0.75344014       0.74215542       0.24808831 </v>
    <v>       0.24890165       0.74930086       0.00471283 </v>
    <v>       0.99614097       0.99490998       0.75028774 </v>
    <v>       0.74850249       0.75377208       0.75174599 </v>
    <v>       0.25020671       0.74665268       0.75060002 </v>
    <v>       0.50275104       0.99615730       0.75054898 </v>
    <v>       0.50039025       0.00129451       0.49664766 </v>
    <v>       0.74895890       0.25006961       0.49932557 </v>
    <v>       0.25612442       0.79381532       0.24951641 </v>
    <v>       0.25317746       0.28908812       0.25034595 </v>
    <v>       0.52144602       0.99142804       0.25007634 </v>
    <v>       0.74902241       0.75015721       0.99923780 </v>
    <v>       0.99191518       0.98728158       0.24973122 </v>
    <v>       0.50745685       0.51286037       0.75024684 </v>
    <v>       0.74884729       0.24992337       0.00084836 </v>
    <v>       0.98604138       0.50898811       0.74998414 </v>
    <v>       0.98835781       0.48586558       0.24967923 </v>
    <v>       0.24401189       0.22112472       0.74974437 </v>
    <v>       0.52210891       0.49133690       0.24979066 </v>
    <v>       0.01168877       0.02025925       0.12610616 </v>
    <v>       0.99869617       0.98656368       0.62476975 </v>
    <v>       0.00268764       0.51220116       0.12477830 </v>
    <v>       0.01654357       0.48305004       0.62894490 </v>
    <v>       0.48296971       0.01996658       0.12973087 </v>
    <v>       0.49549676       0.98787938       0.62300916 </v>
    <v>       0.48937436       0.51412992       0.12850359 </v>
    <v>       0.48634104       0.48493842       0.62617267 </v>
    <v>       0.01145111       0.01940651       0.37419771 </v>
    <v>       0.99988899       0.98712713       0.87478298 </v>
    <v>       0.00257441       0.51275609       0.37555847 </v>
    <v>       0.01678158       0.48215451       0.87033677 </v>
    <v>       0.48332551       0.01887005       0.37087552 </v>
    <v>       0.49520037       0.98876861       0.87661664 </v>
    <v>       0.49137689       0.51425080       0.37213312 </v>
    <v>       0.48605487       0.48415739       0.87334863 </v>
    <v>       0.23852114       0.22674367       0.36351615 </v>
    <v>       0.25364972       0.28349943       0.86231524 </v>
    <v>       0.23922530       0.72537708       0.36024069 </v>
    <v>       0.24881249       0.75457516       0.87745580 </v>
    <v>       0.75313696       0.24494600       0.37493237 </v>
    <v>       0.74595123       0.25306982       0.87450053 </v>
    <v>       0.75401065       0.73731542       0.37681475 </v>
    <v>       0.74540059       0.76148809       0.87423627 </v>
    <v>       0.23827584       0.22631675       0.13824401 </v>
    <v>       0.25323303       0.28350723       0.63700234 </v>
    <v>       0.23885681       0.72504904       0.13932458 </v>
    <v>       0.24919457       0.75465132       0.62230450 </v>
    <v>       0.75342100       0.24395457       0.12524832 </v>
    <v>       0.74619659       0.25236163       0.62537775 </v>
    <v>       0.75337239       0.73891990       0.12477674 </v>
    <v>       0.74560298       0.76439200       0.62388669 </v>
    <v>       0.60714798       0.14526666       0.25042844 </v>
    <v>       0.86135086       0.10289552       0.25029724 </v>
    <v>       0.15473518       0.42521433       0.25029791 </v>
    <v>       0.40456493       0.35616488       0.25063912 </v>
    <v>       0.65832275       0.39469893       0.24949748 </v>
    <v>       0.90473669       0.34271150       0.25002002 </v>
    <v>       0.60756769       0.64575277       0.25040196 </v>
    <v>       0.86149557       0.60379209       0.25025263 </v>
    <v>       0.16152073       0.93127538       0.25010966 </v>
    <v>       0.41081560       0.85157771       0.24967568 </v>
    <v>       0.65933534       0.89466506       0.25076333 </v>
    <v>       0.90698437       0.84350776       0.25008633 </v>
    <v>       0.13528936       0.11908262       0.51433944 </v>
    <v>       0.37804986       0.13419787       0.50854430 </v>
    <v>       0.62871250       0.11549615       0.50188456 </v>
    <v>       0.88391427       0.13025020       0.50437946 </v>
    <v>       0.11879202       0.36487555       0.49280954 </v>
    <v>       0.36480987       0.37882954       0.49088791 </v>
    <v>       0.61426688       0.37007789       0.49500254 </v>
    <v>       0.86921044       0.38514093       0.49879751 </v>
    <v>       0.13202840       0.61842823       0.50239959 </v>
    <v>       0.37944662       0.63240164       0.50105413 </v>
    <v>       0.63056921       0.61692321       0.50704122 </v>
    <v>       0.88355994       0.63231769       0.51133830 </v>
    <v>       0.11893028       0.86646010       0.49158570 </v>
    <v>       0.36532233       0.87874274       0.49040928 </v>
    <v>       0.61568033       0.86847078       0.48992209 </v>
    <v>       0.86902221       0.88243442       0.49143762 </v>
    <v>       0.09906958       0.14225407       0.74940164 </v>
    <v>       0.35979030       0.10483158       0.74961792 </v>
    <v>       0.60543304       0.13715691       0.74982650 </v>
    <v>       0.85701182       0.10499831       0.75035871 </v>
    <v>       0.62895465       0.38437724       0.74962063 </v>
    <v>       0.88875789       0.35727840       0.74954898 </v>
    <v>       0.11257070       0.63586489       0.74986039 </v>
    <v>       0.35373135       0.60189291       0.74982732 </v>
    <v>       0.60821955       0.64606818       0.74918902 </v>
    <v>       0.85239250       0.61039459       0.74876361 </v>
    <v>       0.14171530       0.88856603       0.74968351 </v>
    <v>       0.39095057       0.85400358       0.75005617 </v>
    <v>       0.64160909       0.89429000       0.74974824 </v>
    <v>       0.89232897       0.85502635       0.74985560 </v>
    <v>       0.13482565       0.12010146       0.98560811 </v>
    <v>       0.37709749       0.13365816       0.99135655 </v>
    <v>       0.62783911       0.11710251       0.99810028 </v>
    <v>       0.88317974       0.12980233       0.99525225 </v>
    <v>       0.11958280       0.36528152       0.00698683 </v>
    <v>       0.36515121       0.37775482       0.00890238 </v>
    <v>       0.61471456       0.37034843       0.00564147 </v>
    <v>       0.86987578       0.38319874       0.00126402 </v>
    <v>       0.13114937       0.61915961       0.99738240 </v>
    <v>       0.37770159       0.63144546       0.99866210 </v>
    <v>       0.62771589       0.61625906       0.99324717 </v>
    <v>       0.88357502       0.62909526       0.98844315 </v>
    <v>       0.12001063       0.86732848       0.00827927 </v>
    <v>       0.36560562       0.87833071       0.00946015 </v>
    <v>       0.61507677       0.87125410       0.00965241 </v>
    <v>       0.87125862       0.88296611       0.00805998 </v>
   </varray>
  </structure>
  <varray name="forces" >
   <v>      -0.00402260       0.01149630       0.00028155 </v>
   <v>      -0.01059608       0.01336385      -0.03203323 </v>
   <v>       0.01348602       0.01171981       0.01169299 </v>
   <v>       0.00367416      -0.00522602       0.00412283 </v>
   <v>       0.04450853      -0.00269535       0.03333048 </v>
   <v>      -0.03449221      -0.00225282      -0.00655866 </v>
   <v>       0.03423178      -0.04682568       0.01189674 </v>
   <v>      -0.03177677       0.00392579      -0.00442050 </v>
   <v>      -0.01603822       0.00070894       0.00482199 </v>
   <v>       0.00140268       0.01186589       0.01964271 </v>
   <v>       0.01115550      -0.00973157       0.00294443 </v>
   <v>       0.00657276       0.00328844      -0.00366442 </v>
   <v>       0.04881319       0.00119417      -0.04742610 </v>
   <v>      -0.03873381      -0.01691019       0.00345242 </v>
   <v>       0.03698419      -0.03511487      -0.02876148 </v>
   <v>      -0.03314712       0.02000564      -0.01705331 </v>
   <v>      -0.00539747      -0.05077537       0.03245557 </v>
   <v>      -0.02294010      -0.04307649       0.04058353 </v>
   <v>       0.02163391      -0.02880429       0.03612015 </v>
   <v>      -0.00638134      -0.01250322       0.00489358 </v>
   <v>       0.01262364      -0.01703486       0.03119520 </v>
   <v>      -0.04555200       0.00824219      -0.02826547 </v>
   <v>       0.01819785       0.01025232       0.01953438 </v>
   <v>      -0.04032513       0.02272743       0.00838083 </v>
   <v>       0.00244002      -0.05231680      -0.04919220 </v>
   <v>      -0.02697891      -0.04206261      -0.02875188 </v>
   <v>       0.01437626      -0.01765896      -0.04892582 </v>
   <v>      -0.00757172      -0.00721158       0.01219797 </v>
   <v>       0.03335225      -0.02209930      -0.01779935 </v>
   <v>      -0.04129912       0.00509525       0.01319395 </v>
   <v>       0.02586650       0.00792271      -0.00742755 </v>
   <v>      -0.03282959       0.02149533      -0.02975187 </v>
   <v>      -0.00307272       0.03811898      -0.01389365 </v>
   <v>       0.00078911      -0.05295592      -0.01119135 </v>
   <v>       0.05786368      -0.00716474      -0.01975317 </v>
   <v>      -0.05431303       0.00510847       0.02117184 </v>
   <v>      -0.02010120       0.04073112      -0.00075702 </v>
   <v>      -0.01641611       0.05643377       0.01851542 </v>
   <v>      -0.02670587      -0.02003337       0.03757850 </v>
   <v>       0.02607768      -0.02580842       0.01150034 </v>
   <v>      -0.06045037      -0.00008990       0.00790207 </v>
   <v>      -0.02550818      -0.02709467      -0.02524953 </v>
   <v>       0.01486529      -0.04656151      -0.03162360 </v>
   <v>       0.04643054       0.07759984       0.00823679 </v>
   <v>      -0.04300756      -0.03961824       0.03018308 </v>
   <v>      -0.00736708      -0.02446030       0.08399656 </v>
   <v>       0.01303868      -0.03043263      -0.00902519 </v>
   <v>       0.13037305      -0.00577574       0.00655542 </v>
   <v>       0.02951839      -0.04577487      -0.01922877 </v>
   <v>       0.01272266       0.02202299       0.01213342 </v>
   <v>      -0.11062915      -0.04945033       0.02882178 </v>
   <v>       0.06911720       0.00398542      -0.03973054 </v>
   <v>       0.01522595      -0.01798789       0.03233039 </v>
   <v>       0.01695720      -0.02169708       0.01451848 </v>
   <v>       0.01911121       0.00514051      -0.00481197 </v>
   <v>      -0.01380623      -0.01966817      -0.02477388 </v>
   <v>      -0.01318673      -0.00128457      -0.04037257 </v>
   <v>      -0.02273043       0.02297080      -0.00185830 </v>
   <v>       0.00656233       0.05331421       0.00209646 </v>
   <v>       0.00225991      -0.02466596      -0.03162406 </v>
   <v>      -0.05379921       0.00431909       0.01397849 </v>
   <v>       0.03133579      -0.01357988      -0.00990413 </v>
   <v>      -0.01479400      -0.03132353       0.01380093 </v>
   <v>      -0.04302975      -0.05516644      -0.02123033 </v>
   <v>      -0.04082294      -0.02383850      -0.00099305 </v>
   <v>      -0.01013705       0.06626743      -0.08372039 </v>
   <v>      -0.02642921      -0.01465202      -0.03440205 </v>
   <v>      -0.00228777       0.01006867      -0.03835754 </v>
   <v>       0.01041346      -0.01733868      -0.00545675 </v>
   <v>       0.04108450       0.06532657      -0.04431163 </v>
   <v>       0.01572644       0.02279624      -0.00166872 </v>
   <v>      -0.00376741       0.01652207      -0.04493631 </v>
   <v>      -0.03474575      -0.01366663       0.02165844 </v>
   <v>      -0.00867276       0.05332448       0.05179636 </v>
   <v>      -0.02061492      -0.01315587       0.02845990 </v>
   <v>      -0.01771237       0.02328480       0.02444246 </v>
   <v>      -0.00219109      -0.00498910       0.02523525 </v>
   <v>       0.04482402       0.05982991       0.00512714 </v>
   <v>      -0.00507911       0.01116899       0.01213660 </v>
   <v>       0.01229201       0.02323585       0.03284301 </v>
   <v>      -0.00635933       0.04290374      -0.03147392 </v>
   <v>       0.00459888       0.02524099      -0.02784891 </v>
   <v>       0.00039981       0.00390167      -0.03083461 </v>
   <v>       0.02574146       0.00153741       0.04016207 </v>
   <v>       0.00595108       0.03597899       0.03871889 </v>
   <v>      -0.00011131      -0.02969433       0.02849060 </v>
   <v>      -0.00307181      -0.00904533      -0.02702346 </v>
   <v>       0.01860449      -0.01265289       0.06723284 </v>
   <v>       0.00251620       0.05356967       0.03917615 </v>
   <v>       0.01535959       0.03145827      -0.00874259 </v>
   <v>      -0.01911655       0.01643160       0.03672487 </v>
   <v>       0.02874101      -0.00176446      -0.04639583 </v>
   <v>       0.00358373       0.02538377      -0.02750107 </v>
   <v>       0.01273398      -0.03309813      -0.02360597 </v>
   <v>       0.00268665      -0.01250254      -0.05036346 </v>
   <v>       0.01067547      -0.02973593       0.02694941 </v>
   <v>      -0.01501809      -0.04147442       0.00874746 </v>
   <v>       0.02828318       0.01323914       0.00282511 </v>
   <v>       0.04969481       0.09469146       0.00961752 </v>
   <v>       0.03180845      -0.02651287       0.01814994 </v>
   <v>      -0.00681728      -0.05792205      -0.00079192 </v>
   <v>       0.05286663      -0.05582358       0.01127121 </v>
   <v>      -0.01976995      -0.02333196      -0.00025546 </v>
   <v>       0.03824120       0.03803637       0.00622538 </v>
   <v>       0.02319441       0.04113075       0.00108082 </v>
   <v>      -0.02873150      -0.03405390      -0.00279638 </v>
   <v>       0.00131746      -0.07620561       0.00269950 </v>
   <v>       0.05767967      -0.05575005       0.00453146 </v>
   <v>       0.00990019       0.04146915      -0.00494833 </v>
   <v>      -0.04087790       0.00388279       0.00900418 </v>
   <v>      -0.06459820       0.00800819      -0.03175855 </v>
   <v>       0.00969865       0.00846955      -0.01501870 </v>
   <v>       0.04839414       0.01349266       0.02190776 </v>
   <v>      -0.02892386      -0.00924257      -0.00954351 </v>
   <v>       0.01554730       0.00428550       0.02140542 </v>
   <v>       0.00668978      -0.05699587       0.04476685 </v>
   <v>       0.01108545       0.00327840       0.03901576 </v>
   <v>      -0.03344509      -0.01363166      -0.00086488 </v>
   <v>      -0.00517791       0.01402071      -0.00742709 </v>
   <v>      -0.00892446      -0.00048753      -0.00916267 </v>
   <v>       0.04216857       0.02892988       0.03678561 </v>
   <v>      -0.00091656       0.02667636       0.00688104 </v>
   <v>      -0.01606269       0.02955377       0.02517032 </v>
   <v>       0.02441931      -0.01952543       0.04712277 </v>
   <v>       0.03303448       0.08387958       0.00034851 </v>
   <v>      -0.02359443       0.02616217      -0.01392228 </v>
   <v>       0.01787303       0.01141591      -0.00704348 </v>
   <v>      -0.02065942       0.06552899      -0.00051284 </v>
   <v>      -0.02662732      -0.02190051       0.00132267 </v>
   <v>      -0.02755537       0.01595362       0.00313435 </v>
   <v>      -0.03628350      -0.04392068       0.00181967 </v>
   <v>       0.01084390      -0.04020179      -0.00854709 </v>
   <v>      -0.00452551       0.03153505      -0.00838167 </v>
   <v>      -0.01920723       0.02375169      -0.00300153 </v>
   <v>      -0.02572819       0.00555533      -0.01026393 </v>
   <v>       0.01291978       0.00075553       0.00247464 </v>
   <v>       0.04491132       0.00229023      -0.01062043 </v>
   <v>      -0.02579911      -0.00720468      -0.00833796 </v>
   <v>      -0.00806957       0.02720969       0.01449285 </v>
   <v>      -0.02999663       0.00660060      -0.00123067 </v>
   <v>      -0.03307174       0.01820425       0.03021531 </v>
   <v>      -0.01354268       0.02262957       0.01569616 </v>
   <v>       0.04488283       0.02732415      -0.02203752 </v>
   <v>      -0.01782559       0.00701278       0.01379397 </v>
   <v>       0.02968519      -0.00550881      -0.02412534 </v>
   <v>       0.00599741      -0.04690648      -0.04654936 </v>
   <v>       0.00884332      -0.00793347      -0.04432501 </v>
   <v>      -0.00272375      -0.00769145      -0.00021741 </v>
   <v>      -0.01727944       0.00490543       0.02323180 </v>
   <v>      -0.02982689       0.00439842       0.02894432 </v>
   <v>       0.03267406       0.02156538      -0.03111593 </v>
   <v>      -0.01661081       0.00505827      -0.00101319 </v>
   <v>      -0.01690173       0.02696902      -0.00881241 </v>
   <v>       0.02305635      -0.03789681      -0.05057591 </v>
  </varray>
  <varray name="stress" >
   <v>       0.13643688       0.09791802       0.04351642 </v>
   <v>       0.09791790       2.01579773       0.10571557 </v>
   <v>       0.04351601       0.10571591       0.84460539 </v>
  </varray>
  <energy>
   <i name="e_fr_energy">  -1089.80430074 </i>
   <i name="e_wo_entrp">  -1089.80430074 </i>
   <i name="e_0_energy">     -0.00000000 </i>
  </energy>
  <time name="totalsc"> 1055.15 1057.43</time>
 </calculation>
 <calculation>
  <scstep>
   <time name="dav">  283.81  283.83</time>
   <time name="total">  287.52  287.61</time>
   <energy>
    <i name="alphaZ">   5619.47662021 </i>
    <i name="ewald"> -61833.71388703 </i>
    <i name="hartreedc"> -16708.13065491 </i>
    <i name="XCdc">   3074.06779294 </i>
    <i name="pawpsdc"> 114833.16880110 </i>
    <i name="pawaedc">-113884.87186156 </i>
    <i name="eentropy">     -0.00000000 </i>
    <i name="bandstr">  -7106.62463603 </i>
    <i name="atom">  74916.81196153 </i>
    <i name="e_fr_energy">  -1089.81586374 </i>
    <i name="e_wo_entrp">  -1089.81586374 </i>
    <i name="e_0_energy">  -1089.81586374 </i>
   </energy>
  </scstep>
  <scstep>
   <time name="diag">   33.15   33.16</time>
   <time name="diis">   51.98   51.99</time>
   <time name="orth">   18.85   18.85</time>
   <time name="total">  107.68  107.72</time>
   <energy>
    <i name="e_fr_energy">  -1089.81876139 </i>
    <i name="e_wo_entrp">  -1089.81876139 </i>
    <i name="e_0_energy">  -1089.81876139 </i>
   </energy>
  </scstep>
  <scstep>
   <time name="diag">   33.20   33.20</time>
   <time name="diis">   53.65   53.65</time>
   <time name="orth">   18.83   18.83</time>
   <time name="total">  109.39  109.46</time>
   <energy>
    <i name="e_fr_energy">  -1089.81725447 </i>
    <i name="e_wo_entrp">  -1089.81725447 </i>
    <i name="e_0_energy">  -1089.81725447 </i>
   </energy>
  </scstep>
  <scstep>
   <time name="diag">   33.23   33.23</time>
   <time name="diis">   54.35   54.35</time>
   <time name="orth">   18.83   18.82</time>
   <time name="total">  110.12  110.18</time>
   <energy>
    <i name="e_fr_energy">  -1089.81624629 </i>
    <i name="e_wo_entrp">  -1089.81624629 </i>
    <i name="e_0_energy">  -1089.81624629 </i>
   </energy>
  </scstep>
  <scstep>
   <time name="diag">   33.21   33.21</time>
   <time name="diis">   49.84   49.84</time>
   <time name="orth">   18.83   18.83</time>
   <time name="total">  105.59  105.67</time>
   <energy>
    <i name="e_fr_energy">  -1089.81598856 </i>
    <i name="e_wo_entrp">  -1089.81598856 </i>
    <i name="e_0_energy">  -1089.81598856 </i>
   </energy>
  </scstep>
  <scstep>
   <time name="diag">   33.19   33.19</time>
   <time name="diis">   35.89   35.89</time>
   <time name="orth">   18.83   18.83</time>
   <time name="total">   91.62   91.69</time>
   <energy>
    <i name="e_fr_energy">  -1089.81597255 </i>
    <i name="e_wo_entrp">  -1089.81597255 </i>
    <i name="e_0_energy">  -1089.81597255 </i>
   </energy>
  </scstep>
  <scstep>
   <time name="diag">   33.21   33.22</time>
   <time name="diis">   32.73   32.74</time>
   <time name="orth">   18.83   18.82</time>
   <time name="total">   88.45   88.49</time>
   <energy>
    <i name="e_fr_energy">  -1089.81596919 </i>
    <i name="e_wo_entrp">  -1089.81596919 </i>
    <i name="e_0_energy">  -1089.81596919 </i>
   </energy>
  </scstep>
  <scstep>
   <time name="diag">   33.17   33.17</time>
   <time name="diis">   32.24   32.24</time>
   <time name="orth">   18.82   18.82</time>
   <time name="total">   84.80   84.87</time>
   <energy>
    <i name="alphaZ">   5619.47662021 </i>
    <i name="ewald"> -61833.71388703 </i>
    <i name="hartreedc"> -16724.77327252 </i>
    <i name="XCdc">   3075.21454456 </i>
    <i name="pawpsdc"> 114573.65281739 </i>
    <i name="pawaedc">-113625.22146536 </i>
    <i name="eentropy">     -0.00000000 </i>
    <i name="bandstr">  -7091.26328499 </i>
    <i name="atom">  74916.81196153 </i>
    <i name="e_fr_energy">  -1089.81596621 </i>
    <i name="e_wo_entrp">  -1089.81596621 </i>
    <i name="e_0_energy">  -1089.81596621 </i>
   </energy>
  </scstep>
  <structure>
   <crystal>
    <varray name="basis" >
     <v>      11.27137917       0.00504541       0.00181491 </v>
     <v>       0.00514687      11.30650952       0.00035814 </v>
     <v>       0.00257778       0.00051032      15.74262027 </v>
    </varray>
    <i name="volume">   2006.23836946 </i>
    <varray name="rec_basis" >
     <v>       0.08872031      -0.00004039      -0.00001453 </v>
     <v>      -0.00003959       0.08844464      -0.00000286 </v>
     <v>      -0.00001023      -0.00000201       0.06352183 </v>
    </varray>
   </crystal>
   <varray name="positions" >
    <v>       0.99214851       0.24896763       0.11585787 </v>
    <v>       0.98984405       0.24917237       0.62338104 </v>
    <v>       0.98967034       0.74344940       0.11468508 </v>
    <v>       0.00248691       0.75092218       0.62600594 </v>
    <v>       0.50362614       0.25090941       0.12216692 </v>
    <v>       0.51047007       0.24964273       0.62050069 </v>
    <v>       0.50695562       0.74661578       0.12193308 </v>
    <v>       0.50076544       0.75196382       0.62277883 </v>
    <v>       0.99158018       0.24890070       0.38324659 </v>
    <v>       0.98968315       0.24898941       0.87713642 </v>
    <v>       0.99207196       0.74397093       0.38305375 </v>
    <v>       0.00038474       0.75094417       0.87611608 </v>
    <v>       0.50471240       0.25056072       0.37765352 </v>
    <v>       0.51026850       0.24983260       0.88071279 </v>
    <v>       0.50502709       0.74715845       0.37668998 </v>
    <v>       0.50263444       0.75232013       0.87955066 </v>
    <v>       0.24563395       0.00879655       0.11276987 </v>
    <v>       0.25344699       0.98726237       0.62387563 </v>
    <v>       0.24535715       0.50031540       0.11459412 </v>
    <v>       0.25122433       0.51194746       0.61978770 </v>
    <v>       0.75320352       0.00415689       0.12103824 </v>
    <v>       0.75034417       0.00254883       0.62330457 </v>
    <v>       0.75236687       0.49962069       0.11966985 </v>
    <v>       0.74753714       0.49347975       0.62428332 </v>
    <v>       0.24583981       0.00810416       0.38682062 </v>
    <v>       0.25322768       0.98721977       0.87712323 </v>
    <v>       0.24594234       0.50100950       0.38470363 </v>
    <v>       0.25119010       0.51167098       0.88068475 </v>
    <v>       0.75299882       0.00654104       0.37781542 </v>
    <v>       0.75001350       0.00037900       0.87905614 </v>
    <v>       0.75221012       0.49828811       0.37831384 </v>
    <v>       0.74762337       0.49631160       0.87764337 </v>
    <v>       0.99767405       0.00048462       0.00114212 </v>
    <v>       0.75300402       0.24291998       0.24956154 </v>
    <v>       0.49991979       0.49885953       0.49913713 </v>
    <v>       0.99879426       0.49855663       0.50197422 </v>
    <v>       0.24906237       0.25174364       0.50598829 </v>
    <v>       0.24899404       0.25183734       0.99292304 </v>
    <v>       0.24911492       0.74936607       0.49582448 </v>
    <v>       0.50125484       0.00067771       0.00425371 </v>
    <v>       0.99873091       0.00144616       0.49914022 </v>
    <v>       0.74957644       0.75008691       0.50079173 </v>
    <v>       0.99779834       0.49912393       0.99768663 </v>
    <v>       0.74830581       0.25155068       0.75049012 </v>
    <v>       0.50035158       0.49969253       0.00089140 </v>
    <v>       0.75340860       0.74205099       0.24834580 </v>
    <v>       0.24895752       0.74917088       0.00468515 </v>
    <v>       0.99669901       0.99488509       0.75030778 </v>
    <v>       0.74862894       0.75357656       0.75168703 </v>
    <v>       0.25026112       0.74674670       0.75063721 </v>
    <v>       0.50227758       0.99594634       0.75063738 </v>
    <v>       0.50068611       0.00131141       0.49652584 </v>
    <v>       0.74902408       0.24999277       0.49942467 </v>
    <v>       0.25619703       0.79372264       0.24956091 </v>
    <v>       0.25325926       0.28911004       0.25033120 </v>
    <v>       0.52138697       0.99134407       0.25000040 </v>
    <v>       0.74896599       0.75015174       0.99911404 </v>
    <v>       0.99181785       0.98737971       0.24972553 </v>
    <v>       0.50748484       0.51308802       0.75025326 </v>
    <v>       0.74885703       0.24981804       0.00075141 </v>
    <v>       0.98581108       0.50900664       0.75002702 </v>
    <v>       0.98849196       0.48580754       0.24964886 </v>
    <v>       0.24394861       0.22099099       0.74978668 </v>
    <v>       0.52192484       0.49110141       0.24972560 </v>
    <v>       0.01151408       0.02015753       0.12610313 </v>
    <v>       0.99865271       0.98684667       0.62451311 </v>
    <v>       0.00257456       0.51213864       0.12467286 </v>
    <v>       0.01653379       0.48309304       0.62882732 </v>
    <v>       0.48301431       0.01989252       0.12971414 </v>
    <v>       0.49567253       0.98815826       0.62287331 </v>
    <v>       0.48944163       0.51422723       0.12849847 </v>
    <v>       0.48632492       0.48500898       0.62603492 </v>
    <v>       0.01130240       0.01934822       0.37426412 </v>
    <v>       0.99985174       0.98735485       0.87494176 </v>
    <v>       0.00248618       0.51269995       0.37564572 </v>
    <v>       0.01670571       0.48225397       0.87041170 </v>
    <v>       0.48331612       0.01884875       0.37095288 </v>
    <v>       0.49539212       0.98902402       0.87663233 </v>
    <v>       0.49135512       0.51429851       0.37217033 </v>
    <v>       0.48610742       0.48425659       0.87344930 </v>
    <v>       0.23849387       0.22692688       0.36341967 </v>
    <v>       0.25366938       0.28360720       0.86222987 </v>
    <v>       0.23922702       0.72539374       0.36014617 </v>
    <v>       0.24892265       0.75458168       0.87757891 </v>
    <v>       0.75316234       0.24509962       0.37505106 </v>
    <v>       0.74595079       0.25294302       0.87458786 </v>
    <v>       0.75399753       0.73727680       0.37673191 </v>
    <v>       0.74548021       0.76143403       0.87444236 </v>
    <v>       0.23828649       0.22654550       0.13836410 </v>
    <v>       0.25329872       0.28364154       0.63697553 </v>
    <v>       0.23877493       0.72511924       0.13943717 </v>
    <v>       0.24931762       0.75464374       0.62216226 </v>
    <v>       0.75343632       0.24406296       0.12516402 </v>
    <v>       0.74625117       0.25222027       0.62530538 </v>
    <v>       0.75338394       0.73886651       0.12462235 </v>
    <v>       0.74564871       0.76426500       0.62396930 </v>
    <v>       0.60708376       0.14508959       0.25045526 </v>
    <v>       0.86147189       0.10295200       0.25030588 </v>
    <v>       0.15494771       0.42561859       0.25032737 </v>
    <v>       0.40470112       0.35605161       0.25069474 </v>
    <v>       0.65829368       0.39445160       0.24949505 </v>
    <v>       0.90496306       0.34247303       0.25005455 </v>
    <v>       0.60748311       0.64565317       0.25040119 </v>
    <v>       0.86165918       0.60395444       0.25027169 </v>
    <v>       0.16161994       0.93145097       0.25011296 </v>
    <v>       0.41069268       0.85143234       0.24966712 </v>
    <v>       0.65934111       0.89433964       0.25077160 </v>
    <v>       0.90723136       0.84326960       0.25010019 </v>
    <v>       0.13533166       0.11925968       0.51432427 </v>
    <v>       0.37787488       0.13421453       0.50857192 </v>
    <v>       0.62843600       0.11553046       0.50178723 </v>
    <v>       0.88395578       0.13028635       0.50433342 </v>
    <v>       0.11899913       0.36493308       0.49287668 </v>
    <v>       0.36468608       0.37879012       0.49085867 </v>
    <v>       0.61433341       0.37009616       0.49506816 </v>
    <v>       0.86923915       0.38489754       0.49893474 </v>
    <v>       0.13207582       0.61844221       0.50251918 </v>
    <v>       0.37930349       0.63234349       0.50105150 </v>
    <v>       0.63054702       0.61698309       0.50701846 </v>
    <v>       0.88352174       0.63231562       0.51131022 </v>
    <v>       0.11911070       0.86658356       0.49169844 </v>
    <v>       0.36531835       0.87885666       0.49043037 </v>
    <v>       0.61561151       0.86859701       0.48999926 </v>
    <v>       0.86912674       0.88235100       0.49158207 </v>
    <v>       0.09921083       0.14261219       0.74940270 </v>
    <v>       0.35968927       0.10494334       0.74957525 </v>
    <v>       0.60550952       0.13720563       0.74980490 </v>
    <v>       0.85692328       0.10527816       0.75035715 </v>
    <v>       0.62884071       0.38428376       0.74962470 </v>
    <v>       0.88863991       0.35734657       0.74955860 </v>
    <v>       0.11241547       0.63567740       0.74986599 </v>
    <v>       0.35377784       0.60172123       0.74980112 </v>
    <v>       0.60820012       0.64620285       0.74916333 </v>
    <v>       0.85231024       0.61049605       0.74875442 </v>
    <v>       0.14160518       0.88858980       0.74965206 </v>
    <v>       0.39100586       0.85400678       0.75006375 </v>
    <v>       0.64180133       0.89429970       0.74971566 </v>
    <v>       0.89221856       0.85499563       0.74983005 </v>
    <v>       0.13479105       0.12021766       0.98565254 </v>
    <v>       0.37696908       0.13368640       0.99135279 </v>
    <v>       0.62769751       0.11718030       0.99819291 </v>
    <v>       0.88312173       0.12989899       0.99530037 </v>
    <v>       0.11977488       0.36539812       0.00691926 </v>
    <v>       0.36507489       0.37778480       0.00894467 </v>
    <v>       0.61484165       0.37032486       0.00556750 </v>
    <v>       0.86990156       0.38299843       0.00112132 </v>
    <v>       0.13118726       0.61912572       0.99724652 </v>
    <v>       0.37768995       0.63141262       0.99866143 </v>
    <v>       0.62764191       0.61628003       0.99331839 </v>
    <v>       0.88344732       0.62911410       0.98853189 </v>
    <v>       0.12015047       0.86742051       0.00818387 </v>
    <v>       0.36553451       0.87835234       0.00945705 </v>
    <v>       0.61500438       0.87136929       0.00962540 </v>
    <v>       0.87135741       0.88280424       0.00790493 </v>
   </varray>
  </structure>
  <varray name="forces" >
   <v>      -0.00843486       0.00636198      -0.00456257 </v>
   <v>      -0.00280871       0.00323725      -0.03315072 </v>
   <v>      -0.00417108       0.00619010      -0.00315125 </v>
   <v>      -0.00805195      -0.00192623      -0.01090373 </v>
   <v>       0.04712687      -0.01615503       0.01191554 </v>
   <v>      -0.03844606      -0.01882609      -0.00364948 </v>
   <v>       0.04131088      -0.04104197       0.00208789 </v>
   <v>      -0.02609218       0.01271109      -0.02526091 </v>
   <v>      -0.00039837      -0.00160937       0.01676624 </v>
   <v>      -0.00808699       0.00246393       0.01592102 </v>
   <v>       0.03108657      -0.00712941       0.00456191 </v>
   <v>      -0.01685832       0.00022017       0.02663181 </v>
   <v>       0.03485748      -0.00779989      -0.01320507 </v>
   <v>      -0.02058335      -0.02443369      -0.00491834 </v>
   <v>       0.00814686      -0.02890525      -0.01675187 </v>
   <v>      -0.00635263       0.00929304       0.00706121 </v>
   <v>      -0.00565735      -0.03387344       0.01367624 </v>
   <v>      -0.00376189      -0.01092539      -0.03877466 </v>
   <v>       0.00943993      -0.00164914       0.02766336 </v>
   <v>       0.00215569      -0.02171200      -0.01264827 </v>
   <v>       0.01823241      -0.03302977       0.01085044 </v>
   <v>      -0.04803897       0.01493963       0.01774498 </v>
   <v>       0.01920500       0.02407120      -0.00116815 </v>
   <v>      -0.04840377       0.01064957       0.00346487 </v>
   <v>       0.00616157      -0.02181648      -0.00395462 </v>
   <v>      -0.01678951      -0.01216389       0.02947657 </v>
   <v>       0.01457907      -0.00893866      -0.00793387 </v>
   <v>      -0.00289773      -0.01081497       0.00772175 </v>
   <v>       0.02969202      -0.01236482      -0.01388689 </v>
   <v>      -0.03510769       0.00915618      -0.01563582 </v>
   <v>       0.02486492      -0.01708115      -0.01815361 </v>
   <v>      -0.04506074       0.01976167       0.00745924 </v>
   <v>      -0.01974652      -0.01559185       0.01882875 </v>
   <v>       0.01007552      -0.02299125       0.00152467 </v>
   <v>      -0.05077653      -0.02743707      -0.00271153 </v>
   <v>       0.01445492      -0.02321071      -0.00052232 </v>
   <v>       0.03415239      -0.03654058       0.00620161 </v>
   <v>       0.01924577      -0.04638124      -0.00651826 </v>
   <v>       0.02358777       0.01010373      -0.02530019 </v>
   <v>      -0.01519764       0.01308278       0.00856444 </v>
   <v>       0.02571504       0.01638487      -0.01280595 </v>
   <v>      -0.00020517       0.01846368       0.04713397 </v>
   <v>      -0.05659190       0.01949227      -0.01516608 </v>
   <v>      -0.02862989      -0.03483119       0.00977586 </v>
   <v>       0.05330938      -0.00924264      -0.00807229 </v>
   <v>       0.01026269      -0.03048972      -0.07420367 </v>
   <v>      -0.02205274       0.01088874       0.04481520 </v>
   <v>      -0.07797575       0.06707662       0.00874076 </v>
   <v>      -0.00510568       0.05500562       0.02765859 </v>
   <v>      -0.00757147      -0.08832757       0.00143650 </v>
   <v>       0.07988566       0.06597886      -0.02846177 </v>
   <v>      -0.06269484       0.02718641      -0.01137786 </v>
   <v>       0.00540514      -0.01355183       0.02339672 </v>
   <v>      -0.03013837       0.00118129       0.00963606 </v>
   <v>      -0.01225488       0.02502664       0.02447549 </v>
   <v>      -0.00508008      -0.04305275      -0.00117755 </v>
   <v>       0.00335775      -0.02055720       0.00182811 </v>
   <v>       0.01425320      -0.02449873       0.00499792 </v>
   <v>       0.01270748       0.01518944      -0.00395252 </v>
   <v>      -0.00486700      -0.00723206      -0.02684957 </v>
   <v>      -0.02785743      -0.00195544      -0.00333175 </v>
   <v>       0.01311710      -0.02412073      -0.00767833 </v>
   <v>       0.02469900       0.04153485      -0.02401604 </v>
   <v>      -0.00419903      -0.04435844       0.00492202 </v>
   <v>      -0.03923783      -0.01930269      -0.00392811 </v>
   <v>       0.00387501       0.04888153       0.03566416 </v>
   <v>      -0.02212871      -0.02793770      -0.01970460 </v>
   <v>      -0.02067622       0.01439571       0.00688171 </v>
   <v>       0.01080628      -0.01737820       0.01235981 </v>
   <v>       0.02907659       0.04165328       0.01561274 </v>
   <v>       0.00248407       0.00682471       0.00894311 </v>
   <v>       0.01349821       0.02428525      -0.02006973 </v>
   <v>      -0.04167230      -0.01919818       0.00384965 </v>
   <v>       0.01322721       0.04816189      -0.04189552 </v>
   <v>      -0.02873421      -0.01569009       0.02393225 </v>
   <v>      -0.01992713       0.01354091      -0.00815357 </v>
   <v>       0.00859026      -0.01016209      -0.03478622 </v>
   <v>       0.02140060       0.03546873      -0.01137924 </v>
[...]
       <r>   -16.5410     0.0000    32.0000 </r>
       <r>   -16.3882     0.0000    32.0000 </r>
       <r>   -16.2353     0.0000    32.0000 </r>
       <r>   -16.0825     0.0000    32.0000 </r>
       <r>   -15.9297     0.0000    32.0000 </r>
       <r>   -15.7769     0.0000    32.0000 </r>
       <r>   -15.6240     0.0000    32.0000 </r>
       <r>   -15.4712     0.0000    32.0000 </r>
       <r>   -15.3184     0.0000    32.0000 </r>
       <r>   -15.1656     1.0829    32.1655 </r>
       <r>   -15.0128    24.4884    35.9079 </r>
       <r>   -14.8599    46.7626    43.0543 </r>
       <r>   -14.7071    44.4465    49.8467 </r>
       <r>   -14.5543    34.9735    55.1915 </r>
       <r>   -14.4015    30.9935    59.9280 </r>
       <r>   -14.2486    53.2710    68.0690 </r>
       <r>   -14.0958    95.3801    82.6452 </r>
       <r>   -13.9430   113.0187    99.9171 </r>
       <r>   -13.7902    84.0734   112.7654 </r>
       <r>   -13.6373    51.0291   120.5638 </r>
       <r>   -13.4845     9.3978   122.0000 </r>
       <r>   -13.3317     0.0001   122.0000 </r>
       <r>   -13.1789     0.0000   122.0000 </r>
       <r>   -13.0261     0.0000   122.0000 </r>
       <r>   -12.8732     0.0000   122.0000 </r>
       <r>   -12.7204     2.5442   122.3888 </r>
       <r>   -12.5676    58.2234   131.2867 </r>
       <r>   -12.4148   137.1081   152.2399 </r>
       <r>   -12.2619   137.3519   173.2304 </r>
       <r>   -12.1091   122.4936   191.9502 </r>
       <r>   -11.9563   101.2148   207.4181 </r>
       <r>   -11.8035    55.0598   215.8325 </r>
       <r>   -11.6507    14.1154   217.9897 </r>
       <r>   -11.4978     0.0675   218.0000 </r>
       <r>   -11.3450     0.0000   218.0000 </r>
       <r>   -11.1922     0.0000   218.0000 </r>
       <r>   -11.0394     0.0000   218.0000 </r>
       <r>   -10.8865     0.0000   218.0000 </r>
       <r>   -10.7337     0.0000   218.0000 </r>
       <r>   -10.5809     0.0000   218.0000 </r>
       <r>   -10.4281     0.0000   218.0000 </r>
       <r>   -10.2752     0.0000   218.0000 </r>
       <r>   -10.1224     0.0000   218.0000 </r>
       <r>    -9.9696     0.0000   218.0000 </r>
       <r>    -9.8168     0.0000   218.0000 </r>
       <r>    -9.6640     0.0000   218.0000 </r>
       <r>    -9.5111     0.0000   218.0000 </r>
       <r>    -9.3583     0.0000   218.0000 </r>
       <r>    -9.2055     0.0000   218.0000 </r>
       <r>    -9.0527     0.0000   218.0000 </r>
       <r>    -8.8998     0.0000   218.0000 </r>
       <r>    -8.7470     0.0000   218.0000 </r>
       <r>    -8.5942     0.0000   218.0000 </r>
       <r>    -8.4414     0.0000   218.0000 </r>
       <r>    -8.2886     0.0000   218.0000 </r>
       <r>    -8.1357     0.0000   218.0000 </r>
       <r>    -7.9829     0.0000   218.0000 </r>
       <r>    -7.8301     0.0000   218.0000 </r>
       <r>    -7.6773     0.0000   218.0000 </r>
       <r>    -7.5244     0.0000   218.0000 </r>
       <r>    -7.3716     0.0000   218.0000 </r>
       <r>    -7.2188     0.0000   218.0000 </r>
       <r>    -7.0660     0.0000   218.0000 </r>
       <r>    -6.9131     0.0000   218.0000 </r>
       <r>    -6.7603     0.0000   218.0000 </r>
       <r>    -6.6075     0.0000   218.0000 </r>
       <r>    -6.4547     0.0000   218.0000 </r>
       <r>    -6.3019     0.0000   218.0000 </r>
       <r>    -6.1490     0.0000   218.0000 </r>
       <r>    -5.9962     0.0000   218.0000 </r>
       <r>    -5.8434     0.0000   218.0000 </r>
       <r>    -5.6906     0.0000   218.0000 </r>
       <r>    -5.5377     0.0000   218.0000 </r>
       <r>    -5.3849     0.0000   218.0000 </r>
       <r>    -5.2321     0.0000   218.0000 </r>
       <r>    -5.0793     0.0000   218.0000 </r>
       <r>    -4.9265     0.0000   218.0000 </r>
       <r>    -4.7736     0.0000   218.0000 </r>
       <r>    -4.6208     0.0000   218.0000 </r>
       <r>    -4.4680     0.0000   218.0000 </r>
       <r>    -4.3152     0.0000   218.0000 </r>
       <r>    -4.1623     0.0000   218.0000 </r>
       <r>    -4.0095     0.0000   218.0000 </r>
       <r>    -3.8567     0.0000   218.0000 </r>
       <r>    -3.7039     0.0000   218.0000 </r>
       <r>    -3.5510     0.0000   218.0000 </r>
       <r>    -3.3982     0.0000   218.0000 </r>
       <r>    -3.2454     0.0000   218.0000 </r>
       <r>    -3.0926     0.0000   218.0000 </r>
       <r>    -2.9398     0.0000   218.0000 </r>
       <r>    -2.7869     0.0000   218.0000 </r>
       <r>    -2.6341     0.0000   218.0000 </r>
       <r>    -2.4813     0.1335   218.0204 </r>
       <r>    -2.3285     7.8721   219.2234 </r>
       <r>    -2.1756    13.2185   221.2435 </r>
       <r>    -2.0228    29.7753   225.7939 </r>
       <r>    -1.8700    33.5575   230.9222 </r>
       <r>    -1.7172    39.2222   236.9163 </r>
       <r>    -1.5643    42.2416   243.3717 </r>
       <r>    -1.4115    48.7408   250.8204 </r>
       <r>    -1.2587    54.5328   259.1543 </r>
       <r>    -1.1059    77.4894   270.9964 </r>
       <r>    -0.9531    81.5005   283.4516 </r>
       <r>    -0.8002    75.6474   295.0122 </r>
       <r>    -0.6474    92.5163   309.1508 </r>
       <r>    -0.4946   103.6223   324.9867 </r>
       <r>    -0.3418    85.1129   337.9939 </r>
       <r>    -0.1889    63.7874   347.7420 </r>
       <r>    -0.0361    50.1852   355.4115 </r>
       <r>     0.1167    57.0503   364.1300 </r>
       <r>     0.2695    55.5273   372.6159 </r>
       <r>     0.4223    47.9465   379.9432 </r>
       <r>     0.5752    56.5873   388.5910 </r>
       <r>     0.7280    50.9296   396.3742 </r>
       <r>     0.8808    50.5908   404.1056 </r>
       <r>     1.0336    60.8442   413.4040 </r>
       <r>     1.1865    72.8521   424.5375 </r>
       <r>     1.3393    84.8565   437.5055 </r>
       <r>     1.4921    82.5984   450.1284 </r>
       <r>     1.6449    82.6365   462.7571 </r>
       <r>     1.7978    70.4144   473.5181 </r>
       <r>     1.9506    38.0361   479.3308 </r>
       <r>     2.1034    30.5949   484.0064 </r>
       <r>     2.2562    22.6352   487.4656 </r>
       <r>     2.4090     3.4967   488.0000 </r>
       <r>     2.5619     0.0000   488.0000 </r>
       <r>     2.7147     0.0000   488.0000 </r>
       <r>     2.8675     0.0000   488.0000 </r>
       <r>     3.0203     0.0000   488.0000 </r>
       <r>     3.1732     0.0000   488.0000 </r>
       <r>     3.3260     0.0000   488.0000 </r>
       <r>     3.4788     0.0000   488.0000 </r>
       <r>     3.6316     0.0000   488.0000 </r>
       <r>     3.7844     0.0000   488.0000 </r>
       <r>     3.9373     0.0000   488.0000 </r>
       <r>     4.0901     0.0000   488.0000 </r>
       <r>     4.2429     0.0000   488.0000 </r>
       <r>     4.3957     0.0662   488.0101 </r>
       <r>     4.5486    20.3852   491.1254 </r>
       <r>     4.7014    59.5486   500.2258 </r>
       <r>     4.8542    46.3673   507.3118 </r>
       <r>     5.0070    44.6393   514.1337 </r>
       <r>     5.1599    62.1569   523.6327 </r>
       <r>     5.3127    77.4793   535.4733 </r>
       <r>     5.4655    68.8194   545.9905 </r>
       <r>     5.6183    67.0954   556.2442 </r>
       <r>     5.7711    62.6422   565.8173 </r>
       <r>     5.9240    79.5192   577.9697 </r>
       <r>     6.0768    89.4447   591.6388 </r>
       <r>     6.2296    68.9972   602.1832 </r>
       <r>     6.3824    53.2629   610.3230 </r>
       <r>     6.5353     4.7677   611.0516 </r>
       <r>     6.6881    17.4052   613.7115 </r>
       <r>     6.8409    21.4359   616.9874 </r>
       <r>     6.9937    17.3729   619.6424 </r>
       <r>     7.1465    14.5221   621.8617 </r>
       <r>     7.2994    12.0040   623.6961 </r>
       <r>     7.4522    13.9993   625.8356 </r>
       <r>     7.6050    12.4586   627.7395 </r>
       <r>     7.7578    25.1921   631.5894 </r>
       <r>     7.9107    18.2351   634.3762 </r>
       <r>     8.0635    28.0472   638.6624 </r>
       <r>     8.2163    29.7347   643.2066 </r>
       <r>     8.3691    24.2154   646.9072 </r>
       <r>     8.5220    21.4648   650.1875 </r>
       <r>     8.6748    19.0579   653.1000 </r>
       <r>     8.8276    19.5800   656.0923 </r>
       <r>     8.9804    35.8367   661.5690 </r>
       <r>     9.1332    43.4079   668.2027 </r>
       <r>     9.2861    31.6068   673.0329 </r>
       <r>     9.4389    41.6572   679.3991 </r>
       <r>     9.5917    47.8499   686.7116 </r>
       <r>     9.7445    52.5602   694.7440 </r>
       <r>     9.8974    61.1432   704.0881 </r>
       <r>    10.0502    64.5755   713.9567 </r>
       <r>    10.2030    59.5155   723.0520 </r>
       <r>    10.3558    58.4042   731.9775 </r>
       <r>    10.5086    60.0435   741.1535 </r>
       <r>    10.6615    51.7216   749.0578 </r>
       <r>    10.8143    50.0671   756.7092 </r>
       <r>    10.9671    50.2799   764.3931 </r>
       <r>    11.1199    23.5826   767.9970 </r>
       <r>    11.2728     0.0194   768.0000 </r>
       <r>    11.4256     0.0000   768.0000 </r>
       <r>    11.5784     0.0000   768.0000 </r>
       <r>    11.7312     0.0000   768.0000 </r>
       <r>    11.8841     0.0000   768.0000 </r>
       <r>    12.0369     0.0000   768.0000 </r>
       <r>    12.1897     0.0000   768.0000 </r>
       <r>    12.3425     0.0000   768.0000 </r>
       <r>    12.4953     0.0000   768.0000 </r>
       <r>    12.6482     0.0000   768.0000 </r>
       <r>    12.8010     0.0000   768.0000 </r>
       <r>    12.9538     0.0000   768.0000 </r>
       <r>    13.1066     0.0000   768.0000 </r>
      </set>
     </set>
    </array>
   </total>
  </dos>
 </calculation>
 <structure name="finalpos" >
  <crystal>
   <varray name="basis" >
    <v>      11.26694664       0.00414276       0.00159352 </v>
    <v>       0.00424106      11.30595140       0.00079171 </v>
    <v>       0.00226561       0.00111482      15.74862990 </v>
   </varray>
   <i name="volume">   2006.11607548 </i>
   <varray name="rec_basis" >
    <v>       0.08875520      -0.00003329      -0.00001277 </v>
    <v>      -0.00003252       0.08844900      -0.00000626 </v>
    <v>      -0.00000898      -0.00000444       0.06349759 </v>
   </varray>
  </crystal>
  <varray name="positions" >
   <v>       0.99392311       0.24851353       0.11373109 </v>
   <v>       0.98679374       0.24917699       0.62365507 </v>
   <v>       0.99115420       0.74270859       0.11373968 </v>
   <v>       0.00080659       0.75204442       0.62628065 </v>
   <v>       0.50816629       0.24911521       0.12306363 </v>
   <v>       0.50775827       0.24953210       0.61968368 </v>
   <v>       0.51025156       0.74402787       0.12225486 </v>
   <v>       0.49894788       0.75292253       0.62184587 </v>
   <v>       0.99351676       0.24827322       0.38545611 </v>
   <v>       0.98675832       0.24908603       0.87656854 </v>
   <v>       0.99375773       0.74251981       0.38457008 </v>
   <v>      -0.00122266       0.75220376       0.87609345 </v>
   <v>       0.50913837       0.24882682       0.37683363 </v>
   <v>       0.50782284       0.24936968       0.88155017 </v>
   <v>       0.50841031       0.74467351       0.37591090 </v>
   <v>       0.50088947       0.75288164       0.87991959 </v>
   <v>       0.24521354       0.01029270       0.11218730 </v>
   <v>       0.25177124       0.98720129       0.62333194 </v>
   <v>       0.24551853       0.50182450       0.11318150 </v>
   <v>       0.25032119       0.51199922       0.61962195 </v>
   <v>       0.75520810       0.00200327       0.12147757 </v>
   <v>       0.74767827       0.00363219       0.62326146 </v>
   <v>       0.75500751       0.49875935       0.11962220 </v>
   <v>       0.74417660       0.49458277       0.62421919 </v>
   <v>       0.24555334       0.00963063       0.38745983 </v>
   <v>       0.25130115       0.98744434       0.87743632 </v>
   <v>       0.24628218       0.50276074       0.38642847 </v>
   <v>       0.25030451       0.51171192       0.88110573 </v>
   <v>       0.75532625       0.00469729       0.37746528 </v>
   <v>       0.74748910       0.00134573       0.87903665 </v>
   <v>       0.75518439       0.49692088       0.37824068 </v>
   <v>       0.74427082       0.49726521       0.87759441 </v>
   <v>       0.99702549       0.00033965       0.00046501 </v>
   <v>       0.75750126       0.24112275       0.24961788 </v>
   <v>       0.49968260       0.49852936       0.49840613 </v>
   <v>       0.99830477       0.49810539       0.50364345 </v>
   <v>       0.24916477       0.25262602       0.50590199 </v>
   <v>       0.24906807       0.25261894       0.99280924 </v>
   <v>       0.24914992       0.74975618       0.49587681 </v>
   <v>       0.50052554       0.00031366       0.00495727 </v>
   <v>       0.99826993       0.00124741       0.49978453 </v>
   <v>       0.74933778       0.74992630       0.50103442 </v>
   <v>       0.99714013       0.49870917       0.99619449 </v>
   <v>       0.74503712       0.25230673       0.75043095 </v>
   <v>       0.50050927       0.49934564       0.00162878 </v>
   <v>       0.75677676       0.73973500       0.24838945 </v>
   <v>       0.24878664       0.74967066       0.00473223 </v>
   <v>       0.99547541       0.99709824       0.75027480 </v>
   <v>       0.74682591       0.75487905       0.75167615 </v>
   <v>       0.24908004       0.74666299       0.75071365 </v>
   <v>       0.50066497       0.99670921       0.75051097 </v>
   <v>       0.49982542       0.00125157       0.49554387 </v>
   <v>       0.74888075       0.24958370       0.49957989 </v>
   <v>       0.25579733       0.79489906       0.24961552 </v>
   <v>       0.25367288       0.29242086       0.25056388 </v>
   <v>       0.52250767       0.98780761       0.24996970 </v>
   <v>       0.74897623       0.74969130       0.99892199 </v>
   <v>       0.99421236       0.98551441       0.24986437 </v>
   <v>       0.50561485       0.51453263       0.75018874 </v>
   <v>       0.74858894       0.24929439       0.00055481 </v>
   <v>       0.98346837       0.51014291       0.75003577 </v>
   <v>       0.99229243       0.48382919       0.24961468 </v>
   <v>       0.24396525       0.22183470       0.74960024 </v>
   <v>       0.52377375       0.48754878       0.24976758 </v>
   <v>       0.00917470       0.01592163       0.12530140 </v>
   <v>       0.99857875       0.99031804       0.62521020 </v>
   <v>       0.00206854       0.50795579       0.12337792 </v>
   <v>       0.01655758       0.48357231       0.63024056 </v>
   <v>       0.48150721       0.01828885       0.13102816 </v>
   <v>       0.49648395       0.99063935       0.62208982 </v>
   <v>       0.48874579       0.51303452       0.12966293 </v>
   <v>       0.48645526       0.48787194       0.62493461 </v>
   <v>       0.01012286       0.01583392       0.37513207 </v>
   <v>       0.00092030       0.99100184       0.87417328 </v>
   <v>       0.00144237       0.50880072       0.37709282 </v>
   <v>       0.01631089       0.48315162       0.86922592 </v>
   <v>       0.48107195       0.01761343       0.36941853 </v>
   <v>       0.49586462       0.99170656       0.87712208 </v>
   <v>       0.49093255       0.51343387       0.37098229 </v>
   <v>       0.48705984       0.48747182       0.87450371 </v>
   <v>       0.23396616       0.23027622       0.36315064 </v>
   <v>       0.25669920       0.28376365       0.86210718 </v>
   <v>       0.23468051       0.72822897       0.36056806 </v>
   <v>       0.25108234       0.75455452       0.87726729 </v>
   <v>       0.75636599       0.24709936       0.37491525 </v>
   <v>       0.74267520       0.25094365       0.87447092 </v>
   <v>       0.75659674       0.73732482       0.37680744 </v>
   <v>       0.74358281       0.76005142       0.87433863 </v>
   <v>       0.23359192       0.22996533       0.13908358 </v>
   <v>       0.25709616       0.28418323       0.63702494 </v>
   <v>       0.23367719       0.72795791       0.13912588 </v>
   <v>       0.25138875       0.75398482       0.62254766 </v>
   <v>       0.75674142       0.24585257       0.12525483 </v>
   <v>       0.74351698       0.25021410       0.62531331 </v>
   <v>       0.75619849       0.73994844       0.12473649 </v>
   <v>       0.74387695       0.76344542       0.62401012 </v>
   <v>       0.61338943       0.14010931       0.25048001 </v>
   <v>       0.86369489       0.10031092       0.25044473 </v>
   <v>       0.16243336       0.43532117       0.25056629 </v>
   <v>       0.40956799       0.34868386       0.25090406 </v>
   <v>       0.66063266       0.39142108       0.24943914 </v>
   <v>       0.91284824       0.33807644       0.25014828 </v>
   <v>       0.61292741       0.64112078       0.25019608 </v>
   <v>       0.86528885       0.60162072       0.25020498 </v>
   <v>       0.16623020       0.93669141       0.25006693 </v>
   <v>       0.41317190       0.84468581       0.24947734 </v>
   <v>       0.66036632       0.89046645       0.25131741 </v>
   <v>       0.91225889       0.84000011       0.25055817 </v>
   <v>       0.13231430       0.12275140       0.51368072 </v>
   <v>       0.37525701       0.13260814       0.50726271 </v>
   <v>       0.62577255       0.11787269       0.49861906 </v>
   <v>       0.88099055       0.12799578       0.50405822 </v>
   <v>       0.12162927       0.36848058       0.49543859 </v>
   <v>       0.36715150       0.37736700       0.49018192 </v>
   <v>       0.61648725       0.37220426       0.49512801 </v>
   <v>       0.87113098       0.38186915       0.50214276 </v>
   <v>       0.12931039       0.62107174       0.50355020 </v>
   <v>       0.37693930       0.63081727       0.49908552 </v>
   <v>       0.62833993       0.61938552       0.50524927 </v>
   <v>       0.88085489       0.62973266       0.51202002 </v>
   <v>       0.12126106       0.86953562       0.49461041 </v>
   <v>       0.36677929       0.87773892       0.49060225 </v>
   <v>       0.61736597       0.87051076       0.48911278 </v>
   <v>       0.87118851       0.87953174       0.49405521 </v>
   <v>       0.09773041       0.14613444       0.74918080 </v>
   <v>       0.35718897       0.10315913       0.74927595 </v>
   <v>       0.60295291       0.13805077       0.74949836 </v>
   <v>       0.85607885       0.10725651       0.75041771 </v>
   <v>       0.62508519       0.38461475       0.74944401 </v>
   <v>       0.88387150       0.35987315       0.74962096 </v>
   <v>       0.11065918       0.63823257       0.74999804 </v>
   <v>       0.35148398       0.60010849       0.75001842 </v>
   <v>       0.60578115       0.64789283       0.74878725 </v>
   <v>       0.85048897       0.61196892       0.74851377 </v>
   <v>       0.14105305       0.88957870       0.74944705 </v>
   <v>       0.39114229       0.85421250       0.74997924 </v>
   <v>       0.64096553       0.89564665       0.74978802 </v>
   <v>       0.89078656       0.85710621       0.75001695 </v>
   <v>       0.13163993       0.12374684       0.98678744 </v>
   <v>       0.37418405       0.13214113       0.99275597 </v>
   <v>       0.62486397       0.11926395       0.00108176 </v>
   <v>       0.88017040       0.12762061       0.99513676 </v>
   <v>       0.12246520       0.36893938       0.00431789 </v>
   <v>       0.36731870       0.37644441       0.00933134 </v>
   <v>       0.61679200       0.37205566       0.00565291 </v>
   <v>       0.87172954       0.38013971      -0.00205470 </v>
   <v>       0.12870238       0.62164752       0.99611255 </v>
   <v>       0.37548904       0.63005649       0.00054361 </v>
   <v>       0.62580030       0.61814582       0.99571653 </v>
   <v>       0.88113911       0.62671360       0.98852157 </v>
   <v>       0.12217684       0.87039053       0.00558088 </v>
   <v>       0.36680601       0.87732790       0.00952292 </v>
   <v>       0.61626241       0.87297614       0.00986067 </v>
   <v>       0.87319260       0.88016156       0.00462908 </v>
  </varray>
 </structure>
</modeling>
