       N       E                     dE             d eps       ncg     rms          rms(c)
DAV:   1    -0.105181689320E+04   -0.10518E+04   -0.47493E-02 13336   0.512E-01    0.299E-02
RMM:   2    -0.105181689216E+04    0.10448E-05   -0.39173E-05  7195   0.105E-02    0.503E-02
RMM:   3    -0.105181689188E+04    0.27734E-06   -0.11415E-05  6922   0.644E-03    0.816E-03
RMM:   4    -0.105181689223E+04   -0.35009E-06   -0.51527E-06  4564   0.294E-03    0.523E-03
RMM:   5    -0.105181689231E+04   -0.81869E-07   -0.30361E-06  4259   0.325E-03    0.689E-03
RMM:   6    -0.105181689241E+04   -0.95300E-07   -0.19638E-06  3104   0.217E-03    0.173E-03
RMM:   7    -0.105181689232E+04    0.91182E-07   -0.10195E-06  2839   0.230E-03    0.143E-03
RMM:   8    -0.105181689232E+04   -0.58644E-08   -0.63087E-07  2458   0.202E-03
   1 F= -.10518169E+04 E0= -.10518167E+04  d E =-.105182E+04  mag=    80.0000
       N       E                     dE             d eps       ncg     rms          rms(c)
DAV:   1    -0.105181576032E+04    0.11320E-02   -0.67707E-01 12448   0.959E-01    0.414E-01
RMM:   2    -0.105181809960E+04   -0.23393E-02   -0.22026E-02 12342   0.198E-01    0.301E-01
RMM:   3    -0.105181815747E+04   -0.57868E-04   -0.12133E-03 11915   0.606E-02    0.191E-01
RMM:   4    -0.105181800095E+04    0.15652E-03   -0.52803E-04 10572   0.271E-02    0.881E-02
RMM:   5    -0.105181797849E+04    0.22460E-04   -0.10437E-04  7751   0.155E-02    0.380E-02
RMM:   6    -0.105181798083E+04   -0.23439E-05   -0.27358E-05  7197   0.817E-03    0.301E-02
RMM:   7    -0.105181798105E+04   -0.21732E-06   -0.11608E-05  6727   0.529E-03    0.179E-02
RMM:   8    -0.105181798127E+04   -0.21771E-06   -0.62580E-06  6255   0.388E-03
   2 F= -.10518180E+04 E0= -.10518178E+04  d E =-.108895E-02  mag=    80.0000
       N       E                     dE             d eps       ncg     rms          rms(c)
DAV:   1    -0.105181809654E+04   -0.11549E-03   -0.82755E-02 12576   0.335E-01    0.145E-01
RMM:   2    -0.105181837950E+04   -0.28297E-03   -0.26658E-03 12172   0.690E-02    0.105E-01
RMM:   3    -0.105181838259E+04   -0.30817E-05   -0.10993E-04  7468   0.212E-02    0.679E-02
RMM:   4    -0.105181836492E+04    0.17666E-04   -0.66656E-05  6678   0.110E-02    0.358E-02
RMM:   5    -0.105181836283E+04    0.20933E-05   -0.19148E-05  6087   0.683E-03    0.312E-02
RMM:   6    -0.105181836320E+04   -0.37515E-06   -0.62191E-06  5150   0.404E-03    0.111E-02
RMM:   7    -0.105181836321E+04   -0.72032E-08   -0.19622E-06  4003   0.259E-03    0.716E-03
RMM:   8    -0.105181836321E+04    0.36380E-08   -0.48575E-07  2618   0.206E-03
   3 F= -.10518184E+04 E0= -.10518182E+04  d E =-.147088E-02  mag=    80.0000
       N       E                     dE             d eps       ncg     rms          rms(c)
DAV:   1    -0.105181742532E+04    0.93789E-03   -0.77899E-01 12608   0.105E+00    0.357E-01
RMM:   2    -0.105182000822E+04   -0.25829E-02   -0.21345E-02 12360   0.196E-01    0.230E-01
RMM:   3    -0.105182017227E+04   -0.16405E-03   -0.11709E-03 11800   0.629E-02    0.133E-01
RMM:   4    -0.105182010512E+04    0.67144E-04   -0.21301E-04  8138   0.196E-02    0.789E-02
RMM:   5    -0.105182008989E+04    0.15229E-04   -0.98771E-05  7328   0.137E-02    0.364E-02
RMM:   6    -0.105182009303E+04   -0.31372E-05   -0.26552E-05  7131   0.883E-03    0.242E-02
RMM:   7    -0.105182009419E+04   -0.11607E-05   -0.13124E-05  6836   0.505E-03    0.126E-02
RMM:   8    -0.105182009469E+04   -0.50323E-06   -0.67208E-06  6227   0.441E-03
   4 F= -.10518201E+04 E0= -.10518199E+04  d E =-.173149E-02  mag=    80.0000
       N       E                     dE             d eps       ncg     rms          rms(c)
DAV:   1    -0.105181971662E+04    0.37757E-03   -0.15809E-01 12576   0.472E-01    0.161E-01
RMM:   2    -0.105182024747E+04   -0.53085E-03   -0.43945E-03 12351   0.885E-02    0.104E-01
RMM:   3    -0.105182027616E+04   -0.28686E-04   -0.19957E-04  8202   0.286E-02    0.609E-02
RMM:   4    -0.105182026615E+04    0.10005E-04   -0.59945E-05  7150   0.113E-02    0.349E-02
RMM:   5    -0.105182026444E+04    0.17111E-05   -0.28720E-05  7012   0.781E-03    0.250E-02
RMM:   6    -0.105182026549E+04   -0.10516E-05   -0.11479E-05  6439   0.527E-03    0.132E-02
RMM:   7    -0.105182026604E+04   -0.54284E-06   -0.53169E-06  5463   0.364E-03    0.607E-03
RMM:   8    -0.105182026631E+04   -0.27122E-06   -0.30373E-06  4488   0.282E-03
   5 F= -.10518203E+04 E0= -.10518201E+04  d E =-.190310E-02  mag=    80.0000
       N       E                     dE             d eps       ncg     rms          rms(c)
DAV:   1    -0.105182022535E+04    0.40685E-04   -0.43516E-01 12656   0.778E-01    0.211E-01
RMM:   2    -0.105182142383E+04   -0.11985E-02   -0.11526E-02 12433   0.141E-01    0.146E-01
RMM:   3    -0.105182145831E+04   -0.34470E-04   -0.58396E-04 10314   0.451E-02    0.867E-02
RMM:   4    -0.105182143037E+04    0.27935E-04   -0.11175E-04  7281   0.147E-02    0.545E-02
RMM:   5    -0.105182142380E+04    0.65684E-05   -0.58258E-05  7134   0.105E-02    0.282E-02
RMM:   6    -0.105182142636E+04   -0.25589E-05   -0.18155E-05  6975   0.706E-03    0.164E-02
RMM:   7    -0.105182142743E+04   -0.10662E-05   -0.93157E-06  6294   0.430E-03    0.758E-03
RMM:   8    -0.105182142798E+04   -0.55744E-06   -0.49909E-06  5391   0.379E-03
   6 F= -.10518214E+04 E0= -.10518212E+04  d E =-.116168E-02  mag=    80.0000
       N       E                     dE             d eps       ncg     rms          rms(c)
DAV:   1    -0.105181934293E+04    0.20845E-02   -0.10136E+00 12648   0.119E+00    0.322E-01
RMM:   2    -0.105182212736E+04   -0.27844E-02   -0.26801E-02 12445   0.215E-01    0.222E-01
RMM:   3    -0.105182221253E+04   -0.85174E-04   -0.14254E-03 11890   0.691E-02    0.131E-01
RMM:   4    -0.105182214367E+04    0.68860E-04   -0.27299E-04  8476   0.212E-02    0.837E-02
RMM:   5    -0.105182212431E+04    0.19357E-04   -0.12438E-04  7404   0.154E-02    0.570E-02
RMM:   6    -0.105182212854E+04   -0.42288E-05   -0.38131E-05  7164   0.107E-02    0.278E-02
RMM:   7    -0.105182213061E+04   -0.20717E-05   -0.18411E-05  7051   0.602E-03    0.138E-02
RMM:   8    -0.105182213161E+04   -0.99717E-06   -0.10351E-05  6747   0.551E-03
   7 F= -.10518221E+04 E0= -.10518219E+04  d E =-.186530E-02  mag=    80.0000
       N       E                     dE             d eps       ncg     rms          rms(c)
DAV:   1    -0.105182187708E+04    0.25354E-03   -0.57435E-01 12528   0.887E-01    0.248E-01
RMM:   2    -0.105182338678E+04   -0.15097E-02   -0.15322E-02 12443   0.161E-01    0.168E-01
RMM:   3    -0.105182341914E+04   -0.32358E-04   -0.81483E-04 11303   0.522E-02    0.969E-02
RMM:   4    -0.105182337784E+04    0.41295E-04   -0.14408E-04  7413   0.163E-02    0.666E-02
RMM:   5    -0.105182336227E+04    0.15572E-04   -0.70049E-05  7180   0.117E-02    0.429E-02
RMM:   6    -0.105182336399E+04   -0.17150E-05   -0.24068E-05  7043   0.791E-03    0.212E-02
RMM:   7    -0.105182336459E+04   -0.60249E-06   -0.12391E-05  6775   0.508E-03    0.135E-02
RMM:   8    -0.105182336444E+04    0.14802E-06   -0.67422E-06  5941   0.437E-03
   8 F= -.10518234E+04 E0= -.10518232E+04  d E =-.123283E-02  mag=    80.0000
       N       E                     dE             d eps       ncg     rms          rms(c)
DAV:   1    -0.105182139997E+04    0.19646E-02   -0.96606E-01 12416   0.115E+00    0.321E-01
RMM:   2    -0.105182393392E+04   -0.25340E-02   -0.25683E-02 12429   0.208E-01    0.217E-01
RMM:   3    -0.105182399025E+04   -0.56329E-04   -0.13700E-03 11819   0.676E-02    0.125E-01
RMM:   4    -0.105182392206E+04    0.68185E-04   -0.25915E-04  8262   0.208E-02    0.853E-02
RMM:   5    -0.105182389445E+04    0.27613E-04   -0.11124E-04  7310   0.150E-02    0.632E-02
RMM:   6    -0.105182389713E+04   -0.26820E-05   -0.37890E-05  7151   0.100E-02    0.288E-02
RMM:   7    -0.105182389822E+04   -0.10895E-05   -0.18362E-05  7008   0.632E-03    0.185E-02
RMM:   8    -0.105182389799E+04    0.23370E-06   -0.10678E-05  6643   0.541E-03
   9 F= -.10518239E+04 E0= -.10518237E+04  d E =-.176638E-02  mag=    80.0000
       N       E                     dE             d eps       ncg     rms          rms(c)
DAV:   1    -0.105182376377E+04    0.13445E-03   -0.36329E-01 12560   0.697E-01    0.165E-01
RMM:   2    -0.105182471460E+04   -0.95082E-03   -0.93815E-03 12499   0.124E-01    0.110E-01
RMM:   3    -0.105182472934E+04   -0.14749E-04   -0.43912E-04  9519   0.397E-02    0.670E-02
RMM:   4    -0.105182471346E+04    0.15884E-04   -0.84923E-05  7173   0.125E-02    0.436E-02
RMM:   5    -0.105182470688E+04    0.65797E-05   -0.44232E-05  7057   0.912E-03    0.218E-02
RMM:   6    -0.105182470904E+04   -0.21584E-05   -0.15645E-05  6723   0.599E-03    0.124E-02
RMM:   7    -0.105182470992E+04   -0.87982E-06   -0.76694E-06  5816   0.413E-03    0.717E-03
RMM:   8    -0.105182471032E+04   -0.40316E-06   -0.43660E-06  4845   0.330E-03
  10 F= -.10518247E+04 E0= -.10518245E+04  d E =-.812333E-03  mag=    80.0000
       N       E                     dE             d eps       ncg     rms          rms(c)
DAV:   1    -0.105181867425E+04    0.60357E-02   -0.27074E+00 12408   0.190E+00    0.451E-01
RMM:   2    -0.105182568733E+04   -0.70131E-02   -0.69233E-02 12449   0.338E-01    0.298E-01
RMM:   3    -0.105182584914E+04   -0.16181E-03   -0.35654E-03 12439   0.109E-01    0.181E-01
RMM:   4    -0.105182572276E+04    0.12638E-03   -0.69765E-04 12395   0.310E-02    0.114E-01
RMM:   5    -0.105182566343E+04    0.59333E-04   -0.32814E-04  9050   0.200E-02    0.638E-02
RMM:   6    -0.105182566878E+04   -0.53455E-05   -0.58747E-05  7253   0.119E-02    0.363E-02
RMM:   7    -0.105182567173E+04   -0.29521E-05   -0.25797E-05  7134   0.765E-03    0.174E-02
RMM:   8    -0.105182567264E+04   -0.91133E-06   -0.15391E-05  6893   0.593E-03
  11 F= -.10518257E+04 E0= -.10518255E+04  d E =-.177465E-02  mag=    80.0000
       N       E                     dE             d eps       ncg     rms          rms(c)
DAV:   1    -0.105182530378E+04    0.36795E-03   -0.61479E-01 12656   0.902E-01    0.224E-01
RMM:   2    -0.105182687614E+04   -0.15724E-02   -0.16003E-02 12471   0.162E-01    0.155E-01
RMM:   3    -0.105182689508E+04   -0.18943E-04   -0.81842E-04 11184   0.518E-02    0.912E-02
RMM:   4    -0.105182685582E+04    0.39259E-04   -0.15276E-04  7503   0.165E-02    0.599E-02
RMM:   5    -0.105182684804E+04    0.77817E-05   -0.73216E-05  7208   0.120E-02    0.467E-02
RMM:   6    -0.105182685131E+04   -0.32672E-05   -0.24473E-05  7043   0.833E-03    0.182E-02
RMM:   7    -0.105182685348E+04   -0.21733E-05   -0.12477E-05  6623   0.487E-03    0.113E-02
RMM:   8    -0.105182685500E+04   -0.15223E-05   -0.70422E-06  5988   0.455E-03
  12 F= -.10518269E+04 E0= -.10518267E+04  d E =-.118236E-02  mag=    80.0000
       N       E                     dE             d eps       ncg     rms          rms(c)
DAV:   1    -0.105182411474E+04    0.27387E-02   -0.13572E+00 12528   0.134E+00    0.333E-01
RMM:   2    -0.105182755419E+04   -0.34394E-02   -0.35055E-02 12451   0.240E-01    0.230E-01
RMM:   3    -0.105182760212E+04   -0.47931E-04   -0.18209E-03 11944   0.773E-02    0.136E-01
RMM:   4    -0.105182751941E+04    0.82704E-04   -0.40460E-04  9721   0.240E-02    0.867E-02
RMM:   5    -0.105182749208E+04    0.27330E-04   -0.14676E-04  7533   0.173E-02    0.719E-02
RMM:   6    -0.105182749727E+04   -0.51874E-05   -0.43884E-05  7179   0.113E-02    0.272E-02
RMM:   7    -0.105182750089E+04   -0.36210E-05   -0.20295E-05  7092   0.634E-03    0.172E-02
RMM:   8    -0.105182750299E+04   -0.20958E-05   -0.11673E-05  6826   0.582E-03
  13 F= -.10518275E+04 E0= -.10518273E+04  d E =-.183035E-02  mag=    80.0000
       N       E                     dE             d eps       ncg     rms          rms(c)
DAV:   1    -0.105182660472E+04    0.89617E-03   -0.80133E-01 12416   0.103E+00    0.254E-01
RMM:   2    -0.105182871664E+04   -0.21119E-02   -0.20410E-02 12512   0.183E-01    0.166E-01
RMM:   3    -0.105182877010E+04   -0.53460E-04   -0.10410E-03 11324   0.587E-02    0.980E-02
RMM:   4    -0.105182872631E+04    0.43786E-04   -0.18078E-04  7753   0.175E-02    0.625E-02
RMM:   5    -0.105182871042E+04    0.15891E-04   -0.87033E-05  7225   0.126E-02    0.351E-02
RMM:   6    -0.105182871334E+04   -0.29152E-05   -0.25905E-05  7032   0.819E-03    0.209E-02
RMM:   7    -0.105182871449E+04   -0.11482E-05   -0.13254E-05  6674   0.504E-03    0.116E-02
RMM:   8    -0.105182871469E+04   -0.20421E-06   -0.72473E-06  5964   0.445E-03
  14 F= -.10518287E+04 E0= -.10518286E+04  d E =-.121170E-02  mag=    80.0000
       N       E                     dE             d eps       ncg     rms          rms(c)
DAV:   1    -0.105182484709E+04    0.38674E-02   -0.17273E+00 12320   0.151E+00    0.372E-01
RMM:   2    -0.105182938320E+04   -0.45361E-02   -0.43793E-02 12499   0.268E-01    0.242E-01
RMM:   3    -0.105182950049E+04   -0.11729E-03   -0.22292E-03 12181   0.863E-02    0.143E-01
RMM:   4    -0.105182941263E+04    0.87862E-04   -0.45972E-04 10436   0.253E-02    0.884E-02
RMM:   5    -0.105182937385E+04    0.38776E-04   -0.16997E-04  7523   0.176E-02    0.583E-02
RMM:   6    -0.105182937849E+04   -0.46338E-05   -0.48725E-05  7194   0.116E-02    0.336E-02
RMM:   7    -0.105182938074E+04   -0.22540E-05   -0.22920E-05  6973   0.685E-03    0.172E-02
RMM:   8    -0.105182938098E+04   -0.24226E-06   -0.12703E-05  6694   0.593E-03
  15 F= -.10518294E+04 E0= -.10518292E+04  d E =-.187800E-02  mag=    80.0000
       N       E                     dE             d eps       ncg     rms          rms(c)
DAV:   1    -0.105182746738E+04    0.19134E-02   -0.12359E+00 12352   0.128E+00    0.299E-01
RMM:   2    -0.105183064179E+04   -0.31744E-02   -0.31093E-02 12614   0.225E-01    0.197E-01
RMM:   3    -0.105183070579E+04   -0.63993E-04   -0.15575E-03 11787   0.709E-02    0.115E-01
RMM:   4    -0.105183064156E+04    0.64223E-04   -0.27846E-04  8511   0.208E-02    0.733E-02
RMM:   5    -0.105183061566E+04    0.25902E-04   -0.12645E-04  7299   0.150E-02    0.347E-02
RMM:   6    -0.105183062010E+04   -0.44358E-05   -0.34790E-05  7114   0.961E-03    0.245E-02
RMM:   7    -0.105183062158E+04   -0.14851E-05   -0.17437E-05  6906   0.576E-03    0.132E-02
RMM:   8    -0.105183062185E+04   -0.27096E-06   -0.96316E-06  6344   0.505E-03
  16 F= -.10518306E+04 E0= -.10518304E+04  d E =-.124087E-02  mag=    80.0000
       N       E                     dE             d eps       ncg     rms          rms(c)
DAV:   1    -0.105182762613E+04    0.29955E-02   -0.13668E+00 12376   0.134E+00    0.315E-01
RMM:   2    -0.105183112629E+04   -0.35002E-02   -0.34272E-02 12595   0.236E-01    0.207E-01
RMM:   3    -0.105183119867E+04   -0.72383E-04   -0.17124E-03 11883   0.748E-02    0.121E-01
RMM:   4    -0.105183112995E+04    0.68716E-04   -0.32613E-04  8974   0.219E-02    0.761E-02
RMM:   5    -0.105183110050E+04    0.29456E-04   -0.13632E-04  7335   0.157E-02    0.387E-02
RMM:   6    -0.105183110508E+04   -0.45801E-05   -0.37704E-05  7141   0.102E-02    0.281E-02
RMM:   7    -0.105183110671E+04   -0.16322E-05   -0.18650E-05  6980   0.607E-03    0.140E-02
RMM:   8    -0.105183110698E+04   -0.26356E-06   -0.10271E-05  6472   0.528E-03
  17 F= -.10518311E+04 E0= -.10518309E+04  d E =-.172599E-02  mag=    80.0000
       N       E                     dE             d eps       ncg     rms          rms(c)
DAV:   1    -0.105183020479E+04    0.90192E-03   -0.74612E-01 12816   0.993E-01    0.251E-01
RMM:   2    -0.105183217455E+04   -0.19698E-02   -0.19013E-02 12469   0.177E-01    0.165E-01
RMM:   3    -0.105183222735E+04   -0.52803E-04   -0.97678E-04 11341   0.568E-02    0.962E-02
RMM:   4    -0.105183217943E+04    0.47925E-04   -0.18477E-04  7736   0.177E-02    0.591E-02
RMM:   5    -0.105183217035E+04    0.90800E-05   -0.76344E-05  7218   0.123E-02    0.438E-02
RMM:   6    -0.105183217360E+04   -0.32487E-05   -0.25013E-05  7093   0.817E-03    0.181E-02
RMM:   7    -0.105183217537E+04   -0.17718E-05   -0.12536E-05  6779   0.502E-03    0.123E-02
RMM:   8    -0.105183217646E+04   -0.10874E-05   -0.70489E-06  6114   0.443E-03
  18 F= -.10518322E+04 E0= -.10518320E+04  d E =-.106948E-02  mag=    80.0000
       N       E                     dE             d eps       ncg     rms          rms(c)
DAV:   1    -0.105183060077E+04    0.15746E-02   -0.72355E-01 12768   0.978E-01    0.247E-01
RMM:   2    -0.105183250746E+04   -0.19067E-02   -0.18391E-02 12449   0.174E-01    0.163E-01
RMM:   3    -0.105183255916E+04   -0.51696E-04   -0.94466E-04 11342   0.561E-02    0.950E-02
RMM:   4    -0.105183251289E+04    0.46272E-04   -0.17621E-04  7694   0.174E-02    0.585E-02
RMM:   5    -0.105183250411E+04    0.87748E-05   -0.74023E-05  7225   0.121E-02    0.451E-02
RMM:   6    -0.105183250727E+04   -0.31566E-05   -0.24559E-05  7099   0.810E-03    0.181E-02
RMM:   7    -0.105183250898E+04   -0.17176E-05   -0.12171E-05  6846   0.495E-03    0.126E-02
RMM:   8    -0.105183251000E+04   -0.10159E-05   -0.68368E-06  6136   0.441E-03
  19 F= -.10518325E+04 E0= -.10518323E+04  d E =-.140303E-02  mag=    80.0000
       N       E                     dE             d eps       ncg     rms          rms(c)
DAV:   1    -0.105183193444E+04    0.57454E-03   -0.52590E-01 12640   0.832E-01    0.194E-01
RMM:   2    -0.105183328155E+04   -0.13471E-02   -0.13164E-02 12489   0.146E-01    0.124E-01
RMM:   3    -0.105183331014E+04   -0.28586E-04   -0.64317E-04 10461   0.472E-02    0.742E-02
RMM:   4    -0.105183328332E+04    0.26821E-04   -0.11177E-04  7300   0.143E-02    0.458E-02
RMM:   5    -0.105183327648E+04    0.68415E-05   -0.55554E-05  7135   0.102E-02    0.238E-02
RMM:   6    -0.105183327905E+04   -0.25760E-05   -0.18100E-05  6921   0.665E-03    0.137E-02
RMM:   7    -0.105183328010E+04   -0.10441E-05   -0.91200E-06  6019   0.425E-03    0.706E-03
RMM:   8    -0.105183328062E+04   -0.52589E-06   -0.49233E-06  4962   0.363E-03
  20 F= -.10518333E+04 E0= -.10518331E+04  d E =-.770622E-03  mag=    80.0000
       N       E                     dE             d eps       ncg     rms          rms(c)
DAV:   1    -0.105183124221E+04    0.20379E-02   -0.96885E-01 12528   0.113E+00    0.264E-01
RMM:   2    -0.105183371269E+04   -0.24705E-02   -0.24146E-02 12463   0.198E-01    0.168E-01
RMM:   3    -0.105183377263E+04   -0.59933E-04   -0.12286E-03 11437   0.647E-02    0.100E-01
RMM:   4    -0.105183372241E+04    0.50219E-04   -0.21710E-04  8027   0.188E-02    0.619E-02
RMM:   5    -0.105183370718E+04    0.15229E-04   -0.95408E-05  7276   0.132E-02    0.355E-02
RMM:   6    -0.105183371102E+04   -0.38431E-05   -0.28474E-05  7106   0.858E-03    0.207E-02
RMM:   7    -0.105183371267E+04   -0.16448E-05   -0.14200E-05  6850   0.523E-03    0.119E-02
RMM:   8    -0.105183371340E+04   -0.72870E-06   -0.78594E-06  6136   0.461E-03
  21 F= -.10518337E+04 E0= -.10518336E+04  d E =-.120339E-02  mag=    80.0000
       N       E                     dE             d eps       ncg     rms          rms(c)
DAV:   1    -0.105183339536E+04    0.31731E-03   -0.45752E-01 12480   0.774E-01    0.191E-01
RMM:   2    -0.105183459414E+04   -0.11988E-02   -0.11599E-02 12424   0.137E-01    0.126E-01
RMM:   3    -0.105183462377E+04   -0.29623E-04   -0.56833E-04 10145   0.447E-02    0.755E-02
RMM:   4    -0.105183459555E+04    0.28220E-04   -0.11519E-04  7291   0.143E-02    0.470E-02
RMM:   5    -0.105183459065E+04    0.49027E-05   -0.46020E-05  7123   0.973E-03    0.311E-02
RMM:   6    -0.105183459244E+04   -0.17997E-05   -0.16630E-05  6763   0.632E-03    0.121E-02
RMM:   7    -0.105183459309E+04   -0.64229E-06   -0.83393E-06  5818   0.419E-03    0.738E-03
RMM:   8    -0.105183459328E+04   -0.18903E-06   -0.47391E-06  4834   0.347E-03
  22 F= -.10518346E+04 E0= -.10518344E+04  d E =-.879880E-03  mag=    80.0000
       N       E                     dE             d eps       ncg     rms          rms(c)
DAV:   1    -0.105183301187E+04    0.15812E-02   -0.79825E-01 12384   0.102E+00    0.252E-01
RMM:   2    -0.105183509514E+04   -0.20833E-02   -0.20146E-02 12417   0.181E-01    0.167E-01
RMM:   3    -0.105183515213E+04   -0.56988E-04   -0.10321E-03 11367   0.591E-02    0.992E-02
RMM:   4    -0.105183510018E+04    0.51949E-04   -0.20026E-04  7854   0.181E-02    0.624E-02
RMM:   5    -0.105183509030E+04    0.98799E-05   -0.73112E-05  7229   0.121E-02    0.456E-02
RMM:   6    -0.105183509293E+04   -0.26348E-05   -0.24141E-05  7045   0.783E-03    0.160E-02
RMM:   7    -0.105183509380E+04   -0.86844E-06   -0.11748E-05  6639   0.487E-03    0.119E-02
RMM:   8    -0.105183509400E+04   -0.20178E-06   -0.66419E-06  5864   0.420E-03
  23 F= -.10518351E+04 E0= -.10518349E+04  d E =-.138061E-02  mag=    80.0000
       N       E                     dE             d eps       ncg     rms          rms(c)
DAV:   1    -0.105183431798E+04    0.77582E-03   -0.60310E-01 12408   0.883E-01    0.220E-01
RMM:   2    -0.105183593010E+04   -0.16121E-02   -0.15012E-02 12444   0.156E-01    0.142E-01
RMM:   3    -0.105183598397E+04   -0.53863E-04   -0.75649E-04 10865   0.502E-02    0.828E-02
RMM:   4    -0.105183594755E+04    0.36419E-04   -0.12750E-04  7399   0.152E-02    0.521E-02
RMM:   5    -0.105183593685E+04    0.10700E-04   -0.62308E-05  7160   0.108E-02    0.338E-02
RMM:   6    -0.105183593902E+04   -0.21726E-05   -0.19902E-05  6840   0.707E-03    0.165E-02
RMM:   7    -0.105183593981E+04   -0.79528E-06   -0.95808E-06  6193   0.443E-03    0.968E-03
RMM:   8    -0.105183594001E+04   -0.19220E-06   -0.51961E-06  5208   0.379E-03
  24 F= -.10518359E+04 E0= -.10518358E+04  d E =-.846003E-03  mag=    80.0000
       N       E                     dE             d eps       ncg     rms          rms(c)
DAV:   1    -0.105183427709E+04    0.16627E-02   -0.73714E-01 12416   0.976E-01    0.244E-01
RMM:   2    -0.105183624477E+04   -0.19677E-02   -0.18318E-02 12433   0.172E-01    0.157E-01
RMM:   3    -0.105183631119E+04   -0.66421E-04   -0.92651E-04 11168   0.558E-02    0.914E-02
RMM:   4    -0.105183626701E+04    0.44180E-04   -0.16062E-04  7634   0.166E-02    0.580E-02
RMM:   5    -0.105183625344E+04    0.13567E-04   -0.73188E-05  7224   0.118E-02    0.411E-02
RMM:   6    -0.105183625598E+04   -0.25443E-05   -0.23725E-05  6991   0.776E-03    0.182E-02
RMM:   7    -0.105183625691E+04   -0.92396E-06   -0.11188E-05  6607   0.481E-03    0.119E-02
RMM:   8    -0.105183625712E+04   -0.20770E-06   -0.60812E-06  5677   0.411E-03
  25 F= -.10518363E+04 E0= -.10518361E+04  d E =-.116311E-02  mag=    80.0000
       N       E                     dE             d eps       ncg     rms          rms(c)
DAV:   1    -0.105183499075E+04    0.12662E-02   -0.79097E-01 12768   0.101E+00    0.223E-01
RMM:   2    -0.105183696434E+04   -0.19736E-02   -0.19387E-02 12543   0.174E-01    0.139E-01
RMM:   3    -0.105183699782E+04   -0.33477E-04   -0.94420E-04 11054   0.562E-02    0.815E-02
RMM:   4    -0.105183695522E+04    0.42597E-04   -0.16793E-04  7647   0.170E-02    0.495E-02
RMM:   5    -0.105183694813E+04    0.70951E-05   -0.70449E-05  7191   0.119E-02    0.347E-02
RMM:   6    -0.105183695109E+04   -0.29639E-05   -0.21791E-05  7023   0.755E-03    0.138E-02
RMM:   7    -0.105183695270E+04   -0.16086E-05   -0.10818E-05  6327   0.464E-03    0.918E-03
RMM:   8    -0.105183695378E+04   -0.10838E-05   -0.60359E-06  5666   0.407E-03
  26 F= -.10518370E+04 E0= -.10518368E+04  d E =-.696669E-03  mag=    80.0000
       N       E                     dE             d eps       ncg     rms          rms(c)
DAV:   1    -0.105183457666E+04    0.23760E-02   -0.10989E+00 12768   0.119E+00    0.263E-01
RMM:   2    -0.105183731298E+04   -0.27363E-02   -0.26871E-02 12519   0.205E-01    0.164E-01
RMM:   3    -0.105183736471E+04   -0.51734E-04   -0.13333E-03 11393   0.666E-02    0.959E-02
RMM:   4    -0.105183730705E+04    0.57660E-04   -0.25262E-04  8272   0.198E-02    0.577E-02
RMM:   5    -0.105183729586E+04    0.11193E-04   -0.93209E-05  7292   0.137E-02    0.440E-02
RMM:   6    -0.105183729942E+04   -0.35614E-05   -0.28538E-05  7130   0.865E-03    0.167E-02
RMM:   7    -0.105183730149E+04   -0.20647E-05   -0.13986E-05  6800   0.527E-03    0.120E-02
RMM:   8    -0.105183730277E+04   -0.12861E-05   -0.80724E-06  6311   0.464E-03
  27 F= -.10518373E+04 E0= -.10518371E+04  d E =-.104566E-02  mag=    80.0000
       N       E                     dE             d eps       ncg     rms          rms(c)
DAV:   1    -0.105183636712E+04    0.93437E-03   -0.68830E-01 12512   0.937E-01    0.227E-01
RMM:   2    -0.105183811593E+04   -0.17488E-02   -0.17144E-02 12405   0.165E-01    0.154E-01
RMM:   3    -0.105183815736E+04   -0.41429E-04   -0.86031E-04 11018   0.536E-02    0.907E-02
RMM:   4    -0.105183811487E+04    0.42494E-04   -0.15084E-04  7585   0.162E-02    0.570E-02
RMM:   5    -0.105183810138E+04    0.13488E-04   -0.73863E-05  7208   0.116E-02    0.379E-02
RMM:   6    -0.105183810402E+04   -0.26478E-05   -0.22996E-05  6896   0.774E-03    0.179E-02
RMM:   7    -0.105183810511E+04   -0.10865E-05   -0.10685E-05  6438   0.467E-03    0.116E-02
RMM:   8    -0.105183810552E+04   -0.40770E-06   -0.57684E-06  5603   0.402E-03
  28 F= -.10518381E+04 E0= -.10518379E+04  d E =-.802746E-03  mag=    80.0000
