       N       E                     dE             d eps       ncg     rms          rms(c)
DAV:   1    -0.108941142489E+04   -0.10894E+04   -0.13152E-02 13600   0.270E-01    0.293E-02
RMM:   2    -0.108941142480E+04    0.90498E-07   -0.26200E-05  6716   0.850E-03    0.497E-02
RMM:   3    -0.108941142481E+04   -0.13912E-07   -0.58746E-06  6003   0.488E-03    0.106E-02
RMM:   4    -0.108941142496E+04   -0.14241E-06   -0.24316E-06  3883   0.248E-03    0.524E-03
RMM:   5    -0.108941142506E+04   -0.10492E-06   -0.14996E-06  3604   0.269E-03    0.250E-03
RMM:   6    -0.108941142514E+04   -0.81360E-07   -0.63379E-07  2395   0.195E-03    0.146E-03
RMM:   7    -0.108941142519E+04   -0.48938E-07   -0.41919E-07  2344   0.207E-03    0.828E-04
RMM:   8    -0.108941142520E+04   -0.73924E-08   -0.64208E-08  1697   0.183E-03
   1 F= -.10894114E+04 E0= -.10894114E+04  d E =-.108941E+04  mag=    50.0000
       N       E                     dE             d eps       ncg     rms          rms(c)
DAV:   1    -0.108941138832E+04    0.36874E-04   -0.28875E-01 12744   0.633E-01    0.239E-01
RMM:   2    -0.108941233198E+04   -0.94366E-03   -0.80347E-03 12336   0.124E-01    0.172E-01
RMM:   3    -0.108941239368E+04   -0.61704E-04   -0.45297E-04 10221   0.467E-02    0.101E-01
RMM:   4    -0.108941236357E+04    0.30113E-04   -0.11934E-04  7339   0.159E-02    0.690E-02
RMM:   5    -0.108941235570E+04    0.78716E-05   -0.51037E-05  7151   0.121E-02    0.524E-02
RMM:   6    -0.108941235702E+04   -0.13183E-05   -0.21766E-05  6976   0.802E-03    0.102E-02
RMM:   7    -0.108941235747E+04   -0.44836E-06   -0.87013E-06  6821   0.532E-03    0.848E-03
RMM:   8    -0.108941235776E+04   -0.28935E-06   -0.54714E-06  5937   0.366E-03
   2 F= -.10894124E+04 E0= -.10894124E+04  d E =-.932557E-03  mag=    50.0000
