<?xml version="1.0" encoding="ISO-8859-1"?>
<modeling>
 <generator>
  <i name="program" type="string">vasp </i>
  <i name="version" type="string">5.4.1  </i>
  <i name="subversion" type="string">05Feb16 (build Jan 25 2017 20:16:33) complex                          parallel </i>
  <i name="platform" type="string">BWXE6 </i>
  <i name="date" type="string">2019 07 09 </i>
  <i name="time" type="string">00:43:30 </i>
 </generator>
 <incar>
  <i type="string" name="SYSTEM"> STF</i>
  <i type="string" name="PREC">normal</i>
  <i type="string" name="ALGO"> Fast</i>
  <i type="int" name="ISPIN">     2</i>
  <i type="int" name="NELM">    40</i>
  <i type="int" name="NELMIN">     8</i>
  <i type="int" name="IBRION">     2</i>
  <i name="EDIFF">      0.00010000</i>
  <i name="EDIFFG">     -0.03000000</i>
  <i type="int" name="NSW">    30</i>
  <i type="int" name="ISIF">     3</i>
  <i name="ENCUT">    520.00000000</i>
  <i type="int" name="NBANDS">   768</i>
  <v name="MAGMOM">      0.60000000      0.60000000      0.60000000      0.60000000      0.60000000      0.60000000      0.60000000      0.60000000      0.60000000      0.60000000      0.60000000      0.60000000      0.60000000      0.60000000      0.60000000      0.60000000      0.60000000      0.60000000      0.60000000      0.60000000
      0.60000000      0.60000000      0.60000000      0.60000000      0.60000000      0.60000000      0.60000000      0.60000000      0.60000000      0.60000000      0.60000000      0.60000000      0.60000000      0.60000000      0.60000000      0.60000000      0.60000000      0.60000000      0.60000000      0.60000000
      0.60000000      0.60000000      0.60000000      0.60000000      0.60000000      0.60000000      0.60000000      0.60000000      0.60000000      0.60000000      0.60000000      0.60000000      0.60000000      0.60000000      0.60000000      0.60000000      0.60000000      0.60000000      0.60000000      0.60000000
      5.00000000      5.00000000      5.00000000      5.00000000      0.60000000      0.60000000      0.60000000      0.60000000      0.60000000      0.60000000      0.60000000      0.60000000      0.60000000      0.60000000      0.60000000      0.60000000      0.60000000      0.60000000      0.60000000      0.60000000
      0.60000000      0.60000000      0.60000000      0.60000000      0.60000000      0.60000000      0.60000000      0.60000000      0.60000000      0.60000000      0.60000000      0.60000000      0.60000000      0.60000000      0.60000000      0.60000000      0.60000000      0.60000000      0.60000000      0.60000000
      0.60000000      0.60000000      0.60000000      0.60000000      0.60000000      0.60000000      0.60000000      0.60000000      0.60000000      0.60000000      0.60000000      0.60000000      0.60000000      0.60000000      0.60000000      0.60000000      0.60000000      0.60000000      0.60000000      0.60000000
      0.60000000      0.60000000      0.60000000      0.60000000      0.60000000      0.60000000      0.60000000      0.60000000      0.60000000      0.60000000      0.60000000      0.60000000      0.60000000      0.60000000      0.60000000      0.60000000      0.60000000      0.60000000      0.60000000      0.60000000
      0.60000000      0.60000000      0.60000000      0.60000000      0.60000000      0.60000000      0.60000000      0.60000000      0.60000000      0.60000000      0.60000000      0.60000000      0.60000000      0.60000000      0.60000000      0.60000000      0.60000000      0.60000000</v>
  <i type="string" name="LREAL"> Auto</i>
  <i type="int" name="ISMEAR">     0</i>
  <i name="SIGMA">      0.05000000</i>
  <i type="int" name="LMAXMIX">     4</i>
  <v type="int" name="KPOINT_BSE">    -1     0     0     0</v>
  <i type="int" name="NELM">    40</i>
  <i type="logical" name="LDAU"> T  </i>
  <v type="int" name="LDAUTYPE">     2</v>
  <v type="int" name="LDAUL">     0     2     2     0</v>
  <v name="LDAUU">      0.00000000      3.00000000      5.00000000      0.00000000</v>
  <v name="LDAUJ">      0.00000000      0.00000000      0.00000000      0.00000000</v>
  <i type="int" name="LDAUPRINT">     1</i>
 </incar>
 <kpoints>
  <generation param="Monkhorst-Pack">
   <v type="int" name="divisions">       2        2        2 </v>
   <v name="usershift">      0.00000000       0.00000000       0.00000000 </v>
   <v name="genvec1">      0.50000000       0.00000000       0.00000000 </v>
   <v name="genvec2">      0.00000000       0.50000000       0.00000000 </v>
   <v name="genvec3">      0.00000000       0.00000000       0.50000000 </v>
   <v name="shift">      0.50000000       0.50000000       0.50000000 </v>
  </generation>
  <varray name="kpointlist" >
   <v>       0.25000000       0.25000000       0.25000000 </v>
   <v>      -0.25000000       0.25000000       0.25000000 </v>
   <v>       0.25000000      -0.25000000       0.25000000 </v>
   <v>      -0.25000000      -0.25000000       0.25000000 </v>
  </varray>
  <varray name="weights" >
   <v>       0.25000000 </v>
   <v>       0.25000000 </v>
   <v>       0.25000000 </v>
   <v>       0.25000000 </v>
  </varray>
 </kpoints>
 <parameters>
  <separator name="general" >
   <i type="string" name="SYSTEM">STF</i>
   <i type="logical" name="LCOMPAT"> F  </i>
  </separator>
  <separator name="electronic" >
   <i type="string" name="PREC">normal</i>
   <i name="ENMAX">    520.00000000</i>
   <i name="ENAUG">    605.39200000</i>
   <i name="EDIFF">      0.00010000</i>
   <i type="int" name="IALGO">    68</i>
   <i type="int" name="IWAVPR">    11</i>
   <i type="int" name="NBANDS">   768</i>
   <i name="NELECT">   1028.00000000</i>
   <i type="int" name="TURBO">     0</i>
   <i type="int" name="IRESTART">     0</i>
   <i type="int" name="NREBOOT">     0</i>
   <i type="int" name="NMIN">     0</i>
   <i name="EREF">      0.00000000</i>
   <separator name="electronic smearing" >
    <i type="int" name="ISMEAR">     0</i>
    <i name="SIGMA">      0.05000000</i>
    <i name="KSPACING">      0.50000000</i>
    <i type="logical" name="KGAMMA"> T  </i>
   </separator>
   <separator name="electronic projectors" >
    <i type="logical" name="LREAL"> T  </i>
    <v name="ROPT">     -0.00050000     -0.00050000     -0.00050000     -0.00050000</v>
    <i type="int" name="LMAXPAW">  -100</i>
    <i type="int" name="LMAXMIX">     4</i>
    <i type="logical" name="NLSPLINE"> F  </i>
   </separator>
   <separator name="electronic startup" >
    <i type="int" name="ISTART">     1</i>
    <i type="int" name="ICHARG">     0</i>
    <i type="int" name="INIWAV">     1</i>
   </separator>
   <separator name="electronic spin" >
    <i type="int" name="ISPIN">     2</i>
    <i type="logical" name="LNONCOLLINEAR"> F  </i>
    <v name="MAGMOM">      0.60000000      0.60000000      0.60000000      0.60000000      0.60000000      0.60000000      0.60000000      0.60000000      0.60000000      0.60000000      0.60000000      0.60000000      0.60000000      0.60000000      0.60000000      0.60000000      0.60000000      0.60000000      0.60000000      0.60000000
      0.60000000      0.60000000      0.60000000      0.60000000      0.60000000      0.60000000      0.60000000      0.60000000      0.60000000      0.60000000      0.60000000      0.60000000      0.60000000      0.60000000      0.60000000      0.60000000      0.60000000      0.60000000      0.60000000      0.60000000
      0.60000000      0.60000000      0.60000000      0.60000000      0.60000000      0.60000000      0.60000000      0.60000000      0.60000000      0.60000000      0.60000000      0.60000000      0.60000000      0.60000000      0.60000000      0.60000000      0.60000000      0.60000000      0.60000000      0.60000000
      5.00000000      5.00000000      5.00000000      5.00000000      0.60000000      0.60000000      0.60000000      0.60000000      0.60000000      0.60000000      0.60000000      0.60000000      0.60000000      0.60000000      0.60000000      0.60000000      0.60000000      0.60000000      0.60000000      0.60000000
      0.60000000      0.60000000      0.60000000      0.60000000      0.60000000      0.60000000      0.60000000      0.60000000      0.60000000      0.60000000      0.60000000      0.60000000      0.60000000      0.60000000      0.60000000      0.60000000      0.60000000      0.60000000      0.60000000      0.60000000
      0.60000000      0.60000000      0.60000000      0.60000000      0.60000000      0.60000000      0.60000000      0.60000000      0.60000000      0.60000000      0.60000000      0.60000000      0.60000000      0.60000000      0.60000000      0.60000000      0.60000000      0.60000000      0.60000000      0.60000000
      0.60000000      0.60000000      0.60000000      0.60000000      0.60000000      0.60000000      0.60000000      0.60000000      0.60000000      0.60000000      0.60000000      0.60000000      0.60000000      0.60000000      0.60000000      0.60000000      0.60000000      0.60000000      0.60000000      0.60000000
      0.60000000      0.60000000      0.60000000      0.60000000      0.60000000      0.60000000      0.60000000      0.60000000      0.60000000      0.60000000      0.60000000      0.60000000      0.60000000      0.60000000      0.60000000      0.60000000      0.60000000      0.60000000</v>
    <i name="NUPDOWN">     -1.00000000</i>
    <i type="logical" name="LSORBIT"> F  </i>
    <v name="SAXIS">      0.00000000      0.00000000      1.00000000</v>
    <i type="logical" name="LSPIRAL"> F  </i>
    <v name="QSPIRAL">      0.00000000      0.00000000      0.00000000</v>
    <i type="logical" name="LZEROZ"> F  </i>
   </separator>
   <separator name="electronic exchange-correlation" >
    <i type="logical" name="LASPH"> F  </i>
    <i type="logical" name="LMETAGGA"> F  </i>
   </separator>
   <separator name="electronic convergence" >
    <i type="int" name="NELM">    40</i>
    <i type="int" name="NELMDL">     0</i>
    <i type="int" name="NELMIN">     8</i>
    <i name="ENINI">    520.00000000</i>
    <separator name="electronic convergence detail" >
     <i type="logical" name="LDIAG"> T  </i>
     <i type="logical" name="LSUBROT"> F  </i>
     <i name="WEIMIN">      0.00100000</i>
     <i name="EBREAK">      0.00000003</i>
     <i name="DEPER">      0.30000000</i>
     <i type="int" name="NRMM">     4</i>
     <i name="TIME">      0.40000000</i>
    </separator>
   </separator>
   <separator name="electronic mixer" >
    <i name="AMIX">      0.40000000</i>
    <i name="BMIX">      1.00000000</i>
    <i name="AMIN">      0.10000000</i>
    <i name="AMIX_MAG">      1.60000000</i>
    <i name="BMIX_MAG">      1.00000000</i>
    <separator name="electronic mixer details" >
     <i type="int" name="IMIX">     4</i>
     <i type="logical" name="MIXFIRST"> F  </i>
     <i type="int" name="MAXMIX">   -45</i>
     <i name="WC">    100.00000000</i>
     <i type="int" name="INIMIX">     1</i>
     <i type="int" name="MIXPRE">     1</i>
     <i type="int" name="MREMOVE">     5</i>
    </separator>
   </separator>
   <separator name="electronic dipolcorrection" >
    <i type="logical" name="LDIPOL"> F  </i>
    <i type="logical" name="LMONO"> F  </i>
    <i type="int" name="IDIPOL">     0</i>
    <i name="EPSILON">      1.00000000</i>
    <v name="DIPOL">   -100.00000000   -100.00000000   -100.00000000</v>
    <i name="EFIELD">      0.00000000</i>
   </separator>
  </separator>
  <separator name="grids" >
   <i type="int" name="NGX">    64</i>
   <i type="int" name="NGY">    64</i>
   <i type="int" name="NGZ">    90</i>
   <i type="int" name="NGXF">   128</i>
   <i type="int" name="NGYF">   128</i>
   <i type="int" name="NGZF">   180</i>
   <i type="logical" name="ADDGRID"> F  </i>
  </separator>
  <separator name="ionic" >
   <i type="int" name="NSW">    30</i>
   <i type="int" name="IBRION">     2</i>
   <i type="int" name="ISIF">     3</i>
   <i name="PSTRESS">      0.00000000</i>
   <i name="EDIFFG">     -0.03000000</i>
   <i type="int" name="NFREE">     1</i>
   <i name="POTIM">      0.50000000</i>
   <i name="SMASS">     -3.00000000</i>
   <i name="SCALEE">      1.00000000</i>
  </separator>
  <separator name="ionic md" >
   <i name="TEBEG">      0.00010000</i>
   <i name="TEEND">      0.00010000</i>
   <i type="int" name="NBLOCK">     1</i>
   <i type="int" name="KBLOCK">    30</i>
   <i type="int" name="NPACO">   256</i>
   <i name="APACO">     16.00000000</i>
  </separator>
  <separator name="symmetry" >
   <i type="int" name="ISYM">     2</i>
   <i name="SYMPREC">      0.00001000</i>
  </separator>
  <separator name="dos" >
   <i type="logical" name="LORBIT"> F  </i>
   <v name="RWIGS">     -1.00000000     -1.00000000     -1.00000000     -1.00000000</v>
   <i type="int" name="NEDOS">   301</i>
   <i name="EMIN">     10.00000000</i>
   <i name="EMAX">    -10.00000000</i>
   <i name="EFERMI">      0.00000000</i>
  </separator>
  <separator name="writing" >
   <i type="int" name="NWRITE">     2</i>
   <i type="logical" name="LWAVE"> T  </i>
   <i type="logical" name="LCHARG"> T  </i>
   <i type="logical" name="LPARD"> F  </i>
   <i type="logical" name="LVTOT"> F  </i>
   <i type="logical" name="LVHAR"> F  </i>
   <i type="logical" name="LELF"> F  </i>
   <i type="logical" name="LOPTICS"> F  </i>
   <v name="STM">      0.00000000      0.00000000      0.00000000      0.00000000      0.00000000      0.00000000      0.00000000</v>
  </separator>
  <separator name="performance" >
   <i type="int" name="NPAR">     2</i>
   <i type="int" name="NSIM">     4</i>
   <i type="int" name="NBLK">    -1</i>
   <i type="logical" name="LPLANE"> T  </i>
   <i type="logical" name="LSCALAPACK"> T  </i>
   <i type="logical" name="LSCAAWARE"> F  </i>
   <i type="logical" name="LSCALU"> F  </i>
   <i type="logical" name="LASYNC"> F  </i>
   <i type="logical" name="LORBITALREAL"> F  </i>
  </separator>
  <separator name="miscellaneous" >
   <i type="int" name="IDIOT">     3</i>
   <i type="logical" name="LMUSIC"> F  </i>
   <v name="POMASS">     87.62000000     47.88000000     55.84700000     16.00000000</v>
   <v name="DARWINR">      0.00000000      0.00000000      0.00000000      0.00000000</v>
   <v name="DARWINV">      1.00000000      1.00000000      1.00000000      1.00000000</v>
   <i type="logical" name="LCORR"> T  </i>
  </separator>
  <i type="logical" name="GGA_COMPAT"> T  </i>
  <i type="logical" name="LBERRY"> F  </i>
  <i type="int" name="ICORELEVEL">     0</i>
  <i type="logical" name="LDAU"> T  </i>
  <v type="int" name="LDAUTYPE">     2</v>
  <v type="int" name="LDAUL">     0</v>
  <v name="LDAUU">      0.00000000</v>
  <v name="LDAUJ">      0.00000000</v>
  <i type="int" name="LDAUPRINT">     1</i>
  <i type="int" name="I_CONSTRAINED_M">     0</i>
  <separator name="electronic exchange-correlation" >
   <i type="string" name="GGA">--</i>
   <i type="int" name="VOSKOWN">     0</i>
   <i type="logical" name="LHFCALC"> F  </i>
   <i type="string" name="PRECFOCK"></i>
   <i type="logical" name="LSYMGRAD"> F  </i>
   <i type="logical" name="LHFONE"> F  </i>
   <i type="logical" name="LRHFCALC"> F  </i>
   <i type="logical" name="LTHOMAS"> F  </i>
   <i type="logical" name="LMODELHF"> F  </i>
   <i name="ENCUT4O">     -1.00000000</i>
   <i type="int" name="EXXOEP">     0</i>
   <i type="int" name="FOURORBIT">     0</i>
   <i name="AEXX">      0.00000000</i>
   <i name="HFALPHA">      0.00000000</i>
   <i name="MCALPHA">      0.00000000</i>
   <i name="ALDAX">      1.00000000</i>
   <i name="AGGAX">      1.00000000</i>
   <i name="ALDAC">      1.00000000</i>
   <i name="AGGAC">      1.00000000</i>
   <i type="int" name="NKREDX">     1</i>
   <i type="int" name="NKREDY">     1</i>
   <i type="int" name="NKREDZ">     1</i>
   <i type="logical" name="SHIFTRED"> F  </i>
   <i type="logical" name="ODDONLY"> F  </i>
   <i type="logical" name="EVENONLY"> F  </i>
   <i type="int" name="LMAXFOCK">     0</i>
   <i type="int" name="NMAXFOCKAE">     0</i>
   <i type="logical" name="LFOCKAEDFT"> F  </i>
   <i name="HFSCREEN">      0.00000000</i>
   <i name="HFSCREENC">      0.00000000</i>
   <i type="int" name="NBANDSGWLOW">     0</i>
  </separator>
  <separator name="vdW DFT" >
   <i type="logical" name="LUSE_VDW"> F  </i>
   <i name="Zab_VDW">     -0.84910000</i>
   <i name="PARAM1">      0.12340000</i>
   <i name="PARAM2">      1.00000000</i>
   <i name="PARAM3">      0.00000000</i>
  </separator>
  <separator name="model GW" >
   <i type="int" name="MODEL_GW">     0</i>
   <i name="MODEL_EPS0">      7.61046263</i>
   <i name="MODEL_ALPHA">      1.00000000</i>
  </separator>
  <separator name="linear response parameters" >
   <i type="logical" name="LEPSILON"> F  </i>
   <i type="logical" name="LRPA"> F  </i>
   <i type="logical" name="LNABLA"> F  </i>
   <i type="logical" name="LVEL"> F  </i>
   <i type="int" name="KINTER">     0</i>
   <i name="CSHIFT">      0.10000000</i>
   <i name="OMEGAMAX">     -1.00000000</i>
   <i name="DEG_THRESHOLD">      0.00200000</i>
  </separator>
  <separator name="orbital magnetization" >
   <i type="logical" name="NUCIND"> F  </i>
   <v name="MAGPOS">      0.00000000      0.00000000      0.00000000</v>
   <i type="logical" name="LNICSALL"> T  </i>
   <i type="logical" name="ORBITALMAG"> F  </i>
   <i type="logical" name="LMAGBLOCH"> F  </i>
   <i type="logical" name="LCHIMAG"> F  </i>
   <i type="logical" name="LGAUGE"> T  </i>
   <i type="int" name="MAGATOM">     0</i>
   <v name="MAGDIPOL">      0.00000000      0.00000000      0.00000000</v>
   <v name="AVECCONST">      0.00000000      0.00000000      0.00000000</v>
  </separator>
  <separator name="response functions" >
   <i type="logical" name="LADDER"> F  </i>
   <i type="logical" name="LFXC"> F  </i>
   <i type="logical" name="LHARTREE"> T  </i>
   <i type="int" name="IBSE">     0</i>
   <v type="int" name="KPOINT">    -1     0     0     0</v>
   <i type="logical" name="LTCTE"> F  </i>
   <i type="logical" name="LTETE"> F  </i>
   <i type="logical" name="LTRIPLET"> F  </i>
   <i type="logical" name="LFXCEPS"> F  </i>
   <i type="logical" name="LFXHEG"> F  </i>
   <i type="int" name="NATURALO">     0</i>
   <i type="logical" name="L2ORDER"> F  </i>
   <i type="logical" name="LUSEW"> F  </i>
   <i name="ENCUTGW">     -2.00000000</i>
   <i name="ENCUTGWSOFT">     -2.00000000</i>
   <i name="ENCUTLF">     -1.00000000</i>
   <i type="int" name="LMAXMP2">    -1</i>
   <i name="SCISSOR">      0.00000000</i>
   <i type="int" name="NOMEGA">     0</i>
   <i type="int" name="NOMEGAR">     0</i>
   <i type="int" name="NBANDSGW">    -1</i>
   <i type="int" name="NBANDSO">    -1</i>
   <i type="int" name="NBANDSV">    -1</i>
   <i type="int" name="NELM">    40</i>
   <i type="int" name="NELMHF">     1</i>
   <i type="int" name="DIM">     3</i>
   <i type="int" name="ANTIRES">     0</i>
   <i name="OMEGAMAX">    -30.00000000</i>
   <i name="OMEGAMIN">    -30.00000000</i>
   <i name="OMEGATL">   -200.00000000</i>
   <i type="int" name="OMEGAGRID">     0</i>
   <i name="CSHIFT">     -0.10000000</i>
   <i type="logical" name="SELFENERGY"> F  </i>
   <i type="logical" name="LSPECTRAL"> F  </i>
   <i type="logical" name="LSPECTRALGW"> F  </i>
   <i type="logical" name="LSINGLES"> F  </i>
   <i type="logical" name="LFERMIGW"> F  </i>
   <i type="logical" name="ODDONLYGW"> F  </i>
   <i type="logical" name="EVENONLYGW"> F  </i>
   <i type="int" name="NKREDLFX">     1</i>
   <i type="int" name="NKREDLFY">     1</i>
   <i type="int" name="NKREDLFZ">     1</i>
   <i type="int" name="MAXMEM">  1800</i>
   <i type="int" name="TELESCOPE">     0</i>
   <i type="int" name="TAUPAR">     1</i>
   <i type="int" name="OMEGAPAR">    -1</i>
   <i name="LAMBDA">      1.00000000</i>
  </separator>
  <separator name="External order field" >
   <i name="OFIELD_KAPPA">      0.00000000</i>
   <v name="OFIELD_K">      0.00000000      0.00000000      0.00000000</v>
   <i name="OFIELD_Q6_NEAR">      0.00000000</i>
   <i name="OFIELD_Q6_FAR">      0.00000000</i>
   <i name="OFIELD_A">      0.00000000</i>
  </separator>
 </parameters>
 <atominfo>
  <atoms>     158 </atoms>
  <types>       4 </types>
  <array name="atoms" >
   <dimension dim="1">ion</dimension>
   <field type="string">element</field>
   <field type="int">atomtype</field>
   <set>
    <rc><c>Sr</c><c>   1</c></rc>
    <rc><c>Sr</c><c>   1</c></rc>
    <rc><c>Sr</c><c>   1</c></rc>
    <rc><c>Sr</c><c>   1</c></rc>
    <rc><c>Sr</c><c>   1</c></rc>
    <rc><c>Sr</c><c>   1</c></rc>
    <rc><c>Sr</c><c>   1</c></rc>
    <rc><c>Sr</c><c>   1</c></rc>
    <rc><c>Sr</c><c>   1</c></rc>
    <rc><c>Sr</c><c>   1</c></rc>
    <rc><c>Sr</c><c>   1</c></rc>
    <rc><c>Sr</c><c>   1</c></rc>
    <rc><c>Sr</c><c>   1</c></rc>
    <rc><c>Sr</c><c>   1</c></rc>
    <rc><c>Sr</c><c>   1</c></rc>
    <rc><c>Sr</c><c>   1</c></rc>
    <rc><c>Sr</c><c>   1</c></rc>
    <rc><c>Sr</c><c>   1</c></rc>
    <rc><c>Sr</c><c>   1</c></rc>
    <rc><c>Sr</c><c>   1</c></rc>
    <rc><c>Sr</c><c>   1</c></rc>
    <rc><c>Sr</c><c>   1</c></rc>
    <rc><c>Sr</c><c>   1</c></rc>
    <rc><c>Sr</c><c>   1</c></rc>
    <rc><c>Sr</c><c>   1</c></rc>
    <rc><c>Sr</c><c>   1</c></rc>
    <rc><c>Sr</c><c>   1</c></rc>
    <rc><c>Sr</c><c>   1</c></rc>
    <rc><c>Sr</c><c>   1</c></rc>
    <rc><c>Sr</c><c>   1</c></rc>
    <rc><c>Sr</c><c>   1</c></rc>
    <rc><c>Sr</c><c>   1</c></rc>
    <rc><c>Ti</c><c>   2</c></rc>
    <rc><c>Ti</c><c>   2</c></rc>
    <rc><c>Ti</c><c>   2</c></rc>
    <rc><c>Ti</c><c>   2</c></rc>
    <rc><c>Ti</c><c>   2</c></rc>
    <rc><c>Ti</c><c>   2</c></rc>
    <rc><c>Ti</c><c>   2</c></rc>
    <rc><c>Ti</c><c>   2</c></rc>
    <rc><c>Ti</c><c>   2</c></rc>
    <rc><c>Ti</c><c>   2</c></rc>
    <rc><c>Ti</c><c>   2</c></rc>
    <rc><c>Ti</c><c>   2</c></rc>
    <rc><c>Ti</c><c>   2</c></rc>
    <rc><c>Ti</c><c>   2</c></rc>
    <rc><c>Ti</c><c>   2</c></rc>
    <rc><c>Ti</c><c>   2</c></rc>
    <rc><c>Ti</c><c>   2</c></rc>
    <rc><c>Ti</c><c>   2</c></rc>
    <rc><c>Ti</c><c>   2</c></rc>
    <rc><c>Ti</c><c>   2</c></rc>
    <rc><c>Ti</c><c>   2</c></rc>
    <rc><c>Ti</c><c>   2</c></rc>
    <rc><c>Ti</c><c>   2</c></rc>
    <rc><c>Ti</c><c>   2</c></rc>
    <rc><c>Ti</c><c>   2</c></rc>
    <rc><c>Ti</c><c>   2</c></rc>
    <rc><c>Ti</c><c>   2</c></rc>
    <rc><c>Ti</c><c>   2</c></rc>
    <rc><c>Fe</c><c>   3</c></rc>
    <rc><c>Fe</c><c>   3</c></rc>
    <rc><c>Fe</c><c>   3</c></rc>
    <rc><c>Fe</c><c>   3</c></rc>
    <rc><c>O </c><c>   4</c></rc>
    <rc><c>O </c><c>   4</c></rc>
    <rc><c>O </c><c>   4</c></rc>
    <rc><c>O </c><c>   4</c></rc>
    <rc><c>O </c><c>   4</c></rc>
    <rc><c>O </c><c>   4</c></rc>
    <rc><c>O </c><c>   4</c></rc>
    <rc><c>O </c><c>   4</c></rc>
    <rc><c>O </c><c>   4</c></rc>
    <rc><c>O </c><c>   4</c></rc>
    <rc><c>O </c><c>   4</c></rc>
    <rc><c>O </c><c>   4</c></rc>
    <rc><c>O </c><c>   4</c></rc>
    <rc><c>O </c><c>   4</c></rc>
    <rc><c>O </c><c>   4</c></rc>
    <rc><c>O </c><c>   4</c></rc>
    <rc><c>O </c><c>   4</c></rc>
    <rc><c>O </c><c>   4</c></rc>
    <rc><c>O </c><c>   4</c></rc>
    <rc><c>O </c><c>   4</c></rc>
    <rc><c>O </c><c>   4</c></rc>
    <rc><c>O </c><c>   4</c></rc>
    <rc><c>O </c><c>   4</c></rc>
    <rc><c>O </c><c>   4</c></rc>
    <rc><c>O </c><c>   4</c></rc>
    <rc><c>O </c><c>   4</c></rc>
    <rc><c>O </c><c>   4</c></rc>
    <rc><c>O </c><c>   4</c></rc>
    <rc><c>O </c><c>   4</c></rc>
    <rc><c>O </c><c>   4</c></rc>
    <rc><c>O </c><c>   4</c></rc>
    <rc><c>O </c><c>   4</c></rc>
    <rc><c>O </c><c>   4</c></rc>
    <rc><c>O </c><c>   4</c></rc>
    <rc><c>O </c><c>   4</c></rc>
    <rc><c>O </c><c>   4</c></rc>
    <rc><c>O </c><c>   4</c></rc>
    <rc><c>O </c><c>   4</c></rc>
    <rc><c>O </c><c>   4</c></rc>
    <rc><c>O </c><c>   4</c></rc>
    <rc><c>O </c><c>   4</c></rc>
    <rc><c>O </c><c>   4</c></rc>
    <rc><c>O </c><c>   4</c></rc>
    <rc><c>O </c><c>   4</c></rc>
    <rc><c>O </c><c>   4</c></rc>
    <rc><c>O </c><c>   4</c></rc>
    <rc><c>O </c><c>   4</c></rc>
    <rc><c>O </c><c>   4</c></rc>
    <rc><c>O </c><c>   4</c></rc>
    <rc><c>O </c><c>   4</c></rc>
    <rc><c>O </c><c>   4</c></rc>
    <rc><c>O </c><c>   4</c></rc>
    <rc><c>O </c><c>   4</c></rc>
    <rc><c>O </c><c>   4</c></rc>
    <rc><c>O </c><c>   4</c></rc>
    <rc><c>O </c><c>   4</c></rc>
    <rc><c>O </c><c>   4</c></rc>
    <rc><c>O </c><c>   4</c></rc>
    <rc><c>O </c><c>   4</c></rc>
    <rc><c>O </c><c>   4</c></rc>
    <rc><c>O </c><c>   4</c></rc>
    <rc><c>O </c><c>   4</c></rc>
    <rc><c>O </c><c>   4</c></rc>
    <rc><c>O </c><c>   4</c></rc>
    <rc><c>O </c><c>   4</c></rc>
    <rc><c>O </c><c>   4</c></rc>
    <rc><c>O </c><c>   4</c></rc>
    <rc><c>O </c><c>   4</c></rc>
    <rc><c>O </c><c>   4</c></rc>
    <rc><c>O </c><c>   4</c></rc>
    <rc><c>O </c><c>   4</c></rc>
    <rc><c>O </c><c>   4</c></rc>
    <rc><c>O </c><c>   4</c></rc>
    <rc><c>O </c><c>   4</c></rc>
    <rc><c>O </c><c>   4</c></rc>
    <rc><c>O </c><c>   4</c></rc>
    <rc><c>O </c><c>   4</c></rc>
    <rc><c>O </c><c>   4</c></rc>
    <rc><c>O </c><c>   4</c></rc>
    <rc><c>O </c><c>   4</c></rc>
    <rc><c>O </c><c>   4</c></rc>
    <rc><c>O </c><c>   4</c></rc>
    <rc><c>O </c><c>   4</c></rc>
    <rc><c>O </c><c>   4</c></rc>
    <rc><c>O </c><c>   4</c></rc>
    <rc><c>O </c><c>   4</c></rc>
    <rc><c>O </c><c>   4</c></rc>
    <rc><c>O </c><c>   4</c></rc>
    <rc><c>O </c><c>   4</c></rc>
    <rc><c>O </c><c>   4</c></rc>
    <rc><c>O </c><c>   4</c></rc>
    <rc><c>O </c><c>   4</c></rc>
    <rc><c>O </c><c>   4</c></rc>
    <rc><c>O </c><c>   4</c></rc>
   </set>
  </array>
  <array name="atomtypes" >
   <dimension dim="1">type</dimension>
   <field type="int">atomspertype</field>
   <field type="string">element</field>
   <field>mass</field>
   <field>valence</field>
   <field type="string">pseudopotential</field>
   <set>
    <rc><c>  32</c><c>Sr</c><c>     87.62000000</c><c>     10.00000000</c><c>  PAW_PBE Sr_sv 07Sep2000               </c></rc>
    <rc><c>  28</c><c>Ti</c><c>     47.88000000</c><c>      4.00000000</c><c>  PAW_PBE Ti 08Apr2002                  </c></rc>
    <rc><c>   4</c><c>Fe</c><c>     55.84700000</c><c>      8.00000000</c><c>  PAW_PBE Fe 06Sep2000                  </c></rc>
    <rc><c>  94</c><c>O </c><c>     16.00000000</c><c>      6.00000000</c><c>  PAW_PBE O 08Apr2002                   </c></rc>
   </set>
  </array>
 </atominfo>
 <structure name="initialpos" >
  <crystal>
   <varray name="basis" >
    <v>      11.21941226      -0.00254152       0.00025565 </v>
    <v>      -0.00254830      11.21723859      -0.00024273 </v>
    <v>       0.00036917      -0.00034593      15.92431843 </v>
   </varray>
   <i name="volume">   2004.08849225 </i>
   <varray name="rec_basis" >
    <v>       0.08913123       0.00002025      -0.00000207 </v>
    <v>       0.00002019       0.08914851       0.00000194 </v>
    <v>      -0.00000143       0.00000136       0.06279704 </v>
   </varray>
  </crystal>
  <varray name="positions" >
   <v>       0.99764740       0.24783460       0.12497955 </v>
   <v>       0.99991378       0.24984165       0.62601557 </v>
   <v>       0.00926050       0.75182501       0.13187263 </v>
   <v>       0.00268178       0.74933048       0.62503896 </v>
   <v>       0.50016720       0.25070942       0.12560167 </v>
   <v>       0.50034296       0.24969119       0.62558135 </v>
   <v>       0.48942112       0.75227576       0.12558611 </v>
   <v>       0.49866901       0.74929887       0.62672466 </v>
   <v>       0.99993771       0.24943449       0.37481098 </v>
   <v>       0.99747739       0.24793900       0.87409152 </v>
   <v>       0.00089259       0.74920785       0.37692870 </v>
   <v>       0.01125556       0.75262804       0.86647412 </v>
   <v>       0.50033103       0.24970805       0.37529810 </v>
   <v>       0.50033336       0.25065907       0.87350411 </v>
   <v>       0.50064693       0.74933989       0.37518732 </v>
   <v>       0.48678214       0.75186814       0.87250921 </v>
   <v>       0.25163716       0.00088310       0.12673176 </v>
   <v>       0.24891177       0.99720078       0.62610616 </v>
   <v>       0.25045447       0.50231212       0.12430757 </v>
   <v>       0.24855151       0.50247691       0.62740639 </v>
   <v>       0.74954635       0.00637171       0.12704939 </v>
   <v>       0.75067844       0.99911750       0.62599320 </v>
   <v>       0.74965299       0.49619801       0.12766080 </v>
   <v>       0.75118615       0.49976553       0.62472323 </v>
   <v>       0.24890911       0.99932153       0.37583871 </v>
   <v>       0.25175601       0.99902629       0.87179405 </v>
   <v>       0.24867338       0.50009906       0.37466448 </v>
   <v>       0.25010351       0.50443831       0.87408222 </v>
   <v>       0.75068321       0.99899122       0.37509121 </v>
   <v>       0.74930226       0.00699527       0.87197197 </v>
   <v>       0.75120849       0.49983018       0.37616267 </v>
   <v>       0.74974354       0.49589679       0.87176809 </v>
   <v>       0.75222025       0.75038787       0.75194151 </v>
   <v>       0.00042783       0.49916022       0.50018088 </v>
   <v>       0.49730493       0.00267412       0.99970520 </v>
   <v>       0.25342404       0.24964225       0.99956302 </v>
   <v>       0.49789535       0.49807483       0.99986773 </v>
   <v>       0.25007235       0.25074317       0.75035298 </v>
   <v>       0.75052880       0.25054365       0.99995586 </v>
   <v>       0.24946439       0.25024188       0.50024044 </v>
   <v>       0.24348028       0.75064375       0.99886393 </v>
   <v>       0.25044490       0.74999430       0.50149554 </v>
   <v>       0.00041587       0.99905665       0.75145968 </v>
   <v>       0.74984052       0.25061068       0.74940926 </v>
   <v>       0.00060148       0.00055132       0.50020662 </v>
   <v>       0.74895294       0.74983166       0.50060679 </v>
   <v>       0.25007931       0.25072345       0.24958644 </v>
   <v>       0.99926751       0.99993787       0.24869699 </v>
   <v>       0.25053990       0.75018236       0.25155929 </v>
   <v>       0.74986878       0.25037095       0.25055533 </v>
   <v>       0.50050442       0.50069050       0.50022971 </v>
   <v>       0.75220765       0.75048980       0.24883069 </v>
   <v>       0.49891400       0.99897895       0.75004528 </v>
   <v>       0.49999443       0.00025193       0.24986527 </v>
   <v>       0.50078226       0.99949757       0.50010590 </v>
   <v>       0.00033405       0.50164879       0.75215598 </v>
   <v>       0.99924911       0.50017460       0.24802542 </v>
   <v>       0.74998588       0.24990432       0.50007805 </v>
   <v>       0.50034302       0.50051767       0.24953577 </v>
   <v>       0.49903266       0.50170391       0.75067120 </v>
   <v>       0.72428860       0.74556947       0.99948563 </v>
   <v>       0.00967623       0.48514135       0.99995621 </v>
   <v>       0.25028426       0.75039812       0.74853108 </v>
   <v>       0.01357482       0.00868889       0.99981773 </v>
   <v>       0.10973347       0.13920068       0.24594280 </v>
   <v>       0.36118801       0.11179936       0.74711572 </v>
   <v>       0.11160435       0.63862963       0.25181467 </v>
   <v>       0.11136325       0.63592794       0.74804086 </v>
   <v>       0.61065942       0.13913649       0.24909313 </v>
   <v>       0.61174656       0.13848876       0.75093874 </v>
   <v>       0.61343193       0.64147460       0.23964620 </v>
   <v>       0.61462681       0.64075472       0.76065129 </v>
   <v>       0.38988080       0.36115358       0.25251383 </v>
   <v>       0.38928078       0.36155383       0.74745857 </v>
   <v>       0.39019250       0.86053264       0.25118458 </v>
   <v>       0.39006222       0.86349164       0.74874616 </v>
   <v>       0.88994952       0.35975044       0.24864303 </v>
   <v>       0.88900080       0.36048243       0.75134877 </v>
   <v>       0.89030337       0.85952886       0.25474293 </v>
   <v>       0.74400737       0.74960612       0.62678857 </v>
   <v>       0.36048405       0.11022709       0.25291365 </v>
   <v>       0.64123578       0.88779837       0.75745861 </v>
   <v>       0.36185067       0.61141284       0.24991440 </v>
   <v>       0.36460494       0.61140535       0.75027059 </v>
   <v>       0.85952987       0.11025645       0.25078576 </v>
   <v>       0.86014202       0.11139245       0.74915763 </v>
   <v>       0.85988667       0.61124425       0.74795853 </v>
   <v>       0.13890361       0.39021850       0.24563855 </v>
   <v>       0.49535086       0.00120877       0.12526383 </v>
   <v>       0.13912124       0.88934554       0.24849970 </v>
   <v>       0.11019785       0.13911769       0.75387382 </v>
   <v>       0.63988304       0.39010541       0.25048759 </v>
   <v>       0.63930418       0.38917177       0.74952103 </v>
   <v>       0.64181672       0.88834943       0.24255408 </v>
   <v>       0.85949492       0.61067966       0.25170970 </v>
   <v>       0.35620650       0.39243609       0.99993816 </v>
   <v>       0.36031028       0.39112714       0.49995336 </v>
   <v>       0.35488892       0.89265349       0.00060123 </v>
   <v>       0.36024767       0.89139209       0.49953117 </v>
   <v>       0.13633045       0.88977787       0.75149319 </v>
   <v>       0.85915263       0.39020439       0.49958181 </v>
   <v>       0.85671525       0.39247587       0.00037223 </v>
   <v>       0.85935465       0.88940896       0.49975079 </v>
   <v>       0.14906526       0.10675529       0.99983522 </v>
   <v>       0.14147484       0.10954509       0.49999022 </v>
   <v>       0.13375945       0.61108546       0.00087772 </v>
   <v>       0.13987634       0.60944363       0.49934251 </v>
   <v>       0.63999205       0.10751794       0.00038823 </v>
   <v>       0.64104878       0.10940179       0.49950519 </v>
   <v>       0.64508653       0.59937610       0.00020304 </v>
   <v>       0.64149553       0.60932869       0.49958743 </v>
   <v>       0.88486704       0.13215904       0.00055871 </v>
   <v>       0.10919028       0.35919951       0.49946885 </v>
   <v>       0.09679562       0.85325584       0.00042045 </v>
   <v>       0.10952921       0.86001918       0.49945567 </v>
   <v>       0.60618846       0.35576992       0.00034957 </v>
   <v>       0.39098110       0.14053850       0.49954552 </v>
   <v>       0.60578350       0.86118786       0.99979288 </v>
   <v>       0.60940881       0.85852988       0.49996846 </v>
   <v>       0.39415082       0.14402366       0.00021410 </v>
   <v>       0.88870709       0.86052468       0.74511086 </v>
   <v>       0.38943417       0.64004909       0.00045054 </v>
   <v>       0.39110203       0.64061740       0.49939574 </v>
   <v>       0.10909121       0.35049630       0.00018892 </v>
   <v>       0.89036611       0.14061657       0.49951544 </v>
   <v>       0.00140763       0.00248669       0.62463059 </v>
   <v>       0.88929785       0.64045260       0.50004208 </v>
   <v>       0.98905248       0.99302179       0.12363970 </v>
   <v>       0.78384143       0.75472671       0.88823632 </v>
   <v>       0.99078263       0.50963139       0.12291520 </v>
   <v>       0.99988429       0.49754518       0.62491184 </v>
   <v>       0.50531996       0.99852181       0.62501878 </v>
   <v>       0.49669979       0.49644726       0.12490324 </v>
   <v>       0.50469336       0.50476808       0.62539661 </v>
   <v>       0.00209746       0.00223832       0.37474232 </v>
   <v>       0.98811123       0.99335520       0.87687397 </v>
   <v>       0.99990671       0.49832811       0.37437276 </v>
   <v>       0.99066689       0.50958668       0.87769633 </v>
   <v>       0.50522771       0.99749936       0.37431716 </v>
   <v>       0.49536033       0.00199619       0.87525072 </v>
   <v>       0.50399885       0.50494148       0.37403350 </v>
   <v>       0.49734007       0.49611772       0.87572011 </v>
   <v>       0.24642095       0.25127897       0.37454515 </v>
   <v>       0.25495302       0.24911230       0.87471999 </v>
   <v>       0.24983739       0.75092906       0.37504818 </v>
   <v>       0.25030679       0.75018498       0.87628331 </v>
   <v>       0.74939817       0.25061986       0.37479319 </v>
   <v>       0.74947721       0.24959416       0.87509727 </v>
   <v>       0.74436708       0.74976321       0.37299785 </v>
   <v>       0.60904162       0.35963563       0.49953955 </v>
   <v>       0.25490621       0.24914630       0.12530916 </v>
   <v>       0.24649057       0.25138005       0.62516585 </v>
   <v>       0.25072808       0.75027998       0.12592405 </v>
   <v>       0.13821794       0.38891730       0.75437341 </v>
   <v>       0.74937798       0.24959231       0.12558727 </v>
   <v>       0.74936695       0.25057698       0.62452549 </v>
   <v>       0.78336566       0.75498058       0.11108594 </v>
   <v>       0.24985789       0.75043843       0.62310072 </v>
  </varray>
 </structure>
 <calculation>
  <scstep>
   <time name="dav">  292.16  292.23</time>
   <time name="total">  295.89  296.02</time>
   <energy>
    <i name="alphaZ">   5636.61620455 </i>
    <i name="ewald"> -61194.01922779 </i>
    <i name="hartreedc"> -15308.82234792 </i>
    <i name="XCdc">   2852.76307310 </i>
    <i name="pawpsdc"> 112015.37735143 </i>
    <i name="pawaedc">-110763.91764654 </i>
    <i name="eentropy">     -0.00000000 </i>
    <i name="bandstr">  -7041.55766460 </i>
    <i name="atom">  72650.08363186 </i>
    <i name="e_fr_energy">  -1153.47662591 </i>
    <i name="e_wo_entrp">  -1153.47662591 </i>
    <i name="e_0_energy">  -1153.47662591 </i>
   </energy>
  </scstep>
  <scstep>
   <time name="diag">   33.32   33.34</time>
   <time name="diis">   30.75   30.76</time>
   <time name="orth">   18.84   18.84</time>
   <time name="total">   86.63   86.71</time>
   <energy>
    <i name="e_fr_energy">  -1153.47662586 </i>
    <i name="e_wo_entrp">  -1153.47662586 </i>
    <i name="e_0_energy">  -1153.47662586 </i>
   </energy>
  </scstep>
  <scstep>
   <time name="diag">   33.33   33.35</time>
   <time name="diis">   28.73   28.73</time>
   <time name="orth">   18.95   18.96</time>
   <time name="total">   84.70   84.79</time>
   <energy>
    <i name="e_fr_energy">  -1153.47662601 </i>
    <i name="e_wo_entrp">  -1153.47662601 </i>
    <i name="e_0_energy">  -1153.47662601 </i>
   </energy>
  </scstep>
  <scstep>
   <time name="diag">   33.37   33.39</time>
   <time name="diis">   24.42   24.42</time>
   <time name="orth">   18.82   18.82</time>
   <time name="total">   80.32   80.41</time>
   <energy>
    <i name="e_fr_energy">  -1153.47662603 </i>
    <i name="e_wo_entrp">  -1153.47662603 </i>
    <i name="e_0_energy">  -1153.47662603 </i>
   </energy>
  </scstep>
  <scstep>
   <time name="diag">   33.31   33.34</time>
   <time name="diis">   23.61   23.64</time>
   <time name="orth">   18.82   18.84</time>
   <time name="total">   79.46   79.59</time>
   <energy>
    <i name="e_fr_energy">  -1153.47662599 </i>
    <i name="e_wo_entrp">  -1153.47662599 </i>
    <i name="e_0_energy">  -1153.47662599 </i>
   </energy>
  </scstep>
  <scstep>
   <time name="diag">   33.35   33.38</time>
   <time name="diis">   22.45   22.47</time>
   <time name="orth">   18.81   18.82</time>
   <time name="total">   78.32   78.52</time>
   <energy>
    <i name="e_fr_energy">  -1153.47662594 </i>
    <i name="e_wo_entrp">  -1153.47662594 </i>
    <i name="e_0_energy">  -1153.47662594 </i>
   </energy>
  </scstep>
  <scstep>
   <time name="diag">   33.28   33.31</time>
   <time name="diis">   21.97   21.97</time>
   <time name="orth">   18.87   18.88</time>
   <time name="total">   77.85   77.93</time>
   <energy>
    <i name="e_fr_energy">  -1153.47662592 </i>
    <i name="e_wo_entrp">  -1153.47662592 </i>
    <i name="e_0_energy">  -1153.47662592 </i>
   </energy>
  </scstep>
  <scstep>
   <time name="diag">   33.27   33.28</time>
   <time name="diis">   21.64   21.64</time>
   <time name="orth">   18.83   18.83</time>
   <time name="total">   74.33   74.41</time>
   <energy>
    <i name="alphaZ">   5636.61620455 </i>
    <i name="ewald"> -61194.01922779 </i>
    <i name="hartreedc"> -15308.81695946 </i>
    <i name="XCdc">   2852.76201576 </i>
    <i name="pawpsdc"> 112014.00458889 </i>
    <i name="pawaedc">-110762.55209298 </i>
    <i name="eentropy">     -0.00000000 </i>
    <i name="bandstr">  -7041.55478674 </i>
    <i name="atom">  72650.08363186 </i>
    <i name="e_fr_energy">  -1153.47662591 </i>
    <i name="e_wo_entrp">  -1153.47662591 </i>
    <i name="e_0_energy">  -1153.47662591 </i>
   </energy>
  </scstep>
  <structure>
   <crystal>
    <varray name="basis" >
     <v>      11.21941226      -0.00254152       0.00025565 </v>
     <v>      -0.00254830      11.21723859      -0.00024273 </v>
     <v>       0.00036917      -0.00034593      15.92431843 </v>
    </varray>
    <i name="volume">   2004.08849225 </i>
    <varray name="rec_basis" >
     <v>       0.08913123       0.00002025      -0.00000207 </v>
     <v>       0.00002019       0.08914851       0.00000194 </v>
     <v>      -0.00000143       0.00000136       0.06279704 </v>
    </varray>
   </crystal>
   <varray name="positions" >
    <v>       0.99764740       0.24783460       0.12497955 </v>
    <v>       0.99991378       0.24984165       0.62601557 </v>
    <v>       0.00926050       0.75182501       0.13187263 </v>
    <v>       0.00268178       0.74933048       0.62503896 </v>
    <v>       0.50016720       0.25070942       0.12560167 </v>
    <v>       0.50034296       0.24969119       0.62558135 </v>
    <v>       0.48942112       0.75227576       0.12558611 </v>
    <v>       0.49866901       0.74929887       0.62672466 </v>
    <v>       0.99993771       0.24943449       0.37481098 </v>
    <v>       0.99747739       0.24793900       0.87409152 </v>
    <v>       0.00089259       0.74920785       0.37692870 </v>
    <v>       0.01125556       0.75262804       0.86647412 </v>
    <v>       0.50033103       0.24970805       0.37529810 </v>
    <v>       0.50033336       0.25065907       0.87350411 </v>
    <v>       0.50064693       0.74933989       0.37518732 </v>
    <v>       0.48678214       0.75186814       0.87250921 </v>
    <v>       0.25163716       0.00088310       0.12673176 </v>
    <v>       0.24891177       0.99720078       0.62610616 </v>
    <v>       0.25045447       0.50231212       0.12430757 </v>
    <v>       0.24855151       0.50247691       0.62740639 </v>
    <v>       0.74954635       0.00637171       0.12704939 </v>
    <v>       0.75067844       0.99911750       0.62599320 </v>
    <v>       0.74965299       0.49619801       0.12766080 </v>
    <v>       0.75118615       0.49976553       0.62472323 </v>
    <v>       0.24890911       0.99932153       0.37583871 </v>
    <v>       0.25175601       0.99902629       0.87179405 </v>
    <v>       0.24867338       0.50009906       0.37466448 </v>
    <v>       0.25010351       0.50443831       0.87408222 </v>
    <v>       0.75068321       0.99899122       0.37509121 </v>
    <v>       0.74930226       0.00699527       0.87197197 </v>
    <v>       0.75120849       0.49983018       0.37616267 </v>
    <v>       0.74974354       0.49589679       0.87176809 </v>
    <v>       0.75222025       0.75038787       0.75194151 </v>
    <v>       0.00042783       0.49916022       0.50018088 </v>
    <v>       0.49730493       0.00267412       0.99970520 </v>
    <v>       0.25342404       0.24964225       0.99956302 </v>
    <v>       0.49789535       0.49807483       0.99986773 </v>
    <v>       0.25007235       0.25074317       0.75035298 </v>
    <v>       0.75052880       0.25054365       0.99995586 </v>
    <v>       0.24946439       0.25024188       0.50024044 </v>
    <v>       0.24348028       0.75064375       0.99886393 </v>
    <v>       0.25044490       0.74999430       0.50149554 </v>
    <v>       0.00041587       0.99905665       0.75145968 </v>
    <v>       0.74984052       0.25061068       0.74940926 </v>
    <v>       0.00060148       0.00055132       0.50020662 </v>
    <v>       0.74895294       0.74983166       0.50060679 </v>
    <v>       0.25007931       0.25072345       0.24958644 </v>
    <v>       0.99926751       0.99993787       0.24869699 </v>
    <v>       0.25053990       0.75018236       0.25155929 </v>
    <v>       0.74986878       0.25037095       0.25055533 </v>
    <v>       0.50050442       0.50069050       0.50022971 </v>
    <v>       0.75220765       0.75048980       0.24883069 </v>
    <v>       0.49891400       0.99897895       0.75004528 </v>
    <v>       0.49999443       0.00025193       0.24986527 </v>
    <v>       0.50078226       0.99949757       0.50010590 </v>
    <v>       0.00033405       0.50164879       0.75215598 </v>
    <v>       0.99924911       0.50017460       0.24802542 </v>
    <v>       0.74998588       0.24990432       0.50007805 </v>
    <v>       0.50034302       0.50051767       0.24953577 </v>
    <v>       0.49903266       0.50170391       0.75067120 </v>
    <v>       0.72428860       0.74556947       0.99948563 </v>
    <v>       0.00967623       0.48514135       0.99995621 </v>
    <v>       0.25028426       0.75039812       0.74853108 </v>
    <v>       0.01357482       0.00868889       0.99981773 </v>
    <v>       0.10973347       0.13920068       0.24594280 </v>
    <v>       0.36118801       0.11179936       0.74711572 </v>
    <v>       0.11160435       0.63862963       0.25181467 </v>
    <v>       0.11136325       0.63592794       0.74804086 </v>
    <v>       0.61065942       0.13913649       0.24909313 </v>
    <v>       0.61174656       0.13848876       0.75093874 </v>
    <v>       0.61343193       0.64147460       0.23964620 </v>
    <v>       0.61462681       0.64075472       0.76065129 </v>
    <v>       0.38988080       0.36115358       0.25251383 </v>
    <v>       0.38928078       0.36155383       0.74745857 </v>
    <v>       0.39019250       0.86053264       0.25118458 </v>
    <v>       0.39006222       0.86349164       0.74874616 </v>
    <v>       0.88994952       0.35975044       0.24864303 </v>
    <v>       0.88900080       0.36048243       0.75134877 </v>
    <v>       0.89030337       0.85952886       0.25474293 </v>
    <v>       0.74400737       0.74960612       0.62678857 </v>
    <v>       0.36048405       0.11022709       0.25291365 </v>
    <v>       0.64123578       0.88779837       0.75745861 </v>
    <v>       0.36185067       0.61141284       0.24991440 </v>
    <v>       0.36460494       0.61140535       0.75027059 </v>
    <v>       0.85952987       0.11025645       0.25078576 </v>
    <v>       0.86014202       0.11139245       0.74915763 </v>
    <v>       0.85988667       0.61124425       0.74795853 </v>
    <v>       0.13890361       0.39021850       0.24563855 </v>
    <v>       0.49535086       0.00120877       0.12526383 </v>
    <v>       0.13912124       0.88934554       0.24849970 </v>
    <v>       0.11019785       0.13911769       0.75387382 </v>
    <v>       0.63988304       0.39010541       0.25048759 </v>
    <v>       0.63930418       0.38917177       0.74952103 </v>
    <v>       0.64181672       0.88834943       0.24255408 </v>
    <v>       0.85949492       0.61067966       0.25170970 </v>
    <v>       0.35620650       0.39243609       0.99993816 </v>
    <v>       0.36031028       0.39112714       0.49995336 </v>
    <v>       0.35488892       0.89265349       0.00060123 </v>
    <v>       0.36024767       0.89139209       0.49953117 </v>
    <v>       0.13633045       0.88977787       0.75149319 </v>
    <v>       0.85915263       0.39020439       0.49958181 </v>
    <v>       0.85671525       0.39247587       0.00037223 </v>
    <v>       0.85935465       0.88940896       0.49975079 </v>
    <v>       0.14906526       0.10675529       0.99983522 </v>
    <v>       0.14147484       0.10954509       0.49999022 </v>
    <v>       0.13375945       0.61108546       0.00087772 </v>
    <v>       0.13987634       0.60944363       0.49934251 </v>
    <v>       0.63999205       0.10751794       0.00038823 </v>
    <v>       0.64104878       0.10940179       0.49950519 </v>
    <v>       0.64508653       0.59937610       0.00020304 </v>
    <v>       0.64149553       0.60932869       0.49958743 </v>
    <v>       0.88486704       0.13215904       0.00055871 </v>
    <v>       0.10919028       0.35919951       0.49946885 </v>
    <v>       0.09679562       0.85325584       0.00042045 </v>
    <v>       0.10952921       0.86001918       0.49945567 </v>
    <v>       0.60618846       0.35576992       0.00034957 </v>
    <v>       0.39098110       0.14053850       0.49954552 </v>
    <v>       0.60578350       0.86118786       0.99979288 </v>
    <v>       0.60940881       0.85852988       0.49996846 </v>
    <v>       0.39415082       0.14402366       0.00021410 </v>
    <v>       0.88870709       0.86052468       0.74511086 </v>
    <v>       0.38943417       0.64004909       0.00045054 </v>
    <v>       0.39110203       0.64061740       0.49939574 </v>
    <v>       0.10909121       0.35049630       0.00018892 </v>
    <v>       0.89036611       0.14061657       0.49951544 </v>
    <v>       0.00140763       0.00248669       0.62463059 </v>
    <v>       0.88929785       0.64045260       0.50004208 </v>
    <v>       0.98905248       0.99302179       0.12363970 </v>
    <v>       0.78384143       0.75472671       0.88823632 </v>
    <v>       0.99078263       0.50963139       0.12291520 </v>
    <v>       0.99988429       0.49754518       0.62491184 </v>
    <v>       0.50531996       0.99852181       0.62501878 </v>
    <v>       0.49669979       0.49644726       0.12490324 </v>
    <v>       0.50469336       0.50476808       0.62539661 </v>
    <v>       0.00209746       0.00223832       0.37474232 </v>
    <v>       0.98811123       0.99335520       0.87687397 </v>
    <v>       0.99990671       0.49832811       0.37437276 </v>
    <v>       0.99066689       0.50958668       0.87769633 </v>
    <v>       0.50522771       0.99749936       0.37431716 </v>
    <v>       0.49536033       0.00199619       0.87525072 </v>
    <v>       0.50399885       0.50494148       0.37403350 </v>
    <v>       0.49734007       0.49611772       0.87572011 </v>
    <v>       0.24642095       0.25127897       0.37454515 </v>
    <v>       0.25495302       0.24911230       0.87471999 </v>
    <v>       0.24983739       0.75092906       0.37504818 </v>
    <v>       0.25030679       0.75018498       0.87628331 </v>
    <v>       0.74939817       0.25061986       0.37479319 </v>
    <v>       0.74947721       0.24959416       0.87509727 </v>
    <v>       0.74436708       0.74976321       0.37299785 </v>
    <v>       0.60904162       0.35963563       0.49953955 </v>
    <v>       0.25490621       0.24914630       0.12530916 </v>
    <v>       0.24649057       0.25138005       0.62516585 </v>
    <v>       0.25072808       0.75027998       0.12592405 </v>
    <v>       0.13821794       0.38891730       0.75437341 </v>
    <v>       0.74937798       0.24959231       0.12558727 </v>
    <v>       0.74936695       0.25057698       0.62452549 </v>
    <v>       0.78336566       0.75498058       0.11108594 </v>
    <v>       0.24985789       0.75043843       0.62310072 </v>
   </varray>
  </structure>
  <varray name="forces" >
   <v>      -0.00006040       0.00076612      -0.00439478 </v>
   <v>      -0.00223795       0.00079177       0.00028168 </v>
   <v>      -0.01008135       0.00073653       0.00261269 </v>
   <v>      -0.00414660      -0.00367474       0.00428155 </v>
   <v>       0.00502443       0.00250852      -0.00130804 </v>
   <v>       0.00019248       0.00540673      -0.00125586 </v>
   <v>      -0.00278031       0.00156779      -0.00290647 </v>
   <v>       0.00055275       0.00094735      -0.00668654 </v>
   <v>      -0.00248658       0.00297951       0.00084132 </v>
   <v>       0.00106630       0.00296167       0.00258555 </v>
   <v>      -0.00947261      -0.00020387      -0.00734338 </v>
   <v>      -0.00762857       0.00139156       0.00159993 </v>
   <v>       0.00350954       0.00161054      -0.00136503 </v>
   <v>       0.00172291       0.00653102       0.00223034 </v>
   <v>       0.00604081      -0.00297530       0.00657769 </v>
   <v>      -0.00713028       0.00340146      -0.00082177 </v>
   <v>       0.00062722      -0.00028514       0.00388086 </v>
   <v>      -0.00241506       0.00247443      -0.00495738 </v>
   <v>       0.00012867       0.00361165      -0.00701070 </v>
   <v>       0.00036957      -0.00309524      -0.00055381 </v>
   <v>      -0.01026819       0.00284537      -0.00144071 </v>
   <v>       0.00928878      -0.00334697      -0.00044239 </v>
   <v>       0.00155728      -0.00534402      -0.00301684 </v>
   <v>       0.00051328      -0.00006414      -0.00140149 </v>
   <v>      -0.00399224      -0.00296239      -0.00015229 </v>
   <v>       0.00057833      -0.00220409      -0.00365208 </v>
   <v>       0.00206777       0.00254547       0.00182723 </v>
   <v>       0.00159777       0.00478306       0.00266008 </v>
   <v>       0.00830230      -0.00269755      -0.00172812 </v>
   <v>      -0.00673260      -0.00219958       0.00185342 </v>
   <v>       0.00132767       0.00159005      -0.00164422 </v>
   <v>       0.00312383      -0.00462108       0.00570012 </v>
   <v>       0.02016190       0.00433122       0.00247769 </v>
   <v>      -0.01112513       0.01161659      -0.00112649 </v>
   <v>       0.01923037      -0.01354878       0.01469385 </v>
   <v>      -0.01778960       0.00214528      -0.00298491 </v>
   <v>       0.02222220      -0.00475566      -0.00265184 </v>
   <v>      -0.00505747       0.00577510       0.00703642 </v>
   <v>      -0.01154382       0.02209502       0.01484451 </v>
   <v>       0.00556162       0.00790672      -0.00001095 </v>
   <v>      -0.01344765      -0.00974491      -0.00512957 </v>
   <v>      -0.00323927       0.00344718      -0.00840178 </v>
   <v>      -0.01069800      -0.00086120      -0.01134501 </v>
   <v>       0.01051742      -0.00184981      -0.00151547 </v>
   <v>      -0.00391612      -0.01076273       0.00012424 </v>
   <v>      -0.00217040      -0.01157566      -0.00382668 </v>
   <v>       0.00091709      -0.00404141      -0.02017886 </v>
   <v>      -0.00654182      -0.00804820       0.00863486 </v>
   <v>      -0.01151194       0.01131237       0.01459859 </v>
   <v>       0.00095760       0.00846357       0.00302402 </v>
   <v>       0.00210056       0.00569183      -0.01100101 </v>
   <v>       0.01636224      -0.00989818       0.00293888 </v>
   <v>      -0.00960985       0.00227618      -0.01225715 </v>
   <v>      -0.00103797       0.00616624       0.00682758 </v>
   <v>      -0.01148347      -0.00077144       0.00342047 </v>
   <v>       0.00594339      -0.00344420      -0.00197636 </v>
   <v>      -0.00724802      -0.00134237       0.00320611 </v>
   <v>      -0.00147185       0.01132518      -0.01248109 </v>
   <v>       0.01993245      -0.00484389       0.01334743 </v>
   <v>      -0.00875544      -0.00935261      -0.00394451 </v>
   <v>      -0.00408477      -0.00063839       0.00514778 </v>
   <v>       0.00540919      -0.00382720      -0.00434269 </v>
   <v>       0.00095848      -0.00572961       0.00077656 </v>
   <v>       0.02245638       0.00899505       0.00196105 </v>
   <v>       0.00417661       0.00212377       0.00194619 </v>
   <v>       0.01294931      -0.00639435      -0.00446747 </v>
   <v>       0.00820814       0.00890577      -0.00657351 </v>
   <v>       0.00516814      -0.00087404       0.00805321 </v>
   <v>       0.00272921      -0.01274923       0.00339530 </v>
   <v>      -0.00090693      -0.01804859      -0.00507106 </v>
   <v>      -0.00198158      -0.00978639       0.00703389 </v>
   <v>      -0.00465723      -0.00928198      -0.00168165 </v>
   <v>      -0.00753920      -0.01094578       0.00680961 </v>
   <v>      -0.00675075       0.00105151      -0.00573764 </v>
   <v>      -0.00244575       0.00379250       0.00412816 </v>
   <v>      -0.00212747       0.01741243      -0.00451519 </v>
   <v>      -0.00419650      -0.00261939       0.00282655 </v>
   <v>      -0.00803910       0.00265795      -0.00271195 </v>
   <v>       0.00349232       0.00364718      -0.01226102 </v>
   <v>       0.00529878      -0.00255233       0.00746381 </v>
   <v>      -0.00162700       0.00476505       0.00211803 </v>
   <v>      -0.01461127      -0.00070736      -0.00527117 </v>
   <v>       0.00838851       0.00508594       0.00334135 </v>
   <v>       0.01212370       0.00231548       0.00027656 </v>
   <v>       0.00256875       0.00519335      -0.00003940 </v>
   <v>       0.00618281       0.01019129       0.00099522 </v>
   <v>       0.00297148       0.00321349       0.00054414 </v>
   <v>      -0.00400611      -0.00659347      -0.00314530 </v>
   <v>      -0.00386842       0.00583715      -0.00305184 </v>
   <v>       0.00524673      -0.01203602       0.00369984 </v>
   <v>       0.00400568      -0.00660200       0.00064200 </v>
   <v>      -0.00900788       0.00124715      -0.00634639 </v>
   <v>      -0.01109639      -0.00140376       0.00638392 </v>
   <v>      -0.00762328       0.00255936       0.00428031 </v>
   <v>       0.00557433       0.00402498      -0.00483724 </v>
   <v>      -0.00056829       0.01186958       0.00168504 </v>
   <v>      -0.00996116      -0.01364051       0.00318833 </v>
   <v>      -0.00872813       0.00053906       0.00321861 </v>
   <v>       0.00557224       0.00537557       0.00045366 </v>
   <v>      -0.00425830      -0.00191811      -0.00984989 </v>
   <v>       0.00457938       0.00536352       0.00035494 </v>
   <v>       0.00194697      -0.00616392      -0.00048778 </v>
   <v>      -0.00282994       0.00115175       0.00263263 </v>
   <v>       0.00141221       0.00194796       0.00053089 </v>
   <v>       0.00649132       0.00538487       0.00288414 </v>
   <v>       0.00280312       0.01072767       0.00029101 </v>
   <v>       0.00100588      -0.00783144       0.00131899 </v>
   <v>      -0.00473631      -0.00404536      -0.00292902 </v>
   <v>      -0.00647321      -0.00721323       0.00048058 </v>
   <v>       0.00710293      -0.00513937      -0.00161786 </v>
   <v>       0.00634939      -0.00031951       0.00659269 </v>
   <v>       0.00790841      -0.01500677      -0.00508533 </v>
   <v>       0.01092479      -0.00388130       0.00479235 </v>
   <v>       0.00183161      -0.01121342       0.00308508 </v>
   <v>      -0.00481348       0.00171592       0.00502751 </v>
   <v>       0.00562540       0.00028312       0.00156308 </v>
   <v>      -0.00708342      -0.00187377       0.00001845 </v>
   <v>      -0.01082858       0.01042438      -0.00613612 </v>
   <v>       0.00110034       0.00280765       0.00196319 </v>
   <v>       0.00170305       0.00694906       0.00173730 </v>
   <v>       0.00242523       0.00558154       0.00142729 </v>
   <v>       0.00697845      -0.00147238       0.00314738 </v>
   <v>      -0.00041305       0.00003722       0.00215695 </v>
   <v>      -0.00621500      -0.00711496      -0.00268487 </v>
   <v>       0.00307392      -0.00236440       0.00016130 </v>
   <v>      -0.00218042      -0.00668134      -0.00112361 </v>
   <v>       0.00448921       0.00440140       0.00378018 </v>
   <v>      -0.00771394       0.00186359      -0.00406864 </v>
   <v>      -0.00316999       0.00149503       0.00439910 </v>
   <v>      -0.00180877       0.00478310      -0.00258955 </v>
   <v>      -0.00157020       0.00143536      -0.00246442 </v>
   <v>      -0.00095516      -0.00088400       0.00538860 </v>
   <v>      -0.00779112      -0.00160749       0.00301736 </v>
   <v>       0.00155176      -0.00183057       0.01029881 </v>
   <v>      -0.00205149      -0.00247734      -0.00065461 </v>
   <v>      -0.00181399      -0.00110234       0.00206160 </v>
   <v>      -0.00381649      -0.00158419      -0.00294769 </v>
   <v>      -0.00301615       0.00886256      -0.00105189 </v>
   <v>      -0.00321650       0.00608250       0.00511251 </v>
   <v>      -0.00635557       0.01146837      -0.00587456 </v>
   <v>       0.00412816      -0.00349822      -0.00741619 </v>
   <v>      -0.00606665      -0.00508313      -0.00922502 </v>
   <v>       0.00240316      -0.00145943       0.00207006 </v>
   <v>       0.00871822       0.00051695       0.01122508 </v>
   <v>       0.00487076       0.00331472      -0.01046513 </v>
   <v>       0.00252825       0.00656086       0.00330035 </v>
   <v>       0.00136425      -0.00571624      -0.00089752 </v>
   <v>       0.00673753      -0.00032442      -0.00287042 </v>
   <v>       0.00691197      -0.00178109      -0.00419162 </v>
   <v>      -0.00623868      -0.00432540       0.00324725 </v>
   <v>       0.00623693       0.00076141       0.00302977 </v>
   <v>      -0.00156143      -0.00095373      -0.00566965 </v>
   <v>       0.00385247       0.00078840      -0.00675940 </v>
   <v>      -0.01357290      -0.00638448       0.00237593 </v>
   <v>       0.00863320       0.00440444      -0.00207345 </v>
   <v>       0.00362459       0.00101955       0.01009475 </v>
   <v>       0.00213537       0.00071179      -0.01476489 </v>
   <v>       0.00403103       0.00054554       0.01282287 </v>
  </varray>
  <varray name="stress" >
   <v>       0.06705769       0.01359545      -0.00856574 </v>
   <v>       0.01359598      -0.09993181       0.01054941 </v>
   <v>      -0.00856535       0.01054960      -0.14064627 </v>
  </varray>
  <energy>
   <i name="e_fr_energy">  -1153.47662591 </i>
   <i name="e_wo_entrp">  -1153.47662591 </i>
   <i name="e_0_energy">     -0.00000000 </i>
  </energy>
  <time name="totalsc"> 1033.75 1080.80</time>
  <eigenvalues>
   <array>
    <dimension dim="1">band</dimension>
    <dimension dim="2">kpoint</dimension>
    <dimension dim="3">spin</dimension>
    <field>eigene</field>
    <field>occ</field>
    <set>
     <set comment="spin 1">
      <set comment="kpoint 1">
       <r>  -30.5461    1.0000 </r>
       <r>  -30.5246    1.0000 </r>
       <r>  -30.5192    1.0000 </r>
       <r>  -30.5077    1.0000 </r>
       <r>  -30.4833    1.0000 </r>
       <r>  -30.4669    1.0000 </r>
       <r>  -30.4563    1.0000 </r>
       <r>  -30.4523    1.0000 </r>
       <r>  -30.4482    1.0000 </r>
       <r>  -30.4464    1.0000 </r>
       <r>  -30.4448    1.0000 </r>
       <r>  -30.4425    1.0000 </r>
       <r>  -30.4345    1.0000 </r>
       <r>  -30.4325    1.0000 </r>
       <r>  -30.4316    1.0000 </r>
       <r>  -30.4248    1.0000 </r>
       <r>  -30.4222    1.0000 </r>
       <r>  -30.4178    1.0000 </r>
       <r>  -30.4141    1.0000 </r>
       <r>  -30.4115    1.0000 </r>
       <r>  -30.4071    1.0000 </r>
       <r>  -30.4040    1.0000 </r>
       <r>  -30.3993    1.0000 </r>
       <r>  -30.3932    1.0000 </r>
       <r>  -30.3872    1.0000 </r>
       <r>  -30.3774    1.0000 </r>
       <r>  -30.3722    1.0000 </r>
       <r>  -30.3553    1.0000 </r>
       <r>  -30.3466    1.0000 </r>
       <r>  -30.3338    1.0000 </r>
       <r>  -30.2520    1.0000 </r>
       <r>  -30.2041    1.0000 </r>
       <r>  -15.1838    1.0000 </r>
       <r>  -15.0928    1.0000 </r>
       <r>  -15.0693    1.0000 </r>
       <r>  -15.0534    1.0000 </r>
       <r>  -15.0412    1.0000 </r>
       <r>  -15.0051    1.0000 </r>
       <r>  -14.9803    1.0000 </r>
       <r>  -14.9695    1.0000 </r>
       <r>  -14.9560    1.0000 </r>
       <r>  -14.9480    1.0000 </r>
       <r>  -14.9287    1.0000 </r>
       <r>  -14.9145    1.0000 </r>
       <r>  -14.8999    1.0000 </r>
       <r>  -14.8705    1.0000 </r>
       <r>  -14.8504    1.0000 </r>
       <r>  -14.8370    1.0000 </r>
       <r>  -14.8320    1.0000 </r>
       <r>  -14.8205    1.0000 </r>
       <r>  -14.7893    1.0000 </r>
       <r>  -14.7546    1.0000 </r>
       <r>  -14.7252    1.0000 </r>
       <r>  -14.7197    1.0000 </r>
       <r>  -14.6670    1.0000 </r>
       <r>  -14.6159    1.0000 </r>
       <r>  -14.6034    1.0000 </r>
       <r>  -14.5620    1.0000 </r>
       <r>  -14.5285    1.0000 </r>
       <r>  -14.5050    1.0000 </r>
       <r>  -14.4756    1.0000 </r>
       <r>  -14.4516    1.0000 </r>
       <r>  -14.4170    1.0000 </r>
       <r>  -14.3802    1.0000 </r>
       <r>  -14.3400    1.0000 </r>
       <r>  -14.3140    1.0000 </r>
       <r>  -14.3053    1.0000 </r>
       <r>  -14.2936    1.0000 </r>
       <r>  -14.2654    1.0000 </r>
       <r>  -14.2458    1.0000 </r>
       <r>  -14.2320    1.0000 </r>
       <r>  -14.2165    1.0000 </r>
       <r>  -14.2108    1.0000 </r>
       <r>  -14.1992    1.0000 </r>
       <r>  -14.1928    1.0000 </r>
       <r>  -14.1825    1.0000 </r>
       <r>  -14.1797    1.0000 </r>
       <r>  -14.1732    1.0000 </r>
       <r>  -14.1582    1.0000 </r>
       <r>  -14.1513    1.0000 </r>
       <r>  -14.1451    1.0000 </r>
       <r>  -14.1390    1.0000 </r>
       <r>  -14.1328    1.0000 </r>
       <r>  -14.1208    1.0000 </r>
       <r>  -14.1113    1.0000 </r>
       <r>  -14.1081    1.0000 </r>
       <r>  -14.1045    1.0000 </r>
       <r>  -14.0959    1.0000 </r>
       <r>  -14.0889    1.0000 </r>
       <r>  -14.0799    1.0000 </r>
       <r>  -14.0751    1.0000 </r>
       <r>  -14.0696    1.0000 </r>
       <r>  -14.0592    1.0000 </r>
       <r>  -14.0541    1.0000 </r>
       <r>  -14.0403    1.0000 </r>
       <r>  -14.0363    1.0000 </r>
       <r>  -14.0267    1.0000 </r>
       <r>  -14.0231    1.0000 </r>
       <r>  -14.0111    1.0000 </r>
       <r>  -14.0059    1.0000 </r>
       <r>  -13.9997    1.0000 </r>
       <r>  -13.9888    1.0000 </r>
       <r>  -13.9848    1.0000 </r>
       <r>  -13.9824    1.0000 </r>
       <r>  -13.9785    1.0000 </r>
       <r>  -13.9732    1.0000 </r>
       <r>  -13.9708    1.0000 </r>
       <r>  -13.9669    1.0000 </r>
       <r>  -13.9616    1.0000 </r>
       <r>  -13.9587    1.0000 </r>
       <r>  -13.9541    1.0000 </r>
       <r>  -13.9470    1.0000 </r>
       <r>  -13.9437    1.0000 </r>
       <r>  -13.9402    1.0000 </r>
       <r>  -13.9366    1.0000 </r>
       <r>  -13.9349    1.0000 </r>
       <r>  -13.9293    1.0000 </r>
       <r>  -13.9204    1.0000 </r>
       <r>  -13.9169    1.0000 </r>
       <r>  -13.9151    1.0000 </r>
       <r>  -13.9089    1.0000 </r>
       <r>  -13.8973    1.0000 </r>
       <r>  -13.8943    1.0000 </r>
       <r>  -13.8903    1.0000 </r>
       <r>  -13.8847    1.0000 </r>
       <r>  -13.8791    1.0000 </r>
       <r>  -12.6277    1.0000 </r>
       <r>  -12.5956    1.0000 </r>
       <r>  -12.5716    1.0000 </r>
       <r>  -12.5620    1.0000 </r>
       <r>  -12.5576    1.0000 </r>
       <r>  -12.5401    1.0000 </r>
       <r>  -12.5119    1.0000 </r>
       <r>  -12.5049    1.0000 </r>
       <r>  -12.4988    1.0000 </r>
       <r>  -12.4860    1.0000 </r>
       <r>  -12.4751    1.0000 </r>
       <r>  -12.4700    1.0000 </r>
       <r>  -12.4647    1.0000 </r>
       <r>  -12.4571    1.0000 </r>
       <r>  -12.4503    1.0000 </r>
       <r>  -12.4442    1.0000 </r>
       <r>  -12.4390    1.0000 </r>
       <r>  -12.4357    1.0000 </r>
       <r>  -12.4322    1.0000 </r>
       <r>  -12.4257    1.0000 </r>
       <r>  -12.4197    1.0000 </r>
       <r>  -12.4172    1.0000 </r>
       <r>  -12.4116    1.0000 </r>
       <r>  -12.4048    1.0000 </r>
       <r>  -12.4007    1.0000 </r>
       <r>  -12.3968    1.0000 </r>
       <r>  -12.3956    1.0000 </r>
       <r>  -12.3880    1.0000 </r>
       <r>  -12.3846    1.0000 </r>
       <r>  -12.3825    1.0000 </r>
       <r>  -12.3771    1.0000 </r>
       <r>  -12.3733    1.0000 </r>
       <r>  -12.3677    1.0000 </r>
       <r>  -12.3630    1.0000 </r>
       <r>  -12.3573    1.0000 </r>
       <r>  -12.3529    1.0000 </r>
       <r>  -12.3502    1.0000 </r>
       <r>  -12.3396    1.0000 </r>
       <r>  -12.3280    1.0000 </r>
       <r>  -12.3259    1.0000 </r>
       <r>  -12.3226    1.0000 </r>
       <r>  -12.3132    1.0000 </r>
       <r>  -12.3109    1.0000 </r>
       <r>  -12.3055    1.0000 </r>
       <r>  -12.2979    1.0000 </r>
       <r>  -12.2880    1.0000 </r>
       <r>  -12.2832    1.0000 </r>
       <r>  -12.2703    1.0000 </r>
       <r>  -12.2672    1.0000 </r>
       <r>  -12.2630    1.0000 </r>
       <r>  -12.2587    1.0000 </r>
       <r>  -12.2523    1.0000 </r>
       <r>  -12.2421    1.0000 </r>
       <r>  -12.2387    1.0000 </r>
       <r>  -12.2280    1.0000 </r>
       <r>  -12.2225    1.0000 </r>
       <r>  -12.2104    1.0000 </r>
       <r>  -12.2067    1.0000 </r>
       <r>  -12.2003    1.0000 </r>
       <r>  -12.1911    1.0000 </r>
       <r>  -12.1890    1.0000 </r>
       <r>  -12.1833    1.0000 </r>
       <r>  -12.1760    1.0000 </r>
       <r>  -12.1653    1.0000 </r>
       <r>  -12.1551    1.0000 </r>
       <r>  -12.1480    1.0000 </r>
       <r>  -12.1387    1.0000 </r>
       <r>  -12.1317    1.0000 </r>
       <r>  -12.1292    1.0000 </r>
       <r>  -12.1193    1.0000 </r>
       <r>  -12.1134    1.0000 </r>
       <r>  -12.1091    1.0000 </r>
       <r>  -12.1044    1.0000 </r>
       <r>  -12.0997    1.0000 </r>
       <r>  -12.0950    1.0000 </r>
       <r>  -12.0883    1.0000 </r>
       <r>  -12.0785    1.0000 </r>
       <r>  -12.0696    1.0000 </r>
       <r>  -12.0633    1.0000 </r>
       <r>  -12.0570    1.0000 </r>
       <r>  -12.0520    1.0000 </r>
       <r>  -12.0440    1.0000 </r>
       <r>  -12.0376    1.0000 </r>
       <r>  -12.0299    1.0000 </r>
       <r>  -12.0171    1.0000 </r>
       <r>  -12.0012    1.0000 </r>
       <r>  -11.9953    1.0000 </r>
       <r>  -11.9816    1.0000 </r>
       <r>  -11.9771    1.0000 </r>
       <r>  -11.9713    1.0000 </r>
       <r>  -11.9507    1.0000 </r>
       <r>  -11.9286    1.0000 </r>
       <r>  -11.9267    1.0000 </r>
       <r>  -11.8810    1.0000 </r>
       <r>  -11.8769    1.0000 </r>
       <r>  -11.8378    1.0000 </r>
       <r>   -4.8705    1.0000 </r>
       <r>   -4.8479    1.0000 </r>
       <r>   -4.8146    1.0000 </r>
       <r>   -4.7905    1.0000 </r>
       <r>   -4.7667    1.0000 </r>
       <r>   -4.7506    1.0000 </r>
       <r>   -4.6941    1.0000 </r>
       <r>   -4.6088    1.0000 </r>
       <r>   -4.4804    1.0000 </r>
       <r>   -4.4641    1.0000 </r>
       <r>   -4.4552    1.0000 </r>
       <r>   -4.4369    1.0000 </r>
       <r>   -4.4292    1.0000 </r>
       <r>   -4.3850    1.0000 </r>
       <r>   -4.3818    1.0000 </r>
       <r>   -4.3718    1.0000 </r>
       <r>   -4.3371    1.0000 </r>
       <r>   -4.3201    1.0000 </r>
       <r>   -4.2976    1.0000 </r>
       <r>   -4.2797    1.0000 </r>
       <r>   -2.5252    1.0000 </r>
       <r>   -2.4201    1.0000 </r>
       <r>   -2.3756    1.0000 </r>
       <r>   -2.2400    1.0000 </r>
       <r>   -2.0886    1.0000 </r>
       <r>   -2.0621    1.0000 </r>
       <r>   -2.0015    1.0000 </r>
       <r>   -1.9980    1.0000 </r>
       <r>   -1.9728    1.0000 </r>
       <r>   -1.9422    1.0000 </r>
       <r>   -1.9280    1.0000 </r>
       <r>   -1.8999    1.0000 </r>
       <r>   -1.8546    1.0000 </r>
       <r>   -1.8484    1.0000 </r>
       <r>   -1.8287    1.0000 </r>
       <r>   -1.7960    1.0000 </r>
       <r>   -1.7644    1.0000 </r>
       <r>   -1.7596    1.0000 </r>
       <r>   -1.7496    1.0000 </r>
       <r>   -1.7357    1.0000 </r>
       <r>   -1.7109    1.0000 </r>
       <r>   -1.6996    1.0000 </r>
       <r>   -1.6712    1.0000 </r>
       <r>   -1.6537    1.0000 </r>
       <r>   -1.6417    1.0000 </r>
       <r>   -1.6181    1.0000 </r>
       <r>   -1.5946    1.0000 </r>
       <r>   -1.5855    1.0000 </r>
       <r>   -1.5727    1.0000 </r>
       <r>   -1.5581    1.0000 </r>
       <r>   -1.5346    1.0000 </r>
       <r>   -1.5202    1.0000 </r>
       <r>   -1.4977    1.0000 </r>
       <r>   -1.4631    1.0000 </r>
       <r>   -1.4503    1.0000 </r>
       <r>   -1.4392    1.0000 </r>
       <r>   -1.4168    1.0000 </r>
       <r>   -1.4091    1.0000 </r>
       <r>   -1.3801    1.0000 </r>
       <r>   -1.3643    1.0000 </r>
       <r>   -1.3467    1.0000 </r>
       <r>   -1.3324    1.0000 </r>
       <r>   -1.3165    1.0000 </r>
       <r>   -1.3108    1.0000 </r>
       <r>   -1.2903    1.0000 </r>
       <r>   -1.2789    1.0000 </r>
       <r>   -1.2662    1.0000 </r>
       <r>   -1.2399    1.0000 </r>
       <r>   -1.2310    1.0000 </r>
       <r>   -1.2152    1.0000 </r>
       <r>   -1.2016    1.0000 </r>
       <r>   -1.1916    1.0000 </r>
       <r>   -1.1742    1.0000 </r>
       <r>   -1.1633    1.0000 </r>
       <r>   -1.1401    1.0000 </r>
       <r>   -1.1309    1.0000 </r>
       <r>   -1.1003    1.0000 </r>
       <r>   -1.0880    1.0000 </r>
       <r>   -1.0808    1.0000 </r>
       <r>   -1.0647    1.0000 </r>
       <r>   -1.0599    1.0000 </r>
       <r>   -1.0398    1.0000 </r>
       <r>   -1.0209    1.0000 </r>
       <r>   -0.9928    1.0000 </r>
       <r>   -0.9881    1.0000 </r>
       <r>   -0.9644    1.0000 </r>
       <r>   -0.9488    1.0000 </r>
       <r>   -0.9390    1.0000 </r>
       <r>   -0.9323    1.0000 </r>
       <r>   -0.9195    1.0000 </r>
       <r>   -0.9113    1.0000 </r>
       <r>   -0.8900    1.0000 </r>
       <r>   -0.8799    1.0000 </r>
       <r>   -0.8757    1.0000 </r>
       <r>   -0.8579    1.0000 </r>
       <r>   -0.8488    1.0000 </r>
       <r>   -0.8344    1.0000 </r>
       <r>   -0.8188    1.0000 </r>
       <r>   -0.7942    1.0000 </r>
       <r>   -0.7827    1.0000 </r>
       <r>   -0.7654    1.0000 </r>
       <r>   -0.7527    1.0000 </r>
       <r>   -0.7390    1.0000 </r>
       <r>   -0.7289    1.0000 </r>
       <r>   -0.7202    1.0000 </r>
       <r>   -0.7090    1.0000 </r>
       <r>   -0.7055    1.0000 </r>
       <r>   -0.6927    1.0000 </r>
       <r>   -0.6812    1.0000 </r>
       <r>   -0.6767    1.0000 </r>
       <r>   -0.6662    1.0000 </r>
       <r>   -0.6520    1.0000 </r>
       <r>   -0.6484    1.0000 </r>
       <r>   -0.6411    1.0000 </r>
       <r>   -0.6255    1.0000 </r>
       <r>   -0.6089    1.0000 </r>
       <r>   -0.6036    1.0000 </r>
       <r>   -0.5955    1.0000 </r>
       <r>   -0.5846    1.0000 </r>
       <r>   -0.5798    1.0000 </r>
       <r>   -0.5735    1.0000 </r>
       <r>   -0.5684    1.0000 </r>
       <r>   -0.5582    1.0000 </r>
       <r>   -0.5512    1.0000 </r>
       <r>   -0.5459    1.0000 </r>
       <r>   -0.5394    1.0000 </r>
       <r>   -0.5343    1.0000 </r>
       <r>   -0.5255    1.0000 </r>
       <r>   -0.5160    1.0000 </r>
       <r>   -0.5102    1.0000 </r>
       <r>   -0.5018    1.0000 </r>
       <r>   -0.4962    1.0000 </r>
       <r>   -0.4882    1.0000 </r>
       <r>   -0.4798    1.0000 </r>
       <r>   -0.4696    1.0000 </r>
       <r>   -0.4538    1.0000 </r>
       <r>   -0.4424    1.0000 </r>
       <r>   -0.4364    1.0000 </r>
       <r>   -0.4271    1.0000 </r>
       <r>   -0.4006    1.0000 </r>
       <r>   -0.3912    1.0000 </r>
       <r>   -0.3741    1.0000 </r>
       <r>   -0.3636    1.0000 </r>
       <r>   -0.3540    1.0000 </r>
       <r>   -0.3225    1.0000 </r>
       <r>   -0.2926    1.0000 </r>
       <r>   -0.2858    1.0000 </r>
       <r>   -0.2663    1.0000 </r>
       <r>   -0.2359    1.0000 </r>
       <r>   -0.2215    1.0000 </r>
       <r>   -0.1837    1.0000 </r>
       <r>   -0.1647    1.0000 </r>
       <r>   -0.1562    1.0000 </r>
       <r>   -0.1315    1.0000 </r>
       <r>   -0.1048    1.0000 </r>
       <r>   -0.0864    1.0000 </r>
       <r>   -0.0755    1.0000 </r>
       <r>   -0.0512    1.0000 </r>
       <r>   -0.0333    1.0000 </r>
       <r>    0.0212    1.0000 </r>
       <r>    0.0260    1.0000 </r>
       <r>    0.0464    1.0000 </r>
       <r>    0.0796    1.0000 </r>
       <r>    0.1076    1.0000 </r>
       <r>    0.1347    1.0000 </r>
       <r>    0.1546    1.0000 </r>
       <r>    0.1788    1.0000 </r>
       <r>    0.1915    1.0000 </r>
       <r>    0.2174    1.0000 </r>
       <r>    0.2426    1.0000 </r>
       <r>    0.2627    1.0000 </r>
       <r>    0.2998    1.0000 </r>
       <r>    0.3239    1.0000 </r>
       <r>    0.3372    1.0000 </r>
       <r>    0.3571    1.0000 </r>
       <r>    0.3657    1.0000 </r>
       <r>    0.3732    1.0000 </r>
       <r>    0.3918    1.0000 </r>
       <r>    0.4026    1.0000 </r>
       <r>    0.4185    1.0000 </r>
       <r>    0.4450    1.0000 </r>
       <r>    0.4523    1.0000 </r>
       <r>    0.4785    1.0000 </r>
       <r>    0.4979    1.0000 </r>
       <r>    0.5198    1.0000 </r>
       <r>    0.5397    1.0000 </r>
       <r>    0.5628    1.0000 </r>
       <r>    0.5755    1.0000 </r>
       <r>    0.5948    1.0000 </r>
       <r>    0.5972    1.0000 </r>
       <r>    0.6191    1.0000 </r>
       <r>    0.6387    1.0000 </r>
       <r>    0.6580    1.0000 </r>
       <r>    0.6786    1.0000 </r>
       <r>    0.7132    1.0000 </r>
       <r>    0.7264    1.0000 </r>
       <r>    0.7567    1.0000 </r>
       <r>    0.7746    1.0000 </r>
       <r>    0.7854    1.0000 </r>
       <r>    0.8003    1.0000 </r>
       <r>    0.8088    1.0000 </r>
       <r>    0.8398    1.0000 </r>
       <r>    0.8502    1.0000 </r>
       <r>    0.8653    1.0000 </r>
       <r>    0.8859    1.0000 </r>
       <r>    0.8932    1.0000 </r>
       <r>    0.9146    1.0000 </r>
       <r>    0.9335    1.0000 </r>
       <r>    0.9491    1.0000 </r>
       <r>    0.9734    1.0000 </r>
       <r>    0.9789    1.0000 </r>
       <r>    0.9936    1.0000 </r>
       <r>    1.0060    1.0000 </r>
       <r>    1.0234    1.0000 </r>
       <r>    1.0404    1.0000 </r>
       <r>    1.0563    1.0000 </r>
       <r>    1.0708    1.0000 </r>
       <r>    1.0989    1.0000 </r>
       <r>    1.1003    1.0000 </r>
       <r>    1.1192    1.0000 </r>
       <r>    1.1263    1.0000 </r>
       <r>    1.1405    1.0000 </r>
       <r>    1.1484    1.0000 </r>
       <r>    1.1573    1.0000 </r>
       <r>    1.1688    1.0000 </r>
       <r>    1.1738    1.0000 </r>
       <r>    1.1813    1.0000 </r>
       <r>    1.1902    1.0000 </r>
       <r>    1.2081    1.0000 </r>
       <r>    1.2137    1.0000 </r>
       <r>    1.2216    1.0000 </r>
       <r>    1.2362    1.0000 </r>
       <r>    1.2425    1.0000 </r>
       <r>    1.2507    1.0000 </r>
       <r>    1.2650    1.0000 </r>
       <r>    1.2774    1.0000 </r>
       <r>    1.2966    1.0000 </r>
       <r>    1.3001    1.0000 </r>
       <r>    1.3116    1.0000 </r>
       <r>    1.3261    1.0000 </r>
       <r>    1.3373    1.0000 </r>
       <r>    1.3475    1.0000 </r>
       <r>    1.3514    1.0000 </r>
       <r>    1.3668    1.0000 </r>
       <r>    1.3791    1.0000 </r>
       <r>    1.3874    1.0000 </r>
       <r>    1.3981    1.0000 </r>
       <r>    1.4060    1.0000 </r>
       <r>    1.4147    1.0000 </r>
       <r>    1.4218    1.0000 </r>
       <r>    1.4277    1.0000 </r>
       <r>    1.4369    1.0000 </r>
       <r>    1.4488    1.0000 </r>
       <r>    1.4533    1.0000 </r>
       <r>    1.4634    1.0000 </r>
       <r>    1.4725    1.0000 </r>
       <r>    1.4778    1.0000 </r>
       <r>    1.4865    1.0000 </r>
       <r>    1.4954    1.0000 </r>
       <r>    1.5138    1.0000 </r>
       <r>    1.5252    1.0000 </r>
       <r>    1.5318    1.0000 </r>
       <r>    1.5626    1.0000 </r>
       <r>    1.5734    1.0000 </r>
       <r>    1.5860    1.0000 </r>
       <r>    1.5900    1.0000 </r>
       <r>    1.6074    1.0000 </r>
       <r>    1.6186    1.0000 </r>
       <r>    1.6304    1.0000 </r>
       <r>    1.6486    1.0000 </r>
       <r>    1.6565    1.0000 </r>
       <r>    1.6676    1.0000 </r>
       <r>    1.6766    1.0000 </r>
       <r>    1.6852    1.0000 </r>
[...]
       <r>   -15.7703     0.0000    32.0000 </r>
       <r>   -15.6186     0.0000    32.0000 </r>
       <r>   -15.4668     0.0000    32.0000 </r>
       <r>   -15.3150     0.0000    32.0000 </r>
       <r>   -15.1633     0.1757    32.0267 </r>
       <r>   -15.0115    20.7674    35.1784 </r>
       <r>   -14.8597    55.5382    43.6070 </r>
       <r>   -14.7080    50.5064    51.2719 </r>
       <r>   -14.5562    28.6788    55.6243 </r>
       <r>   -14.4045    30.1671    60.2025 </r>
       <r>   -14.2527    33.3604    65.2653 </r>
       <r>   -14.1009   106.8724    81.4845 </r>
       <r>   -13.9492   151.6979   104.5065 </r>
       <r>   -13.7974   115.4401   122.0259 </r>
       <r>   -13.6457    23.4249   125.5809 </r>
       <r>   -13.4939     2.7614   126.0000 </r>
       <r>   -13.3421     0.0000   126.0000 </r>
       <r>   -13.1904     0.0000   126.0000 </r>
       <r>   -13.0386     0.0000   126.0000 </r>
       <r>   -12.8868     0.0000   126.0000 </r>
       <r>   -12.7351     0.0072   126.0011 </r>
       <r>   -12.5833    15.8326   128.4039 </r>
       <r>   -12.4316   105.7078   144.4463 </r>
       <r>   -12.2798   180.8872   171.8981 </r>
       <r>   -12.1280   143.4939   193.6750 </r>
       <r>   -11.9763   127.8314   213.0750 </r>
       <r>   -11.8245    51.3194   220.8633 </r>
       <r>   -11.6727     7.4892   221.9999 </r>
       <r>   -11.5210     0.0007   222.0000 </r>
       <r>   -11.3692     0.0000   222.0000 </r>
       <r>   -11.2175     0.0000   222.0000 </r>
       <r>   -11.0657     0.0000   222.0000 </r>
       <r>   -10.9139     0.0000   222.0000 </r>
       <r>   -10.7622     0.0000   222.0000 </r>
       <r>   -10.6104     0.0000   222.0000 </r>
       <r>   -10.4587     0.0000   222.0000 </r>
       <r>   -10.3069     0.0000   222.0000 </r>
       <r>   -10.1551     0.0000   222.0000 </r>
       <r>   -10.0034     0.0000   222.0000 </r>
       <r>    -9.8516     0.0000   222.0000 </r>
       <r>    -9.6998     0.0000   222.0000 </r>
       <r>    -9.5481     0.0000   222.0000 </r>
       <r>    -9.3963     0.0000   222.0000 </r>
       <r>    -9.2446     0.0000   222.0000 </r>
       <r>    -9.0928     0.0000   222.0000 </r>
       <r>    -8.9410     0.0000   222.0000 </r>
       <r>    -8.7893     0.0000   222.0000 </r>
       <r>    -8.6375     0.0000   222.0000 </r>
       <r>    -8.4857     0.0000   222.0000 </r>
       <r>    -8.3340     0.0000   222.0000 </r>
       <r>    -8.1822     0.0000   222.0000 </r>
       <r>    -8.0305     0.0000   222.0000 </r>
       <r>    -7.8787     0.0000   222.0000 </r>
       <r>    -7.7269     0.0000   222.0000 </r>
       <r>    -7.5752     0.0000   222.0000 </r>
       <r>    -7.4234     0.0000   222.0000 </r>
       <r>    -7.2716     0.0000   222.0000 </r>
       <r>    -7.1199     0.0000   222.0000 </r>
       <r>    -6.9681     0.0000   222.0000 </r>
       <r>    -6.8164     0.0000   222.0000 </r>
       <r>    -6.6646     0.0000   222.0000 </r>
       <r>    -6.5128     0.0000   222.0000 </r>
       <r>    -6.3611     0.0000   222.0000 </r>
       <r>    -6.2093     0.0000   222.0000 </r>
       <r>    -6.0576     0.0000   222.0000 </r>
       <r>    -5.9058     0.0000   222.0000 </r>
       <r>    -5.7540     0.0000   222.0000 </r>
       <r>    -5.6023     0.0000   222.0000 </r>
       <r>    -5.4505     0.0000   222.0000 </r>
       <r>    -5.2987     0.0000   222.0000 </r>
       <r>    -5.1470     0.0000   222.0000 </r>
       <r>    -4.9952     0.0000   222.0000 </r>
       <r>    -4.8435     0.0000   222.0000 </r>
       <r>    -4.6917     0.0000   222.0000 </r>
       <r>    -4.5399     0.0000   222.0000 </r>
       <r>    -4.3882     0.0000   222.0000 </r>
       <r>    -4.2364     0.0000   222.0000 </r>
       <r>    -4.0846     0.0000   222.0000 </r>
       <r>    -3.9329     0.0000   222.0000 </r>
       <r>    -3.7811     0.0000   222.0000 </r>
       <r>    -3.6294     0.0000   222.0000 </r>
       <r>    -3.4776     0.0000   222.0000 </r>
       <r>    -3.3258     0.0000   222.0000 </r>
       <r>    -3.1741     0.0000   222.0000 </r>
       <r>    -3.0223     0.0000   222.0000 </r>
       <r>    -2.8705     0.0000   222.0000 </r>
       <r>    -2.7188     0.0000   222.0000 </r>
       <r>    -2.5670     0.0000   222.0000 </r>
       <r>    -2.4153     0.0003   222.0000 </r>
       <r>    -2.2635     4.2221   222.6408 </r>
       <r>    -2.1117    14.7077   224.8729 </r>
       <r>    -1.9600    36.7256   230.4464 </r>
       <r>    -1.8082    45.1828   237.3034 </r>
       <r>    -1.6565    61.0417   246.5672 </r>
       <r>    -1.5047    56.1153   255.0834 </r>
       <r>    -1.3529    57.8172   263.8579 </r>
       <r>    -1.2012    71.7821   274.7517 </r>
       <r>    -1.0494    68.7680   285.1880 </r>
       <r>    -0.8976    77.1452   296.8958 </r>
       <r>    -0.7459    72.4667   307.8934 </r>
       <r>    -0.5941   110.0339   324.5924 </r>
       <r>    -0.4424   129.6977   344.2756 </r>
       <r>    -0.2906    73.0851   355.3671 </r>
       <r>    -0.1388    45.5043   362.2730 </r>
       <r>     0.0129    51.6416   370.1102 </r>
       <r>     0.1647    43.6917   376.7409 </r>
       <r>     0.3165    42.4635   383.1853 </r>
       <r>     0.4682    57.5358   391.9170 </r>
       <r>     0.6200    60.3382   401.0741 </r>
       <r>     0.7717    38.4695   406.9123 </r>
       <r>     0.9235    48.6466   414.2950 </r>
       <r>     1.0753    56.0910   422.8075 </r>
       <r>     1.2270    92.5758   436.8570 </r>
       <r>     1.3788    91.1265   450.6865 </r>
       <r>     1.5305   106.2688   466.8141 </r>
       <r>     1.6823    76.0638   478.3577 </r>
       <r>     1.8341    72.6098   489.3771 </r>
       <r>     1.9858    45.0389   496.2123 </r>
       <r>     2.1376    37.6232   501.9221 </r>
       <r>     2.2894    13.0351   503.9003 </r>
       <r>     2.4411     0.6570   504.0000 </r>
       <r>     2.5929     0.0000   504.0000 </r>
       <r>     2.7446     0.0000   504.0000 </r>
       <r>     2.8964     0.0000   504.0000 </r>
       <r>     3.0482     0.0000   504.0000 </r>
       <r>     3.1999     0.0000   504.0000 </r>
       <r>     3.3517     0.0000   504.0000 </r>
       <r>     3.5035     0.0000   504.0000 </r>
       <r>     3.6552     0.0000   504.0000 </r>
       <r>     3.8070     0.0000   504.0000 </r>
       <r>     3.9587     0.0000   504.0000 </r>
       <r>     4.1105     0.0000   504.0000 </r>
       <r>     4.2623     0.0000   504.0000 </r>
       <r>     4.4140     0.3418   504.0519 </r>
       <r>     4.5658    17.3159   506.6798 </r>
       <r>     4.7176    31.8435   511.5124 </r>
       <r>     4.8693    35.7899   516.9439 </r>
       <r>     5.0211    27.3290   521.0914 </r>
       <r>     5.1728    35.0877   526.4164 </r>
       <r>     5.3246    46.8688   533.5293 </r>
       <r>     5.4764    72.7515   544.5702 </r>
       <r>     5.6281    44.4880   551.3218 </r>
       <r>     5.7799    80.2571   563.5018 </r>
       <r>     5.9316   100.3520   578.7314 </r>
       <r>     6.0834    93.3129   592.8928 </r>
       <r>     6.2352    65.1183   602.7753 </r>
       <r>     6.3869    50.6596   610.4635 </r>
       <r>     6.5387    35.2377   615.8112 </r>
       <r>     6.6905    25.2621   619.6450 </r>
       <r>     6.8422    24.9005   623.4240 </r>
       <r>     6.9940    19.5191   626.3863 </r>
       <r>     7.1457    22.2315   629.7602 </r>
       <r>     7.2975    18.3429   632.5439 </r>
       <r>     7.4493    13.3100   634.5639 </r>
       <r>     7.6010    11.8280   636.3589 </r>
       <r>     7.7528    12.9342   638.3218 </r>
       <r>     7.9046    21.1811   641.5363 </r>
       <r>     8.0563    26.7916   645.6023 </r>
       <r>     8.2081    18.8715   648.4663 </r>
       <r>     8.3598    28.9827   652.8647 </r>
       <r>     8.5116    26.3396   656.8621 </r>
       <r>     8.6634    18.1563   659.6175 </r>
       <r>     8.8151    24.0209   663.2630 </r>
       <r>     8.9669    29.2666   667.7045 </r>
       <r>     9.1187    33.5452   672.7954 </r>
       <r>     9.2704    42.0399   679.1755 </r>
       <r>     9.4222    38.1067   684.9586 </r>
       <r>     9.5739    43.3938   691.5441 </r>
       <r>     9.7257    41.3256   697.8158 </r>
       <r>     9.8775    56.1965   706.3443 </r>
       <r>    10.0292    70.0584   716.9765 </r>
       <r>    10.1810    73.5752   728.1424 </r>
       <r>    10.3327    75.1108   739.5414 </r>
       <r>    10.4845    54.3494   747.7896 </r>
       <r>    10.6363    56.2365   756.3241 </r>
       <r>    10.7880    54.3497   764.5724 </r>
       <r>    10.9398    22.5618   767.9964 </r>
       <r>    11.0916     0.0238   768.0000 </r>
       <r>    11.2433     0.0000   768.0000 </r>
       <r>    11.3951     0.0000   768.0000 </r>
       <r>    11.5468     0.0000   768.0000 </r>
       <r>    11.6986     0.0000   768.0000 </r>
       <r>    11.8504     0.0000   768.0000 </r>
       <r>    12.0021     0.0000   768.0000 </r>
       <r>    12.1539     0.0000   768.0000 </r>
       <r>    12.3057     0.0000   768.0000 </r>
       <r>    12.4574     0.0000   768.0000 </r>
       <r>    12.6092     0.0000   768.0000 </r>
       <r>    12.7609     0.0000   768.0000 </r>
       <r>    12.9127     0.0000   768.0000 </r>
      </set>
     </set>
    </array>
   </total>
  </dos>
 </calculation>
 <structure name="finalpos" >
  <crystal>
   <varray name="basis" >
    <v>      11.21941226      -0.00254152       0.00025565 </v>
    <v>      -0.00254830      11.21723859      -0.00024273 </v>
    <v>       0.00036917      -0.00034593      15.92431843 </v>
   </varray>
   <i name="volume">   2004.08849225 </i>
   <varray name="rec_basis" >
    <v>       0.08913123       0.00002025      -0.00000207 </v>
    <v>       0.00002019       0.08914851       0.00000194 </v>
    <v>      -0.00000143       0.00000136       0.06279704 </v>
   </varray>
  </crystal>
  <varray name="positions" >
   <v>       0.99764740       0.24783460       0.12497955 </v>
   <v>       0.99991378       0.24984165       0.62601557 </v>
   <v>       0.00926050       0.75182501       0.13187263 </v>
   <v>       0.00268178       0.74933048       0.62503896 </v>
   <v>       0.50016720       0.25070942       0.12560167 </v>
   <v>       0.50034296       0.24969119       0.62558135 </v>
   <v>       0.48942112       0.75227576       0.12558611 </v>
   <v>       0.49866901       0.74929887       0.62672466 </v>
   <v>       0.99993771       0.24943449       0.37481098 </v>
   <v>       0.99747739       0.24793900       0.87409152 </v>
   <v>       0.00089259       0.74920785       0.37692870 </v>
   <v>       0.01125556       0.75262804       0.86647412 </v>
   <v>       0.50033103       0.24970805       0.37529810 </v>
   <v>       0.50033336       0.25065907       0.87350411 </v>
   <v>       0.50064693       0.74933989       0.37518732 </v>
   <v>       0.48678214       0.75186814       0.87250921 </v>
   <v>       0.25163716       0.00088310       0.12673176 </v>
   <v>       0.24891177       0.99720078       0.62610616 </v>
   <v>       0.25045447       0.50231212       0.12430757 </v>
   <v>       0.24855151       0.50247691       0.62740639 </v>
   <v>       0.74954635       0.00637171       0.12704939 </v>
   <v>       0.75067844       0.99911750       0.62599320 </v>
   <v>       0.74965299       0.49619801       0.12766080 </v>
   <v>       0.75118615       0.49976553       0.62472323 </v>
   <v>       0.24890911       0.99932153       0.37583871 </v>
   <v>       0.25175601       0.99902629       0.87179405 </v>
   <v>       0.24867338       0.50009906       0.37466448 </v>
   <v>       0.25010351       0.50443831       0.87408222 </v>
   <v>       0.75068321       0.99899122       0.37509121 </v>
   <v>       0.74930226       0.00699527       0.87197197 </v>
   <v>       0.75120849       0.49983018       0.37616267 </v>
   <v>       0.74974354       0.49589679       0.87176809 </v>
   <v>       0.75222025       0.75038787       0.75194151 </v>
   <v>       0.00042783       0.49916022       0.50018088 </v>
   <v>       0.49730493       0.00267412       0.99970520 </v>
   <v>       0.25342404       0.24964225       0.99956302 </v>
   <v>       0.49789535       0.49807483       0.99986773 </v>
   <v>       0.25007235       0.25074317       0.75035298 </v>
   <v>       0.75052880       0.25054365       0.99995586 </v>
   <v>       0.24946439       0.25024188       0.50024044 </v>
   <v>       0.24348028       0.75064375       0.99886393 </v>
   <v>       0.25044490       0.74999430       0.50149554 </v>
   <v>       0.00041587       0.99905665       0.75145968 </v>
   <v>       0.74984052       0.25061068       0.74940926 </v>
   <v>       0.00060148       0.00055132       0.50020662 </v>
   <v>       0.74895294       0.74983166       0.50060679 </v>
   <v>       0.25007931       0.25072345       0.24958644 </v>
   <v>       0.99926751       0.99993787       0.24869699 </v>
   <v>       0.25053990       0.75018236       0.25155929 </v>
   <v>       0.74986878       0.25037095       0.25055533 </v>
   <v>       0.50050442       0.50069050       0.50022971 </v>
   <v>       0.75220765       0.75048980       0.24883069 </v>
   <v>       0.49891400       0.99897895       0.75004528 </v>
   <v>       0.49999443       0.00025193       0.24986527 </v>
   <v>       0.50078226       0.99949757       0.50010590 </v>
   <v>       0.00033405       0.50164879       0.75215598 </v>
   <v>       0.99924911       0.50017460       0.24802542 </v>
   <v>       0.74998588       0.24990432       0.50007805 </v>
   <v>       0.50034302       0.50051767       0.24953577 </v>
   <v>       0.49903266       0.50170391       0.75067120 </v>
   <v>       0.72428860       0.74556947       0.99948563 </v>
   <v>       0.00967623       0.48514135       0.99995621 </v>
   <v>       0.25028426       0.75039812       0.74853108 </v>
   <v>       0.01357482       0.00868889       0.99981773 </v>
   <v>       0.10973347       0.13920068       0.24594280 </v>
   <v>       0.36118801       0.11179936       0.74711572 </v>
   <v>       0.11160435       0.63862963       0.25181467 </v>
   <v>       0.11136325       0.63592794       0.74804086 </v>
   <v>       0.61065942       0.13913649       0.24909313 </v>
   <v>       0.61174656       0.13848876       0.75093874 </v>
   <v>       0.61343193       0.64147460       0.23964620 </v>
   <v>       0.61462681       0.64075472       0.76065129 </v>
   <v>       0.38988080       0.36115358       0.25251383 </v>
   <v>       0.38928078       0.36155383       0.74745857 </v>
   <v>       0.39019250       0.86053264       0.25118458 </v>
   <v>       0.39006222       0.86349164       0.74874616 </v>
   <v>       0.88994952       0.35975044       0.24864303 </v>
   <v>       0.88900080       0.36048243       0.75134877 </v>
   <v>       0.89030337       0.85952886       0.25474293 </v>
   <v>       0.74400737       0.74960612       0.62678857 </v>
   <v>       0.36048405       0.11022709       0.25291365 </v>
   <v>       0.64123578       0.88779837       0.75745861 </v>
   <v>       0.36185067       0.61141284       0.24991440 </v>
   <v>       0.36460494       0.61140535       0.75027059 </v>
   <v>       0.85952987       0.11025645       0.25078576 </v>
   <v>       0.86014202       0.11139245       0.74915763 </v>
   <v>       0.85988667       0.61124425       0.74795853 </v>
   <v>       0.13890361       0.39021850       0.24563855 </v>
   <v>       0.49535086       0.00120877       0.12526383 </v>
   <v>       0.13912124       0.88934554       0.24849970 </v>
   <v>       0.11019785       0.13911769       0.75387382 </v>
   <v>       0.63988304       0.39010541       0.25048759 </v>
   <v>       0.63930418       0.38917177       0.74952103 </v>
   <v>       0.64181672       0.88834943       0.24255408 </v>
   <v>       0.85949492       0.61067966       0.25170970 </v>
   <v>       0.35620650       0.39243609       0.99993816 </v>
   <v>       0.36031028       0.39112714       0.49995336 </v>
   <v>       0.35488892       0.89265349       0.00060123 </v>
   <v>       0.36024767       0.89139209       0.49953117 </v>
   <v>       0.13633045       0.88977787       0.75149319 </v>
   <v>       0.85915263       0.39020439       0.49958181 </v>
   <v>       0.85671525       0.39247587       0.00037223 </v>
   <v>       0.85935465       0.88940896       0.49975079 </v>
   <v>       0.14906526       0.10675529       0.99983522 </v>
   <v>       0.14147484       0.10954509       0.49999022 </v>
   <v>       0.13375945       0.61108546       0.00087772 </v>
   <v>       0.13987634       0.60944363       0.49934251 </v>
   <v>       0.63999205       0.10751794       0.00038823 </v>
   <v>       0.64104878       0.10940179       0.49950519 </v>
   <v>       0.64508653       0.59937610       0.00020304 </v>
   <v>       0.64149553       0.60932869       0.49958743 </v>
   <v>       0.88486704       0.13215904       0.00055871 </v>
   <v>       0.10919028       0.35919951       0.49946885 </v>
   <v>       0.09679562       0.85325584       0.00042045 </v>
   <v>       0.10952921       0.86001918       0.49945567 </v>
   <v>       0.60618846       0.35576992       0.00034957 </v>
   <v>       0.39098110       0.14053850       0.49954552 </v>
   <v>       0.60578350       0.86118786       0.99979288 </v>
   <v>       0.60940881       0.85852988       0.49996846 </v>
   <v>       0.39415082       0.14402366       0.00021410 </v>
   <v>       0.88870709       0.86052468       0.74511086 </v>
   <v>       0.38943417       0.64004909       0.00045054 </v>
   <v>       0.39110203       0.64061740       0.49939574 </v>
   <v>       0.10909121       0.35049630       0.00018892 </v>
   <v>       0.89036611       0.14061657       0.49951544 </v>
   <v>       0.00140763       0.00248669       0.62463059 </v>
   <v>       0.88929785       0.64045260       0.50004208 </v>
   <v>       0.98905248       0.99302179       0.12363970 </v>
   <v>       0.78384143       0.75472671       0.88823632 </v>
   <v>       0.99078263       0.50963139       0.12291520 </v>
   <v>       0.99988429       0.49754518       0.62491184 </v>
   <v>       0.50531996       0.99852181       0.62501878 </v>
   <v>       0.49669979       0.49644726       0.12490324 </v>
   <v>       0.50469336       0.50476808       0.62539661 </v>
   <v>       0.00209746       0.00223832       0.37474232 </v>
   <v>       0.98811123       0.99335520       0.87687397 </v>
   <v>       0.99990671       0.49832811       0.37437276 </v>
   <v>       0.99066689       0.50958668       0.87769633 </v>
   <v>       0.50522771       0.99749936       0.37431716 </v>
   <v>       0.49536033       0.00199619       0.87525072 </v>
   <v>       0.50399885       0.50494148       0.37403350 </v>
   <v>       0.49734007       0.49611772       0.87572011 </v>
   <v>       0.24642095       0.25127897       0.37454515 </v>
   <v>       0.25495302       0.24911230       0.87471999 </v>
   <v>       0.24983739       0.75092906       0.37504818 </v>
   <v>       0.25030679       0.75018498       0.87628331 </v>
   <v>       0.74939817       0.25061986       0.37479319 </v>
   <v>       0.74947721       0.24959416       0.87509727 </v>
   <v>       0.74436708       0.74976321       0.37299785 </v>
   <v>       0.60904162       0.35963563       0.49953955 </v>
   <v>       0.25490621       0.24914630       0.12530916 </v>
   <v>       0.24649057       0.25138005       0.62516585 </v>
   <v>       0.25072808       0.75027998       0.12592405 </v>
   <v>       0.13821794       0.38891730       0.75437341 </v>
   <v>       0.74937798       0.24959231       0.12558727 </v>
   <v>       0.74936695       0.25057698       0.62452549 </v>
   <v>       0.78336566       0.75498058       0.11108594 </v>
   <v>       0.24985789       0.75043843       0.62310072 </v>
  </varray>
 </structure>
</modeling>
