       N       E                     dE             d eps       ncg     rms          rms(c)
DAV:   1     0.122111340568E+05    0.12211E+05   -0.42870E+05  3072   0.133E+03
DAV:   2     0.761847645825E+03   -0.11449E+05   -0.10239E+05  3072   0.383E+02
DAV:   3    -0.133943266366E+04   -0.21013E+04   -0.20188E+04  3320   0.170E+02
DAV:   4    -0.148960852385E+04   -0.15018E+03   -0.14774E+03  4048   0.484E+01
DAV:   5    -0.149960257267E+04   -0.99940E+01   -0.99464E+01  5496   0.116E+01    0.179E+02
RMM:   6    -0.116056173812E+04    0.33904E+03   -0.16890E+03  3155   0.370E+01    0.143E+02
RMM:   7    -0.114051061689E+04    0.20051E+02   -0.66354E+01  3202   0.129E+01    0.827E+01
RMM:   8    -0.114289204829E+04   -0.23814E+01   -0.21690E+01  3485   0.500E+00    0.413E+01
RMM:   9    -0.114771243011E+04   -0.48204E+01   -0.10340E+01  3181   0.388E+00    0.141E+01
RMM:  10    -0.114863371209E+04   -0.92128E+00   -0.27167E+00  3435   0.186E+00    0.727E+00
RMM:  11    -0.114981603037E+04   -0.11823E+01   -0.13609E+00  3617   0.965E-01    0.436E+00
RMM:  12    -0.115057709983E+04   -0.76107E+00   -0.66227E-01  3507   0.773E-01    0.233E+00
RMM:  13    -0.115083521708E+04   -0.25812E+00   -0.28882E-01  3688   0.489E-01    0.133E+00
RMM:  14    -0.115090046704E+04   -0.65250E-01   -0.12284E-01  3609   0.308E-01    0.790E-01
RMM:  15    -0.115091259660E+04   -0.12130E-01   -0.43199E-02  3718   0.199E-01    0.601E-01
RMM:  16    -0.115091634232E+04   -0.37457E-02   -0.18328E-02  4139   0.106E-01    0.331E-01
RMM:  17    -0.115091616023E+04    0.18208E-03   -0.59718E-03  3420   0.694E-02    0.963E-02
RMM:  18    -0.115091640037E+04   -0.24014E-03   -0.25472E-03  3311   0.304E-02    0.451E-02
RMM:  19    -0.115091652259E+04   -0.12222E-03   -0.11696E-03  2601   0.223E-02    0.179E-02
RMM:  20    -0.115091659659E+04   -0.74000E-04   -0.69807E-04  2444   0.157E-02
   1 F= -.11509166E+04 E0= -.11509166E+04  d E =-.115092E+04  mag=    20.0008
       N       E                     dE             d eps       ncg     rms          rms(c)
DAV:   1    -0.112361759138E+04    0.27299E+02   -0.63409E+02  3704   0.247E+01    0.223E+01
RMM:   2    -0.115255510198E+04   -0.28938E+02   -0.47506E+01  3278   0.780E+00    0.384E+01
RMM:   3    -0.115274615070E+04   -0.19105E+00   -0.24898E+00  3234   0.254E+00    0.118E+01
RMM:   4    -0.115266837107E+04    0.77780E-01   -0.16330E+00  3322   0.137E+00    0.334E+00
RMM:   5    -0.115264498724E+04    0.23384E-01   -0.20954E-01  3425   0.490E-01    0.331E+00
RMM:   6    -0.115263978419E+04    0.52030E-02   -0.67878E-02  3574   0.260E-01    0.200E+00
RMM:   7    -0.115264310950E+04   -0.33253E-02   -0.26045E-02  3818   0.152E-01    0.117E+00
RMM:   8    -0.115264319198E+04   -0.82487E-04   -0.37044E-03  4426   0.608E-02    0.522E-01
RMM:   9    -0.115264269417E+04    0.49782E-03   -0.31460E-03  3555   0.476E-02    0.269E-01
RMM:  10    -0.115264265433E+04    0.39834E-04   -0.52901E-04  2704   0.274E-02
   2 F= -.11526427E+04 E0= -.11526427E+04  d E =-.172606E+01  mag=    20.0000
       N       E                     dE             d eps       ncg     rms          rms(c)
DAV:   1    -0.115262512021E+04    0.17574E-01   -0.22980E+00  3512   0.145E+00    0.137E+00
RMM:   2    -0.115264589485E+04   -0.20775E-01   -0.56073E-02  3127   0.290E-01    0.806E-01
RMM:   3    -0.115264980267E+04   -0.39078E-02   -0.38343E-03  3077   0.112E-01    0.435E-01
RMM:   4    -0.115264953780E+04    0.26487E-03   -0.22824E-03  3122   0.510E-02    0.178E-01
RMM:   5    -0.115264958483E+04   -0.47033E-04   -0.41619E-04  2321   0.284E-02    0.155E-01
RMM:   6    -0.115264958760E+04   -0.27680E-05   -0.60137E-05  1929   0.111E-02    0.461E-02
RMM:   7    -0.115264959229E+04   -0.46887E-05   -0.28621E-05  1841   0.746E-03    0.246E-02
RMM:   8    -0.115264959831E+04   -0.60172E-05   -0.18046E-05  1823   0.562E-03
   3 F= -.11526496E+04 E0= -.11526496E+04  d E =-.173300E+01  mag=    20.0000
       N       E                     dE             d eps       ncg     rms          rms(c)
DAV:   1    -0.115279783777E+04   -0.14825E+00   -0.21689E+02  3208   0.167E+01    0.823E+00
RMM:   2    -0.115317582372E+04   -0.37799E+00   -0.68664E+00  3109   0.340E+00    0.547E+00
RMM:   3    -0.115314065730E+04    0.35166E-01   -0.43802E-01  3280   0.110E+00    0.309E+00
RMM:   4    -0.115309442939E+04    0.46228E-01   -0.17021E-01  3360   0.460E-01    0.215E+00
RMM:   5    -0.115308592274E+04    0.85066E-02   -0.45400E-02  3359   0.243E-01    0.157E+00
RMM:   6    -0.115308545537E+04    0.46738E-03   -0.10785E-02  4238   0.104E-01    0.511E-01
RMM:   7    -0.115308572524E+04   -0.26987E-03   -0.35772E-03  4244   0.584E-02    0.309E-01
RMM:   8    -0.115308583463E+04   -0.10939E-03   -0.12904E-03  4113   0.318E-02    0.105E-01
RMM:   9    -0.115308584110E+04   -0.64737E-05   -0.43056E-04  2744   0.185E-02
   4 F= -.11530858E+04 E0= -.11530858E+04  d E =-.436243E+00  mag=    20.0000
       N       E                     dE             d eps       ncg     rms          rms(c)
DAV:   1    -0.115308627993E+04   -0.44530E-03   -0.36064E-01  3624   0.680E-01    0.349E-01
RMM:   2    -0.115308679093E+04   -0.51100E-03   -0.11713E-02  3106   0.140E-01    0.234E-01
RMM:   3    -0.115308668035E+04    0.11058E-03   -0.71017E-04  2879   0.456E-02    0.131E-01
RMM:   4    -0.115308659172E+04    0.88625E-04   -0.31207E-04  2030   0.204E-02    0.823E-02
RMM:   5    -0.115308659154E+04    0.18218E-06   -0.10466E-04  1863   0.154E-02    0.762E-02
RMM:   6    -0.115308659619E+04   -0.46506E-05   -0.51293E-05  1799   0.967E-03    0.344E-02
RMM:   7    -0.115308660256E+04   -0.63697E-05   -0.13605E-05  1597   0.510E-03    0.107E-02
RMM:   8    -0.115308660862E+04   -0.60599E-05   -0.10530E-05  1458   0.409E-03
   5 F= -.11530866E+04 E0= -.11530866E+04  d E =-.437010E+00  mag=    20.0000
       N       E                     dE             d eps       ncg     rms          rms(c)
DAV:   1    -0.115316386499E+04   -0.77262E-01   -0.51305E+01  3104   0.849E+00    0.270E+00
RMM:   2    -0.115321009315E+04   -0.46228E-01   -0.15032E+00  3093   0.160E+00    0.208E+00
RMM:   3    -0.115318934118E+04    0.20752E-01   -0.86942E-02  3227   0.532E-01    0.123E+00
RMM:   4    -0.115317526174E+04    0.14079E-01   -0.45987E-02  3261   0.237E-01    0.701E-01
RMM:   5    -0.115317205169E+04    0.32100E-02   -0.76025E-03  3524   0.105E-01    0.353E-01
RMM:   6    -0.115317204727E+04    0.44255E-05   -0.18434E-03  4115   0.387E-02    0.177E-01
RMM:   7    -0.115317207821E+04   -0.30940E-04   -0.47044E-04  3171   0.232E-02    0.109E-01
RMM:   8    -0.115317212342E+04   -0.45218E-04   -0.23608E-04  2234   0.163E-02
   6 F= -.11531721E+04 E0= -.11531721E+04  d E =-.855148E-01  mag=    20.0000
       N       E                     dE             d eps       ncg     rms          rms(c)
DAV:   1    -0.115317910213E+04   -0.70239E-02   -0.26375E+00  3280   0.192E+00    0.611E-01
RMM:   2    -0.115318141517E+04   -0.23130E-02   -0.75639E-02  3094   0.361E-01    0.474E-01
RMM:   3    -0.115318036980E+04    0.10454E-02   -0.44027E-03  3194   0.119E-01    0.281E-01
RMM:   4    -0.115317960144E+04    0.76837E-03   -0.22719E-03  3151   0.543E-02    0.174E-01
RMM:   5    -0.115317942764E+04    0.17379E-03   -0.26718E-04  2268   0.248E-02    0.769E-02
RMM:   6    -0.115317941890E+04    0.87436E-05   -0.10970E-04  1839   0.119E-02    0.409E-02
RMM:   7    -0.115317941498E+04    0.39203E-05   -0.32972E-05  1765   0.962E-03    0.366E-02
RMM:   8    -0.115317941383E+04    0.11520E-05   -0.18573E-05  1731   0.594E-03
   7 F= -.11531794E+04 E0= -.11531794E+04  d E =-.928052E-01  mag=    20.0000
       N       E                     dE             d eps       ncg     rms          rms(c)
DAV:   1    -0.115322961892E+04   -0.50204E-01   -0.23609E+01  3104   0.578E+00    0.197E+00
RMM:   2    -0.115325460667E+04   -0.24988E-01   -0.67926E-01  3112   0.105E+00    0.138E+00
RMM:   3    -0.115324582859E+04    0.87781E-02   -0.40120E-02  3177   0.375E-01    0.761E-01
RMM:   4    -0.115324260259E+04    0.32260E-02   -0.15028E-02  3457   0.134E-01    0.548E-01
RMM:   5    -0.115324182194E+04    0.78065E-03   -0.26234E-03  3760   0.616E-02    0.324E-01
RMM:   6    -0.115324180160E+04    0.20334E-04   -0.11154E-03  3726   0.296E-02    0.139E-01
RMM:   7    -0.115324184953E+04   -0.47924E-04   -0.34794E-04  2545   0.212E-02    0.103E-01
RMM:   8    -0.115324189829E+04   -0.48766E-04   -0.15768E-04  1949   0.152E-02
   8 F= -.11532419E+04 E0= -.11532419E+04  d E =-.624845E-01  mag=    20.0000
       N       E                     dE             d eps       ncg     rms          rms(c)
DAV:   1    -0.115324858579E+04   -0.67363E-02   -0.35318E+01  3072   0.708E+00    0.243E+00
RMM:   2    -0.115328630106E+04   -0.37715E-01   -0.10229E+00  3113   0.129E+00    0.170E+00
RMM:   3    -0.115327322501E+04    0.13076E-01   -0.60320E-02  3181   0.460E-01    0.931E-01
RMM:   4    -0.115326851294E+04    0.47121E-02   -0.22880E-02  3508   0.165E-01    0.659E-01
RMM:   5    -0.115326739840E+04    0.11145E-02   -0.40440E-03  3929   0.752E-02    0.400E-01
RMM:   6    -0.115326739278E+04    0.56136E-05   -0.16308E-03  4184   0.354E-02    0.171E-01
RMM:   7    -0.115326747524E+04   -0.82458E-04   -0.58068E-04  3224   0.254E-02    0.123E-01
RMM:   8    -0.115326754426E+04   -0.69020E-04   -0.27520E-04  2225   0.166E-02
   9 F= -.11532675E+04 E0= -.11532675E+04  d E =-.881304E-01  mag=    20.0000
       N       E                     dE             d eps       ncg     rms          rms(c)
DAV:   1    -0.115328754570E+04   -0.20070E-01   -0.11936E+01  3264   0.405E+00    0.126E+00
RMM:   2    -0.115330864553E+04   -0.21100E-01   -0.32006E-01  3159   0.719E-01    0.896E-01
RMM:   3    -0.115330657249E+04    0.20730E-02   -0.17970E-02  3331   0.240E-01    0.485E-01
RMM:   4    -0.115330549581E+04    0.10767E-02   -0.69403E-03  3817   0.864E-02    0.298E-01
RMM:   5    -0.115330524825E+04    0.24756E-03   -0.12481E-03  3684   0.346E-02    0.141E-01
RMM:   6    -0.115330525710E+04   -0.88486E-05   -0.32810E-04  2370   0.173E-02    0.693E-02
RMM:   7    -0.115330525211E+04    0.49849E-05   -0.12824E-04  1891   0.141E-02    0.268E-02
RMM:   8    -0.115330524902E+04    0.30970E-05   -0.79718E-05  1829   0.111E-02
  10 F= -.11533052E+04 E0= -.11533052E+04  d E =-.377048E-01  mag=    20.0000
       N       E                     dE             d eps       ncg     rms          rms(c)
DAV:   1    -0.115325142083E+04    0.53831E-01   -0.56758E+01  3168   0.884E+00    0.270E+00
RMM:   2    -0.115335347471E+04   -0.10205E+00   -0.15030E+00  3163   0.156E+00    0.194E+00
RMM:   3    -0.115334448829E+04    0.89864E-02   -0.82996E-02  3322   0.518E-01    0.106E+00
RMM:   4    -0.115333935186E+04    0.51364E-02   -0.30072E-02  3730   0.184E-01    0.673E-01
RMM:   5    -0.115333802334E+04    0.13285E-02   -0.56318E-03  4167   0.755E-02    0.311E-01
RMM:   6    -0.115333815469E+04   -0.13135E-03   -0.17524E-03  4299   0.362E-02    0.153E-01
RMM:   7    -0.115333819623E+04   -0.41541E-04   -0.64059E-04  3377   0.226E-02    0.594E-02
RMM:   8    -0.115333819207E+04    0.41588E-05   -0.28528E-04  2355   0.161E-02
  11 F= -.11533382E+04 E0= -.11533382E+04  d E =-.706478E-01  mag=    20.0000
       N       E                     dE             d eps       ncg     rms          rms(c)
DAV:   1    -0.115335097956E+04   -0.12783E-01   -0.49935E+00  3248   0.260E+00    0.829E-01
RMM:   2    -0.115335983687E+04   -0.88573E-02   -0.11891E-01  3095   0.451E-01    0.526E-01
RMM:   3    -0.115335930671E+04    0.53016E-03   -0.75868E-03  3289   0.147E-01    0.320E-01
RMM:   4    -0.115335827005E+04    0.10367E-02   -0.29365E-03  3432   0.606E-02    0.113E-01
RMM:   5    -0.115335823096E+04    0.39094E-04   -0.39662E-04  2646   0.259E-02    0.583E-02
RMM:   6    -0.115335823720E+04   -0.62395E-05   -0.10271E-04  1875   0.115E-02    0.294E-02
RMM:   7    -0.115335824252E+04   -0.53194E-05   -0.66104E-05  1841   0.950E-03    0.164E-02
RMM:   8    -0.115335824386E+04   -0.13451E-05   -0.25898E-05  1763   0.658E-03
  12 F= -.11533582E+04 E0= -.11533582E+04  d E =-.200518E-01  mag=    20.0000
       N       E                     dE             d eps       ncg     rms          rms(c)
DAV:   1    -0.115335316177E+04    0.50807E-02   -0.11816E+01  3072   0.400E+00    0.127E+00
RMM:   2    -0.115337389214E+04   -0.20730E-01   -0.27911E-01  3090   0.693E-01    0.808E-01
RMM:   3    -0.115337264113E+04    0.12510E-02   -0.17582E-02  3294   0.225E-01    0.492E-01
RMM:   4    -0.115337018182E+04    0.24593E-02   -0.67627E-03  3402   0.924E-02    0.174E-01
RMM:   5    -0.115337009431E+04    0.87505E-04   -0.93037E-04  3287   0.369E-02    0.849E-02
RMM:   6    -0.115337010393E+04   -0.96204E-05   -0.20045E-04  2193   0.144E-02    0.461E-02
RMM:   7    -0.115337011348E+04   -0.95498E-05   -0.95826E-05  1923   0.105E-02    0.199E-02
RMM:   8    -0.115337011593E+04   -0.24419E-05   -0.39187E-05  1811   0.774E-03
  13 F= -.11533701E+04 E0= -.11533701E+04  d E =-.319239E-01  mag=    20.0000
       N       E                     dE             d eps       ncg     rms          rms(c)
DAV:   1    -0.115337787387E+04   -0.77604E-02   -0.78892E+00  3104   0.327E+00    0.103E+00
RMM:   2    -0.115338856896E+04   -0.10695E-01   -0.20286E-01  3102   0.572E-01    0.725E-01
RMM:   3    -0.115338662397E+04    0.19450E-02   -0.11510E-02  3213   0.195E-01    0.398E-01
RMM:   4    -0.115338533258E+04    0.12914E-02   -0.42031E-03  3604   0.703E-02    0.207E-01
RMM:   5    -0.115338513115E+04    0.20143E-03   -0.85911E-04  3351   0.327E-02    0.968E-02
RMM:   6    -0.115338514210E+04   -0.10951E-04   -0.18477E-04  2141   0.157E-02    0.518E-02
RMM:   7    -0.115338516171E+04   -0.19603E-04   -0.85078E-05  1839   0.113E-02    0.304E-02
RMM:   8    -0.115338517092E+04   -0.92149E-05   -0.48253E-05  1805   0.889E-03
  14 F= -.11533852E+04 E0= -.11533852E+04  d E =-.150550E-01  mag=    20.0000
       N       E                     dE             d eps       ncg     rms          rms(c)
DAV:   1    -0.115338499786E+04    0.16384E-03   -0.22205E+00  3184   0.174E+00    0.546E-01
RMM:   2    -0.115338803392E+04   -0.30361E-02   -0.56961E-02  3097   0.303E-01    0.384E-01
RMM:   3    -0.115338750491E+04    0.52901E-03   -0.32911E-03  3156   0.104E-01    0.211E-01
RMM:   4    -0.115338715677E+04    0.34814E-03   -0.12006E-03  3425   0.380E-02    0.109E-01
RMM:   5    -0.115338710349E+04    0.53281E-04   -0.22431E-04  2052   0.205E-02    0.538E-02
RMM:   6    -0.115338711183E+04   -0.83400E-05   -0.73007E-05  1801   0.116E-02    0.376E-02
RMM:   7    -0.115338711968E+04   -0.78481E-05   -0.35046E-05  1781   0.936E-03    0.252E-02
RMM:   8    -0.115338712648E+04   -0.68041E-05   -0.24212E-05  1730   0.600E-03
  15 F= -.11533871E+04 E0= -.11533871E+04  d E =-.170106E-01  mag=    20.0000
       N       E                     dE             d eps       ncg     rms          rms(c)
DAV:   1    -0.115338605048E+04    0.10692E-02   -0.62924E+00  3160   0.290E+00    0.614E-01
RMM:   2    -0.115339931015E+04   -0.13260E-01   -0.15062E-01  3090   0.484E-01    0.436E-01
RMM:   3    -0.115339912712E+04    0.18303E-03   -0.78921E-03  3087   0.172E-01    0.269E-01
RMM:   4    -0.115339873649E+04    0.39063E-03   -0.22005E-03  3865   0.505E-02    0.146E-01
RMM:   5    -0.115339862258E+04    0.11391E-03   -0.74018E-04  3175   0.256E-02    0.665E-02
RMM:   6    -0.115339862510E+04   -0.25195E-05   -0.12056E-04  1857   0.138E-02    0.380E-02
RMM:   7    -0.115339862844E+04   -0.33374E-05   -0.59379E-05  1796   0.983E-03    0.210E-02
RMM:   8    -0.115339862926E+04   -0.82004E-06   -0.43202E-05  1763   0.874E-03
  16 F= -.11533986E+04 E0= -.11533986E+04  d E =-.115028E-01  mag=    20.0000
       N       E                     dE             d eps       ncg     rms          rms(c)
DAV:   1    -0.115338191629E+04    0.16712E-01   -0.11419E+01  3128   0.391E+00    0.822E-01
RMM:   2    -0.115340605606E+04   -0.24140E-01   -0.27374E-01  3090   0.651E-01    0.586E-01
RMM:   3    -0.115340570122E+04    0.35484E-03   -0.14210E-02  3119   0.229E-01    0.361E-01
RMM:   4    -0.115340498992E+04    0.71130E-03   -0.39137E-03  4049   0.672E-02    0.197E-01
RMM:   5    -0.115340478373E+04    0.20620E-03   -0.13502E-03  3612   0.337E-02    0.893E-02
RMM:   6    -0.115340479350E+04   -0.97735E-05   -0.24448E-04  2279   0.172E-02    0.456E-02
RMM:   7    -0.115340479917E+04   -0.56702E-05   -0.10516E-04  1902   0.114E-02    0.235E-02
RMM:   8    -0.115340480118E+04   -0.20063E-05   -0.78715E-05  1819   0.104E-02
  17 F= -.11534048E+04 E0= -.11534048E+04  d E =-.176747E-01  mag=    20.0000
       N       E                     dE             d eps       ncg     rms          rms(c)
DAV:   1    -0.115339958627E+04    0.52129E-02   -0.42747E+00  3088   0.242E+00    0.821E-01
RMM:   2    -0.115341112137E+04   -0.11535E-01   -0.10946E-01  3107   0.421E-01    0.516E-01
RMM:   3    -0.115341132354E+04   -0.20217E-03   -0.58339E-03  3167   0.141E-01    0.295E-01
RMM:   4    -0.115341058254E+04    0.74100E-03   -0.30422E-03  3437   0.591E-02    0.112E-01
RMM:   5    -0.115341053620E+04    0.46343E-04   -0.39324E-04  2559   0.243E-02    0.706E-02
RMM:   6    -0.115341054528E+04   -0.90776E-05   -0.10095E-04  1851   0.110E-02    0.338E-02
RMM:   7    -0.115341054933E+04   -0.40471E-05   -0.45878E-05  1818   0.939E-03    0.185E-02
RMM:   8    -0.115341055336E+04   -0.40312E-05   -0.30943E-05  1767   0.637E-03
  18 F= -.11534106E+04 E0= -.11534106E+04  d E =-.575218E-02  mag=    20.0000
       N       E                     dE             d eps       ncg     rms          rms(c)
DAV:   1    -0.115341054852E+04    0.80970E-06   -0.88069E-03  3432   0.110E-01    0.373E-02
RMM:   2    -0.115341056955E+04   -0.21038E-04   -0.20035E-04  1939   0.203E-02    0.241E-02
RMM:   3    -0.115341057235E+04   -0.28010E-05   -0.20741E-05  1695   0.898E-03    0.128E-02
RMM:   4    -0.115341057132E+04    0.10359E-05   -0.75078E-06  1539   0.391E-03    0.734E-03
RMM:   5    -0.115341057114E+04    0.17571E-06   -0.24204E-06  1098   0.291E-03    0.264E-03
RMM:   6    -0.115341057122E+04   -0.77780E-07   -0.99275E-07   602   0.201E-03    0.110E-03
RMM:   7    -0.115341057126E+04   -0.35070E-07   -0.59235E-07   567   0.204E-03    0.618E-04
RMM:   8    -0.115341057127E+04   -0.13635E-07   -0.29133E-07   436   0.182E-03
  19 F= -.11534106E+04 E0= -.11534106E+04  d E =-.577009E-02  mag=    20.0000
       N       E                     dE             d eps       ncg     rms          rms(c)
DAV:   1    -0.115341030627E+04    0.26498E-03   -0.84658E-01  3232   0.108E+00    0.281E-01
RMM:   2    -0.115341225355E+04   -0.19473E-02   -0.22093E-02  3098   0.192E-01    0.195E-01
RMM:   3    -0.115341222483E+04    0.28721E-04   -0.11527E-03  3011   0.627E-02    0.108E-01
RMM:   4    -0.115341215807E+04    0.66767E-04   -0.33197E-04  2121   0.214E-02    0.669E-02
RMM:   5    -0.115341214962E+04    0.84473E-05   -0.75088E-05  1765   0.138E-02    0.486E-02
RMM:   6    -0.115341215588E+04   -0.62615E-05   -0.37220E-05  1756   0.872E-03    0.199E-02
RMM:   7    -0.115341216109E+04   -0.52107E-05   -0.18514E-05  1701   0.670E-03    0.139E-02
RMM:   8    -0.115341216662E+04   -0.55272E-05   -0.13635E-05  1632   0.499E-03
  20 F= -.11534122E+04 E0= -.11534122E+04  d E =-.159535E-02  mag=    20.0000
