<?xml version="1.0" encoding="ISO-8859-1"?>
<modeling>
 <generator>
  <i name="program" type="string">vasp </i>
  <i name="version" type="string">5.4.1  </i>
  <i name="subversion" type="string">05Feb16 (build Jan 25 2017 20:16:33) complex                          parallel </i>
  <i name="platform" type="string">BWXE6 </i>
  <i name="date" type="string">2019 08 10 </i>
  <i name="time" type="string">23:04:31 </i>
 </generator>
 <incar>
  <i type="string" name="SYSTEM"> STF</i>
  <i type="string" name="PREC">normal</i>
  <i type="string" name="ALGO"> Fast</i>
  <i type="int" name="ISPIN">     2</i>
  <i type="int" name="NELM">    40</i>
  <i type="int" name="NELMIN">     8</i>
  <i type="int" name="IBRION">     2</i>
  <i name="EDIFF">      0.00010000</i>
  <i name="EDIFFG">     -0.03000000</i>
  <i type="int" name="NSW">    30</i>
  <i type="int" name="ISIF">     3</i>
  <i name="ENCUT">    520.00000000</i>
  <i type="int" name="NBANDS">   768</i>
  <v name="MAGMOM">      0.60000000      0.60000000      0.60000000      0.60000000      0.60000000      0.60000000      0.60000000      0.60000000      0.60000000      0.60000000      0.60000000      0.60000000      0.60000000      0.60000000      0.60000000      0.60000000      0.60000000      0.60000000      0.60000000      0.60000000
      0.60000000      0.60000000      0.60000000      0.60000000      0.60000000      0.60000000      0.60000000      0.60000000      0.60000000      0.60000000      0.60000000      0.60000000      0.60000000      0.60000000      0.60000000      0.60000000      0.60000000      0.60000000      0.60000000      0.60000000
      0.60000000      0.60000000      0.60000000      0.60000000      0.60000000      0.60000000      0.60000000      0.60000000      0.60000000      0.60000000      0.60000000      0.60000000      0.60000000      0.60000000      0.60000000      0.60000000      0.60000000      0.60000000      0.60000000      0.60000000
      5.00000000      5.00000000      5.00000000      5.00000000      0.60000000      0.60000000      0.60000000      0.60000000      0.60000000      0.60000000      0.60000000      0.60000000      0.60000000      0.60000000      0.60000000      0.60000000      0.60000000      0.60000000      0.60000000      0.60000000
      0.60000000      0.60000000      0.60000000      0.60000000      0.60000000      0.60000000      0.60000000      0.60000000      0.60000000      0.60000000      0.60000000      0.60000000      0.60000000      0.60000000      0.60000000      0.60000000      0.60000000      0.60000000      0.60000000      0.60000000
      0.60000000      0.60000000      0.60000000      0.60000000      0.60000000      0.60000000      0.60000000      0.60000000      0.60000000      0.60000000      0.60000000      0.60000000      0.60000000      0.60000000      0.60000000      0.60000000      0.60000000      0.60000000      0.60000000      0.60000000
      0.60000000      0.60000000      0.60000000      0.60000000      0.60000000      0.60000000      0.60000000      0.60000000      0.60000000      0.60000000      0.60000000      0.60000000      0.60000000      0.60000000      0.60000000      0.60000000      0.60000000      0.60000000      0.60000000      0.60000000
      0.60000000      0.60000000      0.60000000      0.60000000      0.60000000      0.60000000      0.60000000      0.60000000      0.60000000      0.60000000      0.60000000      0.60000000      0.60000000      0.60000000      0.60000000      0.60000000      0.60000000      0.60000000</v>
  <i type="string" name="LREAL"> Auto</i>
  <i type="int" name="ISMEAR">     0</i>
  <i name="SIGMA">      0.05000000</i>
  <i type="int" name="LMAXMIX">     4</i>
  <v type="int" name="KPOINT_BSE">    -1     0     0     0</v>
  <i type="int" name="NELM">    40</i>
  <i type="logical" name="LDAU"> T  </i>
  <v type="int" name="LDAUTYPE">     2</v>
  <v type="int" name="LDAUL">     0     2     2     0</v>
  <v name="LDAUU">      0.00000000      3.00000000      5.00000000      0.00000000</v>
  <v name="LDAUJ">      0.00000000      0.00000000      0.00000000      0.00000000</v>
  <i type="int" name="LDAUPRINT">     1</i>
 </incar>
 <kpoints>
  <generation param="Monkhorst-Pack">
   <v type="int" name="divisions">       2        2        2 </v>
   <v name="usershift">      0.00000000       0.00000000       0.00000000 </v>
   <v name="genvec1">      0.50000000       0.00000000       0.00000000 </v>
   <v name="genvec2">      0.00000000       0.50000000       0.00000000 </v>
   <v name="genvec3">      0.00000000       0.00000000       0.50000000 </v>
   <v name="shift">      0.50000000       0.50000000       0.50000000 </v>
  </generation>
  <varray name="kpointlist" >
   <v>       0.25000000       0.25000000       0.25000000 </v>
  </varray>
  <varray name="weights" >
   <v>       1.00000000 </v>
  </varray>
 </kpoints>
 <parameters>
  <separator name="general" >
   <i type="string" name="SYSTEM">STF</i>
   <i type="logical" name="LCOMPAT"> F  </i>
  </separator>
  <separator name="electronic" >
   <i type="string" name="PREC">normal</i>
   <i name="ENMAX">    520.00000000</i>
   <i name="ENAUG">    605.39200000</i>
   <i name="EDIFF">      0.00010000</i>
   <i type="int" name="IALGO">    68</i>
   <i type="int" name="IWAVPR">    11</i>
   <i type="int" name="NBANDS">   768</i>
   <i name="NELECT">   1028.00000000</i>
   <i type="int" name="TURBO">     0</i>
   <i type="int" name="IRESTART">     0</i>
   <i type="int" name="NREBOOT">     0</i>
   <i type="int" name="NMIN">     0</i>
   <i name="EREF">      0.00000000</i>
   <separator name="electronic smearing" >
    <i type="int" name="ISMEAR">     0</i>
    <i name="SIGMA">      0.05000000</i>
    <i name="KSPACING">      0.50000000</i>
    <i type="logical" name="KGAMMA"> T  </i>
   </separator>
   <separator name="electronic projectors" >
    <i type="logical" name="LREAL"> T  </i>
    <v name="ROPT">     -0.00050000     -0.00050000     -0.00050000     -0.00050000</v>
    <i type="int" name="LMAXPAW">  -100</i>
    <i type="int" name="LMAXMIX">     4</i>
    <i type="logical" name="NLSPLINE"> F  </i>
   </separator>
   <separator name="electronic startup" >
    <i type="int" name="ISTART">     0</i>
    <i type="int" name="ICHARG">     2</i>
    <i type="int" name="INIWAV">     1</i>
   </separator>
   <separator name="electronic spin" >
    <i type="int" name="ISPIN">     2</i>
    <i type="logical" name="LNONCOLLINEAR"> F  </i>
    <v name="MAGMOM">      0.60000000      0.60000000      0.60000000      0.60000000      0.60000000      0.60000000      0.60000000      0.60000000      0.60000000      0.60000000      0.60000000      0.60000000      0.60000000      0.60000000      0.60000000      0.60000000      0.60000000      0.60000000      0.60000000      0.60000000
      0.60000000      0.60000000      0.60000000      0.60000000      0.60000000      0.60000000      0.60000000      0.60000000      0.60000000      0.60000000      0.60000000      0.60000000      0.60000000      0.60000000      0.60000000      0.60000000      0.60000000      0.60000000      0.60000000      0.60000000
      0.60000000      0.60000000      0.60000000      0.60000000      0.60000000      0.60000000      0.60000000      0.60000000      0.60000000      0.60000000      0.60000000      0.60000000      0.60000000      0.60000000      0.60000000      0.60000000      0.60000000      0.60000000      0.60000000      0.60000000
      5.00000000      5.00000000      5.00000000      5.00000000      0.60000000      0.60000000      0.60000000      0.60000000      0.60000000      0.60000000      0.60000000      0.60000000      0.60000000      0.60000000      0.60000000      0.60000000      0.60000000      0.60000000      0.60000000      0.60000000
      0.60000000      0.60000000      0.60000000      0.60000000      0.60000000      0.60000000      0.60000000      0.60000000      0.60000000      0.60000000      0.60000000      0.60000000      0.60000000      0.60000000      0.60000000      0.60000000      0.60000000      0.60000000      0.60000000      0.60000000
      0.60000000      0.60000000      0.60000000      0.60000000      0.60000000      0.60000000      0.60000000      0.60000000      0.60000000      0.60000000      0.60000000      0.60000000      0.60000000      0.60000000      0.60000000      0.60000000      0.60000000      0.60000000      0.60000000      0.60000000
      0.60000000      0.60000000      0.60000000      0.60000000      0.60000000      0.60000000      0.60000000      0.60000000      0.60000000      0.60000000      0.60000000      0.60000000      0.60000000      0.60000000      0.60000000      0.60000000      0.60000000      0.60000000      0.60000000      0.60000000
      0.60000000      0.60000000      0.60000000      0.60000000      0.60000000      0.60000000      0.60000000      0.60000000      0.60000000      0.60000000      0.60000000      0.60000000      0.60000000      0.60000000      0.60000000      0.60000000      0.60000000      0.60000000</v>
    <i name="NUPDOWN">     -1.00000000</i>
    <i type="logical" name="LSORBIT"> F  </i>
    <v name="SAXIS">      0.00000000      0.00000000      1.00000000</v>
    <i type="logical" name="LSPIRAL"> F  </i>
    <v name="QSPIRAL">      0.00000000      0.00000000      0.00000000</v>
    <i type="logical" name="LZEROZ"> F  </i>
   </separator>
   <separator name="electronic exchange-correlation" >
    <i type="logical" name="LASPH"> F  </i>
    <i type="logical" name="LMETAGGA"> F  </i>
   </separator>
   <separator name="electronic convergence" >
    <i type="int" name="NELM">    40</i>
    <i type="int" name="NELMDL">    -5</i>
    <i type="int" name="NELMIN">     8</i>
    <i name="ENINI">    520.00000000</i>
    <separator name="electronic convergence detail" >
     <i type="logical" name="LDIAG"> T  </i>
     <i type="logical" name="LSUBROT"> F  </i>
     <i name="WEIMIN">      0.00100000</i>
     <i name="EBREAK">      0.00000003</i>
     <i name="DEPER">      0.30000000</i>
     <i type="int" name="NRMM">     4</i>
     <i name="TIME">      0.40000000</i>
    </separator>
   </separator>
   <separator name="electronic mixer" >
    <i name="AMIX">      0.40000000</i>
    <i name="BMIX">      1.00000000</i>
    <i name="AMIN">      0.10000000</i>
    <i name="AMIX_MAG">      1.60000000</i>
    <i name="BMIX_MAG">      1.00000000</i>
    <separator name="electronic mixer details" >
     <i type="int" name="IMIX">     4</i>
     <i type="logical" name="MIXFIRST"> F  </i>
     <i type="int" name="MAXMIX">   -45</i>
     <i name="WC">    100.00000000</i>
     <i type="int" name="INIMIX">     1</i>
     <i type="int" name="MIXPRE">     1</i>
     <i type="int" name="MREMOVE">     5</i>
    </separator>
   </separator>
   <separator name="electronic dipolcorrection" >
    <i type="logical" name="LDIPOL"> F  </i>
    <i type="logical" name="LMONO"> F  </i>
    <i type="int" name="IDIPOL">     0</i>
    <i name="EPSILON">      1.00000000</i>
    <v name="DIPOL">   -100.00000000   -100.00000000   -100.00000000</v>
    <i name="EFIELD">      0.00000000</i>
   </separator>
  </separator>
  <separator name="grids" >
   <i type="int" name="NGX">    64</i>
   <i type="int" name="NGY">    64</i>
   <i type="int" name="NGZ">    90</i>
   <i type="int" name="NGXF">   128</i>
   <i type="int" name="NGYF">   128</i>
   <i type="int" name="NGZF">   180</i>
   <i type="logical" name="ADDGRID"> F  </i>
  </separator>
  <separator name="ionic" >
   <i type="int" name="NSW">    30</i>
   <i type="int" name="IBRION">     2</i>
   <i type="int" name="ISIF">     3</i>
   <i name="PSTRESS">      0.00000000</i>
   <i name="EDIFFG">     -0.03000000</i>
   <i type="int" name="NFREE">     1</i>
   <i name="POTIM">      0.50000000</i>
   <i name="SMASS">     -3.00000000</i>
   <i name="SCALEE">      1.00000000</i>
  </separator>
  <separator name="ionic md" >
   <i name="TEBEG">      0.00010000</i>
   <i name="TEEND">      0.00010000</i>
   <i type="int" name="NBLOCK">     1</i>
   <i type="int" name="KBLOCK">    30</i>
   <i type="int" name="NPACO">   256</i>
   <i name="APACO">     16.00000000</i>
  </separator>
  <separator name="symmetry" >
   <i type="int" name="ISYM">     2</i>
   <i name="SYMPREC">      0.00001000</i>
  </separator>
  <separator name="dos" >
   <i type="logical" name="LORBIT"> F  </i>
   <v name="RWIGS">     -1.00000000     -1.00000000     -1.00000000     -1.00000000</v>
   <i type="int" name="NEDOS">   301</i>
   <i name="EMIN">     10.00000000</i>
   <i name="EMAX">    -10.00000000</i>
   <i name="EFERMI">      0.00000000</i>
  </separator>
  <separator name="writing" >
   <i type="int" name="NWRITE">     2</i>
   <i type="logical" name="LWAVE"> T  </i>
   <i type="logical" name="LCHARG"> T  </i>
   <i type="logical" name="LPARD"> F  </i>
   <i type="logical" name="LVTOT"> F  </i>
   <i type="logical" name="LVHAR"> F  </i>
   <i type="logical" name="LELF"> F  </i>
   <i type="logical" name="LOPTICS"> F  </i>
   <v name="STM">      0.00000000      0.00000000      0.00000000      0.00000000      0.00000000      0.00000000      0.00000000</v>
  </separator>
  <separator name="performance" >
   <i type="int" name="NPAR">     2</i>
   <i type="int" name="NSIM">     4</i>
   <i type="int" name="NBLK">    -1</i>
   <i type="logical" name="LPLANE"> T  </i>
   <i type="logical" name="LSCALAPACK"> T  </i>
   <i type="logical" name="LSCAAWARE"> F  </i>
   <i type="logical" name="LSCALU"> F  </i>
   <i type="logical" name="LASYNC"> F  </i>
   <i type="logical" name="LORBITALREAL"> F  </i>
  </separator>
  <separator name="miscellaneous" >
   <i type="int" name="IDIOT">     3</i>
   <i type="logical" name="LMUSIC"> F  </i>
   <v name="POMASS">     87.62000000     47.88000000     55.84700000     16.00000000</v>
   <v name="DARWINR">      0.00000000      0.00000000      0.00000000      0.00000000</v>
   <v name="DARWINV">      1.00000000      1.00000000      1.00000000      1.00000000</v>
   <i type="logical" name="LCORR"> T  </i>
  </separator>
  <i type="logical" name="GGA_COMPAT"> T  </i>
  <i type="logical" name="LBERRY"> F  </i>
  <i type="int" name="ICORELEVEL">     0</i>
  <i type="logical" name="LDAU"> T  </i>
  <v type="int" name="LDAUTYPE">     2</v>
  <v type="int" name="LDAUL">     0</v>
  <v name="LDAUU">      0.00000000</v>
  <v name="LDAUJ">      0.00000000</v>
  <i type="int" name="LDAUPRINT">     1</i>
  <i type="int" name="I_CONSTRAINED_M">     0</i>
  <separator name="electronic exchange-correlation" >
   <i type="string" name="GGA">--</i>
   <i type="int" name="VOSKOWN">     0</i>
   <i type="logical" name="LHFCALC"> F  </i>
   <i type="string" name="PRECFOCK"></i>
   <i type="logical" name="LSYMGRAD"> F  </i>
   <i type="logical" name="LHFONE"> F  </i>
   <i type="logical" name="LRHFCALC"> F  </i>
   <i type="logical" name="LTHOMAS"> F  </i>
   <i type="logical" name="LMODELHF"> F  </i>
   <i name="ENCUT4O">     -1.00000000</i>
   <i type="int" name="EXXOEP">     0</i>
   <i type="int" name="FOURORBIT">     0</i>
   <i name="AEXX">      0.00000000</i>
   <i name="HFALPHA">      0.00000000</i>
   <i name="MCALPHA">      0.00000000</i>
   <i name="ALDAX">      1.00000000</i>
   <i name="AGGAX">      1.00000000</i>
   <i name="ALDAC">      1.00000000</i>
   <i name="AGGAC">      1.00000000</i>
   <i type="int" name="NKREDX">     1</i>
   <i type="int" name="NKREDY">     1</i>
   <i type="int" name="NKREDZ">     1</i>
   <i type="logical" name="SHIFTRED"> F  </i>
   <i type="logical" name="ODDONLY"> F  </i>
   <i type="logical" name="EVENONLY"> F  </i>
   <i type="int" name="LMAXFOCK">     0</i>
   <i type="int" name="NMAXFOCKAE">     0</i>
   <i type="logical" name="LFOCKAEDFT"> F  </i>
   <i name="HFSCREEN">      0.00000000</i>
   <i name="HFSCREENC">      0.00000000</i>
   <i type="int" name="NBANDSGWLOW">     0</i>
  </separator>
  <separator name="vdW DFT" >
   <i type="logical" name="LUSE_VDW"> F  </i>
   <i name="Zab_VDW">     -0.84910000</i>
   <i name="PARAM1">      0.12340000</i>
   <i name="PARAM2">      1.00000000</i>
   <i name="PARAM3">      0.00000000</i>
  </separator>
  <separator name="model GW" >
   <i type="int" name="MODEL_GW">     0</i>
   <i name="MODEL_EPS0">      7.61221335</i>
   <i name="MODEL_ALPHA">      1.00000000</i>
  </separator>
  <separator name="linear response parameters" >
   <i type="logical" name="LEPSILON"> F  </i>
   <i type="logical" name="LRPA"> F  </i>
   <i type="logical" name="LNABLA"> F  </i>
   <i type="logical" name="LVEL"> F  </i>
   <i type="int" name="KINTER">     0</i>
   <i name="CSHIFT">      0.10000000</i>
   <i name="OMEGAMAX">     -1.00000000</i>
   <i name="DEG_THRESHOLD">      0.00200000</i>
  </separator>
  <separator name="orbital magnetization" >
   <i type="logical" name="NUCIND"> F  </i>
   <v name="MAGPOS">      0.00000000      0.00000000      0.00000000</v>
   <i type="logical" name="LNICSALL"> T  </i>
   <i type="logical" name="ORBITALMAG"> F  </i>
   <i type="logical" name="LMAGBLOCH"> F  </i>
   <i type="logical" name="LCHIMAG"> F  </i>
   <i type="logical" name="LGAUGE"> T  </i>
   <i type="int" name="MAGATOM">     0</i>
   <v name="MAGDIPOL">      0.00000000      0.00000000      0.00000000</v>
   <v name="AVECCONST">      0.00000000      0.00000000      0.00000000</v>
  </separator>
  <separator name="response functions" >
   <i type="logical" name="LADDER"> F  </i>
   <i type="logical" name="LFXC"> F  </i>
   <i type="logical" name="LHARTREE"> T  </i>
   <i type="int" name="IBSE">     0</i>
   <v type="int" name="KPOINT">    -1     0     0     0</v>
   <i type="logical" name="LTCTE"> F  </i>
   <i type="logical" name="LTETE"> F  </i>
   <i type="logical" name="LTRIPLET"> F  </i>
   <i type="logical" name="LFXCEPS"> F  </i>
   <i type="logical" name="LFXHEG"> F  </i>
   <i type="int" name="NATURALO">     0</i>
   <i type="logical" name="L2ORDER"> F  </i>
   <i type="logical" name="LUSEW"> F  </i>
   <i name="ENCUTGW">     -2.00000000</i>
   <i name="ENCUTGWSOFT">     -2.00000000</i>
   <i name="ENCUTLF">     -1.00000000</i>
   <i type="int" name="LMAXMP2">    -1</i>
   <i name="SCISSOR">      0.00000000</i>
   <i type="int" name="NOMEGA">     0</i>
   <i type="int" name="NOMEGAR">     0</i>
   <i type="int" name="NBANDSGW">    -1</i>
   <i type="int" name="NBANDSO">    -1</i>
   <i type="int" name="NBANDSV">    -1</i>
   <i type="int" name="NELM">    40</i>
   <i type="int" name="NELMHF">     1</i>
   <i type="int" name="DIM">     3</i>
   <i type="int" name="ANTIRES">     0</i>
   <i name="OMEGAMAX">    -30.00000000</i>
   <i name="OMEGAMIN">    -30.00000000</i>
   <i name="OMEGATL">   -200.00000000</i>
   <i type="int" name="OMEGAGRID">     0</i>
   <i name="CSHIFT">     -0.10000000</i>
   <i type="logical" name="SELFENERGY"> F  </i>
   <i type="logical" name="LSPECTRAL"> F  </i>
   <i type="logical" name="LSPECTRALGW"> F  </i>
   <i type="logical" name="LSINGLES"> F  </i>
   <i type="logical" name="LFERMIGW"> F  </i>
   <i type="logical" name="ODDONLYGW"> F  </i>
   <i type="logical" name="EVENONLYGW"> F  </i>
   <i type="int" name="NKREDLFX">     1</i>
   <i type="int" name="NKREDLFY">     1</i>
   <i type="int" name="NKREDLFZ">     1</i>
   <i type="int" name="MAXMEM">  1800</i>
   <i type="int" name="TELESCOPE">     0</i>
   <i type="int" name="TAUPAR">     1</i>
   <i type="int" name="OMEGAPAR">    -1</i>
   <i name="LAMBDA">      1.00000000</i>
  </separator>
  <separator name="External order field" >
   <i name="OFIELD_KAPPA">      0.00000000</i>
   <v name="OFIELD_K">      0.00000000      0.00000000      0.00000000</v>
   <i name="OFIELD_Q6_NEAR">      0.00000000</i>
   <i name="OFIELD_Q6_FAR">      0.00000000</i>
   <i name="OFIELD_A">      0.00000000</i>
  </separator>
 </parameters>
 <atominfo>
  <atoms>     158 </atoms>
  <types>       4 </types>
  <array name="atoms" >
   <dimension dim="1">ion</dimension>
   <field type="string">element</field>
   <field type="int">atomtype</field>
   <set>
    <rc><c>Sr</c><c>   1</c></rc>
    <rc><c>Sr</c><c>   1</c></rc>
    <rc><c>Sr</c><c>   1</c></rc>
    <rc><c>Sr</c><c>   1</c></rc>
    <rc><c>Sr</c><c>   1</c></rc>
    <rc><c>Sr</c><c>   1</c></rc>
    <rc><c>Sr</c><c>   1</c></rc>
    <rc><c>Sr</c><c>   1</c></rc>
    <rc><c>Sr</c><c>   1</c></rc>
    <rc><c>Sr</c><c>   1</c></rc>
    <rc><c>Sr</c><c>   1</c></rc>
    <rc><c>Sr</c><c>   1</c></rc>
    <rc><c>Sr</c><c>   1</c></rc>
    <rc><c>Sr</c><c>   1</c></rc>
    <rc><c>Sr</c><c>   1</c></rc>
    <rc><c>Sr</c><c>   1</c></rc>
    <rc><c>Sr</c><c>   1</c></rc>
    <rc><c>Sr</c><c>   1</c></rc>
    <rc><c>Sr</c><c>   1</c></rc>
    <rc><c>Sr</c><c>   1</c></rc>
    <rc><c>Sr</c><c>   1</c></rc>
    <rc><c>Sr</c><c>   1</c></rc>
    <rc><c>Sr</c><c>   1</c></rc>
    <rc><c>Sr</c><c>   1</c></rc>
    <rc><c>Sr</c><c>   1</c></rc>
    <rc><c>Sr</c><c>   1</c></rc>
    <rc><c>Sr</c><c>   1</c></rc>
    <rc><c>Sr</c><c>   1</c></rc>
    <rc><c>Sr</c><c>   1</c></rc>
    <rc><c>Sr</c><c>   1</c></rc>
    <rc><c>Sr</c><c>   1</c></rc>
    <rc><c>Sr</c><c>   1</c></rc>
    <rc><c>Ti</c><c>   2</c></rc>
    <rc><c>Ti</c><c>   2</c></rc>
    <rc><c>Ti</c><c>   2</c></rc>
    <rc><c>Ti</c><c>   2</c></rc>
    <rc><c>Ti</c><c>   2</c></rc>
    <rc><c>Ti</c><c>   2</c></rc>
    <rc><c>Ti</c><c>   2</c></rc>
    <rc><c>Ti</c><c>   2</c></rc>
    <rc><c>Ti</c><c>   2</c></rc>
    <rc><c>Ti</c><c>   2</c></rc>
    <rc><c>Ti</c><c>   2</c></rc>
    <rc><c>Ti</c><c>   2</c></rc>
    <rc><c>Ti</c><c>   2</c></rc>
    <rc><c>Ti</c><c>   2</c></rc>
    <rc><c>Ti</c><c>   2</c></rc>
    <rc><c>Ti</c><c>   2</c></rc>
    <rc><c>Ti</c><c>   2</c></rc>
    <rc><c>Ti</c><c>   2</c></rc>
    <rc><c>Ti</c><c>   2</c></rc>
    <rc><c>Ti</c><c>   2</c></rc>
    <rc><c>Ti</c><c>   2</c></rc>
    <rc><c>Ti</c><c>   2</c></rc>
    <rc><c>Ti</c><c>   2</c></rc>
    <rc><c>Ti</c><c>   2</c></rc>
    <rc><c>Ti</c><c>   2</c></rc>
    <rc><c>Ti</c><c>   2</c></rc>
    <rc><c>Ti</c><c>   2</c></rc>
    <rc><c>Ti</c><c>   2</c></rc>
    <rc><c>Fe</c><c>   3</c></rc>
    <rc><c>Fe</c><c>   3</c></rc>
    <rc><c>Fe</c><c>   3</c></rc>
    <rc><c>Fe</c><c>   3</c></rc>
    <rc><c>O </c><c>   4</c></rc>
    <rc><c>O </c><c>   4</c></rc>
    <rc><c>O </c><c>   4</c></rc>
    <rc><c>O </c><c>   4</c></rc>
    <rc><c>O </c><c>   4</c></rc>
    <rc><c>O </c><c>   4</c></rc>
    <rc><c>O </c><c>   4</c></rc>
    <rc><c>O </c><c>   4</c></rc>
    <rc><c>O </c><c>   4</c></rc>
    <rc><c>O </c><c>   4</c></rc>
    <rc><c>O </c><c>   4</c></rc>
    <rc><c>O </c><c>   4</c></rc>
    <rc><c>O </c><c>   4</c></rc>
    <rc><c>O </c><c>   4</c></rc>
    <rc><c>O </c><c>   4</c></rc>
    <rc><c>O </c><c>   4</c></rc>
    <rc><c>O </c><c>   4</c></rc>
    <rc><c>O </c><c>   4</c></rc>
    <rc><c>O </c><c>   4</c></rc>
    <rc><c>O </c><c>   4</c></rc>
    <rc><c>O </c><c>   4</c></rc>
    <rc><c>O </c><c>   4</c></rc>
    <rc><c>O </c><c>   4</c></rc>
    <rc><c>O </c><c>   4</c></rc>
    <rc><c>O </c><c>   4</c></rc>
    <rc><c>O </c><c>   4</c></rc>
    <rc><c>O </c><c>   4</c></rc>
    <rc><c>O </c><c>   4</c></rc>
    <rc><c>O </c><c>   4</c></rc>
    <rc><c>O </c><c>   4</c></rc>
    <rc><c>O </c><c>   4</c></rc>
    <rc><c>O </c><c>   4</c></rc>
    <rc><c>O </c><c>   4</c></rc>
    <rc><c>O </c><c>   4</c></rc>
    <rc><c>O </c><c>   4</c></rc>
    <rc><c>O </c><c>   4</c></rc>
    <rc><c>O </c><c>   4</c></rc>
    <rc><c>O </c><c>   4</c></rc>
    <rc><c>O </c><c>   4</c></rc>
    <rc><c>O </c><c>   4</c></rc>
    <rc><c>O </c><c>   4</c></rc>
    <rc><c>O </c><c>   4</c></rc>
    <rc><c>O </c><c>   4</c></rc>
    <rc><c>O </c><c>   4</c></rc>
    <rc><c>O </c><c>   4</c></rc>
    <rc><c>O </c><c>   4</c></rc>
    <rc><c>O </c><c>   4</c></rc>
    <rc><c>O </c><c>   4</c></rc>
    <rc><c>O </c><c>   4</c></rc>
    <rc><c>O </c><c>   4</c></rc>
    <rc><c>O </c><c>   4</c></rc>
    <rc><c>O </c><c>   4</c></rc>
    <rc><c>O </c><c>   4</c></rc>
    <rc><c>O </c><c>   4</c></rc>
    <rc><c>O </c><c>   4</c></rc>
    <rc><c>O </c><c>   4</c></rc>
    <rc><c>O </c><c>   4</c></rc>
    <rc><c>O </c><c>   4</c></rc>
    <rc><c>O </c><c>   4</c></rc>
    <rc><c>O </c><c>   4</c></rc>
    <rc><c>O </c><c>   4</c></rc>
    <rc><c>O </c><c>   4</c></rc>
    <rc><c>O </c><c>   4</c></rc>
    <rc><c>O </c><c>   4</c></rc>
    <rc><c>O </c><c>   4</c></rc>
    <rc><c>O </c><c>   4</c></rc>
    <rc><c>O </c><c>   4</c></rc>
    <rc><c>O </c><c>   4</c></rc>
    <rc><c>O </c><c>   4</c></rc>
    <rc><c>O </c><c>   4</c></rc>
    <rc><c>O </c><c>   4</c></rc>
    <rc><c>O </c><c>   4</c></rc>
    <rc><c>O </c><c>   4</c></rc>
    <rc><c>O </c><c>   4</c></rc>
    <rc><c>O </c><c>   4</c></rc>
    <rc><c>O </c><c>   4</c></rc>
    <rc><c>O </c><c>   4</c></rc>
    <rc><c>O </c><c>   4</c></rc>
    <rc><c>O </c><c>   4</c></rc>
    <rc><c>O </c><c>   4</c></rc>
    <rc><c>O </c><c>   4</c></rc>
    <rc><c>O </c><c>   4</c></rc>
    <rc><c>O </c><c>   4</c></rc>
    <rc><c>O </c><c>   4</c></rc>
    <rc><c>O </c><c>   4</c></rc>
    <rc><c>O </c><c>   4</c></rc>
    <rc><c>O </c><c>   4</c></rc>
    <rc><c>O </c><c>   4</c></rc>
    <rc><c>O </c><c>   4</c></rc>
    <rc><c>O </c><c>   4</c></rc>
    <rc><c>O </c><c>   4</c></rc>
    <rc><c>O </c><c>   4</c></rc>
    <rc><c>O </c><c>   4</c></rc>
    <rc><c>O </c><c>   4</c></rc>
   </set>
  </array>
  <array name="atomtypes" >
   <dimension dim="1">type</dimension>
   <field type="int">atomspertype</field>
   <field type="string">element</field>
   <field>mass</field>
   <field>valence</field>
   <field type="string">pseudopotential</field>
   <set>
    <rc><c>  32</c><c>Sr</c><c>     87.62000000</c><c>     10.00000000</c><c>  PAW_PBE Sr_sv 07Sep2000               </c></rc>
    <rc><c>  28</c><c>Ti</c><c>     47.88000000</c><c>      4.00000000</c><c>  PAW_PBE Ti 08Apr2002                  </c></rc>
    <rc><c>   4</c><c>Fe</c><c>     55.84700000</c><c>      8.00000000</c><c>  PAW_PBE Fe 06Sep2000                  </c></rc>
    <rc><c>  94</c><c>O </c><c>     16.00000000</c><c>      6.00000000</c><c>  PAW_PBE O 08Apr2002                   </c></rc>
   </set>
  </array>
 </atominfo>
 <structure name="initialpos" >
  <crystal>
   <varray name="basis" >
    <v>      11.19900000       0.00000000       0.00000000 </v>
    <v>       0.00000000      11.19900000       0.00000000 </v>
    <v>       0.00000000       0.00000000      15.98300000 </v>
   </varray>
   <i name="volume">   2004.54951678 </i>
   <varray name="rec_basis" >
    <v>       0.08929369       0.00000000       0.00000000 </v>
    <v>       0.00000000       0.08929369       0.00000000 </v>
    <v>       0.00000000       0.00000000       0.06256648 </v>
   </varray>
  </crystal>
  <varray name="positions" >
   <v>       0.00000000       0.25000000       0.12500000 </v>
   <v>       0.00000000       0.25000000       0.62500000 </v>
   <v>       0.00000000       0.75000000       0.12500000 </v>
   <v>       0.00000000       0.75000000       0.62500000 </v>
   <v>       0.50000000       0.25000000       0.12500000 </v>
   <v>       0.50000000       0.25000000       0.62500000 </v>
   <v>       0.50000000       0.75000000       0.12500000 </v>
   <v>       0.50000000       0.75000000       0.62500000 </v>
   <v>       0.00000000       0.25000000       0.37500000 </v>
   <v>       0.00000000       0.25000000       0.87500000 </v>
   <v>       0.00000000       0.75000000       0.37500000 </v>
   <v>       0.00000000       0.75000000       0.87500000 </v>
   <v>       0.50000000       0.25000000       0.37500000 </v>
   <v>       0.50000000       0.25000000       0.87500000 </v>
   <v>       0.50000000       0.75000000       0.37500000 </v>
   <v>       0.50000000       0.75000000       0.87500000 </v>
   <v>       0.25000000       0.00000000       0.12500000 </v>
   <v>       0.25000000       0.00000000       0.62500000 </v>
   <v>       0.25000000       0.50000000       0.12500000 </v>
   <v>       0.25000000       0.50000000       0.62500000 </v>
   <v>       0.75000000       0.00000000       0.12500000 </v>
   <v>       0.75000000       0.00000000       0.62500000 </v>
   <v>       0.75000000       0.50000000       0.12500000 </v>
   <v>       0.75000000       0.50000000       0.62500000 </v>
   <v>       0.25000000       0.00000000       0.37500000 </v>
   <v>       0.25000000       0.00000000       0.87500000 </v>
   <v>       0.25000000       0.50000000       0.37500000 </v>
   <v>       0.25000000       0.50000000       0.87500000 </v>
   <v>       0.75000000       0.00000000       0.37500000 </v>
   <v>       0.75000000       0.00000000       0.87500000 </v>
   <v>       0.75000000       0.50000000       0.37500000 </v>
   <v>       0.75000000       0.50000000       0.87500000 </v>
   <v>       0.00000000       0.00000000       0.50000000 </v>
   <v>       0.00000000       0.50000000       0.00000000 </v>
   <v>       0.00000000       0.50000000       0.50000000 </v>
   <v>       0.50000000       0.00000000       0.00000000 </v>
   <v>       0.50000000       0.50000000       0.00000000 </v>
   <v>       0.50000000       0.50000000       0.50000000 </v>
   <v>       0.25000000       0.25000000       0.00000000 </v>
   <v>       0.25000000       0.25000000       0.50000000 </v>
   <v>       0.25000000       0.75000000       0.00000000 </v>
   <v>       0.25000000       0.75000000       0.50000000 </v>
   <v>       0.75000000       0.25000000       0.00000000 </v>
   <v>       0.75000000       0.25000000       0.50000000 </v>
   <v>       0.75000000       0.75000000       0.00000000 </v>
   <v>       0.75000000       0.75000000       0.50000000 </v>
   <v>       0.25000000       0.25000000       0.25000000 </v>
   <v>       0.25000000       0.25000000       0.75000000 </v>
   <v>       0.25000000       0.75000000       0.25000000 </v>
   <v>       0.25000000       0.75000000       0.75000000 </v>
   <v>       0.75000000       0.25000000       0.25000000 </v>
   <v>       0.75000000       0.25000000       0.75000000 </v>
   <v>       0.75000000       0.75000000       0.25000000 </v>
   <v>       0.75000000       0.75000000       0.75000000 </v>
   <v>       0.00000000       0.00000000       0.75000000 </v>
   <v>       0.00000000       0.50000000       0.25000000 </v>
   <v>       0.00000000       0.50000000       0.75000000 </v>
   <v>       0.50000000       0.00000000       0.25000000 </v>
   <v>       0.50000000       0.50000000       0.25000000 </v>
   <v>       0.50000000       0.50000000       0.75000000 </v>
   <v>       0.00000000       0.00000000       0.00000000 </v>
   <v>       0.00000000       0.00000000       0.25000000 </v>
   <v>       0.50000000       0.00000000       0.75000000 </v>
   <v>       0.50000000       0.00000000       0.50000000 </v>
   <v>       0.00000000       0.00000000       0.62500000 </v>
   <v>       0.00000000       0.50000000       0.12500000 </v>
   <v>       0.00000000       0.50000000       0.62500000 </v>
   <v>       0.50000000       0.00000000       0.12500000 </v>
   <v>       0.50000000       0.50000000       0.12500000 </v>
   <v>       0.50000000       0.50000000       0.62500000 </v>
   <v>       0.00000000       0.00000000       0.37500000 </v>
   <v>       0.00000000       0.00000000       0.87500000 </v>
   <v>       0.00000000       0.50000000       0.37500000 </v>
   <v>       0.00000000       0.50000000       0.87500000 </v>
   <v>       0.50000000       0.00000000       0.37500000 </v>
   <v>       0.50000000       0.00000000       0.87500000 </v>
   <v>       0.50000000       0.50000000       0.37500000 </v>
   <v>       0.50000000       0.50000000       0.87500000 </v>
   <v>       0.25000000       0.25000000       0.37500000 </v>
   <v>       0.25000000       0.25000000       0.87500000 </v>
   <v>       0.25000000       0.75000000       0.37500000 </v>
   <v>       0.25000000       0.75000000       0.87500000 </v>
   <v>       0.75000000       0.25000000       0.37500000 </v>
   <v>       0.75000000       0.25000000       0.87500000 </v>
   <v>       0.75000000       0.75000000       0.37500000 </v>
   <v>       0.75000000       0.75000000       0.87500000 </v>
   <v>       0.25000000       0.25000000       0.12500000 </v>
   <v>       0.25000000       0.25000000       0.62500000 </v>
   <v>       0.25000000       0.75000000       0.12500000 </v>
   <v>       0.25000000       0.75000000       0.62500000 </v>
   <v>       0.75000000       0.25000000       0.12500000 </v>
   <v>       0.75000000       0.25000000       0.62500000 </v>
   <v>       0.75000000       0.75000000       0.12500000 </v>
   <v>       0.75000000       0.75000000       0.62500000 </v>
   <v>       0.10900000       0.14100000       0.25000000 </v>
   <v>       0.35900000       0.10900000       0.25000000 </v>
   <v>       0.60900000       0.14100000       0.25000000 </v>
   <v>       0.85900000       0.10900000       0.25000000 </v>
   <v>       0.14100000       0.39100000       0.25000000 </v>
   <v>       0.39100000       0.35900000       0.25000000 </v>
   <v>       0.64100000       0.39100000       0.25000000 </v>
   <v>       0.89100000       0.35900000       0.25000000 </v>
   <v>       0.10900000       0.64100000       0.25000000 </v>
   <v>       0.35900000       0.60900000       0.25000000 </v>
   <v>       0.60900000       0.64100000       0.25000000 </v>
   <v>       0.85900000       0.60900000       0.25000000 </v>
   <v>       0.14100000       0.89100000       0.25000000 </v>
   <v>       0.39100000       0.85900000       0.25000000 </v>
   <v>       0.64100000       0.89100000       0.25000000 </v>
   <v>       0.89100000       0.85900000       0.25000000 </v>
   <v>       0.14100000       0.10900000       0.50000000 </v>
   <v>       0.39100000       0.14100000       0.50000000 </v>
   <v>       0.64100000       0.10900000       0.50000000 </v>
   <v>       0.89100000       0.14100000       0.50000000 </v>
   <v>       0.10900000       0.35900000       0.50000000 </v>
   <v>       0.35900000       0.39100000       0.50000000 </v>
   <v>       0.60900000       0.35900000       0.50000000 </v>
   <v>       0.85900000       0.39100000       0.50000000 </v>
   <v>       0.14100000       0.60900000       0.50000000 </v>
   <v>       0.39100000       0.64100000       0.50000000 </v>
   <v>       0.64100000       0.60900000       0.50000000 </v>
   <v>       0.89100000       0.64100000       0.50000000 </v>
   <v>       0.10900000       0.85900000       0.50000000 </v>
   <v>       0.35900000       0.89100000       0.50000000 </v>
   <v>       0.60900000       0.85900000       0.50000000 </v>
   <v>       0.85900000       0.89100000       0.50000000 </v>
   <v>       0.10900000       0.14100000       0.75000000 </v>
   <v>       0.35900000       0.10900000       0.75000000 </v>
   <v>       0.60900000       0.14100000       0.75000000 </v>
   <v>       0.85900000       0.10900000       0.75000000 </v>
   <v>       0.14100000       0.39100000       0.75000000 </v>
   <v>       0.39100000       0.35900000       0.75000000 </v>
   <v>       0.64100000       0.39100000       0.75000000 </v>
   <v>       0.89100000       0.35900000       0.75000000 </v>
   <v>       0.10900000       0.64100000       0.75000000 </v>
   <v>       0.35900000       0.60900000       0.75000000 </v>
   <v>       0.60900000       0.64100000       0.75000000 </v>
   <v>       0.85900000       0.60900000       0.75000000 </v>
   <v>       0.14100000       0.89100000       0.75000000 </v>
   <v>       0.39100000       0.85900000       0.75000000 </v>
   <v>       0.64100000       0.89100000       0.75000000 </v>
   <v>       0.89100000       0.85900000       0.75000000 </v>
   <v>       0.14100000       0.10900000       0.00000000 </v>
   <v>       0.39100000       0.14100000       0.00000000 </v>
   <v>       0.64100000       0.10900000       0.00000000 </v>
   <v>       0.89100000       0.14100000       0.00000000 </v>
   <v>       0.10900000       0.35900000       0.00000000 </v>
   <v>       0.35900000       0.39100000       0.00000000 </v>
   <v>       0.60900000       0.35900000       0.00000000 </v>
   <v>       0.85900000       0.39100000       0.00000000 </v>
   <v>       0.14100000       0.60900000       0.00000000 </v>
   <v>       0.39100000       0.64100000       0.00000000 </v>
   <v>       0.64100000       0.60900000       0.00000000 </v>
   <v>       0.89100000       0.64100000       0.00000000 </v>
   <v>       0.10900000       0.85900000       0.00000000 </v>
   <v>       0.35900000       0.89100000       0.00000000 </v>
   <v>       0.60900000       0.85900000       0.00000000 </v>
   <v>       0.85900000       0.89100000       0.00000000 </v>
  </varray>
 </structure>
 <calculation>
  <scstep>
   <time name="dav">   70.64   70.65</time>
   <time name="total">   71.23   71.24</time>
   <energy>
    <i name="alphaZ">   5635.31984428 </i>
    <i name="ewald"> -61348.61444351 </i>
    <i name="hartreedc"> -14034.20862024 </i>
    <i name="XCdc">   2738.00623673 </i>
    <i name="pawpsdc">  58487.96789684 </i>
    <i name="pawaedc"> -57024.96744451 </i>
    <i name="eentropy">     -0.05867195 </i>
    <i name="bandstr">   5107.60562734 </i>
    <i name="atom">  72650.08363186 </i>
    <i name="e_fr_energy">  12211.13405685 </i>
    <i name="e_wo_entrp">  12211.19272880 </i>
    <i name="e_0_energy">  12211.16339282 </i>
   </energy>
  </scstep>
  <scstep>
   <time name="dav">   70.64   70.68</time>
   <time name="total">   70.65   70.74</time>
   <energy>
    <i name="e_fr_energy">    761.84764582 </i>
    <i name="e_wo_entrp">    761.84765264 </i>
    <i name="e_0_energy">    761.84764923 </i>
   </energy>
  </scstep>
  <scstep>
   <time name="dav">   75.60   75.62</time>
   <time name="total">   75.60   75.64</time>
   <energy>
    <i name="e_fr_energy">  -1339.43266366 </i>
    <i name="e_wo_entrp">  -1339.43266366 </i>
    <i name="e_0_energy">  -1339.43266366 </i>
   </energy>
  </scstep>
  <scstep>
   <time name="dav">   89.49   89.49</time>
   <time name="total">   89.50   89.58</time>
   <energy>
    <i name="e_fr_energy">  -1489.60852385 </i>
    <i name="e_wo_entrp">  -1489.60852385 </i>
    <i name="e_0_energy">  -1489.60852385 </i>
   </energy>
  </scstep>
  <scstep>
   <time name="dav">  117.07  117.07</time>
   <time name="total">  118.21  118.26</time>
   <energy>
    <i name="e_fr_energy">  -1499.60257267 </i>
    <i name="e_wo_entrp">  -1499.60257267 </i>
    <i name="e_0_energy">  -1499.60257267 </i>
   </energy>
  </scstep>
  <scstep>
   <time name="diag">    8.28    8.29</time>
   <time name="diis">   13.24   13.24</time>
   <time name="orth">    4.73    4.74</time>
   <time name="total">   27.99   28.03</time>
   <energy>
    <i name="e_fr_energy">  -1160.56173812 </i>
    <i name="e_wo_entrp">  -1160.56173812 </i>
    <i name="e_0_energy">  -1160.56173812 </i>
   </energy>
  </scstep>
  <scstep>
   <time name="diag">    8.31    8.31</time>
   <time name="diis">   13.42   13.42</time>
   <time name="orth">    4.73    4.73</time>
   <time name="total">   28.19   28.24</time>
   <energy>
    <i name="e_fr_energy">  -1140.51061689 </i>
    <i name="e_wo_entrp">  -1140.51061689 </i>
    <i name="e_0_energy">  -1140.51061689 </i>
   </energy>
  </scstep>
  <scstep>
   <time name="diag">    8.29    8.29</time>
   <time name="diis">   14.53   14.53</time>
   <time name="orth">    4.73    4.73</time>
   <time name="total">   29.27   29.28</time>
   <energy>
    <i name="e_fr_energy">  -1142.89204829 </i>
    <i name="e_wo_entrp">  -1142.89204829 </i>
    <i name="e_0_energy">  -1142.89204829 </i>
   </energy>
  </scstep>
  <scstep>
   <time name="diag">    8.30    8.30</time>
   <time name="diis">   13.34   13.34</time>
   <time name="orth">    4.74    4.74</time>
   <time name="total">   28.12   28.16</time>
   <energy>
    <i name="e_fr_energy">  -1147.71243011 </i>
    <i name="e_wo_entrp">  -1147.71243011 </i>
    <i name="e_0_energy">  -1147.71243011 </i>
   </energy>
  </scstep>
  <scstep>
   <time name="diag">    8.30    8.30</time>
   <time name="diis">   14.38   14.38</time>
   <time name="orth">    4.74    4.74</time>
   <time name="total">   29.15   29.16</time>
   <energy>
    <i name="e_fr_energy">  -1148.63371209 </i>
    <i name="e_wo_entrp">  -1148.63371209 </i>
    <i name="e_0_energy">  -1148.63371209 </i>
   </energy>
  </scstep>
  <scstep>
   <time name="diag">    8.29    8.29</time>
   <time name="diis">   15.26   15.26</time>
   <time name="orth">    4.74    4.74</time>
   <time name="total">   30.02   30.06</time>
   <energy>
    <i name="e_fr_energy">  -1149.81603037 </i>
    <i name="e_wo_entrp">  -1149.81603037 </i>
    <i name="e_0_energy">  -1149.81603037 </i>
   </energy>
  </scstep>
  <scstep>
   <time name="diag">    8.29    8.30</time>
   <time name="diis">   14.76   14.77</time>
   <time name="orth">    4.73    4.73</time>
   <time name="total">   29.51   29.53</time>
   <energy>
    <i name="e_fr_energy">  -1150.57709983 </i>
    <i name="e_wo_entrp">  -1150.57709983 </i>
    <i name="e_0_energy">  -1150.57709983 </i>
   </energy>
  </scstep>
  <scstep>
   <time name="diag">    8.27    8.27</time>
   <time name="diis">   15.47   15.48</time>
   <time name="orth">    4.74    4.73</time>
   <time name="total">   30.21   30.25</time>
   <energy>
    <i name="e_fr_energy">  -1150.83521708 </i>
    <i name="e_wo_entrp">  -1150.83521708 </i>
    <i name="e_0_energy">  -1150.83521708 </i>
   </energy>
  </scstep>
  <scstep>
   <time name="diag">    8.29    8.29</time>
   <time name="diis">   15.16   15.16</time>
   <time name="orth">    4.68    4.70</time>
   <time name="total">   29.86   30.03</time>
   <energy>
    <i name="e_fr_energy">  -1150.90046704 </i>
    <i name="e_wo_entrp">  -1150.90046704 </i>
    <i name="e_0_energy">  -1150.90046704 </i>
   </energy>
  </scstep>
  <scstep>
   <time name="diag">    8.28    8.28</time>
   <time name="diis">   15.56   15.57</time>
   <time name="orth">    4.72    4.72</time>
   <time name="total">   30.30   30.32</time>
   <energy>
    <i name="e_fr_energy">  -1150.91259660 </i>
    <i name="e_wo_entrp">  -1150.91259660 </i>
    <i name="e_0_energy">  -1150.91259660 </i>
   </energy>
  </scstep>
  <scstep>
   <time name="diag">    8.29    8.29</time>
   <time name="diis">   17.37   17.36</time>
   <time name="orth">    4.72    4.72</time>
   <time name="total">   32.12   32.13</time>
   <energy>
    <i name="e_fr_energy">  -1150.91634232 </i>
    <i name="e_wo_entrp">  -1150.91634232 </i>
    <i name="e_0_energy">  -1150.91634232 </i>
   </energy>
  </scstep>
  <scstep>
   <time name="diag">    8.29    8.30</time>
   <time name="diis">   14.50   14.50</time>
   <time name="orth">    4.72    4.72</time>
   <time name="total">   29.25   29.29</time>
   <energy>
    <i name="e_fr_energy">  -1150.91616023 </i>
    <i name="e_wo_entrp">  -1150.91616023 </i>
    <i name="e_0_energy">  -1150.91616023 </i>
   </energy>
  </scstep>
  <scstep>
   <time name="diag">    8.28    8.29</time>
   <time name="diis">   13.99   13.99</time>
   <time name="orth">    4.72    4.72</time>
   <time name="total">   28.74   28.75</time>
   <energy>
    <i name="e_fr_energy">  -1150.91640037 </i>
    <i name="e_wo_entrp">  -1150.91640037 </i>
    <i name="e_0_energy">  -1150.91640037 </i>
   </energy>
  </scstep>
  <scstep>
   <time name="diag">    8.29    8.29</time>
   <time name="diis">   11.24   11.24</time>
   <time name="orth">    4.71    4.71</time>
   <time name="total">   25.99   26.03</time>
   <energy>
    <i name="e_fr_energy">  -1150.91652259 </i>
    <i name="e_wo_entrp">  -1150.91652259 </i>
    <i name="e_0_energy">  -1150.91652259 </i>
   </energy>
  </scstep>
  <scstep>
   <time name="diag">    8.28    8.29</time>
   <time name="diis">   10.56   10.56</time>
   <time name="orth">    4.72    4.72</time>
   <time name="total">   24.15   24.17</time>
   <energy>
    <i name="alphaZ">   5635.31984428 </i>
    <i name="ewald"> -61348.61444351 </i>
    <i name="hartreedc"> -15158.53567545 </i>
    <i name="XCdc">   2850.67859566 </i>
    <i name="pawpsdc"> 111048.22883756 </i>
    <i name="pawaedc">-109796.20489578 </i>
    <i name="eentropy">     -0.00000000 </i>
    <i name="bandstr">  -7031.87249122 </i>
    <i name="atom">  72650.08363186 </i>
    <i name="e_fr_energy">  -1150.91659659 </i>
    <i name="e_wo_entrp">  -1150.91659659 </i>
    <i name="e_0_energy">  -1150.91659659 </i>
   </energy>
  </scstep>
  <structure>
   <crystal>
    <varray name="basis" >
     <v>      11.19900000       0.00000000       0.00000000 </v>
     <v>       0.00000000      11.19900000       0.00000000 </v>
     <v>       0.00000000       0.00000000      15.98300000 </v>
    </varray>
    <i name="volume">   2004.54951678 </i>
    <varray name="rec_basis" >
     <v>       0.08929369       0.00000000       0.00000000 </v>
     <v>       0.00000000       0.08929369       0.00000000 </v>
     <v>       0.00000000       0.00000000       0.06256648 </v>
    </varray>
   </crystal>
   <varray name="positions" >
    <v>       0.00000000       0.25000000       0.12500000 </v>
    <v>       0.00000000       0.25000000       0.62500000 </v>
    <v>       0.00000000       0.75000000       0.12500000 </v>
    <v>       0.00000000       0.75000000       0.62500000 </v>
    <v>       0.50000000       0.25000000       0.12500000 </v>
    <v>       0.50000000       0.25000000       0.62500000 </v>
    <v>       0.50000000       0.75000000       0.12500000 </v>
    <v>       0.50000000       0.75000000       0.62500000 </v>
    <v>       0.00000000       0.25000000       0.37500000 </v>
    <v>       0.00000000       0.25000000       0.87500000 </v>
    <v>       0.00000000       0.75000000       0.37500000 </v>
    <v>       0.00000000       0.75000000       0.87500000 </v>
    <v>       0.50000000       0.25000000       0.37500000 </v>
    <v>       0.50000000       0.25000000       0.87500000 </v>
    <v>       0.50000000       0.75000000       0.37500000 </v>
    <v>       0.50000000       0.75000000       0.87500000 </v>
    <v>       0.25000000       0.00000000       0.12500000 </v>
    <v>       0.25000000       0.00000000       0.62500000 </v>
    <v>       0.25000000       0.50000000       0.12500000 </v>
    <v>       0.25000000       0.50000000       0.62500000 </v>
    <v>       0.75000000       0.00000000       0.12500000 </v>
    <v>       0.75000000       0.00000000       0.62500000 </v>
    <v>       0.75000000       0.50000000       0.12500000 </v>
    <v>       0.75000000       0.50000000       0.62500000 </v>
    <v>       0.25000000       0.00000000       0.37500000 </v>
    <v>       0.25000000       0.00000000       0.87500000 </v>
    <v>       0.25000000       0.50000000       0.37500000 </v>
    <v>       0.25000000       0.50000000       0.87500000 </v>
    <v>       0.75000000       0.00000000       0.37500000 </v>
    <v>       0.75000000       0.00000000       0.87500000 </v>
    <v>       0.75000000       0.50000000       0.37500000 </v>
    <v>       0.75000000       0.50000000       0.87500000 </v>
    <v>       0.00000000       0.00000000       0.50000000 </v>
    <v>       0.00000000       0.50000000       0.00000000 </v>
    <v>       0.00000000       0.50000000       0.50000000 </v>
    <v>       0.50000000       0.00000000       0.00000000 </v>
    <v>       0.50000000       0.50000000       0.00000000 </v>
    <v>       0.50000000       0.50000000       0.50000000 </v>
    <v>       0.25000000       0.25000000       0.00000000 </v>
    <v>       0.25000000       0.25000000       0.50000000 </v>
    <v>       0.25000000       0.75000000       0.00000000 </v>
    <v>       0.25000000       0.75000000       0.50000000 </v>
    <v>       0.75000000       0.25000000       0.00000000 </v>
    <v>       0.75000000       0.25000000       0.50000000 </v>
    <v>       0.75000000       0.75000000       0.00000000 </v>
    <v>       0.75000000       0.75000000       0.50000000 </v>
    <v>       0.25000000       0.25000000       0.25000000 </v>
    <v>       0.25000000       0.25000000       0.75000000 </v>
    <v>       0.25000000       0.75000000       0.25000000 </v>
    <v>       0.25000000       0.75000000       0.75000000 </v>
    <v>       0.75000000       0.25000000       0.25000000 </v>
    <v>       0.75000000       0.25000000       0.75000000 </v>
    <v>       0.75000000       0.75000000       0.25000000 </v>
    <v>       0.75000000       0.75000000       0.75000000 </v>
    <v>       0.00000000       0.00000000       0.75000000 </v>
    <v>       0.00000000       0.50000000       0.25000000 </v>
    <v>       0.00000000       0.50000000       0.75000000 </v>
    <v>       0.50000000       0.00000000       0.25000000 </v>
    <v>       0.50000000       0.50000000       0.25000000 </v>
    <v>       0.50000000       0.50000000       0.75000000 </v>
    <v>       0.00000000       0.00000000       0.00000000 </v>
    <v>       0.00000000       0.00000000       0.25000000 </v>
    <v>       0.50000000       0.00000000       0.75000000 </v>
    <v>       0.50000000       0.00000000       0.50000000 </v>
    <v>       0.00000000       0.00000000       0.62500000 </v>
    <v>       0.00000000       0.50000000       0.12500000 </v>
    <v>       0.00000000       0.50000000       0.62500000 </v>
    <v>       0.50000000       0.00000000       0.12500000 </v>
    <v>       0.50000000       0.50000000       0.12500000 </v>
    <v>       0.50000000       0.50000000       0.62500000 </v>
    <v>       0.00000000       0.00000000       0.37500000 </v>
    <v>       0.00000000       0.00000000       0.87500000 </v>
    <v>       0.00000000       0.50000000       0.37500000 </v>
    <v>       0.00000000       0.50000000       0.87500000 </v>
    <v>       0.50000000       0.00000000       0.37500000 </v>
    <v>       0.50000000       0.00000000       0.87500000 </v>
    <v>       0.50000000       0.50000000       0.37500000 </v>
    <v>       0.50000000       0.50000000       0.87500000 </v>
    <v>       0.25000000       0.25000000       0.37500000 </v>
    <v>       0.25000000       0.25000000       0.87500000 </v>
    <v>       0.25000000       0.75000000       0.37500000 </v>
    <v>       0.25000000       0.75000000       0.87500000 </v>
    <v>       0.75000000       0.25000000       0.37500000 </v>
    <v>       0.75000000       0.25000000       0.87500000 </v>
    <v>       0.75000000       0.75000000       0.37500000 </v>
    <v>       0.75000000       0.75000000       0.87500000 </v>
    <v>       0.25000000       0.25000000       0.12500000 </v>
    <v>       0.25000000       0.25000000       0.62500000 </v>
    <v>       0.25000000       0.75000000       0.12500000 </v>
    <v>       0.25000000       0.75000000       0.62500000 </v>
    <v>       0.75000000       0.25000000       0.12500000 </v>
    <v>       0.75000000       0.25000000       0.62500000 </v>
    <v>       0.75000000       0.75000000       0.12500000 </v>
    <v>       0.75000000       0.75000000       0.62500000 </v>
    <v>       0.10900000       0.14100000       0.25000000 </v>
    <v>       0.35900000       0.10900000       0.25000000 </v>
    <v>       0.60900000       0.14100000       0.25000000 </v>
    <v>       0.85900000       0.10900000       0.25000000 </v>
    <v>       0.14100000       0.39100000       0.25000000 </v>
    <v>       0.39100000       0.35900000       0.25000000 </v>
    <v>       0.64100000       0.39100000       0.25000000 </v>
    <v>       0.89100000       0.35900000       0.25000000 </v>
    <v>       0.10900000       0.64100000       0.25000000 </v>
    <v>       0.35900000       0.60900000       0.25000000 </v>
    <v>       0.60900000       0.64100000       0.25000000 </v>
    <v>       0.85900000       0.60900000       0.25000000 </v>
    <v>       0.14100000       0.89100000       0.25000000 </v>
    <v>       0.39100000       0.85900000       0.25000000 </v>
    <v>       0.64100000       0.89100000       0.25000000 </v>
    <v>       0.89100000       0.85900000       0.25000000 </v>
    <v>       0.14100000       0.10900000       0.50000000 </v>
    <v>       0.39100000       0.14100000       0.50000000 </v>
    <v>       0.64100000       0.10900000       0.50000000 </v>
    <v>       0.89100000       0.14100000       0.50000000 </v>
    <v>       0.10900000       0.35900000       0.50000000 </v>
    <v>       0.35900000       0.39100000       0.50000000 </v>
    <v>       0.60900000       0.35900000       0.50000000 </v>
    <v>       0.85900000       0.39100000       0.50000000 </v>
    <v>       0.14100000       0.60900000       0.50000000 </v>
    <v>       0.39100000       0.64100000       0.50000000 </v>
    <v>       0.64100000       0.60900000       0.50000000 </v>
    <v>       0.89100000       0.64100000       0.50000000 </v>
    <v>       0.10900000       0.85900000       0.50000000 </v>
    <v>       0.35900000       0.89100000       0.50000000 </v>
    <v>       0.60900000       0.85900000       0.50000000 </v>
    <v>       0.85900000       0.89100000       0.50000000 </v>
    <v>       0.10900000       0.14100000       0.75000000 </v>
    <v>       0.35900000       0.10900000       0.75000000 </v>
    <v>       0.60900000       0.14100000       0.75000000 </v>
    <v>       0.85900000       0.10900000       0.75000000 </v>
    <v>       0.14100000       0.39100000       0.75000000 </v>
    <v>       0.39100000       0.35900000       0.75000000 </v>
    <v>       0.64100000       0.39100000       0.75000000 </v>
    <v>       0.89100000       0.35900000       0.75000000 </v>
    <v>       0.10900000       0.64100000       0.75000000 </v>
    <v>       0.35900000       0.60900000       0.75000000 </v>
    <v>       0.60900000       0.64100000       0.75000000 </v>
    <v>       0.85900000       0.60900000       0.75000000 </v>
    <v>       0.14100000       0.89100000       0.75000000 </v>
    <v>       0.39100000       0.85900000       0.75000000 </v>
    <v>       0.64100000       0.89100000       0.75000000 </v>
    <v>       0.89100000       0.85900000       0.75000000 </v>
    <v>       0.14100000       0.10900000       0.00000000 </v>
    <v>       0.39100000       0.14100000       0.00000000 </v>
    <v>       0.64100000       0.10900000       0.00000000 </v>
    <v>       0.89100000       0.14100000       0.00000000 </v>
    <v>       0.10900000       0.35900000       0.00000000 </v>
    <v>       0.35900000       0.39100000       0.00000000 </v>
    <v>       0.60900000       0.35900000       0.00000000 </v>
    <v>       0.85900000       0.39100000       0.00000000 </v>
    <v>       0.14100000       0.60900000       0.00000000 </v>
    <v>       0.39100000       0.64100000       0.00000000 </v>
    <v>       0.64100000       0.60900000       0.00000000 </v>
    <v>       0.89100000       0.64100000       0.00000000 </v>
    <v>       0.10900000       0.85900000       0.00000000 </v>
    <v>       0.35900000       0.89100000       0.00000000 </v>
    <v>       0.60900000       0.85900000       0.00000000 </v>
    <v>       0.85900000       0.89100000       0.00000000 </v>
   </varray>
  </structure>
  <varray name="forces" >
   <v>       0.00000000       0.81130429      -0.00000000 </v>
   <v>       0.00000000      -0.00207374      -0.00000000 </v>
   <v>       0.00000000      -0.81130429      -0.00000000 </v>
   <v>       0.00000000       0.00207374      -0.00000000 </v>
   <v>       0.00000000      -0.00207374      -0.00000000 </v>
   <v>       0.00000000       0.81130429      -0.00000000 </v>
   <v>       0.00000000       0.00207374      -0.00000000 </v>
   <v>       0.00000000      -0.81130429      -0.00000000 </v>
   <v>      -0.01691439      -0.16123634      -0.05217028 </v>
   <v>       0.01691439      -0.16123634       0.05217028 </v>
   <v>       0.01691439       0.16123634      -0.05217028 </v>
   <v>      -0.01691439       0.16123634       0.05217028 </v>
   <v>       0.01691439      -0.16123634       0.05217028 </v>
   <v>      -0.01691439      -0.16123634      -0.05217028 </v>
   <v>      -0.01691439       0.16123634       0.05217028 </v>
   <v>       0.01691439       0.16123634      -0.05217028 </v>
   <v>       0.83252877       0.00000000      -0.00000000 </v>
   <v>      -0.83252877       0.00000000      -0.00000000 </v>
   <v>       0.02046471       0.00000000      -0.00000000 </v>
   <v>      -0.02046471       0.00000000      -0.00000000 </v>
   <v>      -0.83252877       0.00000000      -0.00000000 </v>
   <v>       0.83252877       0.00000000      -0.00000000 </v>
   <v>      -0.02046471       0.00000000      -0.00000000 </v>
   <v>       0.02046471       0.00000000      -0.00000000 </v>
   <v>       0.00000000       0.03272996      -0.00000000 </v>
   <v>       0.00000000      -0.03272996      -0.00000000 </v>
   <v>       0.00000000      -0.00128930      -0.00000000 </v>
   <v>       0.00000000       0.00128930      -0.00000000 </v>
   <v>       0.00000000      -0.03272996      -0.00000000 </v>
   <v>       0.00000000       0.03272996      -0.00000000 </v>
   <v>       0.00000000       0.00128930      -0.00000000 </v>
   <v>       0.00000000      -0.00128930      -0.00000000 </v>
   <v>       0.00000000       0.00000000      -0.47877095 </v>
   <v>       0.00000000       0.00000000      -0.09015776 </v>
   <v>       0.00000000       0.00000000       0.00638945 </v>
   <v>       0.00000000       0.00000000      -0.47877095 </v>
   <v>       0.00000000       0.00000000       0.00638945 </v>
   <v>       0.00000000       0.00000000      -0.09015776 </v>
   <v>       0.02612566      -0.05686650       0.01118867 </v>
   <v>      -0.03510527      -0.08377381       0.01103343 </v>
   <v>       0.03510527       0.08377381       0.01103343 </v>
   <v>      -0.02612566       0.05686650       0.01118867 </v>
   <v>      -0.03510527      -0.08377381       0.01103343 </v>
   <v>       0.02612566      -0.05686650       0.01118867 </v>
   <v>      -0.02612566       0.05686650       0.01118867 </v>
   <v>       0.03510527       0.08377381       0.01103343 </v>
   <v>       0.03510527      -0.08377381      -0.01103343 </v>
   <v>      -0.02612566      -0.05686650      -0.01118867 </v>
   <v>       0.02612566       0.05686650      -0.01118867 </v>
   <v>      -0.03510527       0.08377381      -0.01103343 </v>
   <v>      -0.02612566      -0.05686650      -0.01118867 </v>
   <v>       0.03510527      -0.08377381      -0.01103343 </v>
   <v>      -0.03510527       0.08377381      -0.01103343 </v>
   <v>       0.02612566       0.05686650      -0.01118867 </v>
   <v>       0.00000000       0.00000000       0.47877095 </v>
   <v>       0.00000000       0.00000000       0.09015776 </v>
   <v>       0.00000000       0.00000000      -0.00638945 </v>
   <v>       0.00000000       0.00000000       0.47877095 </v>
   <v>       0.00000000       0.00000000      -0.00638945 </v>
   <v>       0.00000000       0.00000000       0.09015776 </v>
   <v>       0.00000000       0.00000000      -3.07963135 </v>
   <v>       0.00000000       0.00000000       3.07963135 </v>
   <v>       0.00000000       0.00000000       3.07963135 </v>
   <v>       0.00000000       0.00000000      -3.07963135 </v>
   <v>       0.00000000       0.00000000      -0.00000000 </v>
   <v>       0.00000000       0.00000000      -0.00000000 </v>
   <v>       0.00000000       0.00000000      -0.00000000 </v>
   <v>       0.00000000       0.00000000      -0.00000000 </v>
   <v>       0.00000000       0.00000000      -0.00000000 </v>
   <v>       0.00000000       0.00000000      -0.00000000 </v>
   <v>       0.00000000       0.00000000       0.05239119 </v>
   <v>       0.00000000       0.00000000      -0.05239119 </v>
   <v>       0.00000000       0.00000000      -0.02176058 </v>
   <v>       0.00000000       0.00000000       0.02176058 </v>
   <v>       0.00000000       0.00000000      -0.05239119 </v>
   <v>       0.00000000       0.00000000       0.05239119 </v>
   <v>       0.00000000       0.00000000       0.02176058 </v>
   <v>       0.00000000       0.00000000      -0.02176058 </v>
   <v>       0.00000000      -0.01265098      -0.00000000 </v>
   <v>       0.00000000      -0.03147220      -0.00000000 </v>
   <v>       0.00000000       0.03147220      -0.00000000 </v>
   <v>       0.00000000       0.01265098      -0.00000000 </v>
   <v>       0.00000000      -0.03147220      -0.00000000 </v>
   <v>       0.00000000      -0.01265098      -0.00000000 </v>
   <v>       0.00000000       0.01265098      -0.00000000 </v>
   <v>       0.00000000       0.03147220      -0.00000000 </v>
   <v>      -0.03554387      -0.00897174      -0.00011819 </v>
   <v>       0.03554387      -0.00897174       0.00011819 </v>
   <v>      -0.03554387       0.00897174       0.00011819 </v>
   <v>       0.03554387       0.00897174      -0.00011819 </v>
   <v>       0.03554387      -0.00897174       0.00011819 </v>
   <v>      -0.03554387      -0.00897174      -0.00011819 </v>
   <v>       0.03554387       0.00897174      -0.00011819 </v>
   <v>      -0.03554387       0.00897174       0.00011819 </v>
   <v>      -0.33116970      -0.41355933      -0.89214540 </v>
   <v>      -0.04072786       0.03977570      -0.09631240 </v>
   <v>       0.04824754       0.06352647      -0.06628507 </v>
   <v>       0.42832681      -0.31965036      -0.89623595 </v>
   <v>      -0.01558642       0.02407565      -0.01600543 </v>
   <v>       0.00168146       0.01234312      -0.01055694 </v>
   <v>       0.00253866       0.01320828      -0.00687524 </v>
   <v>       0.03212698       0.03833281      -0.04589022 </v>
   <v>      -0.03212698      -0.03833281      -0.04589022 </v>
   <v>      -0.00253866      -0.01320828      -0.00687524 </v>
   <v>      -0.00168146      -0.01234312      -0.01055694 </v>
   <v>       0.01558642      -0.02407565      -0.01600543 </v>
   <v>      -0.42832681       0.31965036      -0.89623595 </v>
   <v>      -0.04824754      -0.06352647      -0.06628507 </v>
   <v>       0.04072786      -0.03977570      -0.09631240 </v>
   <v>       0.33116970       0.41355933      -0.89214540 </v>
   <v>       0.04072786       0.03977570       0.09631240 </v>
   <v>       0.33116970      -0.41355933       0.89214540 </v>
   <v>      -0.42832681      -0.31965036       0.89623595 </v>
   <v>      -0.04824754       0.06352647       0.06628507 </v>
   <v>      -0.00168146       0.01234312       0.01055694 </v>
   <v>       0.01558642       0.02407565       0.01600543 </v>
   <v>      -0.03212698       0.03833281       0.04589022 </v>
   <v>      -0.00253866       0.01320828       0.00687524 </v>
   <v>       0.00253866      -0.01320828       0.00687524 </v>
   <v>       0.03212698      -0.03833281       0.04589022 </v>
   <v>      -0.01558642      -0.02407565       0.01600543 </v>
   <v>       0.00168146      -0.01234312       0.01055694 </v>
   <v>       0.04824754      -0.06352647       0.06628507 </v>
   <v>       0.42832681       0.31965036       0.89623595 </v>
   <v>      -0.33116970       0.41355933       0.89214540 </v>
   <v>      -0.04072786      -0.03977570       0.09631240 </v>
   <v>       0.04824754       0.06352647      -0.06628507 </v>
   <v>       0.42832681      -0.31965036      -0.89623595 </v>
   <v>      -0.33116970      -0.41355933      -0.89214540 </v>
   <v>      -0.04072786       0.03977570      -0.09631240 </v>
   <v>       0.00253866       0.01320828      -0.00687524 </v>
   <v>       0.03212698       0.03833281      -0.04589022 </v>
   <v>      -0.01558642       0.02407565      -0.01600543 </v>
   <v>       0.00168146       0.01234312      -0.01055694 </v>
   <v>      -0.00168146      -0.01234312      -0.01055694 </v>
   <v>       0.01558642      -0.02407565      -0.01600543 </v>
   <v>      -0.03212698      -0.03833281      -0.04589022 </v>
   <v>      -0.00253866      -0.01320828      -0.00687524 </v>
   <v>       0.04072786      -0.03977570      -0.09631240 </v>
   <v>       0.33116970       0.41355933      -0.89214540 </v>
   <v>      -0.42832681       0.31965036      -0.89623595 </v>
   <v>      -0.04824754      -0.06352647      -0.06628507 </v>
   <v>      -0.42832681      -0.31965036       0.89623595 </v>
   <v>      -0.04824754       0.06352647       0.06628507 </v>
   <v>       0.04072786       0.03977570       0.09631240 </v>
   <v>       0.33116970      -0.41355933       0.89214540 </v>
   <v>      -0.03212698       0.03833281       0.04589022 </v>
   <v>      -0.00253866       0.01320828       0.00687524 </v>
   <v>      -0.00168146       0.01234312       0.01055694 </v>
   <v>       0.01558642       0.02407565       0.01600543 </v>
   <v>      -0.01558642      -0.02407565       0.01600543 </v>
   <v>       0.00168146      -0.01234312       0.01055694 </v>
   <v>       0.00253866      -0.01320828       0.00687524 </v>
   <v>       0.03212698      -0.03833281       0.04589022 </v>
   <v>      -0.33116970       0.41355933       0.89214540 </v>
   <v>      -0.04072786      -0.03977570       0.09631240 </v>
   <v>       0.04824754      -0.06352647       0.06628507 </v>
   <v>       0.42832681       0.31965036       0.89623595 </v>
  </varray>
  <varray name="stress" >
   <v>      -1.99873091       0.00000000       0.00000000 </v>
   <v>       0.00000000      -1.98474897       0.00000000 </v>
   <v>       0.00000000       0.00000000     -12.06337576 </v>
  </varray>
  <energy>
   <i name="e_fr_energy">  -1150.91659659 </i>
   <i name="e_wo_entrp">  -1150.91659659 </i>
   <i name="e_0_energy">     -0.00000000 </i>
  </energy>
  <time name="totalsc">  919.42  921.36</time>
 </calculation>
 <calculation>
  <scstep>
   <time name="dav">   82.86   82.88</time>
   <time name="total">   84.57   84.62</time>
   <energy>
    <i name="alphaZ">   5670.03491100 </i>
    <i name="ewald"> -61378.02077911 </i>
    <i name="hartreedc"> -15281.96785041 </i>
    <i name="XCdc">   2879.92496362 </i>
    <i name="pawpsdc"> 111048.27784165 </i>
    <i name="pawaedc">-109796.21960859 </i>
    <i name="eentropy">     -0.00000000 </i>
    <i name="bandstr">  -6915.73070140 </i>
    <i name="atom">  72650.08363186 </i>
    <i name="e_fr_energy">  -1123.61759138 </i>
    <i name="e_wo_entrp">  -1123.61759138 </i>
    <i name="e_0_energy">  -1123.61759138 </i>
   </energy>
  </scstep>
  <scstep>
   <time name="diag">    8.29    8.29</time>
   <time name="diis">   13.76   13.77</time>
   <time name="orth">    4.72    4.72</time>
   <time name="total">   28.47   28.50</time>
   <energy>
    <i name="e_fr_energy">  -1152.55510198 </i>
    <i name="e_wo_entrp">  -1152.55510198 </i>
    <i name="e_0_energy">  -1152.55510198 </i>
   </energy>
  </scstep>
  <scstep>
   <time name="diag">    8.30    8.31</time>
   <time name="diis">   13.56   13.58</time>
   <time name="orth">    4.73    4.73</time>
   <time name="total">   28.31   28.36</time>
   <energy>
    <i name="e_fr_energy">  -1152.74615070 </i>
    <i name="e_wo_entrp">  -1152.74615070 </i>
    <i name="e_0_energy">  -1152.74615070 </i>
   </energy>
  </scstep>
  <scstep>
   <time name="diag">    8.30    8.30</time>
   <time name="diis">   13.92   13.93</time>
   <time name="orth">    4.72    4.73</time>
   <time name="total">   28.67   28.69</time>
   <energy>
    <i name="e_fr_energy">  -1152.66837107 </i>
    <i name="e_wo_entrp">  -1152.66837107 </i>
    <i name="e_0_energy">  -1152.66837107 </i>
   </energy>
  </scstep>
  <scstep>
   <time name="diag">    8.29    8.29</time>
   <time name="diis">   14.39   14.39</time>
   <time name="orth">    4.72    4.72</time>
   <time name="total">   29.12   29.13</time>
   <energy>
    <i name="e_fr_energy">  -1152.64498724 </i>
    <i name="e_wo_entrp">  -1152.64498724 </i>
    <i name="e_0_energy">  -1152.64498724 </i>
   </energy>
  </scstep>
  <scstep>
   <time name="diag">    8.30    8.30</time>
   <time name="diis">   15.00   15.00</time>
   <time name="orth">    4.72    4.72</time>
   <time name="total">   29.75   29.80</time>
   <energy>
    <i name="e_fr_energy">  -1152.63978419 </i>
    <i name="e_wo_entrp">  -1152.63978419 </i>
    <i name="e_0_energy">  -1152.63978419 </i>
   </energy>
  </scstep>
  <scstep>
   <time name="diag">    8.29    8.31</time>
   <time name="diis">   15.98   15.98</time>
   <time name="orth">    4.74    4.73</time>
   <time name="total">   30.73   30.77</time>
   <energy>
    <i name="e_fr_energy">  -1152.64310950 </i>
    <i name="e_wo_entrp">  -1152.64310950 </i>
    <i name="e_0_energy">  -1152.64310950 </i>
   </energy>
  </scstep>
  <scstep>
   <time name="diag">    8.28    8.28</time>
   <time name="diis">   18.45   18.45</time>
   <time name="orth">    4.70    4.71</time>
   <time name="total">   33.17   33.20</time>
   <energy>
    <i name="e_fr_energy">  -1152.64319198 </i>
    <i name="e_wo_entrp">  -1152.64319198 </i>
    <i name="e_0_energy">  -1152.64319198 </i>
   </energy>
  </scstep>
  <scstep>
   <time name="diag">    8.30    8.29</time>
   <time name="diis">   14.86   14.88</time>
   <time name="orth">    4.73    4.73</time>
   <time name="total">   29.59   29.68</time>
   <energy>
    <i name="e_fr_energy">  -1152.64269417 </i>
    <i name="e_wo_entrp">  -1152.64269417 </i>
    <i name="e_0_energy">  -1152.64269417 </i>
   </energy>
  </scstep>
  <scstep>
   <time name="diag">    8.28    8.29</time>
   <time name="diis">   11.56   11.56</time>
   <time name="orth">    4.72    4.72</time>
   <time name="total">   25.13   25.18</time>
   <energy>
    <i name="alphaZ">   5670.03491100 </i>
    <i name="ewald"> -61378.02077911 </i>
    <i name="hartreedc"> -15200.29074171 </i>
    <i name="XCdc">   2854.38615642 </i>
    <i name="pawpsdc"> 112674.18964024 </i>
    <i name="pawaedc">-111423.07019965 </i>
    <i name="eentropy">     -0.00000000 </i>
    <i name="bandstr">  -6999.95527339 </i>
    <i name="atom">  72650.08363186 </i>
    <i name="e_fr_energy">  -1152.64265433 </i>
    <i name="e_wo_entrp">  -1152.64265433 </i>
    <i name="e_0_energy">  -1152.64265433 </i>
   </energy>
  </scstep>
  <structure>
   <crystal>
    <varray name="basis" >
     <v>      11.19044906       0.00000000       0.00000000 </v>
     <v>       0.00000000      11.19050888       0.00000000 </v>
     <v>       0.00000000       0.00000000      15.90934411 </v>
    </varray>
    <i name="volume">   1992.27656409 </i>
    <varray name="rec_basis" >
     <v>       0.08936192       0.00000000       0.00000000 </v>
     <v>       0.00000000       0.08936144       0.00000000 </v>
     <v>       0.00000000       0.00000000       0.06285614 </v>
    </varray>
   </crystal>
   <varray name="positions" >
    <v>       0.00000000       0.25349491       0.12500000 </v>
    <v>       0.00000000       0.24999107       0.62500000 </v>
    <v>       0.00000000       0.74650509       0.12500000 </v>
    <v>       0.00000000       0.75000893       0.62500000 </v>
    <v>       0.50000000       0.24999107       0.12500000 </v>
    <v>       0.50000000       0.25349491       0.62500000 </v>
    <v>       0.50000000       0.75000893       0.12500000 </v>
    <v>       0.50000000       0.74650509       0.62500000 </v>
    <v>      -0.00007286       0.24930543       0.37484253 </v>
    <v>       0.00007286       0.24930543       0.87515747 </v>
    <v>       0.00007286       0.75069457       0.37484253 </v>
    <v>      -0.00007286       0.75069457       0.87515747 </v>
    <v>       0.50007286       0.24930543       0.37515747 </v>
    <v>       0.49992714       0.24930543       0.87484253 </v>
    <v>       0.49992714       0.75069457       0.37515747 </v>
    <v>       0.50007286       0.75069457       0.87484253 </v>
    <v>       0.25358634       0.00000000       0.12500000 </v>
    <v>       0.24641366       0.00000000       0.62500000 </v>
    <v>       0.25008816       0.50000000       0.12500000 </v>
    <v>       0.24991184       0.50000000       0.62500000 </v>
    <v>       0.74641366       0.00000000       0.12500000 </v>
    <v>       0.75358634       0.00000000       0.62500000 </v>
    <v>       0.74991184       0.50000000       0.12500000 </v>
    <v>       0.75008816       0.50000000       0.62500000 </v>
    <v>       0.25000000       0.00014099       0.37500000 </v>
    <v>       0.25000000      -0.00014099       0.87500000 </v>
    <v>       0.25000000       0.49999445       0.37500000 </v>
    <v>       0.25000000       0.50000555       0.87500000 </v>
    <v>       0.75000000      -0.00014099       0.37500000 </v>
    <v>       0.75000000       0.00014099       0.87500000 </v>
    <v>       0.75000000       0.50000555       0.37500000 </v>
    <v>       0.75000000       0.49999445       0.87500000 </v>
    <v>       0.00000000       0.00000000       0.49855489 </v>
    <v>       0.00000000       0.50000000      -0.00027213 </v>
    <v>       0.00000000       0.50000000       0.50001929 </v>
    <v>       0.50000000       0.00000000      -0.00144511 </v>
    <v>       0.50000000       0.50000000       0.00001929 </v>
    <v>       0.50000000       0.50000000       0.49972787 </v>
    <v>       0.25011254       0.24975503       0.00003377 </v>
    <v>       0.24984877       0.24963912       0.50003330 </v>
    <v>       0.25015123       0.75036088       0.00003330 </v>
    <v>       0.24988746       0.75024497       0.50003377 </v>
    <v>       0.74984877       0.24963912       0.00003330 </v>
    <v>       0.75011254       0.24975503       0.50003377 </v>
    <v>       0.74988746       0.75024497       0.00003377 </v>
    <v>       0.75015123       0.75036088       0.50003330 </v>
    <v>       0.25015123       0.24963912       0.24996670 </v>
    <v>       0.24988746       0.24975503       0.74996623 </v>
    <v>       0.25011254       0.75024497       0.24996623 </v>
    <v>       0.24984877       0.75036088       0.74996670 </v>
    <v>       0.74988746       0.24975503       0.24996623 </v>
    <v>       0.75015123       0.24963912       0.74996670 </v>
    <v>       0.74984877       0.75036088       0.24996670 </v>
    <v>       0.75011254       0.75024497       0.74996623 </v>
    <v>       0.00000000       0.00000000       0.75144511 </v>
    <v>       0.00000000       0.50000000       0.25027213 </v>
    <v>       0.00000000       0.50000000       0.74998071 </v>
    <v>       0.50000000       0.00000000       0.25144511 </v>
    <v>       0.50000000       0.50000000       0.24998071 </v>
    <v>       0.50000000       0.50000000       0.75027213 </v>
    <v>       0.00000000       0.00000000      -0.00929548 </v>
    <v>       0.00000000       0.00000000       0.25929548 </v>
    <v>       0.50000000       0.00000000       0.75929548 </v>
    <v>       0.50000000       0.00000000       0.49070452 </v>
    <v>       0.00000000       0.00000000       0.62500000 </v>
    <v>       0.00000000       0.50000000       0.12500000 </v>
    <v>       0.00000000       0.50000000       0.62500000 </v>
    <v>       0.50000000       0.00000000       0.12500000 </v>
    <v>       0.50000000       0.50000000       0.12500000 </v>
    <v>       0.50000000       0.50000000       0.62500000 </v>
    <v>       0.00000000       0.00000000       0.37515814 </v>
    <v>       0.00000000       0.00000000       0.87484186 </v>
    <v>       0.00000000       0.50000000       0.37493432 </v>
    <v>       0.00000000       0.50000000       0.87506568 </v>
    <v>       0.50000000       0.00000000       0.37484186 </v>
    <v>       0.50000000       0.00000000       0.87515814 </v>
    <v>       0.50000000       0.50000000       0.37506568 </v>
    <v>       0.50000000       0.50000000       0.87493432 </v>
    <v>       0.25000000       0.24994550       0.37500000 </v>
    <v>       0.25000000       0.24986443       0.87500000 </v>
    <v>       0.25000000       0.75013557       0.37500000 </v>
    <v>       0.25000000       0.75005450       0.87500000 </v>
    <v>       0.75000000       0.24986443       0.37500000 </v>
    <v>       0.75000000       0.24994550       0.87500000 </v>
    <v>       0.75000000       0.75005450       0.37500000 </v>
    <v>       0.75000000       0.75013557       0.87500000 </v>
    <v>       0.24984689       0.24996135       0.12499964 </v>
    <v>       0.25015311       0.24996135       0.62500036 </v>
    <v>       0.24984689       0.75003865       0.12500036 </v>
    <v>       0.25015311       0.75003865       0.62499964 </v>
    <v>       0.75015311       0.24996135       0.12500036 </v>
    <v>       0.74984689       0.24996135       0.62499964 </v>
    <v>       0.75015311       0.75003865       0.12499964 </v>
    <v>       0.74984689       0.75003865       0.62500036 </v>
    <v>       0.10757340       0.13921848       0.24730717 </v>
    <v>       0.35882455       0.10917134       0.24970929 </v>
    <v>       0.60920784       0.14127366       0.24979993 </v>
    <v>       0.86084513       0.10762302       0.24729483 </v>
    <v>       0.14093286       0.39110371       0.24995169 </v>
    <v>       0.39100724       0.35905317       0.24996814 </v>
    <v>       0.64101094       0.39105690       0.24997925 </v>
    <v>       0.89113840       0.35916513       0.24986149 </v>
    <v>       0.10886160       0.64083487       0.24986149 </v>
    <v>       0.35898906       0.60894310       0.24997925 </v>
    <v>       0.60899276       0.64094683       0.24996814 </v>
    <v>       0.85906714       0.60889629       0.24995169 </v>
    <v>       0.13915487       0.89237698       0.24729483 </v>
    <v>       0.39079216       0.85872634       0.24979993 </v>
    <v>       0.64117545       0.89082866       0.24970929 </v>
    <v>       0.89242660       0.86078152       0.24730717 </v>
    <v>       0.14117545       0.10917134       0.50029071 </v>
    <v>       0.39242660       0.13921848       0.50269283 </v>
    <v>       0.63915487       0.10762302       0.50270517 </v>
    <v>       0.89079216       0.14127366       0.50020007 </v>
    <v>       0.10899276       0.35905317       0.50003186 </v>
    <v>       0.35906714       0.39110371       0.50004831 </v>
    <v>       0.60886160       0.35916513       0.50013851 </v>
    <v>       0.85898906       0.39105690       0.50002075 </v>
    <v>       0.14101094       0.60894310       0.50002075 </v>
    <v>       0.39113840       0.64083487       0.50013851 </v>
    <v>       0.64093286       0.60889629       0.50004831 </v>
    <v>       0.89100724       0.64094683       0.50003186 </v>
    <v>       0.10920784       0.85872634       0.50020007 </v>
    <v>       0.36084513       0.89237698       0.50270517 </v>
    <v>       0.60757340       0.86078152       0.50269283 </v>
    <v>       0.85882455       0.89082866       0.50029071 </v>
    <v>       0.10920784       0.14127366       0.74979993 </v>
    <v>       0.36084513       0.10762302       0.74729483 </v>
    <v>       0.60757340       0.13921848       0.74730717 </v>
    <v>       0.85882455       0.10917134       0.74970929 </v>
    <v>       0.14101094       0.39105690       0.74997925 </v>
    <v>       0.39113840       0.35916513       0.74986149 </v>
    <v>       0.64093286       0.39110371       0.74995169 </v>
    <v>       0.89100724       0.35905317       0.74996814 </v>
    <v>       0.10899276       0.64094683       0.74996814 </v>
    <v>       0.35906714       0.60889629       0.74995169 </v>
    <v>       0.60886160       0.64083487       0.74986149 </v>
    <v>       0.85898906       0.60894310       0.74997925 </v>
    <v>       0.14117545       0.89082866       0.74970929 </v>
    <v>       0.39242660       0.86078152       0.74730717 </v>
    <v>       0.63915487       0.89237698       0.74729483 </v>
    <v>       0.89079216       0.85872634       0.74979993 </v>
    <v>       0.13915487       0.10762302       0.00270517 </v>
    <v>       0.39079216       0.14127366       0.00020007 </v>
    <v>       0.64117545       0.10917134       0.00029071 </v>
[...]
       <r>   -15.7804     0.0000    32.0000 </r>
       <r>   -15.6286     0.0000    32.0000 </r>
       <r>   -15.4768     0.0000    32.0000 </r>
       <r>   -15.3249     0.0000    32.0000 </r>
       <r>   -15.1731     0.0285    32.0043 </r>
       <r>   -15.0213    15.8562    34.4118 </r>
       <r>   -14.8694    52.4949    42.3824 </r>
       <r>   -14.7176    53.2843    50.4728 </r>
       <r>   -14.5657    29.8657    55.0075 </r>
       <r>   -14.4139    27.4782    59.1797 </r>
       <r>   -14.2621    30.8317    63.8610 </r>
       <r>   -14.1102    93.2496    78.0196 </r>
       <r>   -13.9584   145.7391   100.1479 </r>
       <r>   -13.8066   140.2493   121.4427 </r>
       <r>   -13.6547    23.6601   125.0351 </r>
       <r>   -13.5029     6.3547   126.0000 </r>
       <r>   -13.3511     0.0002   126.0000 </r>
       <r>   -13.1992     0.0000   126.0000 </r>
       <r>   -13.0474     0.0000   126.0000 </r>
       <r>   -12.8956     0.0000   126.0000 </r>
       <r>   -12.7437     0.0243   126.0037 </r>
       <r>   -12.5919    16.4405   128.4999 </r>
       <r>   -12.4401   101.9556   143.9804 </r>
       <r>   -12.2882   168.4103   169.5510 </r>
       <r>   -12.1364   144.3140   191.4629 </r>
       <r>   -11.9845   129.7825   211.1685 </r>
       <r>   -11.8327    65.8030   221.1597 </r>
       <r>   -11.6809     5.5339   221.9999 </r>
       <r>   -11.5290     0.0004   222.0000 </r>
       <r>   -11.3772     0.0000   222.0000 </r>
       <r>   -11.2254     0.0000   222.0000 </r>
       <r>   -11.0735     0.0000   222.0000 </r>
       <r>   -10.9217     0.0000   222.0000 </r>
       <r>   -10.7699     0.0000   222.0000 </r>
       <r>   -10.6180     0.0000   222.0000 </r>
       <r>   -10.4662     0.0000   222.0000 </r>
       <r>   -10.3144     0.0000   222.0000 </r>
       <r>   -10.1625     0.0000   222.0000 </r>
       <r>   -10.0107     0.0000   222.0000 </r>
       <r>    -9.8589     0.0000   222.0000 </r>
       <r>    -9.7070     0.0000   222.0000 </r>
       <r>    -9.5552     0.0000   222.0000 </r>
       <r>    -9.4034     0.0000   222.0000 </r>
       <r>    -9.2515     0.0000   222.0000 </r>
       <r>    -9.0997     0.0000   222.0000 </r>
       <r>    -8.9478     0.0000   222.0000 </r>
       <r>    -8.7960     0.0000   222.0000 </r>
       <r>    -8.6442     0.0000   222.0000 </r>
       <r>    -8.4923     0.0000   222.0000 </r>
       <r>    -8.3405     0.0000   222.0000 </r>
       <r>    -8.1887     0.0000   222.0000 </r>
       <r>    -8.0368     0.0000   222.0000 </r>
       <r>    -7.8850     0.0000   222.0000 </r>
       <r>    -7.7332     0.0000   222.0000 </r>
       <r>    -7.5813     0.0000   222.0000 </r>
       <r>    -7.4295     0.0000   222.0000 </r>
       <r>    -7.2777     0.0000   222.0000 </r>
       <r>    -7.1258     0.0000   222.0000 </r>
       <r>    -6.9740     0.0000   222.0000 </r>
       <r>    -6.8222     0.0000   222.0000 </r>
       <r>    -6.6703     0.0000   222.0000 </r>
       <r>    -6.5185     0.0000   222.0000 </r>
       <r>    -6.3666     0.0000   222.0000 </r>
       <r>    -6.2148     0.0000   222.0000 </r>
       <r>    -6.0630     0.0000   222.0000 </r>
       <r>    -5.9111     0.0000   222.0000 </r>
       <r>    -5.7593     0.0000   222.0000 </r>
       <r>    -5.6075     0.0000   222.0000 </r>
       <r>    -5.4556     0.0000   222.0000 </r>
       <r>    -5.3038     0.0000   222.0000 </r>
       <r>    -5.1520     0.0000   222.0000 </r>
       <r>    -5.0001     0.0000   222.0000 </r>
       <r>    -4.8483     0.0000   222.0000 </r>
       <r>    -4.6965     0.0000   222.0000 </r>
       <r>    -4.5446     0.0000   222.0000 </r>
       <r>    -4.3928     0.0000   222.0000 </r>
       <r>    -4.2410     0.0000   222.0000 </r>
       <r>    -4.0891     0.0000   222.0000 </r>
       <r>    -3.9373     0.0000   222.0000 </r>
       <r>    -3.7854     0.0000   222.0000 </r>
       <r>    -3.6336     0.0000   222.0000 </r>
       <r>    -3.4818     0.0000   222.0000 </r>
       <r>    -3.3299     0.0000   222.0000 </r>
       <r>    -3.1781     0.0000   222.0000 </r>
       <r>    -3.0263     0.0000   222.0000 </r>
       <r>    -2.8744     0.0000   222.0000 </r>
       <r>    -2.7226     0.0000   222.0000 </r>
       <r>    -2.5708     0.0000   222.0000 </r>
       <r>    -2.4189     0.0000   222.0000 </r>
       <r>    -2.2671     1.4097   222.2140 </r>
       <r>    -2.1153    15.8646   224.6228 </r>
       <r>    -1.9634    34.2639   229.8253 </r>
       <r>    -1.8116    44.4019   236.5671 </r>
       <r>    -1.6598    62.2094   246.0127 </r>
       <r>    -1.5079    51.9440   253.8996 </r>
       <r>    -1.3561    60.4344   263.0757 </r>
       <r>    -1.2043    74.0580   274.3203 </r>
       <r>    -1.0524    69.1308   284.8168 </r>
       <r>    -0.9006    67.3852   295.0482 </r>
       <r>    -0.7487    82.3377   307.5500 </r>
       <r>    -0.5969    96.2954   322.1710 </r>
       <r>    -0.4451   137.8914   343.1078 </r>
       <r>    -0.2932    75.6230   354.5900 </r>
       <r>    -0.1414    51.0232   362.3371 </r>
       <r>     0.0104    44.7759   369.1357 </r>
       <r>     0.1623    40.9979   375.3606 </r>
       <r>     0.3141    46.0854   382.3580 </r>
       <r>     0.4659    51.8107   390.2246 </r>
       <r>     0.6178    64.3207   399.9908 </r>
       <r>     0.7696    44.1383   406.6925 </r>
       <r>     0.9214    46.5577   413.7616 </r>
       <r>     1.0733    57.7098   422.5240 </r>
       <r>     1.2251    83.8560   435.2563 </r>
       <r>     1.3769    77.8682   447.0795 </r>
       <r>     1.5288   113.8429   464.3648 </r>
       <r>     1.6806    78.5288   476.2883 </r>
       <r>     1.8325    68.7797   486.7314 </r>
       <r>     1.9843    55.0311   495.0871 </r>
       <r>     2.1361    40.4550   501.2296 </r>
       <r>     2.2880    18.2441   503.9997 </r>
       <r>     2.4398     0.0021   504.0000 </r>
       <r>     2.5916     0.0000   504.0000 </r>
       <r>     2.7435     0.0000   504.0000 </r>
       <r>     2.8953     0.0000   504.0000 </r>
       <r>     3.0471     0.0000   504.0000 </r>
       <r>     3.1990     0.0000   504.0000 </r>
       <r>     3.3508     0.0000   504.0000 </r>
       <r>     3.5026     0.0000   504.0000 </r>
       <r>     3.6545     0.0000   504.0000 </r>
       <r>     3.8063     0.0000   504.0000 </r>
       <r>     3.9581     0.0000   504.0000 </r>
       <r>     4.1100     0.0000   504.0000 </r>
       <r>     4.2618     0.0000   504.0000 </r>
       <r>     4.4137     1.1894   504.1806 </r>
       <r>     4.5655    22.1045   507.5368 </r>
       <r>     4.7173    28.8744   511.9210 </r>
       <r>     4.8692    39.7782   517.9607 </r>
       <r>     5.0210    26.3993   521.9691 </r>
       <r>     5.1728    26.1386   525.9378 </r>
       <r>     5.3247    44.3746   532.6755 </r>
       <r>     5.4765    71.3149   543.5036 </r>
       <r>     5.6283    46.2368   550.5239 </r>
       <r>     5.7802    67.0943   560.7112 </r>
       <r>     5.9320    93.2145   574.8645 </r>
       <r>     6.0838   110.9618   591.7124 </r>
       <r>     6.2357    68.5194   602.1160 </r>
       <r>     6.3875    49.0420   609.5623 </r>
       <r>     6.5393    31.2670   614.3098 </r>
       <r>     6.6912    29.1143   618.7303 </r>
       <r>     6.8430    27.7411   622.9424 </r>
       <r>     6.9948    21.4614   626.2010 </r>
       <r>     7.1467    23.9473   629.8370 </r>
       <r>     7.2985     8.1224   631.0703 </r>
       <r>     7.4504    21.9233   634.3990 </r>
       <r>     7.6022    16.3927   636.8880 </r>
       <r>     7.7540     3.5431   637.4260 </r>
       <r>     7.9059    19.1428   640.3325 </r>
       <r>     8.0577    39.6632   646.3548 </r>
       <r>     8.2095    10.1397   647.8944 </r>
       <r>     8.3614    29.8360   652.4245 </r>
       <r>     8.5132    18.3241   655.2068 </r>
       <r>     8.6650    22.5302   658.6276 </r>
       <r>     8.8169    30.6674   663.2840 </r>
       <r>     8.9687    26.4222   667.2959 </r>
       <r>     9.1205    38.0000   673.0656 </r>
       <r>     9.2724    37.7890   678.8033 </r>
       <r>     9.4242    36.2261   684.3037 </r>
       <r>     9.5760    46.1889   691.3168 </r>
       <r>     9.7279    38.6539   697.1858 </r>
       <r>     9.8797    58.5833   706.0808 </r>
       <r>    10.0316    67.2768   716.2958 </r>
       <r>    10.1834    74.1044   727.5475 </r>
       <r>    10.3352    77.1765   739.2656 </r>
       <r>    10.4871    56.1640   747.7933 </r>
       <r>    10.6389    55.7531   756.2586 </r>
       <r>    10.7907    54.7283   764.5682 </r>
       <r>    10.9426    22.5762   767.9961 </r>
       <r>    11.0944     0.0258   768.0000 </r>
       <r>    11.2462     0.0000   768.0000 </r>
       <r>    11.3981     0.0000   768.0000 </r>
       <r>    11.5499     0.0000   768.0000 </r>
       <r>    11.7017     0.0000   768.0000 </r>
       <r>    11.8536     0.0000   768.0000 </r>
       <r>    12.0054     0.0000   768.0000 </r>
       <r>    12.1572     0.0000   768.0000 </r>
       <r>    12.3091     0.0000   768.0000 </r>
       <r>    12.4609     0.0000   768.0000 </r>
       <r>    12.6128     0.0000   768.0000 </r>
       <r>    12.7646     0.0000   768.0000 </r>
       <r>    12.9164     0.0000   768.0000 </r>
      </set>
     </set>
    </array>
   </total>
  </dos>
 </calculation>
 <structure name="finalpos" >
  <crystal>
   <varray name="basis" >
    <v>      11.18556581       0.00000000       0.00000000 </v>
    <v>       0.00000000      11.18958057       0.00000000 </v>
    <v>       0.00000000       0.00000000      15.98568670 </v>
   </varray>
   <i name="volume">   2000.79716048 </i>
   <varray name="rec_basis" >
    <v>       0.08940093       0.00000000       0.00000000 </v>
    <v>       0.00000000       0.08936885       0.00000000 </v>
    <v>       0.00000000       0.00000000       0.06255596 </v>
   </varray>
  </crystal>
  <varray name="positions" >
   <v>      -0.00000000       0.25696194       0.12500000 </v>
   <v>      -0.00000000       0.25249376       0.62500000 </v>
   <v>      -0.00000000       0.74303806       0.12500000 </v>
   <v>      -0.00000000       0.74750624       0.62500000 </v>
   <v>       0.50000000       0.25249376       0.12500000 </v>
   <v>       0.50000000       0.25696194       0.62500000 </v>
   <v>       0.50000000       0.74750624       0.12500000 </v>
   <v>       0.50000000       0.74303806       0.62500000 </v>
   <v>       0.00051346       0.25092519       0.37596078 </v>
   <v>      -0.00051346       0.25092519       0.87403922 </v>
   <v>      -0.00051346       0.74907481       0.37596078 </v>
   <v>       0.00051346       0.74907481       0.87403922 </v>
   <v>       0.49948654       0.25092519       0.37403922 </v>
   <v>       0.50051346       0.25092519       0.87596078 </v>
   <v>       0.50051346       0.74907481       0.37403922 </v>
   <v>       0.49948654       0.74907481       0.87596078 </v>
   <v>       0.25606890       0.00000000       0.12500000 </v>
   <v>       0.24393110       0.00000000       0.62500000 </v>
   <v>       0.25174757       0.50000000       0.12500000 </v>
   <v>       0.24825243       0.50000000       0.62500000 </v>
   <v>       0.74393110       0.00000000       0.12500000 </v>
   <v>       0.75606890       0.00000000       0.62500000 </v>
   <v>       0.74825243       0.50000000       0.12500000 </v>
   <v>       0.75174757       0.50000000       0.62500000 </v>
   <v>       0.25000000      -0.00110587       0.37500000 </v>
   <v>       0.25000000       0.00110587       0.87500000 </v>
   <v>       0.25000000       0.49981848       0.37500000 </v>
   <v>       0.25000000       0.50018152       0.87500000 </v>
   <v>       0.75000000       0.00110587       0.37500000 </v>
   <v>       0.75000000      -0.00110587       0.87500000 </v>
   <v>       0.75000000       0.50018152       0.37500000 </v>
   <v>       0.75000000       0.49981848       0.87500000 </v>
   <v>      -0.00000000       0.00000000       0.50114621 </v>
   <v>      -0.00000000       0.50000000      -0.00109078 </v>
   <v>      -0.00000000       0.50000000       0.49931462 </v>
   <v>       0.50000000       0.00000000       0.00114621 </v>
   <v>       0.50000000       0.50000000      -0.00068538 </v>
   <v>       0.50000000       0.50000000       0.49890922 </v>
   <v>       0.24870656       0.24809102       0.00076556 </v>
   <v>       0.25156929       0.24799676       0.50080793 </v>
   <v>       0.24843071       0.75200324       0.00080793 </v>
   <v>       0.25129344       0.75190898       0.50076556 </v>
   <v>       0.75156929       0.24799676       0.00080793 </v>
   <v>       0.74870656       0.24809102       0.50076556 </v>
   <v>       0.75129344       0.75190898       0.00076556 </v>
   <v>       0.74843071       0.75200324       0.50080793 </v>
   <v>       0.24843071       0.24799676       0.24919207 </v>
   <v>       0.25129344       0.24809102       0.74923444 </v>
   <v>       0.24870656       0.75190898       0.24923444 </v>
   <v>       0.25156929       0.75200324       0.74919207 </v>
   <v>       0.75129344       0.24809102       0.24923444 </v>
   <v>       0.74843071       0.24799676       0.74919207 </v>
   <v>       0.75156929       0.75200324       0.24919207 </v>
   <v>       0.74870656       0.75190898       0.74923444 </v>
   <v>      -0.00000000       0.00000000       0.74885379 </v>
   <v>      -0.00000000       0.50000000       0.25109078 </v>
   <v>      -0.00000000       0.50000000       0.75068538 </v>
   <v>       0.50000000       0.00000000       0.24885379 </v>
   <v>       0.50000000       0.50000000       0.25068538 </v>
   <v>       0.50000000       0.50000000       0.75109078 </v>
   <v>      -0.00000000       0.00000000      -0.00973680 </v>
   <v>      -0.00000000       0.00000000       0.25973680 </v>
   <v>       0.50000000       0.00000000       0.75973680 </v>
   <v>       0.50000000       0.00000000       0.49026320 </v>
   <v>      -0.00000000       0.00000000       0.62500000 </v>
   <v>      -0.00000000       0.50000000       0.12500000 </v>
   <v>      -0.00000000       0.50000000       0.62500000 </v>
   <v>       0.50000000       0.00000000       0.12500000 </v>
   <v>       0.50000000       0.50000000       0.12500000 </v>
   <v>       0.50000000       0.50000000       0.62500000 </v>
   <v>      -0.00000000       0.00000000       0.37728714 </v>
   <v>      -0.00000000       0.00000000       0.87271286 </v>
   <v>      -0.00000000       0.50000000       0.37456140 </v>
   <v>      -0.00000000       0.50000000       0.87543860 </v>
   <v>       0.50000000       0.00000000       0.37271286 </v>
   <v>       0.50000000       0.00000000       0.87728714 </v>
   <v>       0.50000000       0.50000000       0.37543860 </v>
   <v>       0.50000000       0.50000000       0.87456140 </v>
   <v>       0.25000000       0.24258468       0.37500000 </v>
   <v>       0.25000000       0.24055690       0.87500000 </v>
   <v>       0.25000000       0.75944310       0.37500000 </v>
   <v>       0.25000000       0.75741532       0.87500000 </v>
   <v>       0.75000000       0.24055690       0.37500000 </v>
   <v>       0.75000000       0.24258468       0.87500000 </v>
   <v>       0.75000000       0.75741532       0.37500000 </v>
   <v>       0.75000000       0.75944310       0.87500000 </v>
   <v>       0.25405932       0.25636382       0.12497300 </v>
   <v>       0.24594068       0.25636382       0.62502700 </v>
   <v>       0.25405932       0.74363618       0.12502700 </v>
   <v>       0.24594068       0.74363618       0.62497300 </v>
   <v>       0.74594068       0.25636382       0.12502700 </v>
   <v>       0.75405932       0.25636382       0.62497300 </v>
   <v>       0.74594068       0.74363618       0.12497300 </v>
   <v>       0.75405932       0.74363618       0.62502700 </v>
   <v>       0.10916139       0.13726553       0.24036976 </v>
   <v>       0.35993544       0.10929964       0.24922192 </v>
   <v>       0.60960982       0.14011879       0.24870126 </v>
   <v>       0.86251650       0.10908358       0.24019342 </v>
   <v>       0.13956637       0.38902486       0.25126767 </v>
   <v>       0.38985926       0.35977842       0.25173918 </v>
   <v>       0.64004427       0.38968235       0.25232748 </v>
   <v>       0.88954418       0.36028172       0.25178894 </v>
   <v>       0.11045582       0.63971828       0.25178894 </v>
   <v>       0.35995573       0.61031765       0.25232748 </v>
   <v>       0.61014074       0.64022158       0.25173918 </v>
   <v>       0.86043363       0.61097514       0.25126767 </v>
   <v>       0.13748350       0.89091642       0.24019342 </v>
   <v>       0.39039018       0.85988121       0.24870126 </v>
   <v>       0.64006456       0.89070036       0.24922192 </v>
   <v>       0.89083861       0.86273447       0.24036976 </v>
   <v>       0.14006456       0.10929964       0.50077808 </v>
   <v>       0.39083861       0.13726553       0.50963024 </v>
   <v>       0.63748350       0.10908358       0.50980658 </v>
   <v>       0.89039018       0.14011879       0.50129874 </v>
   <v>       0.11014074       0.35977842       0.49826082 </v>
   <v>       0.36043363       0.38902486       0.49873233 </v>
   <v>       0.61045582       0.36028172       0.49821106 </v>
   <v>       0.85995573       0.38968235       0.49767252 </v>
   <v>       0.14004427       0.61031765       0.49767252 </v>
   <v>       0.38954418       0.63971828       0.49821106 </v>
   <v>       0.63956637       0.61097514       0.49873233 </v>
   <v>       0.88985926       0.64022158       0.49826082 </v>
   <v>       0.10960982       0.85988121       0.50129874 </v>
   <v>       0.36251650       0.89091642       0.50980658 </v>
   <v>       0.60916139       0.86273447       0.50963024 </v>
   <v>       0.85993544       0.89070036       0.50077808 </v>
   <v>       0.10960982       0.14011879       0.74870126 </v>
   <v>       0.36251650       0.10908358       0.74019342 </v>
   <v>       0.60916139       0.13726553       0.74036976 </v>
   <v>       0.85993544       0.10929964       0.74922192 </v>
   <v>       0.14004427       0.38968235       0.75232748 </v>
   <v>       0.38954418       0.36028172       0.75178894 </v>
   <v>       0.63956637       0.38902486       0.75126767 </v>
   <v>       0.88985926       0.35977842       0.75173918 </v>
   <v>       0.11014074       0.64022158       0.75173918 </v>
   <v>       0.36043363       0.61097514       0.75126767 </v>
   <v>       0.61045582       0.63971828       0.75178894 </v>
   <v>       0.85995573       0.61031765       0.75232748 </v>
   <v>       0.14006456       0.89070036       0.74922192 </v>
   <v>       0.39083861       0.86273447       0.74036976 </v>
   <v>       0.63748350       0.89091642       0.74019342 </v>
   <v>       0.89039018       0.85988121       0.74870126 </v>
   <v>       0.13748350       0.10908358       0.00980658 </v>
   <v>       0.39039018       0.14011879       0.00129874 </v>
   <v>       0.64006456       0.10929964       0.00077808 </v>
   <v>       0.89083861       0.13726553       0.00963024 </v>
   <v>       0.11045582       0.36028172      -0.00178894 </v>
   <v>       0.35995573       0.38968235      -0.00232748 </v>
   <v>       0.61014074       0.35977842      -0.00173918 </v>
   <v>       0.86043363       0.38902486      -0.00126767 </v>
   <v>       0.13956637       0.61097514      -0.00126767 </v>
   <v>       0.38985926       0.64022158      -0.00173918 </v>
   <v>       0.64004427       0.61031765      -0.00232748 </v>
   <v>       0.88954418       0.63971828      -0.00178894 </v>
   <v>       0.10916139       0.86273447       0.00963024 </v>
   <v>       0.35993544       0.89070036       0.00077808 </v>
   <v>       0.60960982       0.85988121       0.00129874 </v>
   <v>       0.86251650       0.89091642       0.00980658 </v>
  </varray>
 </structure>
</modeling>
