       N       E                     dE             d eps       ncg     rms          rms(c)
DAV:   1    -0.115334404684E+04   -0.11533E+04   -0.17289E-03  9216   0.863E-02    0.163E-02
RMM:   2    -0.115334404680E+04    0.43990E-07   -0.63044E-06  3867   0.454E-03    0.280E-02
RMM:   3    -0.115334404678E+04    0.16807E-07   -0.12398E-06  2238   0.229E-03    0.354E-03
RMM:   4    -0.115334404674E+04    0.45329E-07   -0.24312E-07  1167   0.178E-03    0.112E-03
RMM:   5    -0.115334404673E+04    0.53842E-08   -0.83260E-08   884   0.165E-03    0.402E-04
RMM:   6    -0.115334404673E+04    0.74797E-08   -0.20367E-08   739   0.161E-03    0.230E-04
RMM:   7    -0.115334404672E+04    0.87166E-08   -0.16919E-09   672   0.160E-03    0.131E-04
RMM:   8    -0.115334404670E+04    0.13795E-07    0.00000E+00   612   0.160E-03
   1 F= -.11533440E+04 E0= -.11533440E+04  d E =-.115334E+04  mag=    20.0000
       N       E                     dE             d eps       ncg     rms          rms(c)
DAV:   1    -0.115334456274E+04   -0.51603E-03   -0.22864E-01  9584   0.558E-01    0.193E-01
RMM:   2    -0.115334479511E+04   -0.23237E-03   -0.76606E-03  9230   0.112E-01    0.147E-01
RMM:   3    -0.115334465611E+04    0.13900E-03   -0.38799E-04  7738   0.369E-02    0.887E-02
RMM:   4    -0.115334454867E+04    0.10743E-03   -0.35510E-04  7737   0.208E-02    0.502E-02
RMM:   5    -0.115334453120E+04    0.17473E-04   -0.40435E-05  5336   0.106E-02    0.337E-02
RMM:   6    -0.115334452997E+04    0.12281E-05   -0.17340E-05  5259   0.515E-03    0.171E-02
RMM:   7    -0.115334452852E+04    0.14535E-05   -0.65606E-06  4419   0.427E-03    0.102E-02
RMM:   8    -0.115334452731E+04    0.12084E-05   -0.46407E-06  4314   0.306E-03
   2 F= -.11533445E+04 E0= -.11533445E+04  d E =-.480609E-03  mag=    20.0000
       N       E                     dE             d eps       ncg     rms          rms(c)
DAV:   1    -0.115334479227E+04   -0.26375E-03   -0.26679E-02  9536   0.191E-01    0.655E-02
RMM:   2    -0.115334482003E+04   -0.27757E-04   -0.88370E-04  8974   0.381E-02    0.499E-02
RMM:   3    -0.115334480282E+04    0.17210E-04   -0.38539E-05  4981   0.126E-02    0.305E-02
RMM:   4    -0.115334479010E+04    0.12712E-04   -0.41161E-05  4830   0.789E-03    0.234E-02
RMM:   5    -0.115334478917E+04    0.93407E-06   -0.61614E-06  4161   0.439E-03    0.143E-02
RMM:   6    -0.115334478905E+04    0.12355E-06   -0.16187E-06  2578   0.218E-03    0.553E-03
RMM:   7    -0.115334478933E+04   -0.28474E-06   -0.65668E-07  2004   0.221E-03    0.371E-03
RMM:   8    -0.115334478960E+04   -0.27246E-06   -0.57696E-07  1644   0.194E-03
   3 F= -.11533448E+04 E0= -.11533448E+04  d E =-.742900E-03  mag=    20.0000
       N       E                     dE             d eps       ncg     rms          rms(c)
DAV:   1    -0.115334479107E+04   -0.17435E-05   -0.11761E-03  8808   0.401E-02    0.140E-02
RMM:   2    -0.115334479254E+04   -0.14709E-05   -0.36846E-05  4688   0.844E-03    0.120E-02
RMM:   3    -0.115334479248E+04    0.68409E-07   -0.41181E-06  4221   0.369E-03    0.754E-03
RMM:   4    -0.115334479208E+04    0.39423E-06   -0.37898E-07  1854   0.194E-03    0.466E-03
RMM:   5    -0.115334479192E+04    0.16064E-06   -0.94075E-07  2112   0.215E-03    0.216E-03
RMM:   6    -0.115334479194E+04   -0.22672E-07   -0.17670E-07  1134   0.193E-03    0.833E-04
RMM:   7    -0.115334479196E+04   -0.18495E-07   -0.11018E-07   968   0.188E-03    0.523E-04
RMM:   8    -0.115334479197E+04   -0.75815E-08   -0.39176E-08   655   0.185E-03
   4 F= -.11533448E+04 E0= -.11533448E+04  d E =-.745267E-03  mag=    20.0000
