<?xml version="1.0" encoding="ISO-8859-1"?>
<modeling>
 <generator>
  <i name="program" type="string">vasp </i>
  <i name="version" type="string">5.4.1  </i>
  <i name="subversion" type="string">05Feb16 (build Jan 25 2017 20:16:33) complex                          parallel </i>
  <i name="platform" type="string">BWXE6 </i>
  <i name="date" type="string">2019 08 11 </i>
  <i name="time" type="string">11:32:21 </i>
 </generator>
 <incar>
  <i type="string" name="SYSTEM"> STF</i>
  <i type="string" name="PREC">normal</i>
  <i type="string" name="ALGO"> Fast</i>
  <i type="int" name="ISPIN">     2</i>
  <i type="int" name="NELM">    40</i>
  <i type="int" name="NELMIN">     8</i>
  <i type="int" name="IBRION">     2</i>
  <i name="EDIFF">      0.00010000</i>
  <i name="EDIFFG">     -0.03000000</i>
  <i type="int" name="NSW">    30</i>
  <i type="int" name="ISIF">     3</i>
  <i name="ENCUT">    520.00000000</i>
  <i type="int" name="NBANDS">   768</i>
  <v name="MAGMOM">      0.60000000      0.60000000      0.60000000      0.60000000      0.60000000      0.60000000      0.60000000      0.60000000      0.60000000      0.60000000      0.60000000      0.60000000      0.60000000      0.60000000      0.60000000      0.60000000      0.60000000      0.60000000      0.60000000      0.60000000
      0.60000000      0.60000000      0.60000000      0.60000000      0.60000000      0.60000000      0.60000000      0.60000000      0.60000000      0.60000000      0.60000000      0.60000000      0.60000000      0.60000000      0.60000000      0.60000000      0.60000000      0.60000000      0.60000000      0.60000000
      0.60000000      0.60000000      0.60000000      0.60000000      0.60000000      0.60000000      0.60000000      0.60000000      0.60000000      0.60000000      0.60000000      0.60000000      0.60000000      0.60000000      0.60000000      0.60000000      0.60000000      0.60000000      0.60000000      0.60000000
      5.00000000      5.00000000      5.00000000      5.00000000      0.60000000      0.60000000      0.60000000      0.60000000      0.60000000      0.60000000      0.60000000      0.60000000      0.60000000      0.60000000      0.60000000      0.60000000      0.60000000      0.60000000      0.60000000      0.60000000
      0.60000000      0.60000000      0.60000000      0.60000000      0.60000000      0.60000000      0.60000000      0.60000000      0.60000000      0.60000000      0.60000000      0.60000000      0.60000000      0.60000000      0.60000000      0.60000000      0.60000000      0.60000000      0.60000000      0.60000000
      0.60000000      0.60000000      0.60000000      0.60000000      0.60000000      0.60000000      0.60000000      0.60000000      0.60000000      0.60000000      0.60000000      0.60000000      0.60000000      0.60000000      0.60000000      0.60000000      0.60000000      0.60000000      0.60000000      0.60000000
      0.60000000      0.60000000      0.60000000      0.60000000      0.60000000      0.60000000      0.60000000      0.60000000      0.60000000      0.60000000      0.60000000      0.60000000      0.60000000      0.60000000      0.60000000      0.60000000      0.60000000      0.60000000      0.60000000      0.60000000
      0.60000000      0.60000000      0.60000000      0.60000000      0.60000000      0.60000000      0.60000000      0.60000000      0.60000000      0.60000000      0.60000000      0.60000000      0.60000000      0.60000000      0.60000000      0.60000000      0.60000000      0.60000000</v>
  <i type="string" name="LREAL"> Auto</i>
  <i type="int" name="ISMEAR">     0</i>
  <i name="SIGMA">      0.05000000</i>
  <i type="int" name="LMAXMIX">     4</i>
  <v type="int" name="KPOINT_BSE">    -1     0     0     0</v>
  <i type="int" name="NELM">    40</i>
  <i type="logical" name="LDAU"> T  </i>
  <v type="int" name="LDAUTYPE">     2</v>
  <v type="int" name="LDAUL">     0     2     2     0</v>
  <v name="LDAUU">      0.00000000      3.00000000      5.00000000      0.00000000</v>
  <v name="LDAUJ">      0.00000000      0.00000000      0.00000000      0.00000000</v>
  <i type="int" name="LDAUPRINT">     1</i>
 </incar>
 <kpoints>
  <generation param="Monkhorst-Pack">
   <v type="int" name="divisions">       2        2        2 </v>
   <v name="usershift">      0.00000000       0.00000000       0.00000000 </v>
   <v name="genvec1">      0.50000000      -0.00000000      -0.00000000 </v>
   <v name="genvec2">     -0.00000000       0.50000000       0.00000000 </v>
   <v name="genvec3">      0.00000000       0.00000000       0.50000000 </v>
   <v name="shift">      0.50000000       0.50000000       0.50000000 </v>
  </generation>
  <varray name="kpointlist" >
   <v>       0.25000000       0.25000000       0.25000000 </v>
   <v>      -0.25000000       0.25000000       0.25000000 </v>
   <v>       0.25000000      -0.25000000       0.25000000 </v>
  </varray>
  <varray name="weights" >
   <v>       0.50000000 </v>
   <v>       0.25000000 </v>
   <v>       0.25000000 </v>
  </varray>
 </kpoints>
 <parameters>
  <separator name="general" >
   <i type="string" name="SYSTEM">STF</i>
   <i type="logical" name="LCOMPAT"> F  </i>
  </separator>
  <separator name="electronic" >
   <i type="string" name="PREC">normal</i>
   <i name="ENMAX">    520.00000000</i>
   <i name="ENAUG">    605.39200000</i>
   <i name="EDIFF">      0.00010000</i>
   <i type="int" name="IALGO">    68</i>
   <i type="int" name="IWAVPR">    11</i>
   <i type="int" name="NBANDS">   768</i>
   <i name="NELECT">   1028.00000000</i>
   <i type="int" name="TURBO">     0</i>
   <i type="int" name="IRESTART">     0</i>
   <i type="int" name="NREBOOT">     0</i>
   <i type="int" name="NMIN">     0</i>
   <i name="EREF">      0.00000000</i>
   <separator name="electronic smearing" >
    <i type="int" name="ISMEAR">     0</i>
    <i name="SIGMA">      0.05000000</i>
    <i name="KSPACING">      0.50000000</i>
    <i type="logical" name="KGAMMA"> T  </i>
   </separator>
   <separator name="electronic projectors" >
    <i type="logical" name="LREAL"> T  </i>
    <v name="ROPT">     -0.00050000     -0.00050000     -0.00050000     -0.00050000</v>
    <i type="int" name="LMAXPAW">  -100</i>
    <i type="int" name="LMAXMIX">     4</i>
    <i type="logical" name="NLSPLINE"> F  </i>
   </separator>
   <separator name="electronic startup" >
    <i type="int" name="ISTART">     1</i>
    <i type="int" name="ICHARG">     0</i>
    <i type="int" name="INIWAV">     1</i>
   </separator>
   <separator name="electronic spin" >
    <i type="int" name="ISPIN">     2</i>
    <i type="logical" name="LNONCOLLINEAR"> F  </i>
    <v name="MAGMOM">      0.60000000      0.60000000      0.60000000      0.60000000      0.60000000      0.60000000      0.60000000      0.60000000      0.60000000      0.60000000      0.60000000      0.60000000      0.60000000      0.60000000      0.60000000      0.60000000      0.60000000      0.60000000      0.60000000      0.60000000
      0.60000000      0.60000000      0.60000000      0.60000000      0.60000000      0.60000000      0.60000000      0.60000000      0.60000000      0.60000000      0.60000000      0.60000000      0.60000000      0.60000000      0.60000000      0.60000000      0.60000000      0.60000000      0.60000000      0.60000000
      0.60000000      0.60000000      0.60000000      0.60000000      0.60000000      0.60000000      0.60000000      0.60000000      0.60000000      0.60000000      0.60000000      0.60000000      0.60000000      0.60000000      0.60000000      0.60000000      0.60000000      0.60000000      0.60000000      0.60000000
      5.00000000      5.00000000      5.00000000      5.00000000      0.60000000      0.60000000      0.60000000      0.60000000      0.60000000      0.60000000      0.60000000      0.60000000      0.60000000      0.60000000      0.60000000      0.60000000      0.60000000      0.60000000      0.60000000      0.60000000
      0.60000000      0.60000000      0.60000000      0.60000000      0.60000000      0.60000000      0.60000000      0.60000000      0.60000000      0.60000000      0.60000000      0.60000000      0.60000000      0.60000000      0.60000000      0.60000000      0.60000000      0.60000000      0.60000000      0.60000000
      0.60000000      0.60000000      0.60000000      0.60000000      0.60000000      0.60000000      0.60000000      0.60000000      0.60000000      0.60000000      0.60000000      0.60000000      0.60000000      0.60000000      0.60000000      0.60000000      0.60000000      0.60000000      0.60000000      0.60000000
      0.60000000      0.60000000      0.60000000      0.60000000      0.60000000      0.60000000      0.60000000      0.60000000      0.60000000      0.60000000      0.60000000      0.60000000      0.60000000      0.60000000      0.60000000      0.60000000      0.60000000      0.60000000      0.60000000      0.60000000
      0.60000000      0.60000000      0.60000000      0.60000000      0.60000000      0.60000000      0.60000000      0.60000000      0.60000000      0.60000000      0.60000000      0.60000000      0.60000000      0.60000000      0.60000000      0.60000000      0.60000000      0.60000000</v>
    <i name="NUPDOWN">     -1.00000000</i>
    <i type="logical" name="LSORBIT"> F  </i>
    <v name="SAXIS">      0.00000000      0.00000000      1.00000000</v>
    <i type="logical" name="LSPIRAL"> F  </i>
    <v name="QSPIRAL">      0.00000000      0.00000000      0.00000000</v>
    <i type="logical" name="LZEROZ"> F  </i>
   </separator>
   <separator name="electronic exchange-correlation" >
    <i type="logical" name="LASPH"> F  </i>
    <i type="logical" name="LMETAGGA"> F  </i>
   </separator>
   <separator name="electronic convergence" >
    <i type="int" name="NELM">    40</i>
    <i type="int" name="NELMDL">     0</i>
    <i type="int" name="NELMIN">     8</i>
    <i name="ENINI">    520.00000000</i>
    <separator name="electronic convergence detail" >
     <i type="logical" name="LDIAG"> T  </i>
     <i type="logical" name="LSUBROT"> F  </i>
     <i name="WEIMIN">      0.00100000</i>
     <i name="EBREAK">      0.00000003</i>
     <i name="DEPER">      0.30000000</i>
     <i type="int" name="NRMM">     4</i>
     <i name="TIME">      0.40000000</i>
    </separator>
   </separator>
   <separator name="electronic mixer" >
    <i name="AMIX">      0.40000000</i>
    <i name="BMIX">      1.00000000</i>
    <i name="AMIN">      0.10000000</i>
    <i name="AMIX_MAG">      1.60000000</i>
    <i name="BMIX_MAG">      1.00000000</i>
    <separator name="electronic mixer details" >
     <i type="int" name="IMIX">     4</i>
     <i type="logical" name="MIXFIRST"> F  </i>
     <i type="int" name="MAXMIX">   -45</i>
     <i name="WC">    100.00000000</i>
     <i type="int" name="INIMIX">     1</i>
     <i type="int" name="MIXPRE">     1</i>
     <i type="int" name="MREMOVE">     5</i>
    </separator>
   </separator>
   <separator name="electronic dipolcorrection" >
    <i type="logical" name="LDIPOL"> F  </i>
    <i type="logical" name="LMONO"> F  </i>
    <i type="int" name="IDIPOL">     0</i>
    <i name="EPSILON">      1.00000000</i>
    <v name="DIPOL">   -100.00000000   -100.00000000   -100.00000000</v>
    <i name="EFIELD">      0.00000000</i>
   </separator>
  </separator>
  <separator name="grids" >
   <i type="int" name="NGX">    64</i>
   <i type="int" name="NGY">    64</i>
   <i type="int" name="NGZ">    90</i>
   <i type="int" name="NGXF">   128</i>
   <i type="int" name="NGYF">   128</i>
   <i type="int" name="NGZF">   180</i>
   <i type="logical" name="ADDGRID"> F  </i>
  </separator>
  <separator name="ionic" >
   <i type="int" name="NSW">    30</i>
   <i type="int" name="IBRION">     2</i>
   <i type="int" name="ISIF">     3</i>
   <i name="PSTRESS">      0.00000000</i>
   <i name="EDIFFG">     -0.03000000</i>
   <i type="int" name="NFREE">     1</i>
   <i name="POTIM">      0.50000000</i>
   <i name="SMASS">     -3.00000000</i>
   <i name="SCALEE">      1.00000000</i>
  </separator>
  <separator name="ionic md" >
   <i name="TEBEG">      0.00010000</i>
   <i name="TEEND">      0.00010000</i>
   <i type="int" name="NBLOCK">     1</i>
   <i type="int" name="KBLOCK">    30</i>
   <i type="int" name="NPACO">   256</i>
   <i name="APACO">     16.00000000</i>
  </separator>
  <separator name="symmetry" >
   <i type="int" name="ISYM">     2</i>
   <i name="SYMPREC">      0.00001000</i>
  </separator>
  <separator name="dos" >
   <i type="logical" name="LORBIT"> F  </i>
   <v name="RWIGS">     -1.00000000     -1.00000000     -1.00000000     -1.00000000</v>
   <i type="int" name="NEDOS">   301</i>
   <i name="EMIN">     10.00000000</i>
   <i name="EMAX">    -10.00000000</i>
   <i name="EFERMI">      0.00000000</i>
  </separator>
  <separator name="writing" >
   <i type="int" name="NWRITE">     2</i>
   <i type="logical" name="LWAVE"> T  </i>
   <i type="logical" name="LCHARG"> T  </i>
   <i type="logical" name="LPARD"> F  </i>
   <i type="logical" name="LVTOT"> F  </i>
   <i type="logical" name="LVHAR"> F  </i>
   <i type="logical" name="LELF"> F  </i>
   <i type="logical" name="LOPTICS"> F  </i>
   <v name="STM">      0.00000000      0.00000000      0.00000000      0.00000000      0.00000000      0.00000000      0.00000000</v>
  </separator>
  <separator name="performance" >
   <i type="int" name="NPAR">     2</i>
   <i type="int" name="NSIM">     4</i>
   <i type="int" name="NBLK">    -1</i>
   <i type="logical" name="LPLANE"> T  </i>
   <i type="logical" name="LSCALAPACK"> T  </i>
   <i type="logical" name="LSCAAWARE"> F  </i>
   <i type="logical" name="LSCALU"> F  </i>
   <i type="logical" name="LASYNC"> F  </i>
   <i type="logical" name="LORBITALREAL"> F  </i>
  </separator>
  <separator name="miscellaneous" >
   <i type="int" name="IDIOT">     3</i>
   <i type="logical" name="LMUSIC"> F  </i>
   <v name="POMASS">     87.62000000     47.88000000     55.84700000     16.00000000</v>
   <v name="DARWINR">      0.00000000      0.00000000      0.00000000      0.00000000</v>
   <v name="DARWINV">      1.00000000      1.00000000      1.00000000      1.00000000</v>
   <i type="logical" name="LCORR"> T  </i>
  </separator>
  <i type="logical" name="GGA_COMPAT"> T  </i>
  <i type="logical" name="LBERRY"> F  </i>
  <i type="int" name="ICORELEVEL">     0</i>
  <i type="logical" name="LDAU"> T  </i>
  <v type="int" name="LDAUTYPE">     2</v>
  <v type="int" name="LDAUL">     0</v>
  <v name="LDAUU">      0.00000000</v>
  <v name="LDAUJ">      0.00000000</v>
  <i type="int" name="LDAUPRINT">     1</i>
  <i type="int" name="I_CONSTRAINED_M">     0</i>
  <separator name="electronic exchange-correlation" >
   <i type="string" name="GGA">--</i>
   <i type="int" name="VOSKOWN">     0</i>
   <i type="logical" name="LHFCALC"> F  </i>
   <i type="string" name="PRECFOCK"></i>
   <i type="logical" name="LSYMGRAD"> F  </i>
   <i type="logical" name="LHFONE"> F  </i>
   <i type="logical" name="LRHFCALC"> F  </i>
   <i type="logical" name="LTHOMAS"> F  </i>
   <i type="logical" name="LMODELHF"> F  </i>
   <i name="ENCUT4O">     -1.00000000</i>
   <i type="int" name="EXXOEP">     0</i>
   <i type="int" name="FOURORBIT">     0</i>
   <i name="AEXX">      0.00000000</i>
   <i name="HFALPHA">      0.00000000</i>
   <i name="MCALPHA">      0.00000000</i>
   <i name="ALDAX">      1.00000000</i>
   <i name="AGGAX">      1.00000000</i>
   <i name="ALDAC">      1.00000000</i>
   <i name="AGGAC">      1.00000000</i>
   <i type="int" name="NKREDX">     1</i>
   <i type="int" name="NKREDY">     1</i>
   <i type="int" name="NKREDZ">     1</i>
   <i type="logical" name="SHIFTRED"> F  </i>
   <i type="logical" name="ODDONLY"> F  </i>
   <i type="logical" name="EVENONLY"> F  </i>
   <i type="int" name="LMAXFOCK">     0</i>
   <i type="int" name="NMAXFOCKAE">     0</i>
   <i type="logical" name="LFOCKAEDFT"> F  </i>
   <i name="HFSCREEN">      0.00000000</i>
   <i name="HFSCREENC">      0.00000000</i>
   <i type="int" name="NBANDSGWLOW">     0</i>
  </separator>
  <separator name="vdW DFT" >
   <i type="logical" name="LUSE_VDW"> F  </i>
   <i name="Zab_VDW">     -0.84910000</i>
   <i name="PARAM1">      0.12340000</i>
   <i name="PARAM2">      1.00000000</i>
   <i name="PARAM3">      0.00000000</i>
  </separator>
  <separator name="model GW" >
   <i type="int" name="MODEL_GW">     0</i>
   <i name="MODEL_EPS0">      7.59735888</i>
   <i name="MODEL_ALPHA">      1.00000000</i>
  </separator>
  <separator name="linear response parameters" >
   <i type="logical" name="LEPSILON"> F  </i>
   <i type="logical" name="LRPA"> F  </i>
   <i type="logical" name="LNABLA"> F  </i>
   <i type="logical" name="LVEL"> F  </i>
   <i type="int" name="KINTER">     0</i>
   <i name="CSHIFT">      0.10000000</i>
   <i name="OMEGAMAX">     -1.00000000</i>
   <i name="DEG_THRESHOLD">      0.00200000</i>
  </separator>
  <separator name="orbital magnetization" >
   <i type="logical" name="NUCIND"> F  </i>
   <v name="MAGPOS">      0.00000000      0.00000000      0.00000000</v>
   <i type="logical" name="LNICSALL"> T  </i>
   <i type="logical" name="ORBITALMAG"> F  </i>
   <i type="logical" name="LMAGBLOCH"> F  </i>
   <i type="logical" name="LCHIMAG"> F  </i>
   <i type="logical" name="LGAUGE"> T  </i>
   <i type="int" name="MAGATOM">     0</i>
   <v name="MAGDIPOL">      0.00000000      0.00000000      0.00000000</v>
   <v name="AVECCONST">      0.00000000      0.00000000      0.00000000</v>
  </separator>
  <separator name="response functions" >
   <i type="logical" name="LADDER"> F  </i>
   <i type="logical" name="LFXC"> F  </i>
   <i type="logical" name="LHARTREE"> T  </i>
   <i type="int" name="IBSE">     0</i>
   <v type="int" name="KPOINT">    -1     0     0     0</v>
   <i type="logical" name="LTCTE"> F  </i>
   <i type="logical" name="LTETE"> F  </i>
   <i type="logical" name="LTRIPLET"> F  </i>
   <i type="logical" name="LFXCEPS"> F  </i>
   <i type="logical" name="LFXHEG"> F  </i>
   <i type="int" name="NATURALO">     0</i>
   <i type="logical" name="L2ORDER"> F  </i>
   <i type="logical" name="LUSEW"> F  </i>
   <i name="ENCUTGW">     -2.00000000</i>
   <i name="ENCUTGWSOFT">     -2.00000000</i>
   <i name="ENCUTLF">     -1.00000000</i>
   <i type="int" name="LMAXMP2">    -1</i>
   <i name="SCISSOR">      0.00000000</i>
   <i type="int" name="NOMEGA">     0</i>
   <i type="int" name="NOMEGAR">     0</i>
   <i type="int" name="NBANDSGW">    -1</i>
   <i type="int" name="NBANDSO">    -1</i>
   <i type="int" name="NBANDSV">    -1</i>
   <i type="int" name="NELM">    40</i>
   <i type="int" name="NELMHF">     1</i>
   <i type="int" name="DIM">     3</i>
   <i type="int" name="ANTIRES">     0</i>
   <i name="OMEGAMAX">    -30.00000000</i>
   <i name="OMEGAMIN">    -30.00000000</i>
   <i name="OMEGATL">   -200.00000000</i>
   <i type="int" name="OMEGAGRID">     0</i>
   <i name="CSHIFT">     -0.10000000</i>
   <i type="logical" name="SELFENERGY"> F  </i>
   <i type="logical" name="LSPECTRAL"> F  </i>
   <i type="logical" name="LSPECTRALGW"> F  </i>
   <i type="logical" name="LSINGLES"> F  </i>
   <i type="logical" name="LFERMIGW"> F  </i>
   <i type="logical" name="ODDONLYGW"> F  </i>
   <i type="logical" name="EVENONLYGW"> F  </i>
   <i type="int" name="NKREDLFX">     1</i>
   <i type="int" name="NKREDLFY">     1</i>
   <i type="int" name="NKREDLFZ">     1</i>
   <i type="int" name="MAXMEM">  1800</i>
   <i type="int" name="TELESCOPE">     0</i>
   <i type="int" name="TAUPAR">     1</i>
   <i type="int" name="OMEGAPAR">    -1</i>
   <i name="LAMBDA">      1.00000000</i>
  </separator>
  <separator name="External order field" >
   <i name="OFIELD_KAPPA">      0.00000000</i>
   <v name="OFIELD_K">      0.00000000      0.00000000      0.00000000</v>
   <i name="OFIELD_Q6_NEAR">      0.00000000</i>
   <i name="OFIELD_Q6_FAR">      0.00000000</i>
   <i name="OFIELD_A">      0.00000000</i>
  </separator>
 </parameters>
 <atominfo>
  <atoms>     158 </atoms>
  <types>       4 </types>
  <array name="atoms" >
   <dimension dim="1">ion</dimension>
   <field type="string">element</field>
   <field type="int">atomtype</field>
   <set>
    <rc><c>Sr</c><c>   1</c></rc>
    <rc><c>Sr</c><c>   1</c></rc>
    <rc><c>Sr</c><c>   1</c></rc>
    <rc><c>Sr</c><c>   1</c></rc>
    <rc><c>Sr</c><c>   1</c></rc>
    <rc><c>Sr</c><c>   1</c></rc>
    <rc><c>Sr</c><c>   1</c></rc>
    <rc><c>Sr</c><c>   1</c></rc>
    <rc><c>Sr</c><c>   1</c></rc>
    <rc><c>Sr</c><c>   1</c></rc>
    <rc><c>Sr</c><c>   1</c></rc>
    <rc><c>Sr</c><c>   1</c></rc>
    <rc><c>Sr</c><c>   1</c></rc>
    <rc><c>Sr</c><c>   1</c></rc>
    <rc><c>Sr</c><c>   1</c></rc>
    <rc><c>Sr</c><c>   1</c></rc>
    <rc><c>Sr</c><c>   1</c></rc>
    <rc><c>Sr</c><c>   1</c></rc>
    <rc><c>Sr</c><c>   1</c></rc>
    <rc><c>Sr</c><c>   1</c></rc>
    <rc><c>Sr</c><c>   1</c></rc>
    <rc><c>Sr</c><c>   1</c></rc>
    <rc><c>Sr</c><c>   1</c></rc>
    <rc><c>Sr</c><c>   1</c></rc>
    <rc><c>Sr</c><c>   1</c></rc>
    <rc><c>Sr</c><c>   1</c></rc>
    <rc><c>Sr</c><c>   1</c></rc>
    <rc><c>Sr</c><c>   1</c></rc>
    <rc><c>Sr</c><c>   1</c></rc>
    <rc><c>Sr</c><c>   1</c></rc>
    <rc><c>Sr</c><c>   1</c></rc>
    <rc><c>Sr</c><c>   1</c></rc>
    <rc><c>Ti</c><c>   2</c></rc>
    <rc><c>Ti</c><c>   2</c></rc>
    <rc><c>Ti</c><c>   2</c></rc>
    <rc><c>Ti</c><c>   2</c></rc>
    <rc><c>Ti</c><c>   2</c></rc>
    <rc><c>Ti</c><c>   2</c></rc>
    <rc><c>Ti</c><c>   2</c></rc>
    <rc><c>Ti</c><c>   2</c></rc>
    <rc><c>Ti</c><c>   2</c></rc>
    <rc><c>Ti</c><c>   2</c></rc>
    <rc><c>Ti</c><c>   2</c></rc>
    <rc><c>Ti</c><c>   2</c></rc>
    <rc><c>Ti</c><c>   2</c></rc>
    <rc><c>Ti</c><c>   2</c></rc>
    <rc><c>Ti</c><c>   2</c></rc>
    <rc><c>Ti</c><c>   2</c></rc>
    <rc><c>Ti</c><c>   2</c></rc>
    <rc><c>Ti</c><c>   2</c></rc>
    <rc><c>Ti</c><c>   2</c></rc>
    <rc><c>Ti</c><c>   2</c></rc>
    <rc><c>Ti</c><c>   2</c></rc>
    <rc><c>Ti</c><c>   2</c></rc>
    <rc><c>Ti</c><c>   2</c></rc>
    <rc><c>Ti</c><c>   2</c></rc>
    <rc><c>Ti</c><c>   2</c></rc>
    <rc><c>Ti</c><c>   2</c></rc>
    <rc><c>Ti</c><c>   2</c></rc>
    <rc><c>Ti</c><c>   2</c></rc>
    <rc><c>Fe</c><c>   3</c></rc>
    <rc><c>Fe</c><c>   3</c></rc>
    <rc><c>Fe</c><c>   3</c></rc>
    <rc><c>Fe</c><c>   3</c></rc>
    <rc><c>O </c><c>   4</c></rc>
    <rc><c>O </c><c>   4</c></rc>
    <rc><c>O </c><c>   4</c></rc>
    <rc><c>O </c><c>   4</c></rc>
    <rc><c>O </c><c>   4</c></rc>
    <rc><c>O </c><c>   4</c></rc>
    <rc><c>O </c><c>   4</c></rc>
    <rc><c>O </c><c>   4</c></rc>
    <rc><c>O </c><c>   4</c></rc>
    <rc><c>O </c><c>   4</c></rc>
    <rc><c>O </c><c>   4</c></rc>
    <rc><c>O </c><c>   4</c></rc>
    <rc><c>O </c><c>   4</c></rc>
    <rc><c>O </c><c>   4</c></rc>
    <rc><c>O </c><c>   4</c></rc>
    <rc><c>O </c><c>   4</c></rc>
    <rc><c>O </c><c>   4</c></rc>
    <rc><c>O </c><c>   4</c></rc>
    <rc><c>O </c><c>   4</c></rc>
    <rc><c>O </c><c>   4</c></rc>
    <rc><c>O </c><c>   4</c></rc>
    <rc><c>O </c><c>   4</c></rc>
    <rc><c>O </c><c>   4</c></rc>
    <rc><c>O </c><c>   4</c></rc>
    <rc><c>O </c><c>   4</c></rc>
    <rc><c>O </c><c>   4</c></rc>
    <rc><c>O </c><c>   4</c></rc>
    <rc><c>O </c><c>   4</c></rc>
    <rc><c>O </c><c>   4</c></rc>
    <rc><c>O </c><c>   4</c></rc>
    <rc><c>O </c><c>   4</c></rc>
    <rc><c>O </c><c>   4</c></rc>
    <rc><c>O </c><c>   4</c></rc>
    <rc><c>O </c><c>   4</c></rc>
    <rc><c>O </c><c>   4</c></rc>
    <rc><c>O </c><c>   4</c></rc>
    <rc><c>O </c><c>   4</c></rc>
    <rc><c>O </c><c>   4</c></rc>
    <rc><c>O </c><c>   4</c></rc>
    <rc><c>O </c><c>   4</c></rc>
    <rc><c>O </c><c>   4</c></rc>
    <rc><c>O </c><c>   4</c></rc>
    <rc><c>O </c><c>   4</c></rc>
    <rc><c>O </c><c>   4</c></rc>
    <rc><c>O </c><c>   4</c></rc>
    <rc><c>O </c><c>   4</c></rc>
    <rc><c>O </c><c>   4</c></rc>
    <rc><c>O </c><c>   4</c></rc>
    <rc><c>O </c><c>   4</c></rc>
    <rc><c>O </c><c>   4</c></rc>
    <rc><c>O </c><c>   4</c></rc>
    <rc><c>O </c><c>   4</c></rc>
    <rc><c>O </c><c>   4</c></rc>
    <rc><c>O </c><c>   4</c></rc>
    <rc><c>O </c><c>   4</c></rc>
    <rc><c>O </c><c>   4</c></rc>
    <rc><c>O </c><c>   4</c></rc>
    <rc><c>O </c><c>   4</c></rc>
    <rc><c>O </c><c>   4</c></rc>
    <rc><c>O </c><c>   4</c></rc>
    <rc><c>O </c><c>   4</c></rc>
    <rc><c>O </c><c>   4</c></rc>
    <rc><c>O </c><c>   4</c></rc>
    <rc><c>O </c><c>   4</c></rc>
    <rc><c>O </c><c>   4</c></rc>
    <rc><c>O </c><c>   4</c></rc>
    <rc><c>O </c><c>   4</c></rc>
    <rc><c>O </c><c>   4</c></rc>
    <rc><c>O </c><c>   4</c></rc>
    <rc><c>O </c><c>   4</c></rc>
    <rc><c>O </c><c>   4</c></rc>
    <rc><c>O </c><c>   4</c></rc>
    <rc><c>O </c><c>   4</c></rc>
    <rc><c>O </c><c>   4</c></rc>
    <rc><c>O </c><c>   4</c></rc>
    <rc><c>O </c><c>   4</c></rc>
    <rc><c>O </c><c>   4</c></rc>
    <rc><c>O </c><c>   4</c></rc>
    <rc><c>O </c><c>   4</c></rc>
    <rc><c>O </c><c>   4</c></rc>
    <rc><c>O </c><c>   4</c></rc>
    <rc><c>O </c><c>   4</c></rc>
    <rc><c>O </c><c>   4</c></rc>
    <rc><c>O </c><c>   4</c></rc>
    <rc><c>O </c><c>   4</c></rc>
    <rc><c>O </c><c>   4</c></rc>
    <rc><c>O </c><c>   4</c></rc>
    <rc><c>O </c><c>   4</c></rc>
    <rc><c>O </c><c>   4</c></rc>
    <rc><c>O </c><c>   4</c></rc>
    <rc><c>O </c><c>   4</c></rc>
    <rc><c>O </c><c>   4</c></rc>
    <rc><c>O </c><c>   4</c></rc>
    <rc><c>O </c><c>   4</c></rc>
   </set>
  </array>
  <array name="atomtypes" >
   <dimension dim="1">type</dimension>
   <field type="int">atomspertype</field>
   <field type="string">element</field>
   <field>mass</field>
   <field>valence</field>
   <field type="string">pseudopotential</field>
   <set>
    <rc><c>  32</c><c>Sr</c><c>     87.62000000</c><c>     10.00000000</c><c>  PAW_PBE Sr_sv 07Sep2000               </c></rc>
    <rc><c>  28</c><c>Ti</c><c>     47.88000000</c><c>      4.00000000</c><c>  PAW_PBE Ti 08Apr2002                  </c></rc>
    <rc><c>   4</c><c>Fe</c><c>     55.84700000</c><c>      8.00000000</c><c>  PAW_PBE Fe 06Sep2000                  </c></rc>
    <rc><c>  94</c><c>O </c><c>     16.00000000</c><c>      6.00000000</c><c>  PAW_PBE O 08Apr2002                   </c></rc>
   </set>
  </array>
 </atominfo>
 <structure name="initialpos" >
  <crystal>
   <varray name="basis" >
    <v>      11.19119486      -0.00640661      -0.00503575 </v>
    <v>      -0.00640661      11.19119486       0.00503575 </v>
    <v>      -0.00720089       0.00720089      15.97408098 </v>
   </varray>
   <i name="volume">   2000.63783737 </i>
   <varray name="rec_basis" >
    <v>       0.08935601       0.00005114       0.00004026 </v>
    <v>       0.00005114       0.08935601      -0.00004026 </v>
    <v>       0.00002815      -0.00002815       0.06260144 </v>
   </varray>
  </crystal>
  <varray name="positions" >
   <v>       0.00011186       0.25738749       0.12635106 </v>
   <v>       0.99983661       0.25029673       0.62386366 </v>
   <v>       0.00076433       0.74275801       0.12568679 </v>
   <v>       0.00048009       0.74854837       0.62368313 </v>
   <v>       0.49889713       0.25191917       0.12527374 </v>
   <v>       0.49900595       0.25065351       0.62490969 </v>
   <v>       0.49984540       0.74792609       0.12619776 </v>
   <v>       0.49961865       0.74994540       0.62381437 </v>
   <v>       0.00738749       0.25011186       0.37364894 </v>
   <v>       0.00029673       0.24983661       0.87613634 </v>
   <v>       0.00191917       0.74889713       0.37472626 </v>
   <v>       0.00065351       0.74900595       0.87509031 </v>
   <v>       0.49275801       0.25076433       0.37431321 </v>
   <v>       0.49854837       0.25048009       0.87631687 </v>
   <v>       0.49792609       0.74984540       0.37380224 </v>
   <v>       0.49994540       0.74961865       0.87618563 </v>
   <v>       0.25757494       0.99979301       0.12618161 </v>
   <v>       0.25072629       0.99975338       0.62342864 </v>
   <v>       0.25182771       0.50003569       0.12629659 </v>
   <v>       0.25066093       0.50047057       0.62383410 </v>
   <v>       0.74503299       0.00075084       0.12645823 </v>
   <v>       0.74864680       0.99940478       0.62422402 </v>
   <v>       0.74785369       0.50117897       0.12493797 </v>
   <v>       0.74996789       0.50092431       0.62453031 </v>
   <v>       0.25117897       0.99785369       0.37506203 </v>
   <v>       0.25092431       0.99996789       0.87546969 </v>
   <v>       0.25003569       0.50182771       0.37370341 </v>
   <v>       0.25047057       0.50066093       0.87616590 </v>
   <v>       0.75075084       0.99503299       0.37354177 </v>
   <v>       0.74940478       0.99864680       0.87577598 </v>
   <v>       0.74979301       0.50757494       0.37381839 </v>
   <v>       0.74975338       0.50072629       0.87657136 </v>
   <v>       0.99817290       0.00159273       0.50000636 </v>
   <v>       0.99982722       0.49948855       0.99987599 </v>
   <v>       0.99812006       0.49834039       0.49904062 </v>
   <v>       0.50081773       0.00038296       0.00008559 </v>
   <v>       0.50198081       0.00184128       0.49898415 </v>
   <v>       0.50036457       0.49976427       0.99964310 </v>
   <v>       0.50161350       0.49839495       0.49866365 </v>
   <v>       0.24834039       0.24812006       0.00095938 </v>
   <v>       0.24948855       0.24982722       0.50012401 </v>
   <v>       0.24839495       0.75161350       0.00133635 </v>
   <v>       0.24976427       0.75036457       0.50035690 </v>
   <v>       0.75159273       0.24817290       0.99999364 </v>
   <v>       0.75184128       0.75198081       0.00101585 </v>
   <v>       0.75038296       0.75081773       0.49991441 </v>
   <v>       0.24833228       0.24806997       0.24841302 </v>
   <v>       0.24914675       0.24971997       0.75001077 </v>
   <v>       0.24863974       0.75153875       0.24801488 </v>
   <v>       0.24971873       0.75044099       0.74936930 </v>
   <v>       0.75036249       0.24927370       0.75228867 </v>
   <v>       0.75194025       0.75199194       0.24826619 </v>
   <v>       0.75068243       0.75042655       0.75008788 </v>
   <v>       0.99927370       0.00036249       0.74771133 </v>
   <v>       0.99806997       0.49833228       0.25158698 </v>
   <v>       0.99971997       0.49914675       0.74998923 </v>
   <v>       0.50199194       0.00194025       0.25173381 </v>
   <v>       0.50042655       0.00068243       0.74991212 </v>
   <v>       0.50153875       0.49863974       0.25198512 </v>
   <v>       0.50044099       0.49971873       0.75063070 </v>
   <v>       0.99973900       0.00017675       0.25969756 </v>
   <v>       0.00034978       0.99978129       0.99047452 </v>
   <v>       0.74978129       0.25034978       0.50952548 </v>
   <v>       0.75017675       0.24973900       0.24030244 </v>
   <v>       0.99482849       0.00699615       0.62373375 </v>
   <v>       0.99551324       0.49495549       0.12596192 </v>
   <v>       0.99459132       0.49594414       0.62436193 </v>
   <v>       0.50481916       0.00632977       0.12608004 </v>
   <v>       0.50589270       0.00465400       0.62427118 </v>
   <v>       0.50477651       0.49639086       0.12581313 </v>
   <v>       0.50352995       0.49568435       0.62457826 </v>
   <v>       0.00662841       0.99214315       0.37686742 </v>
   <v>       0.00030371       0.99944567       0.87246711 </v>
   <v>       0.00563968       0.50580739       0.37517132 </v>
   <v>       0.00104629       0.50070729       0.87504404 </v>
   <v>       0.49341458       0.99365946       0.37524123 </v>
   <v>       0.49889246       0.99897604       0.87502685 </v>
   <v>       0.49420329       0.50516844       0.37579981 </v>
   <v>       0.49862073       0.50133889       0.87438140 </v>
   <v>       0.24495549       0.24551324       0.37403808 </v>
   <v>       0.24594414       0.24459132       0.87563807 </v>
   <v>       0.24639086       0.75477651       0.37418687 </v>
   <v>       0.24568435       0.75352995       0.87542174 </v>
   <v>       0.75699615       0.24482849       0.87626625 </v>
   <v>       0.75632977       0.75481916       0.37391996 </v>
   <v>       0.75465400       0.75589270       0.87572882 </v>
   <v>       0.25580739       0.25563968       0.12482868 </v>
   <v>       0.25070729       0.25104629       0.62495596 </v>
   <v>       0.25516844       0.74420329       0.12420019 </v>
   <v>       0.25133889       0.74862073       0.62561860 </v>
   <v>       0.74214315       0.25662841       0.12313258 </v>
   <v>       0.74944567       0.25030371       0.62753289 </v>
   <v>       0.74365946       0.74341458       0.12475877 </v>
   <v>       0.74897604       0.74889246       0.62497315 </v>
   <v>       0.11181706       0.13405729       0.23827061 </v>
   <v>       0.36347419       0.11306519       0.25045628 </v>
   <v>       0.61627063       0.13780427       0.26260232 </v>
   <v>       0.86319301       0.11319301       0.25000000 </v>
   <v>       0.13544729       0.38544729       0.25000000 </v>
   <v>       0.38618588       0.36273353       0.25156021 </v>
   <v>       0.63759526       0.38450457       0.26216983 </v>
   <v>       0.88405729       0.36181706       0.26172939 </v>
   <v>       0.11273353       0.63618588       0.24843979 </v>
   <v>       0.36271324       0.61271324       0.25000000 </v>
   <v>       0.61319133       0.63737708       0.25259631 </v>
   <v>       0.86306519       0.61347419       0.24954372 </v>
   <v>       0.13450457       0.88759526       0.23783017 </v>
   <v>       0.38737708       0.86319133       0.24740369 </v>
   <v>       0.63728665       0.88728665       0.25000000 </v>
   <v>       0.88780427       0.86627063       0.23739768 </v>
   <v>       0.13904249       0.11067098       0.50103664 </v>
   <v>       0.38890646       0.13973360       0.50002387 </v>
   <v>       0.64021170       0.11338442       0.48905654 </v>
   <v>       0.88634302       0.14077340       0.48812219 </v>
   <v>       0.11028059       0.36010339       0.50008619 </v>
   <v>       0.36028473       0.38869050       0.49859402 </v>
   <v>       0.61297570       0.36007974       0.49052072 </v>
   <v>       0.85956458       0.38704054       0.48967795 </v>
   <v>       0.13933007       0.61042405       0.50144392 </v>
   <v>       0.38917222       0.63976750       0.50070617 </v>
   <v>       0.63968348       0.61170934       0.49880284 </v>
   <v>       0.88924870       0.63943524       0.49983554 </v>
   <v>       0.10996299       0.86066588       0.50389391 </v>
   <v>       0.36045165       0.89006693       0.50218572 </v>
   <v>       0.61086651       0.86086787       0.49945670 </v>
   <v>       0.85987284       0.88995804       0.50167401 </v>
   <v>       0.10723526       0.14240573       0.74844123 </v>
   <v>       0.35816192       0.10818227       0.74925414 </v>
   <v>       0.60778224       0.14254247       0.75249312 </v>
   <v>       0.85675129       0.10675129       0.75000000 </v>
   <v>       0.14178974       0.39178974       0.75000000 </v>
   <v>       0.39095141       0.35807229       0.75138034 </v>
   <v>       0.64223223       0.39101988       0.75321934 </v>
   <v>       0.89240573       0.35723526       0.75155877 </v>
   <v>       0.10807229       0.64095141       0.74861966 </v>
   <v>       0.35890289       0.60890289       0.75000000 </v>
   <v>       0.60921893       0.64172528       0.75105205 </v>
   <v>       0.85818227       0.60816192       0.75074586 </v>
   <v>       0.14101988       0.89223223       0.74678066 </v>
   <v>       0.39172528       0.85921893       0.74894795 </v>
   <v>       0.64220812       0.89220812       0.75000000 </v>
   <v>       0.89254247       0.85778224       0.74750688 </v>
   <v>       0.13704054       0.10956458       0.01032205 </v>
   <v>       0.38943524       0.13924870       0.00016446 </v>
   <v>       0.63995804       0.10987284       0.99832599 </v>
   <v>       0.89077340       0.13634302       0.01187781 </v>
   <v>       0.11010339       0.36028059       0.99991381 </v>
   <v>       0.36042405       0.38933007       0.99855608 </v>
   <v>       0.61066588       0.35996299       0.99610609 </v>
   <v>       0.86067098       0.38904249       0.99896336 </v>
   <v>       0.13869050       0.61028473       0.00140598 </v>
   <v>       0.38976750       0.63917222       0.99929383 </v>
   <v>       0.64006693       0.61045165       0.99781428 </v>
   <v>       0.88973360       0.63890646       0.99997613 </v>
   <v>       0.11007974       0.86297570       0.00947928 </v>
   <v>       0.36170934       0.88968348       0.00119716 </v>
   <v>       0.61086787       0.86086651       0.00054330 </v>
   <v>       0.86338442       0.89021170       0.01094346 </v>
  </varray>
 </structure>
 <calculation>
  <scstep>
   <time name="dav">  212.74  212.73</time>
   <time name="total">  215.84  215.88</time>
   <energy>
    <i name="alphaZ">   5646.33811266 </i>
    <i name="ewald"> -61353.82205478 </i>
    <i name="hartreedc"> -15169.85754935 </i>
    <i name="XCdc">   2852.85743330 </i>
    <i name="pawpsdc"> 111619.26512015 </i>
    <i name="pawaedc">-110368.02003080 </i>
    <i name="eentropy">     -0.00000000 </i>
    <i name="bandstr">  -7030.18870988 </i>
    <i name="atom">  72650.08363186 </i>
    <i name="e_fr_energy">  -1153.34404684 </i>
    <i name="e_wo_entrp">  -1153.34404684 </i>
    <i name="e_0_energy">  -1153.34404684 </i>
   </energy>
  </scstep>
  <scstep>
   <time name="diag">   24.89   24.89</time>
   <time name="diis">   20.44   20.44</time>
   <time name="orth">   14.24   14.24</time>
   <time name="total">   62.70   62.87</time>
   <energy>
    <i name="e_fr_energy">  -1153.34404680 </i>
    <i name="e_wo_entrp">  -1153.34404680 </i>
    <i name="e_0_energy">  -1153.34404680 </i>
   </energy>
  </scstep>
  <scstep>
   <time name="diag">   24.88   24.89</time>
   <time name="diis">   17.90   17.92</time>
   <time name="orth">   14.15   14.16</time>
   <time name="total">   60.04   60.17</time>
   <energy>
    <i name="e_fr_energy">  -1153.34404678 </i>
    <i name="e_wo_entrp">  -1153.34404678 </i>
    <i name="e_0_energy">  -1153.34404678 </i>
   </energy>
  </scstep>
  <scstep>
   <time name="diag">   24.88   24.90</time>
   <time name="diis">   16.38   16.38</time>
   <time name="orth">   14.20   14.19</time>
   <time name="total">   58.57   58.63</time>
   <energy>
    <i name="e_fr_energy">  -1153.34404674 </i>
    <i name="e_wo_entrp">  -1153.34404674 </i>
    <i name="e_0_energy">  -1153.34404674 </i>
   </energy>
  </scstep>
  <scstep>
   <time name="diag">   24.90   24.92</time>
   <time name="diis">   15.96   15.97</time>
   <time name="orth">   14.18   14.18</time>
   <time name="total">   58.16   58.26</time>
   <energy>
    <i name="e_fr_energy">  -1153.34404673 </i>
    <i name="e_wo_entrp">  -1153.34404673 </i>
    <i name="e_0_energy">  -1153.34404673 </i>
   </energy>
  </scstep>
  <scstep>
   <time name="diag">   24.88   24.89</time>
   <time name="diis">   15.71   15.73</time>
   <time name="orth">   14.16   14.16</time>
   <time name="total">   57.87   58.11</time>
   <energy>
    <i name="e_fr_energy">  -1153.34404673 </i>
    <i name="e_wo_entrp">  -1153.34404673 </i>
    <i name="e_0_energy">  -1153.34404673 </i>
   </energy>
  </scstep>
  <scstep>
   <time name="diag">   24.90   24.90</time>
   <time name="diis">   15.66   15.67</time>
   <time name="orth">   14.17   14.19</time>
   <time name="total">   57.84   57.91</time>
   <energy>
    <i name="e_fr_energy">  -1153.34404672 </i>
    <i name="e_wo_entrp">  -1153.34404672 </i>
    <i name="e_0_energy">  -1153.34404672 </i>
   </energy>
  </scstep>
  <scstep>
   <time name="diag">   24.88   24.90</time>
   <time name="diis">   15.58   15.59</time>
   <time name="orth">   14.16   14.16</time>
   <time name="total">   55.20   55.30</time>
   <energy>
    <i name="alphaZ">   5646.33811266 </i>
    <i name="ewald"> -61353.82205478 </i>
    <i name="hartreedc"> -15169.84187324 </i>
    <i name="XCdc">   2852.85693930 </i>
    <i name="pawpsdc"> 111619.17710594 </i>
    <i name="pawaedc">-110367.92958620 </i>
    <i name="eentropy">     -0.00000000 </i>
    <i name="bandstr">  -7030.20632224 </i>
    <i name="atom">  72650.08363186 </i>
    <i name="e_fr_energy">  -1153.34404670 </i>
    <i name="e_wo_entrp">  -1153.34404670 </i>
    <i name="e_0_energy">  -1153.34404670 </i>
   </energy>
  </scstep>
  <structure>
   <crystal>
    <varray name="basis" >
     <v>      11.19119486      -0.00640661      -0.00503575 </v>
     <v>      -0.00640661      11.19119486       0.00503575 </v>
     <v>      -0.00720089       0.00720089      15.97408098 </v>
    </varray>
    <i name="volume">   2000.63783737 </i>
    <varray name="rec_basis" >
     <v>       0.08935601       0.00005114       0.00004026 </v>
     <v>       0.00005114       0.08935601      -0.00004026 </v>
     <v>       0.00002815      -0.00002815       0.06260144 </v>
    </varray>
   </crystal>
   <varray name="positions" >
    <v>       0.00011186       0.25738749       0.12635106 </v>
    <v>       0.99983661       0.25029673       0.62386366 </v>
    <v>       0.00076433       0.74275801       0.12568679 </v>
    <v>       0.00048009       0.74854837       0.62368313 </v>
    <v>       0.49889713       0.25191917       0.12527374 </v>
    <v>       0.49900595       0.25065351       0.62490969 </v>
    <v>       0.49984540       0.74792609       0.12619776 </v>
    <v>       0.49961865       0.74994540       0.62381437 </v>
    <v>       0.00738749       0.25011186       0.37364894 </v>
    <v>       0.00029673       0.24983661       0.87613634 </v>
    <v>       0.00191917       0.74889713       0.37472626 </v>
    <v>       0.00065351       0.74900595       0.87509031 </v>
    <v>       0.49275801       0.25076433       0.37431321 </v>
    <v>       0.49854837       0.25048009       0.87631687 </v>
    <v>       0.49792609       0.74984540       0.37380224 </v>
    <v>       0.49994540       0.74961865       0.87618563 </v>
    <v>       0.25757494       0.99979301       0.12618161 </v>
    <v>       0.25072629       0.99975338       0.62342864 </v>
    <v>       0.25182771       0.50003569       0.12629659 </v>
    <v>       0.25066093       0.50047057       0.62383410 </v>
    <v>       0.74503299       0.00075084       0.12645823 </v>
    <v>       0.74864680       0.99940478       0.62422402 </v>
    <v>       0.74785369       0.50117897       0.12493797 </v>
    <v>       0.74996789       0.50092431       0.62453031 </v>
    <v>       0.25117897       0.99785369       0.37506203 </v>
    <v>       0.25092431       0.99996789       0.87546969 </v>
    <v>       0.25003569       0.50182771       0.37370341 </v>
    <v>       0.25047057       0.50066093       0.87616590 </v>
    <v>       0.75075084       0.99503299       0.37354177 </v>
    <v>       0.74940478       0.99864680       0.87577598 </v>
    <v>       0.74979301       0.50757494       0.37381839 </v>
    <v>       0.74975338       0.50072629       0.87657136 </v>
    <v>       0.99817290       0.00159273       0.50000636 </v>
    <v>       0.99982722       0.49948855       0.99987599 </v>
    <v>       0.99812006       0.49834039       0.49904062 </v>
    <v>       0.50081773       0.00038296       0.00008559 </v>
    <v>       0.50198081       0.00184128       0.49898415 </v>
    <v>       0.50036457       0.49976427       0.99964310 </v>
    <v>       0.50161350       0.49839495       0.49866365 </v>
    <v>       0.24834039       0.24812006       0.00095938 </v>
    <v>       0.24948855       0.24982722       0.50012401 </v>
    <v>       0.24839495       0.75161350       0.00133635 </v>
    <v>       0.24976427       0.75036457       0.50035690 </v>
    <v>       0.75159273       0.24817290       0.99999364 </v>
    <v>       0.75184128       0.75198081       0.00101585 </v>
    <v>       0.75038296       0.75081773       0.49991441 </v>
    <v>       0.24833228       0.24806997       0.24841302 </v>
    <v>       0.24914675       0.24971997       0.75001077 </v>
    <v>       0.24863974       0.75153875       0.24801488 </v>
    <v>       0.24971873       0.75044099       0.74936930 </v>
    <v>       0.75036249       0.24927370       0.75228867 </v>
    <v>       0.75194025       0.75199194       0.24826619 </v>
    <v>       0.75068243       0.75042655       0.75008788 </v>
    <v>       0.99927370       0.00036249       0.74771133 </v>
    <v>       0.99806997       0.49833228       0.25158698 </v>
    <v>       0.99971997       0.49914675       0.74998923 </v>
    <v>       0.50199194       0.00194025       0.25173381 </v>
    <v>       0.50042655       0.00068243       0.74991212 </v>
    <v>       0.50153875       0.49863974       0.25198512 </v>
    <v>       0.50044099       0.49971873       0.75063070 </v>
    <v>       0.99973900       0.00017675       0.25969756 </v>
    <v>       0.00034978       0.99978129       0.99047452 </v>
    <v>       0.74978129       0.25034978       0.50952548 </v>
    <v>       0.75017675       0.24973900       0.24030244 </v>
    <v>       0.99482849       0.00699615       0.62373375 </v>
    <v>       0.99551324       0.49495549       0.12596192 </v>
    <v>       0.99459132       0.49594414       0.62436193 </v>
    <v>       0.50481916       0.00632977       0.12608004 </v>
    <v>       0.50589270       0.00465400       0.62427118 </v>
    <v>       0.50477651       0.49639086       0.12581313 </v>
    <v>       0.50352995       0.49568435       0.62457826 </v>
    <v>       0.00662841       0.99214315       0.37686742 </v>
    <v>       0.00030371       0.99944567       0.87246711 </v>
    <v>       0.00563968       0.50580739       0.37517132 </v>
    <v>       0.00104629       0.50070729       0.87504404 </v>
    <v>       0.49341458       0.99365946       0.37524123 </v>
    <v>       0.49889246       0.99897604       0.87502685 </v>
    <v>       0.49420329       0.50516844       0.37579981 </v>
    <v>       0.49862073       0.50133889       0.87438140 </v>
    <v>       0.24495549       0.24551324       0.37403808 </v>
    <v>       0.24594414       0.24459132       0.87563807 </v>
    <v>       0.24639086       0.75477651       0.37418687 </v>
    <v>       0.24568435       0.75352995       0.87542174 </v>
    <v>       0.75699615       0.24482849       0.87626625 </v>
    <v>       0.75632977       0.75481916       0.37391996 </v>
    <v>       0.75465400       0.75589270       0.87572882 </v>
    <v>       0.25580739       0.25563968       0.12482868 </v>
    <v>       0.25070729       0.25104629       0.62495596 </v>
    <v>       0.25516844       0.74420329       0.12420019 </v>
    <v>       0.25133889       0.74862073       0.62561860 </v>
    <v>       0.74214315       0.25662841       0.12313258 </v>
    <v>       0.74944567       0.25030371       0.62753289 </v>
    <v>       0.74365946       0.74341458       0.12475877 </v>
    <v>       0.74897604       0.74889246       0.62497315 </v>
    <v>       0.11181706       0.13405729       0.23827061 </v>
    <v>       0.36347419       0.11306519       0.25045628 </v>
    <v>       0.61627063       0.13780427       0.26260232 </v>
    <v>       0.86319301       0.11319301       0.25000000 </v>
    <v>       0.13544729       0.38544729       0.25000000 </v>
    <v>       0.38618588       0.36273353       0.25156021 </v>
    <v>       0.63759526       0.38450457       0.26216983 </v>
    <v>       0.88405729       0.36181706       0.26172939 </v>
    <v>       0.11273353       0.63618588       0.24843979 </v>
    <v>       0.36271324       0.61271324       0.25000000 </v>
    <v>       0.61319133       0.63737708       0.25259631 </v>
    <v>       0.86306519       0.61347419       0.24954372 </v>
    <v>       0.13450457       0.88759526       0.23783017 </v>
    <v>       0.38737708       0.86319133       0.24740369 </v>
    <v>       0.63728665       0.88728665       0.25000000 </v>
    <v>       0.88780427       0.86627063       0.23739768 </v>
    <v>       0.13904249       0.11067098       0.50103664 </v>
    <v>       0.38890646       0.13973360       0.50002387 </v>
    <v>       0.64021170       0.11338442       0.48905654 </v>
    <v>       0.88634302       0.14077340       0.48812219 </v>
    <v>       0.11028059       0.36010339       0.50008619 </v>
    <v>       0.36028473       0.38869050       0.49859402 </v>
    <v>       0.61297570       0.36007974       0.49052072 </v>
    <v>       0.85956458       0.38704054       0.48967795 </v>
    <v>       0.13933007       0.61042405       0.50144392 </v>
    <v>       0.38917222       0.63976750       0.50070617 </v>
    <v>       0.63968348       0.61170934       0.49880284 </v>
    <v>       0.88924870       0.63943524       0.49983554 </v>
    <v>       0.10996299       0.86066588       0.50389391 </v>
    <v>       0.36045165       0.89006693       0.50218572 </v>
    <v>       0.61086651       0.86086787       0.49945670 </v>
    <v>       0.85987284       0.88995804       0.50167401 </v>
    <v>       0.10723526       0.14240573       0.74844123 </v>
    <v>       0.35816192       0.10818227       0.74925414 </v>
    <v>       0.60778224       0.14254247       0.75249312 </v>
    <v>       0.85675129       0.10675129       0.75000000 </v>
    <v>       0.14178974       0.39178974       0.75000000 </v>
    <v>       0.39095141       0.35807229       0.75138034 </v>
    <v>       0.64223223       0.39101988       0.75321934 </v>
    <v>       0.89240573       0.35723526       0.75155877 </v>
    <v>       0.10807229       0.64095141       0.74861966 </v>
    <v>       0.35890289       0.60890289       0.75000000 </v>
    <v>       0.60921893       0.64172528       0.75105205 </v>
    <v>       0.85818227       0.60816192       0.75074586 </v>
    <v>       0.14101988       0.89223223       0.74678066 </v>
    <v>       0.39172528       0.85921893       0.74894795 </v>
    <v>       0.64220812       0.89220812       0.75000000 </v>
    <v>       0.89254247       0.85778224       0.74750688 </v>
    <v>       0.13704054       0.10956458       0.01032205 </v>
    <v>       0.38943524       0.13924870       0.00016446 </v>
    <v>       0.63995804       0.10987284       0.99832599 </v>
    <v>       0.89077340       0.13634302       0.01187781 </v>
    <v>       0.11010339       0.36028059       0.99991381 </v>
    <v>       0.36042405       0.38933007       0.99855608 </v>
    <v>       0.61066588       0.35996299       0.99610609 </v>
    <v>       0.86067098       0.38904249       0.99896336 </v>
    <v>       0.13869050       0.61028473       0.00140598 </v>
    <v>       0.38976750       0.63917222       0.99929383 </v>
    <v>       0.64006693       0.61045165       0.99781428 </v>
    <v>       0.88973360       0.63890646       0.99997613 </v>
    <v>       0.11007974       0.86297570       0.00947928 </v>
    <v>       0.36170934       0.88968348       0.00119716 </v>
    <v>       0.61086787       0.86086651       0.00054330 </v>
    <v>       0.86338442       0.89021170       0.01094346 </v>
   </varray>
  </structure>
  <varray name="forces" >
   <v>      -0.00267514      -0.01275107      -0.00556197 </v>
   <v>      -0.00262544      -0.00147380       0.00611822 </v>
   <v>      -0.00062454       0.01365166      -0.00184703 </v>
   <v>      -0.00188985       0.00106469       0.00111556 </v>
   <v>       0.00153554       0.00387525      -0.01316044 </v>
   <v>      -0.00253060       0.00734841      -0.00037897 </v>
   <v>      -0.00351937      -0.00588684      -0.00576535 </v>
   <v>      -0.00357334      -0.00183495       0.00051291 </v>
   <v>      -0.01275107      -0.00267514       0.00556197 </v>
   <v>      -0.00147380      -0.00262544      -0.00611822 </v>
   <v>       0.00387525       0.00153554       0.01316044 </v>
   <v>       0.00734841      -0.00253060       0.00037897 </v>
   <v>       0.01365166      -0.00062454       0.00184703 </v>
   <v>       0.00106469      -0.00188985      -0.00111556 </v>
   <v>      -0.00588684      -0.00351937       0.00576535 </v>
   <v>      -0.00183495      -0.00357334      -0.00051291 </v>
   <v>      -0.01023385      -0.00022020      -0.00168073 </v>
   <v>      -0.00944956       0.00203739      -0.00009137 </v>
   <v>       0.00836576       0.00405577      -0.00341495 </v>
   <v>      -0.00133958       0.00919012      -0.00133629 </v>
   <v>       0.01669949       0.00602470      -0.00296373 </v>
   <v>       0.00626044       0.00067959       0.01084205 </v>
   <v>       0.00071813      -0.00626323      -0.00472087 </v>
   <v>       0.00428891       0.00094466       0.00931585 </v>
   <v>      -0.00626323       0.00071813       0.00472087 </v>
   <v>       0.00094466       0.00428891      -0.00931585 </v>
   <v>       0.00405577       0.00836576       0.00341495 </v>
   <v>       0.00919012      -0.00133958       0.00133629 </v>
   <v>       0.00602470       0.01669949       0.00296373 </v>
   <v>       0.00067959       0.00626044      -0.01084205 </v>
   <v>      -0.00022020      -0.01023385       0.00168073 </v>
   <v>       0.00203739      -0.00944956       0.00009137 </v>
   <v>       0.01976161       0.02575815      -0.00058588 </v>
   <v>      -0.01733722       0.00056246      -0.02694951 </v>
   <v>       0.00458560      -0.01797819      -0.00604817 </v>
   <v>      -0.01311749      -0.01145613      -0.03208517 </v>
   <v>      -0.00793076       0.00140589      -0.02449027 </v>
   <v>      -0.01732501       0.01492809      -0.02496289 </v>
   <v>      -0.00021079       0.01077499      -0.00635085 </v>
   <v>      -0.01797819       0.00458560       0.00604817 </v>
   <v>       0.00056246      -0.01733722       0.02694951 </v>
   <v>       0.01077499      -0.00021079       0.00635085 </v>
   <v>       0.01492809      -0.01732501       0.02496289 </v>
   <v>       0.02575815       0.01976161       0.00058588 </v>
   <v>       0.00140589      -0.00793076       0.02449027 </v>
   <v>      -0.01145613      -0.01311749       0.03208517 </v>
   <v>      -0.00648101      -0.01544499      -0.01392519 </v>
   <v>      -0.00598449      -0.02596281      -0.02470221 </v>
   <v>       0.00215055      -0.00528852      -0.00844726 </v>
   <v>       0.00916495      -0.00525906      -0.02926165 </v>
   <v>       0.01767420       0.00668871      -0.01775209 </v>
   <v>       0.01497729       0.00182855      -0.01398827 </v>
   <v>      -0.00903655      -0.01165623      -0.07889938 </v>
   <v>       0.00668871       0.01767420       0.01775209 </v>
   <v>      -0.01544499      -0.00648101       0.01392519 </v>
   <v>      -0.02596281      -0.00598449       0.02470221 </v>
   <v>       0.00182855       0.01497729       0.01398827 </v>
   <v>      -0.01165623      -0.00903655       0.07889938 </v>
   <v>      -0.00528852       0.00215055       0.00844726 </v>
   <v>      -0.00525906       0.00916495       0.02926165 </v>
   <v>       0.00049411       0.01261894       0.00118549 </v>
   <v>       0.00199513      -0.00228528      -0.01137177 </v>
   <v>      -0.00228528       0.00199513       0.01137177 </v>
   <v>       0.01261894       0.00049411      -0.00118549 </v>
   <v>      -0.00021527      -0.01455288      -0.00959418 </v>
   <v>       0.00556112       0.01377901       0.00395850 </v>
   <v>       0.01077334       0.00872846      -0.00803469 </v>
   <v>       0.00571175      -0.00494384       0.00790186 </v>
   <v>      -0.00834148      -0.00218225      -0.00430719 </v>
   <v>       0.00966486      -0.00748564       0.00130588 </v>
   <v>       0.00057973       0.00543262      -0.00441556 </v>
   <v>      -0.00201279      -0.01566730      -0.00053458 </v>
   <v>      -0.00280928      -0.00589943       0.01326316 </v>
   <v>      -0.00186573      -0.00352863       0.00366180 </v>
   <v>       0.00733805       0.00094164      -0.00299714 </v>
   <v>       0.00007610      -0.00081263      -0.00318001 </v>
   <v>      -0.00368602      -0.00028761       0.00480624 </v>
   <v>       0.00481500      -0.00557351      -0.00118191 </v>
   <v>      -0.00105338      -0.00592338       0.00418132 </v>
   <v>       0.01377901       0.00556112      -0.00395850 </v>
   <v>       0.00872846       0.01077334       0.00803469 </v>
   <v>      -0.00748564       0.00966486      -0.00130588 </v>
   <v>       0.00543262       0.00057973       0.00441556 </v>
   <v>      -0.01455288      -0.00021527       0.00959418 </v>
   <v>      -0.00494384       0.00571175      -0.00790186 </v>
   <v>      -0.00218225      -0.00834148       0.00430719 </v>
   <v>      -0.00352863      -0.00186573      -0.00366180 </v>
   <v>       0.00094164       0.00733805       0.00299714 </v>
   <v>      -0.00557351       0.00481500       0.00118191 </v>
   <v>      -0.00592338      -0.00105338      -0.00418132 </v>
   <v>      -0.01566730      -0.00201279       0.00053458 </v>
   <v>      -0.00589943      -0.00280928      -0.01326316 </v>
   <v>      -0.00081263       0.00007610       0.00318001 </v>
   <v>      -0.00028761      -0.00368602      -0.00480624 </v>
   <v>       0.00817317      -0.00940475      -0.00337185 </v>
   <v>       0.01580029       0.00962982       0.00147366 </v>
   <v>       0.00625116      -0.00526910       0.01405442 </v>
   <v>       0.01006313       0.01006313      -0.00000000 </v>
   <v>       0.00259473       0.00259473      -0.00000000 </v>
   <v>      -0.00934162       0.01174049      -0.00777367 </v>
   <v>      -0.00400930      -0.00173582       0.00495025 </v>
   <v>      -0.00940475       0.00817317       0.00337185 </v>
   <v>       0.01174049      -0.00934162       0.00777367 </v>
   <v>       0.00412246       0.00412246      -0.00000000 </v>
   <v>       0.01174315      -0.00952300      -0.00281742 </v>
   <v>       0.00962982       0.01580029      -0.00147366 </v>
   <v>      -0.00173582      -0.00400930      -0.00495025 </v>
   <v>      -0.00952300       0.01174315       0.00281742 </v>
   <v>      -0.00825749      -0.00825749      -0.00000000 </v>
   <v>      -0.00526910       0.00625116      -0.01405442 </v>
   <v>      -0.01217263      -0.00640046      -0.01113025 </v>
   <v>      -0.00570651      -0.00348256      -0.00022087 </v>
   <v>      -0.00560714       0.00616423      -0.00693178 </v>
   <v>       0.00630092      -0.01256008      -0.01086732 </v>
   <v>       0.01541870      -0.00188773      -0.00568940 </v>
   <v>      -0.00018052       0.00326456       0.00722810 </v>
   <v>      -0.00651881       0.00205737       0.00631063 </v>
   <v>      -0.00263906      -0.00021483       0.00045836 </v>
   <v>       0.00442898       0.01041940      -0.00738025 </v>
   <v>      -0.00769391       0.00609047      -0.00318425 </v>
   <v>       0.00455970       0.00871032      -0.00101276 </v>
   <v>      -0.00641539       0.01031292      -0.00580262 </v>
   <v>      -0.00580439      -0.00229286      -0.01221220 </v>
   <v>      -0.00354757      -0.01232371      -0.00423698 </v>
   <v>       0.00808125      -0.00419566      -0.00240660 </v>
   <v>       0.00172105       0.00644353      -0.00052959 </v>
   <v>      -0.00608287      -0.01022220      -0.00190096 </v>
   <v>      -0.00151053       0.00783988      -0.00191167 </v>
   <v>       0.00232787       0.00569564       0.00572596 </v>
   <v>      -0.00571813      -0.00571813      -0.00000000 </v>
   <v>      -0.00010575      -0.00010575      -0.00000000 </v>
   <v>       0.00467727       0.00778181      -0.01295102 </v>
   <v>       0.00397751      -0.00648727      -0.00817115 </v>
   <v>      -0.01022220      -0.00608287       0.00190096 </v>
   <v>       0.00778181       0.00467727       0.01295102 </v>
   <v>      -0.00005171      -0.00005171      -0.00000000 </v>
   <v>       0.00269289      -0.00174013      -0.00452459 </v>
   <v>       0.00783988      -0.00151053       0.00191167 </v>
   <v>      -0.00648727       0.00397751       0.00817115 </v>
   <v>      -0.00174013       0.00269289       0.00452459 </v>
   <v>      -0.00900564      -0.00900564      -0.00000000 </v>
   <v>       0.00569564       0.00232787      -0.00572596 </v>
   <v>      -0.00021483      -0.00263906      -0.00045836 </v>
   <v>       0.01031292      -0.00641539       0.00580262 </v>
   <v>       0.00644353       0.00172105       0.00052959 </v>
   <v>      -0.01256008       0.00630092       0.01086732 </v>
   <v>      -0.00188773       0.01541870       0.00568940 </v>
   <v>       0.01041940       0.00442898       0.00738025 </v>
   <v>      -0.00229286      -0.00580439       0.01221220 </v>
   <v>      -0.00640046      -0.01217263       0.01113025 </v>
   <v>       0.00326456      -0.00018052      -0.00722810 </v>
   <v>       0.00609047      -0.00769391       0.00318425 </v>
   <v>      -0.01232371      -0.00354757       0.00423698 </v>
   <v>      -0.00348256      -0.00570651       0.00022087 </v>
   <v>       0.00205737      -0.00651881      -0.00631063 </v>
   <v>       0.00871032       0.00455970       0.00101276 </v>
   <v>      -0.00419566       0.00808125       0.00240660 </v>
   <v>       0.00616423      -0.00560714       0.00693178 </v>
  </varray>
  <varray name="stress" >
   <v>       0.12257782      -0.02705547      -0.05961285 </v>
   <v>      -0.02705547       0.12257782       0.05961285 </v>
   <v>      -0.05961256       0.05961256       0.10082784 </v>
  </varray>
  <energy>
   <i name="e_fr_energy">  -1153.34404670 </i>
   <i name="e_wo_entrp">  -1153.34404670 </i>
   <i name="e_0_energy">     -0.00000000 </i>
  </energy>
  <time name="totalsc">  748.63  751.68</time>
 </calculation>
 <calculation>
  <scstep>
   <time name="dav">  219.84  219.86</time>
   <time name="total">  222.96  223.19</time>
   <energy>
    <i name="alphaZ">   5645.59335969 </i>
    <i name="ewald"> -61351.21479783 </i>
    <i name="hartreedc"> -15169.05118647 </i>
    <i name="XCdc">   2852.68576174 </i>
    <i name="pawpsdc"> 111619.17642927 </i>
    <i name="pawaedc">-110367.92891442 </i>
    <i name="eentropy">     -0.00000000 </i>
    <i name="bandstr">  -7032.68884659 </i>
    <i name="atom">  72650.08363186 </i>
    <i name="e_fr_energy">  -1153.34456274 </i>
    <i name="e_wo_entrp">  -1153.34456274 </i>
    <i name="e_0_energy">  -1153.34456274 </i>
   </energy>
  </scstep>
  <scstep>
   <time name="diag">   24.87   24.88</time>
   <time name="diis">   39.16   39.17</time>
   <time name="orth">   14.17   14.17</time>
   <time name="total">   81.29   81.31</time>
   <energy>
    <i name="e_fr_energy">  -1153.34479511 </i>
    <i name="e_wo_entrp">  -1153.34479511 </i>
    <i name="e_0_energy">  -1153.34479511 </i>
   </energy>
  </scstep>
  <scstep>
   <time name="diag">   24.87   24.88</time>
   <time name="diis">   33.31   33.32</time>
   <time name="orth">   14.17   14.17</time>
   <time name="total">   75.46   75.48</time>
   <energy>
    <i name="e_fr_energy">  -1153.34465611 </i>
    <i name="e_wo_entrp">  -1153.34465611 </i>
    <i name="e_0_energy">  -1153.34465611 </i>
   </energy>
  </scstep>
  <scstep>
   <time name="diag">   24.89   24.90</time>
   <time name="diis">   33.21   33.21</time>
   <time name="orth">   14.20   14.20</time>
   <time name="total">   75.40   75.46</time>
   <energy>
    <i name="e_fr_energy">  -1153.34454867 </i>
    <i name="e_wo_entrp">  -1153.34454867 </i>
    <i name="e_0_energy">  -1153.34454867 </i>
   </energy>
  </scstep>
  <scstep>
   <time name="diag">   24.89   24.90</time>
   <time name="diis">   23.95   23.95</time>
   <time name="orth">   14.16   14.16</time>
   <time name="total">   66.10   66.17</time>
   <energy>
    <i name="e_fr_energy">  -1153.34453120 </i>
    <i name="e_wo_entrp">  -1153.34453120 </i>
    <i name="e_0_energy">  -1153.34453120 </i>
   </energy>
  </scstep>
  <scstep>
   <time name="diag">   24.89   24.89</time>
   <time name="diis">   23.65   23.65</time>
   <time name="orth">   14.17   14.17</time>
   <time name="total">   65.82   65.88</time>
   <energy>
    <i name="e_fr_energy">  -1153.34452997 </i>
    <i name="e_wo_entrp">  -1153.34452997 </i>
    <i name="e_0_energy">  -1153.34452997 </i>
   </energy>
  </scstep>
  <scstep>
   <time name="diag">   24.86   24.87</time>
   <time name="diis">   22.43   22.43</time>
   <time name="orth">   14.20   14.20</time>
   <time name="total">   64.56   64.63</time>
   <energy>
    <i name="e_fr_energy">  -1153.34452852 </i>
    <i name="e_wo_entrp">  -1153.34452852 </i>
    <i name="e_0_energy">  -1153.34452852 </i>
   </energy>
  </scstep>
  <scstep>
   <time name="diag">   24.87   24.89</time>
   <time name="diis">   22.15   22.16</time>
   <time name="orth">   14.20   14.20</time>
   <time name="total">   61.80   61.83</time>
   <energy>
    <i name="alphaZ">   5645.59335969 </i>
    <i name="ewald"> -61351.21479783 </i>
    <i name="hartreedc"> -15170.86139579 </i>
    <i name="XCdc">   2852.81113346 </i>
    <i name="pawpsdc"> 111589.09439741 </i>
    <i name="pawaedc">-110337.82799800 </i>
    <i name="eentropy">     -0.00000000 </i>
    <i name="bandstr">  -7031.02285812 </i>
    <i name="atom">  72650.08363186 </i>
    <i name="e_fr_energy">  -1153.34452731 </i>
    <i name="e_wo_entrp">  -1153.34452731 </i>
    <i name="e_0_energy">  -1153.34452731 </i>
   </energy>
  </scstep>
  <structure>
   <crystal>
    <varray name="basis" >
     <v>      11.19171806      -0.00652246      -0.00529045 </v>
     <v>      -0.00652246      11.19171806       0.00529045 </v>
     <v>      -0.00756437       0.00756437      15.97469539 </v>
    </varray>
    <i name="volume">   2000.90175666 </i>
    <varray name="rec_basis" >
     <v>       0.08935184       0.00005205       0.00004229 </v>
     <v>       0.00005205       0.08935184      -0.00004229 </v>
     <v>       0.00002957      -0.00002957       0.06259903 </v>
    </varray>
   </crystal>
   <varray name="positions" >
    <v>       0.00010029       0.25733253       0.12633428 </v>
    <v>       0.99982530       0.25029035       0.62388213 </v>
    <v>       0.00076167       0.74281686       0.12568120 </v>
    <v>       0.00047195       0.74855295       0.62368649 </v>
    <v>       0.49890374       0.25193591       0.12523400 </v>
    <v>       0.49899506       0.25068518       0.62490853 </v>
    <v>       0.49983020       0.74790071       0.12618035 </v>
    <v>       0.49960324       0.74993748       0.62381591 </v>
    <v>       0.00733253       0.25010029       0.37366572 </v>
    <v>       0.00029035       0.24982530       0.87611787 </v>
    <v>       0.00193591       0.74890374       0.37476600 </v>
    <v>       0.00068518       0.74899506       0.87509147 </v>
    <v>       0.49281686       0.25076167       0.37431880 </v>
    <v>       0.49855295       0.25047195       0.87631351 </v>
    <v>       0.49790071       0.74983020       0.37381965 </v>
    <v>       0.49993748       0.74960324       0.87618409 </v>
    <v>       0.25753082       0.99979204       0.12617652 </v>
    <v>       0.25068556       0.99976214       0.62342835 </v>
    <v>       0.25186378       0.50005320       0.12628629 </v>
    <v>       0.25065517       0.50051018       0.62383005 </v>
    <v>       0.74510499       0.00077686       0.12644929 </v>
    <v>       0.74867381       0.99940770       0.62425677 </v>
    <v>       0.74785676       0.50115199       0.12492372 </v>
    <v>       0.74998640       0.50092838       0.62455845 </v>
    <v>       0.25115199       0.99785676       0.37507628 </v>
    <v>       0.25092838       0.99998640       0.87544155 </v>
    <v>       0.25005320       0.50186378       0.37371371 </v>
    <v>       0.25051018       0.50065517       0.87616995 </v>
    <v>       0.75077686       0.99510499       0.37355071 </v>
    <v>       0.74940770       0.99867381       0.87574323 </v>
    <v>       0.74979204       0.50753082       0.37382348 </v>
    <v>       0.74976214       0.50068556       0.87657165 </v>
    <v>       0.99825815       0.00170381       0.50000458 </v>
    <v>       0.99975243       0.49949098       0.99979458 </v>
    <v>       0.99813977       0.49826291       0.49902239 </v>
    <v>       0.50076109       0.00033361      -0.00001131 </v>
    <v>       0.50194658       0.00184736       0.49891017 </v>
    <v>       0.50028988       0.49982863       0.99956766 </v>
    <v>       0.50161260       0.49844141       0.49864446 </v>
    <v>       0.24826291       0.24813977       0.00097761 </v>
    <v>       0.24949098       0.24975243       0.50020542 </v>
    <v>       0.24844141       0.75161260       0.00135554 </v>
    <v>       0.24982863       0.75028988       0.50043234 </v>
    <v>       0.75170381       0.24825815       0.99999542 </v>
    <v>       0.75184736       0.75194658       0.00108983 </v>
    <v>       0.75033361       0.75076109       0.50001131 </v>
    <v>       0.24830427       0.24800340       0.24837098 </v>
    <v>       0.24912084       0.24960808       0.74993620 </v>
    <v>       0.24864898       0.75151598       0.24798938 </v>
    <v>       0.24975817       0.75041840       0.74928095 </v>
    <v>       0.75043867       0.24930261       0.75223507 </v>
    <v>       0.75200479       0.75199989       0.24822396 </v>
    <v>       0.75064329       0.75037643       0.74984961 </v>
    <v>       0.99930261       0.00043867       0.74776493 </v>
    <v>       0.99800340       0.49830427       0.25162902 </v>
    <v>       0.99960808       0.49912084       0.75006380 </v>
    <v>       0.50199989       0.00200479       0.25177604 </v>
    <v>       0.50037643       0.00064329       0.75015039 </v>
    <v>       0.50151598       0.49864898       0.25201062 </v>
    <v>       0.50041840       0.49975817       0.75071905 </v>
    <v>       0.99974117       0.00023114       0.25970113 </v>
    <v>       0.00035836       0.99977147       0.99044018 </v>
    <v>       0.74977147       0.25035836       0.50955982 </v>
    <v>       0.75023114       0.24974117       0.24029887 </v>
    <v>       0.99482751       0.00693344       0.62370479 </v>
    <v>       0.99553725       0.49501489       0.12597386 </v>
    <v>       0.99463777       0.49598181       0.62433766 </v>
    <v>       0.50484379       0.00630846       0.12610392 </v>
    <v>       0.50585672       0.00464458       0.62425816 </v>
    <v>       0.50481816       0.49635862       0.12581710 </v>
    <v>       0.50353245       0.49570778       0.62456492 </v>
    <v>       0.00661969       0.99207561       0.37686582 </v>
    <v>       0.00029161       0.99942020       0.87250717 </v>
    <v>       0.00563163       0.50579217       0.37518238 </v>
    <v>       0.00107792       0.50071137       0.87503499 </v>
    <v>       0.49341490       0.99365597       0.37523163 </v>
    <v>       0.49887658       0.99897479       0.87504136 </v>
    <v>       0.49422403       0.50514442       0.37579626 </v>
    <v>       0.49861618       0.50131334       0.87439403 </v>
    <v>       0.24501489       0.24553725       0.37402614 </v>
    <v>       0.24598181       0.24463777       0.87566234 </v>
    <v>       0.24635862       0.75481816       0.37418290 </v>
    <v>       0.24570778       0.75353245       0.87543508 </v>
    <v>       0.75693344       0.24482751       0.87629521 </v>
    <v>       0.75630846       0.75484379       0.37389608 </v>
    <v>       0.75464458       0.75585672       0.87574184 </v>
    <v>       0.25579217       0.25563163       0.12481762 </v>
    <v>       0.25071137       0.25107792       0.62496501 </v>
    <v>       0.25514442       0.74422403       0.12420374 </v>
    <v>       0.25131334       0.74861618       0.62560597 </v>
    <v>       0.74207561       0.25661969       0.12313418 </v>
    <v>       0.74942020       0.25029161       0.62749283 </v>
    <v>       0.74365597       0.74341490       0.12476837 </v>
    <v>       0.74897479       0.74887658       0.62495864 </v>
    <v>       0.11185226       0.13401678       0.23826045 </v>
    <v>       0.36354233       0.11310674       0.25046074 </v>
    <v>       0.61629759       0.13778154       0.26264478 </v>
    <v>       0.86323641       0.11323641       0.25000000 </v>
    <v>       0.13545848       0.38545848       0.25000000 </v>
    <v>       0.38614563       0.36278413       0.25153670 </v>
    <v>       0.63757798       0.38449706       0.26218478 </v>
    <v>       0.88401678       0.36185226       0.26173955 </v>
    <v>       0.11278413       0.63614563       0.24846330 </v>
    <v>       0.36273102       0.61273102       0.25000000 </v>
    <v>       0.61324192       0.63733606       0.25258783 </v>
    <v>       0.86310674       0.61354233       0.24953926 </v>
    <v>       0.13449706       0.88757798       0.23781522 </v>
    <v>       0.38733606       0.86324192       0.24741217 </v>
    <v>       0.63725103       0.88725103       0.25000000 </v>
    <v>       0.88778154       0.86629759       0.23735522 </v>
    <v>       0.13898998       0.11064338       0.50100302 </v>
    <v>       0.38888185       0.13971857       0.50002320 </v>
    <v>       0.64018753       0.11341099       0.48903559 </v>
    <v>       0.88637013       0.14071929       0.48808939 </v>
    <v>       0.11034704       0.36009530       0.50006903 </v>
    <v>       0.36028398       0.38870456       0.49861585 </v>
    <v>       0.61294762       0.36008859       0.49053976 </v>
    <v>       0.85955321       0.38703961       0.48967933 </v>
    <v>       0.13934918       0.61046899       0.50142163 </v>
    <v>       0.38913906       0.63979374       0.50069654 </v>
    <v>       0.63970316       0.61174690       0.49879978 </v>
    <v>       0.88922106       0.63947969       0.49981799 </v>
    <v>       0.10993794       0.86065600       0.50385703 </v>
    <v>       0.36043632       0.89001381       0.50217293 </v>
    <v>       0.61090133       0.86084980       0.49944945 </v>
    <v>       0.85988028       0.88998582       0.50167241 </v>
    <v>       0.10720901       0.14236166       0.74843549 </v>
    <v>       0.35815542       0.10821606       0.74924835 </v>
    <v>       0.60779230       0.14256701       0.75251041 </v>
    <v>       0.85672662       0.10672662       0.75000000 </v>
    <v>       0.14178929       0.39178929       0.75000000 </v>
    <v>       0.39097156       0.35810587       0.75134122 </v>
    <v>       0.64224934       0.39099194       0.75319468 </v>
    <v>       0.89236166       0.35720901       0.75156451 </v>
    <v>       0.10810587       0.64097156       0.74865878 </v>
    <v>       0.35890266       0.60890266       0.75000000 </v>
    <v>       0.60923052       0.64171779       0.75103839 </v>
    <v>       0.85821606       0.60815542       0.75075165 </v>
    <v>       0.14099194       0.89224934       0.74680532 </v>
    <v>       0.39171779       0.85923052       0.74896161 </v>
    <v>       0.64216928       0.89216928       0.75000000 </v>
    <v>       0.89256701       0.85779230       0.74748959 </v>
    <v>       0.13703961       0.10955321       0.01032067 </v>
    <v>       0.38947969       0.13922106       0.00018201 </v>
    <v>       0.63998582       0.10988028       0.99832759 </v>
    <v>       0.89071929       0.13637013       0.01191061 </v>
    <v>       0.11009530       0.36034704       0.99993097 </v>
    <v>       0.36046899       0.38934918       0.99857837 </v>
    <v>       0.61065600       0.35993794       0.99614297 </v>
    <v>       0.86064338       0.38898998       0.99899698 </v>
    <v>       0.13870456       0.61028398       0.00138415 </v>
    <v>       0.38979374       0.63913906       0.99930346 </v>
    <v>       0.64001381       0.61043632       0.99782707 </v>
    <v>       0.88971857       0.63888185       0.99997680 </v>
    <v>       0.11008859       0.86294762       0.00946024 </v>
    <v>       0.36174690       0.88970316       0.00120022 </v>
    <v>       0.61084980       0.86090133       0.00055055 </v>
    <v>       0.86341099       0.89018753       0.01096441 </v>
   </varray>
  </structure>
  <varray name="forces" >
   <v>      -0.00006656      -0.00488839      -0.00235848 </v>
   <v>      -0.00463290       0.00174816       0.00027356 </v>
   <v>       0.00337247       0.00666548       0.00177229 </v>
   <v>       0.00180999       0.00542579      -0.00647724 </v>
   <v>       0.00500246       0.00381315      -0.01329323 </v>
   <v>       0.00272957       0.00267878       0.00061726 </v>
   <v>      -0.00022552      -0.00050603       0.00355021 </v>
   <v>      -0.00560276       0.00667935      -0.00343019 </v>
   <v>      -0.00488839      -0.00006656       0.00235848 </v>
   <v>       0.00174816      -0.00463290      -0.00027356 </v>
   <v>       0.00381315       0.00500246       0.01329323 </v>
   <v>       0.00267878       0.00272957      -0.00061726 </v>
   <v>       0.00666548       0.00337247      -0.00177229 </v>
   <v>       0.00542579       0.00180999       0.00647724 </v>
   <v>      -0.00050603      -0.00022552      -0.00355021 </v>
   <v>       0.00667935      -0.00560276       0.00343019 </v>
   <v>      -0.00001158      -0.00380303       0.00185115 </v>
   <v>      -0.00261737      -0.00618293      -0.00470365 </v>
   <v>       0.00361442       0.00131838       0.00312292 </v>
   <v>      -0.00183020       0.00355114      -0.00167360 </v>
   <v>       0.00224319       0.00595309      -0.00359683 </v>
   <v>      -0.00237646       0.00251014       0.00374789 </v>
   <v>      -0.00651218      -0.00579282       0.00364681 </v>
   <v>      -0.00088681      -0.00688765       0.00019840 </v>
   <v>      -0.00579282      -0.00651218      -0.00364681 </v>
   <v>      -0.00688765      -0.00088681      -0.00019840 </v>
   <v>       0.00131838       0.00361442      -0.00312292 </v>
   <v>       0.00355114      -0.00183020       0.00167360 </v>
   <v>       0.00595309       0.00224319       0.00359683 </v>
   <v>       0.00251014      -0.00237646      -0.00374789 </v>
   <v>      -0.00380303      -0.00001158      -0.00185115 </v>
   <v>      -0.00618293      -0.00261737       0.00470365 </v>
   <v>      -0.00506700      -0.01408347      -0.00469996 </v>
   <v>       0.00868634       0.00768638       0.03034311 </v>
   <v>       0.00329246       0.00118583       0.00195947 </v>
   <v>       0.01510200       0.00899691       0.03695255 </v>
   <v>       0.00442225      -0.00576426       0.02596668 </v>
   <v>       0.01762954      -0.02180322       0.04672683 </v>
   <v>       0.00081412      -0.00728812       0.00273688 </v>
   <v>       0.00118583       0.00329246      -0.00195947 </v>
   <v>       0.00768638       0.00868634      -0.03034311 </v>
   <v>      -0.00728812       0.00081412      -0.00273688 </v>
   <v>      -0.02180322       0.01762954      -0.04672683 </v>
   <v>      -0.01408347      -0.00506700       0.00469996 </v>
   <v>      -0.00576426       0.00442225      -0.02596668 </v>
   <v>       0.00899691       0.01510200      -0.03695255 </v>
   <v>       0.00231896       0.00290772       0.00668304 </v>
   <v>       0.00925601       0.02194122       0.04983835 </v>
   <v>       0.00049321       0.00128758       0.01462623 </v>
   <v>      -0.00861659      -0.00242491       0.02078169 </v>
   <v>      -0.02104500      -0.00035892       0.00348818 </v>
   <v>      -0.00606705       0.01557735       0.01684122 </v>
   <v>       0.00767179       0.01771706       0.07926728 </v>
   <v>      -0.00035892      -0.02104500      -0.00348818 </v>
   <v>       0.00290772       0.00231896      -0.00668304 </v>
   <v>       0.02194122       0.00925601      -0.04983835 </v>
   <v>       0.01557735      -0.00606705      -0.01684122 </v>
   <v>       0.01771706       0.00767179      -0.07926728 </v>
   <v>       0.00128758       0.00049321      -0.01462623 </v>
[...]
       <r>   -15.7498     0.0000    32.0000 </r>
       <r>   -15.5982     0.0000    32.0000 </r>
       <r>   -15.4466     0.0000    32.0000 </r>
       <r>   -15.2949     0.0000    32.0000 </r>
       <r>   -15.1433     0.0832    32.0126 </r>
       <r>   -14.9916    23.4747    35.5723 </r>
       <r>   -14.8400    57.9995    44.3673 </r>
       <r>   -14.6884    47.3096    51.5412 </r>
       <r>   -14.5367    28.4024    55.8481 </r>
       <r>   -14.3851    26.6532    59.8898 </r>
       <r>   -14.2334    34.1113    65.0624 </r>
       <r>   -14.0818   112.8181    82.1699 </r>
       <r>   -13.9302   153.9197   105.5101 </r>
       <r>   -13.7785   109.2552   122.0774 </r>
       <r>   -13.6269    18.4149   124.8698 </r>
       <r>   -13.4753     6.7979   125.9006 </r>
       <r>   -13.3236     0.6555   126.0000 </r>
       <r>   -13.1720     0.0000   126.0000 </r>
       <r>   -13.0203     0.0000   126.0000 </r>
       <r>   -12.8687     0.0000   126.0000 </r>
       <r>   -12.7171     0.0415   126.0063 </r>
       <r>   -12.5654    20.1477   129.0615 </r>
       <r>   -12.4138   122.7547   147.6758 </r>
       <r>   -12.2621   178.5996   174.7584 </r>
       <r>   -12.1105   143.1628   196.4674 </r>
       <r>   -11.9589   122.1818   214.9949 </r>
       <r>   -11.8072    44.0280   221.6712 </r>
       <r>   -11.6556     2.1683   222.0000 </r>
       <r>   -11.5040     0.0000   222.0000 </r>
       <r>   -11.3523     0.0000   222.0000 </r>
       <r>   -11.2007     0.0000   222.0000 </r>
       <r>   -11.0490     0.0000   222.0000 </r>
       <r>   -10.8974     0.0000   222.0000 </r>
       <r>   -10.7458     0.0000   222.0000 </r>
       <r>   -10.5941     0.0000   222.0000 </r>
       <r>   -10.4425     0.0000   222.0000 </r>
       <r>   -10.2908     0.0000   222.0000 </r>
       <r>   -10.1392     0.0000   222.0000 </r>
       <r>    -9.9876     0.0000   222.0000 </r>
       <r>    -9.8359     0.0000   222.0000 </r>
       <r>    -9.6843     0.0000   222.0000 </r>
       <r>    -9.5326     0.0000   222.0000 </r>
       <r>    -9.3810     0.0000   222.0000 </r>
       <r>    -9.2294     0.0000   222.0000 </r>
       <r>    -9.0777     0.0000   222.0000 </r>
       <r>    -8.9261     0.0000   222.0000 </r>
       <r>    -8.7745     0.0000   222.0000 </r>
       <r>    -8.6228     0.0000   222.0000 </r>
       <r>    -8.4712     0.0000   222.0000 </r>
       <r>    -8.3195     0.0000   222.0000 </r>
       <r>    -8.1679     0.0000   222.0000 </r>
       <r>    -8.0163     0.0000   222.0000 </r>
       <r>    -7.8646     0.0000   222.0000 </r>
       <r>    -7.7130     0.0000   222.0000 </r>
       <r>    -7.5613     0.0000   222.0000 </r>
       <r>    -7.4097     0.0000   222.0000 </r>
       <r>    -7.2581     0.0000   222.0000 </r>
       <r>    -7.1064     0.0000   222.0000 </r>
       <r>    -6.9548     0.0000   222.0000 </r>
       <r>    -6.8032     0.0000   222.0000 </r>
       <r>    -6.6515     0.0000   222.0000 </r>
       <r>    -6.4999     0.0000   222.0000 </r>
       <r>    -6.3482     0.0000   222.0000 </r>
       <r>    -6.1966     0.0000   222.0000 </r>
       <r>    -6.0450     0.0000   222.0000 </r>
       <r>    -5.8933     0.0000   222.0000 </r>
       <r>    -5.7417     0.0000   222.0000 </r>
       <r>    -5.5900     0.0000   222.0000 </r>
       <r>    -5.4384     0.0000   222.0000 </r>
       <r>    -5.2868     0.0000   222.0000 </r>
       <r>    -5.1351     0.0000   222.0000 </r>
       <r>    -4.9835     0.0000   222.0000 </r>
       <r>    -4.8319     0.0000   222.0000 </r>
       <r>    -4.6802     0.0000   222.0000 </r>
       <r>    -4.5286     0.0000   222.0000 </r>
       <r>    -4.3769     0.0000   222.0000 </r>
       <r>    -4.2253     0.0000   222.0000 </r>
       <r>    -4.0737     0.0000   222.0000 </r>
       <r>    -3.9220     0.0000   222.0000 </r>
       <r>    -3.7704     0.0000   222.0000 </r>
       <r>    -3.6187     0.0000   222.0000 </r>
       <r>    -3.4671     0.0000   222.0000 </r>
       <r>    -3.3155     0.0000   222.0000 </r>
       <r>    -3.1638     0.0000   222.0000 </r>
       <r>    -3.0122     0.0000   222.0000 </r>
       <r>    -2.8606     0.0000   222.0000 </r>
       <r>    -2.7089     0.0000   222.0000 </r>
       <r>    -2.5573     0.0000   222.0000 </r>
       <r>    -2.4056     0.0000   222.0000 </r>
       <r>    -2.2540     1.5431   222.2340 </r>
       <r>    -2.1024    17.2561   224.8507 </r>
       <r>    -1.9507    38.0481   230.6202 </r>
       <r>    -1.7991    44.4616   237.3623 </r>
       <r>    -1.6474    63.5989   247.0064 </r>
       <r>    -1.4958    53.4562   255.1124 </r>
       <r>    -1.3442    58.2665   263.9478 </r>
       <r>    -1.1925    72.4584   274.9353 </r>
       <r>    -1.0409    67.9627   285.2411 </r>
       <r>    -0.8893    72.8711   296.2912 </r>
       <r>    -0.7376    79.9400   308.4131 </r>
       <r>    -0.5860   101.8226   323.8534 </r>
       <r>    -0.4343   135.7762   344.4423 </r>
       <r>    -0.2827    72.7003   355.4664 </r>
       <r>    -0.1311    47.5709   362.6800 </r>
       <r>     0.0206    46.5209   369.7344 </r>
       <r>     0.1722    37.3136   375.3926 </r>
       <r>     0.3239    46.7449   382.4809 </r>
       <r>     0.4755    55.6370   390.9176 </r>
       <r>     0.6271    60.8729   400.1483 </r>
       <r>     0.7788    44.9048   406.9576 </r>
       <r>     0.9304    48.3818   414.2941 </r>
       <r>     1.0820    57.9533   423.0821 </r>
       <r>     1.2337    83.9966   435.8192 </r>
       <r>     1.3853    82.3993   448.3141 </r>
       <r>     1.5370   111.2700   465.1869 </r>
       <r>     1.6886    77.5450   476.9457 </r>
       <r>     1.8402    69.4246   487.4732 </r>
       <r>     1.9919    52.4442   495.4258 </r>
       <r>     2.1435    37.7343   501.1477 </r>
       <r>     2.2952    17.1219   503.7441 </r>
       <r>     2.4468     1.6878   504.0000 </r>
       <r>     2.5984     0.0000   504.0000 </r>
       <r>     2.7501     0.0000   504.0000 </r>
       <r>     2.9017     0.0000   504.0000 </r>
       <r>     3.0533     0.0000   504.0000 </r>
       <r>     3.2050     0.0000   504.0000 </r>
       <r>     3.3566     0.0000   504.0000 </r>
       <r>     3.5083     0.0000   504.0000 </r>
       <r>     3.6599     0.0000   504.0000 </r>
       <r>     3.8115     0.0000   504.0000 </r>
       <r>     3.9632     0.0000   504.0000 </r>
       <r>     4.1148     0.0000   504.0000 </r>
       <r>     4.2665     0.0000   504.0000 </r>
       <r>     4.4181     2.5531   504.3871 </r>
       <r>     4.5697    18.4079   507.1785 </r>
       <r>     4.7214    28.7510   511.5383 </r>
       <r>     4.8730    41.1227   517.7741 </r>
       <r>     5.0246    26.6006   521.8077 </r>
       <r>     5.1763    25.3771   525.6559 </r>
       <r>     5.3279    46.9450   532.7746 </r>
       <r>     5.4796    69.6764   543.3402 </r>
       <r>     5.6312    45.2874   550.2075 </r>
       <r>     5.7828    73.4822   561.3502 </r>
       <r>     5.9345    94.1069   575.6205 </r>
       <r>     6.0861   103.5093   591.3165 </r>
       <r>     6.2378    70.2691   601.9720 </r>
       <r>     6.3894    50.4118   609.6163 </r>
       <r>     6.5410    34.9080   614.9097 </r>
       <r>     6.6927    26.8698   618.9842 </r>
       <r>     6.8443    24.9530   622.7681 </r>
       <r>     6.9960    25.0046   626.5597 </r>
       <r>     7.1476    17.9613   629.2833 </r>
       <r>     7.2992    13.5705   631.3411 </r>
       <r>     7.4509    21.0584   634.5344 </r>
       <r>     7.6025    12.6854   636.4580 </r>
       <r>     7.7541     9.7066   637.9299 </r>
       <r>     7.9058    16.6668   640.4572 </r>
       <r>     8.0574    33.5466   645.5442 </r>
       <r>     8.2091    18.7557   648.3883 </r>
       <r>     8.3607    22.4184   651.7878 </r>
       <r>     8.5123    22.6742   655.2261 </r>
       <r>     8.6640    23.7546   658.8282 </r>
       <r>     8.8156    30.8760   663.5102 </r>
       <r>     8.9673    24.8991   667.2858 </r>
       <r>     9.1189    34.4046   672.5029 </r>
       <r>     9.2705    39.7140   678.5251 </r>
       <r>     9.4222    40.0202   684.5937 </r>
       <r>     9.5738    44.2184   691.2989 </r>
       <r>     9.7254    39.2796   697.2552 </r>
       <r>     9.8771    54.7638   705.5595 </r>
       <r>    10.0287    72.0025   716.4778 </r>
       <r>    10.1804    75.5119   727.9284 </r>
       <r>    10.3320    73.3885   739.0569 </r>
       <r>    10.4836    56.2279   747.5832 </r>
       <r>    10.6353    54.4548   755.8406 </r>
       <r>    10.7869    57.3534   764.5376 </r>
       <r>    10.9386    22.8152   767.9973 </r>
       <r>    11.0902     0.0179   768.0000 </r>
       <r>    11.2418     0.0000   768.0000 </r>
       <r>    11.3935     0.0000   768.0000 </r>
       <r>    11.5451     0.0000   768.0000 </r>
       <r>    11.6967     0.0000   768.0000 </r>
       <r>    11.8484     0.0000   768.0000 </r>
       <r>    12.0000     0.0000   768.0000 </r>
       <r>    12.1517     0.0000   768.0000 </r>
       <r>    12.3033     0.0000   768.0000 </r>
       <r>    12.4549     0.0000   768.0000 </r>
       <r>    12.6066     0.0000   768.0000 </r>
       <r>    12.7582     0.0000   768.0000 </r>
       <r>    12.9099     0.0000   768.0000 </r>
      </set>
     </set>
    </array>
   </total>
  </dos>
 </calculation>
 <structure name="finalpos" >
  <crystal>
   <varray name="basis" >
    <v>      11.19150176      -0.00647457      -0.00518516 </v>
    <v>      -0.00647457      11.19150176       0.00518516 </v>
    <v>      -0.00741410       0.00741410      15.97444138 </v>
   </varray>
   <i name="volume">   2000.79264565 </i>
   <varray name="rec_basis" >
    <v>       0.08935356       0.00005167       0.00004145 </v>
    <v>       0.00005167       0.08935356      -0.00004145 </v>
    <v>       0.00002899      -0.00002899       0.06260003 </v>
   </varray>
  </crystal>
  <varray name="positions" >
   <v>       0.00010508       0.25735525       0.12634122 </v>
   <v>       0.99982997       0.25029299       0.62387450 </v>
   <v>       0.00076277       0.74279254       0.12568351 </v>
   <v>       0.00047532       0.74855106       0.62368510 </v>
   <v>       0.49890101       0.25192899       0.12525043 </v>
   <v>       0.49899956       0.25067208       0.62490901 </v>
   <v>       0.49983648       0.74791120       0.12618755 </v>
   <v>       0.49960961       0.74994075       0.62381527 </v>
   <v>       0.00735525       0.25010508       0.37365878 </v>
   <v>       0.00029299       0.24982997       0.87612550 </v>
   <v>       0.00192899       0.74890101       0.37474957 </v>
   <v>       0.00067208       0.74899956       0.87509099 </v>
   <v>       0.49279254       0.25076277       0.37431649 </v>
   <v>       0.49855106       0.25047532       0.87631490 </v>
   <v>       0.49791120       0.74983648       0.37381245 </v>
   <v>       0.49994075       0.74960961       0.87618473 </v>
   <v>       0.25754906       0.99979244       0.12617863 </v>
   <v>       0.25070240       0.99975851       0.62342847 </v>
   <v>       0.25184887       0.50004597       0.12629055 </v>
   <v>       0.25065755       0.50049381       0.62383173 </v>
   <v>       0.74507522       0.00076610       0.12645299 </v>
   <v>       0.74866265       0.99940649       0.62424323 </v>
   <v>       0.74785549       0.50116314       0.12492961 </v>
   <v>       0.74997875       0.50092670       0.62454681 </v>
   <v>       0.25116314       0.99785549       0.37507039 </v>
   <v>       0.25092670       0.99997875       0.87545319 </v>
   <v>       0.25004597       0.50184887       0.37370945 </v>
   <v>       0.25049381       0.50065755       0.87616827 </v>
   <v>       0.75076610       0.99507522       0.37354701 </v>
   <v>       0.74940649       0.99866265       0.87575677 </v>
   <v>       0.74979244       0.50754906       0.37382137 </v>
   <v>       0.74975851       0.50070240       0.87657153 </v>
   <v>       0.99822291       0.00165789       0.50000532 </v>
   <v>       0.99978335       0.49948997       0.99982823 </v>
   <v>       0.99813162       0.49829494       0.49902993 </v>
   <v>       0.50078451       0.00035401       0.00002875 </v>
   <v>       0.50196073       0.00184485       0.49894076 </v>
   <v>       0.50032076       0.49980202       0.99959885 </v>
   <v>       0.50161297       0.49842220       0.49865239 </v>
   <v>       0.24829494       0.24813162       0.00097007 </v>
   <v>       0.24948997       0.24978335       0.50017177 </v>
   <v>       0.24842220       0.75161297       0.00134761 </v>
   <v>       0.24980202       0.75032076       0.50040115 </v>
   <v>       0.75165789       0.24822291       0.99999468 </v>
   <v>       0.75184485       0.75196073       0.00105924 </v>
   <v>       0.75035401       0.75078451       0.49997125 </v>
   <v>       0.24831585       0.24803092       0.24838836 </v>
   <v>       0.24913156       0.24965434       0.74996703 </v>
   <v>       0.24864516       0.75152539       0.24799992 </v>
   <v>       0.24974187       0.75042774       0.74931747 </v>
   <v>       0.75040718       0.24929066       0.75225723 </v>
   <v>       0.75197811       0.75199660       0.24824142 </v>
   <v>       0.75065947       0.75039714       0.74994811 </v>
   <v>       0.99929066       0.00040718       0.74774277 </v>
   <v>       0.99803092       0.49831585       0.25161164 </v>
   <v>       0.99965434       0.49913156       0.75003297 </v>
   <v>       0.50199660       0.00197811       0.25175858 </v>
   <v>       0.50039714       0.00065947       0.75005189 </v>
   <v>       0.50152539       0.49864516       0.25200008 </v>
   <v>       0.50042774       0.49974187       0.75068253 </v>
   <v>       0.99974027       0.00020866       0.25969965 </v>
   <v>       0.00035481       0.99977553       0.99045437 </v>
   <v>       0.74977553       0.25035481       0.50954563 </v>
   <v>       0.75020866       0.24974027       0.24030035 </v>
   <v>       0.99482792       0.00695937       0.62371676 </v>
   <v>       0.99552733       0.49499033       0.12596893 </v>
   <v>       0.99461857       0.49596624       0.62434769 </v>
   <v>       0.50483361       0.00631727       0.12609405 </v>
   <v>       0.50587159       0.00464848       0.62426354 </v>
   <v>       0.50480094       0.49637195       0.12581545 </v>
   <v>       0.50353142       0.49569809       0.62457043 </v>
   <v>       0.00662330       0.99210353       0.37686648 </v>
   <v>       0.00029661       0.99943073       0.87249061 </v>
   <v>       0.00563496       0.50579846       0.37517781 </v>
   <v>       0.00106484       0.50070968       0.87503873 </v>
   <v>       0.49341477       0.99365741       0.37523560 </v>
   <v>       0.49888315       0.99897531       0.87503536 </v>
   <v>       0.49421546       0.50515435       0.37579773 </v>
   <v>       0.49861806       0.50132390       0.87438881 </v>
   <v>       0.24499033       0.24552733       0.37403107 </v>
   <v>       0.24596624       0.24461857       0.87565231 </v>
   <v>       0.24637195       0.75480094       0.37418455 </v>
   <v>       0.24569809       0.75353142       0.87542957 </v>
   <v>       0.75695937       0.24482792       0.87628324 </v>
   <v>       0.75631727       0.75483361       0.37390595 </v>
   <v>       0.75464848       0.75587159       0.87573646 </v>
   <v>       0.25579846       0.25563496       0.12482219 </v>
   <v>       0.25070968       0.25106484       0.62496127 </v>
   <v>       0.25515435       0.74421546       0.12420227 </v>
   <v>       0.25132390       0.74861806       0.62561119 </v>
   <v>       0.74210353       0.25662330       0.12313352 </v>
   <v>       0.74943073       0.25029661       0.62750939 </v>
   <v>       0.74365741       0.74341477       0.12476440 </v>
   <v>       0.74897531       0.74888315       0.62496464 </v>
   <v>       0.11183771       0.13403353       0.23826465 </v>
   <v>       0.36351416       0.11308957       0.25045889 </v>
   <v>       0.61628644       0.13779094       0.26262723 </v>
   <v>       0.86321847       0.11321847       0.25000000 </v>
   <v>       0.13545385       0.38545385       0.25000000 </v>
   <v>       0.38616227       0.36276321       0.25154642 </v>
   <v>       0.63758512       0.38450017       0.26217860 </v>
   <v>       0.88403353       0.36183771       0.26173535 </v>
   <v>       0.11276321       0.63616227       0.24845358 </v>
   <v>       0.36272367       0.61272367       0.25000000 </v>
   <v>       0.61322101       0.63735302       0.25259134 </v>
   <v>       0.86308957       0.61351416       0.24954111 </v>
   <v>       0.13450017       0.88758512       0.23782140 </v>
   <v>       0.38735302       0.86322101       0.24740866 </v>
   <v>       0.63726576       0.88726576       0.25000000 </v>
   <v>       0.88779094       0.86628644       0.23737277 </v>
   <v>       0.13901169       0.11065479       0.50101692 </v>
   <v>       0.38889203       0.13972478       0.50002348 </v>
   <v>       0.64019752       0.11340001       0.48904426 </v>
   <v>       0.88635892       0.14074166       0.48810295 </v>
   <v>       0.11031957       0.36009864       0.50007612 </v>
   <v>       0.36028429       0.38869875       0.49860682 </v>
   <v>       0.61295923       0.36008493       0.49053189 </v>
   <v>       0.85955791       0.38704000       0.48967876 </v>
   <v>       0.13934128       0.61045041       0.50143084 </v>
   <v>       0.38915277       0.63978289       0.50070052 </v>
   <v>       0.63969502       0.61173137       0.49880105 </v>
   <v>       0.88923249       0.63946131       0.49982525 </v>
   <v>       0.10994830       0.86066008       0.50387227 </v>
   <v>       0.36044265       0.89003577       0.50217822 </v>
   <v>       0.61088693       0.86085727       0.49945245 </v>
   <v>       0.85987721       0.88997433       0.50167307 </v>
   <v>       0.10721987       0.14237988       0.74843787 </v>
   <v>       0.35815811       0.10820209       0.74925075 </v>
   <v>       0.60778814       0.14255686       0.75250326 </v>
   <v>       0.85673682       0.10673682       0.75000000 </v>
   <v>       0.14178947       0.39178947       0.75000000 </v>
   <v>       0.39096323       0.35809199       0.75135739 </v>
   <v>       0.64224227       0.39100349       0.75320487 </v>
   <v>       0.89237988       0.35721987       0.75156213 </v>
   <v>       0.10809199       0.64096323       0.74864261 </v>
   <v>       0.35890276       0.60890276       0.75000000 </v>
   <v>       0.60922573       0.64172089       0.75104403 </v>
   <v>       0.85820209       0.60815811       0.75074925 </v>
   <v>       0.14100349       0.89224227       0.74679513 </v>
   <v>       0.39172089       0.85922573       0.74895597 </v>
   <v>       0.64218534       0.89218534       0.75000000 </v>
   <v>       0.89255686       0.85778814       0.74749674 </v>
   <v>       0.13704000       0.10955791       0.01032124 </v>
   <v>       0.38946131       0.13923249       0.00017475 </v>
   <v>       0.63997433       0.10987721       0.99832693 </v>
   <v>       0.89074166       0.13635892       0.01189705 </v>
   <v>       0.11009864       0.36031957       0.99992388 </v>
   <v>       0.36045041       0.38934128       0.99856916 </v>
   <v>       0.61066008       0.35994830       0.99612773 </v>
   <v>       0.86065479       0.38901169       0.99898308 </v>
   <v>       0.13869875       0.61028429       0.00139318 </v>
   <v>       0.38978289       0.63915277       0.99929948 </v>
   <v>       0.64003577       0.61044265       0.99782178 </v>
   <v>       0.88972478       0.63889203       0.99997652 </v>
   <v>       0.11008493       0.86295923       0.00946811 </v>
   <v>       0.36173137       0.88969502       0.00119895 </v>
   <v>       0.61085727       0.86088693       0.00054755 </v>
   <v>       0.86340001       0.89019752       0.01095574 </v>
  </varray>
 </structure>
</modeling>
