       N       E                     dE             d eps       ncg     rms          rms(c)
DAV:   1    -0.105207419438E+04   -0.10521E+04   -0.10967E-02 13376   0.246E-01    0.256E-02
RMM:   2    -0.105207419402E+04    0.35543E-06   -0.12009E-05  6440   0.594E-03    0.449E-02
RMM:   3    -0.105207419410E+04   -0.77329E-07   -0.37996E-06  5547   0.385E-03    0.756E-03
RMM:   4    -0.105207419414E+04   -0.38082E-07   -0.74174E-07  2405   0.178E-03    0.374E-03
RMM:   5    -0.105207419414E+04   -0.46857E-08   -0.40410E-07  2219   0.181E-03    0.162E-03
RMM:   6    -0.105207419414E+04   -0.22264E-08   -0.81607E-08  1415   0.160E-03    0.114E-03
RMM:   7    -0.105207419415E+04   -0.11234E-07   -0.49060E-08  1345   0.162E-03    0.559E-04
RMM:   8    -0.105207419416E+04   -0.42201E-09   -0.78945E-09  1241   0.159E-03
   1 F= -.10520742E+04 E0= -.10520720E+04  d E =-.105207E+04  mag=    80.0000
       N       E                     dE             d eps       ncg     rms          rms(c)
DAV:   1    -0.105207397853E+04    0.21562E-03   -0.35218E-01 12736   0.701E-01    0.280E-01
RMM:   2    -0.105207512088E+04   -0.11423E-02   -0.10563E-02 12354   0.143E-01    0.223E-01
RMM:   3    -0.105207517074E+04   -0.49859E-04   -0.56953E-04 10529   0.429E-02    0.136E-01
RMM:   4    -0.105207512103E+04    0.49701E-04   -0.10997E-04  7466   0.152E-02    0.871E-02
RMM:   5    -0.105207509608E+04    0.24949E-04   -0.11647E-04  7372   0.131E-02    0.332E-02
RMM:   6    -0.105207509849E+04   -0.24015E-05   -0.21988E-05  7127   0.804E-03    0.200E-02
RMM:   7    -0.105207509898E+04   -0.49065E-06   -0.85603E-06  6400   0.415E-03    0.145E-02
RMM:   8    -0.105207509936E+04   -0.37800E-06   -0.39030E-06  5555   0.356E-03
   2 F= -.10520751E+04 E0= -.10520729E+04  d E =-.905200E-03  mag=    80.0000
       N       E                     dE             d eps       ncg     rms          rms(c)
DAV:   1    -0.105207510037E+04   -0.13884E-05   -0.13785E-03 12864   0.439E-02    0.172E-02
RMM:   2    -0.105207510437E+04   -0.40045E-05   -0.37341E-05  6514   0.944E-03    0.154E-02
RMM:   3    -0.105207510508E+04   -0.70824E-06   -0.46598E-06  5755   0.417E-03    0.907E-03
RMM:   4    -0.105207510497E+04    0.11282E-06   -0.82716E-07  3322   0.209E-03    0.644E-03
RMM:   5    -0.105207510482E+04    0.14786E-06   -0.78435E-08  1718   0.185E-03    0.319E-03
RMM:   6    -0.105207510478E+04    0.36656E-07   -0.15872E-07  1681   0.196E-03    0.129E-03
RMM:   7    -0.105207510478E+04    0.13824E-08   -0.31487E-09  1037   0.189E-03    0.822E-04
RMM:   8    -0.105207510478E+04    0.17753E-08   -0.18525E-08  1013   0.189E-03
   3 F= -.10520751E+04 E0= -.10520729E+04  d E =-.910622E-03  mag=    80.0000
       N       E                     dE             d eps       ncg     rms          rms(c)
DAV:   1    -0.105207500536E+04    0.99423E-04   -0.35326E-01 12776   0.706E-01    0.208E-01
RMM:   2    -0.105207598168E+04   -0.97632E-03   -0.94120E-03 12392   0.130E-01    0.150E-01
RMM:   3    -0.105207601747E+04   -0.35795E-04   -0.47358E-04  9967   0.419E-02    0.892E-02
RMM:   4    -0.105207599511E+04    0.22360E-04   -0.96660E-05  7204   0.135E-02    0.528E-02
RMM:   5    -0.105207598779E+04    0.73164E-05   -0.50427E-05  7086   0.967E-03    0.338E-02
RMM:   6    -0.105207598941E+04   -0.16132E-05   -0.16085E-05  6837   0.663E-03    0.133E-02
RMM:   7    -0.105207599020E+04   -0.79483E-06   -0.77881E-06  5986   0.397E-03    0.925E-03
RMM:   8    -0.105207599047E+04   -0.26614E-06   -0.38815E-06  4808   0.344E-03
   4 F= -.10520760E+04 E0= -.10520738E+04  d E =-.885691E-03  mag=    80.0000
