<?xml version="1.0" encoding="ISO-8859-1"?>
<modeling>
 <generator>
  <i name="program" type="string">vasp </i>
  <i name="version" type="string">5.4.1  </i>
  <i name="subversion" type="string">05Feb16 (build Jan 25 2017 20:16:33) complex                          parallel </i>
  <i name="platform" type="string">BWXE6 </i>
  <i name="date" type="string">2019 06 30 </i>
  <i name="time" type="string">15:28:11 </i>
 </generator>
 <incar>
  <i type="string" name="SYSTEM"> STF</i>
  <i type="string" name="PREC">normal</i>
  <i type="string" name="ALGO"> Fast</i>
  <i type="int" name="ISPIN">     2</i>
  <i type="int" name="NELM">    40</i>
  <i type="int" name="NELMIN">     8</i>
  <i type="int" name="IBRION">     2</i>
  <i name="EDIFF">      0.00010000</i>
  <i name="EDIFFG">     -0.03000000</i>
  <i type="int" name="NSW">    30</i>
  <i type="int" name="ISIF">     3</i>
  <i name="ENCUT">    520.00000000</i>
  <i type="int" name="NBANDS">   768</i>
  <v name="MAGMOM">      0.60000000      0.60000000      0.60000000      0.60000000      0.60000000      0.60000000      0.60000000      0.60000000      0.60000000      0.60000000      0.60000000      0.60000000      0.60000000      0.60000000      0.60000000      0.60000000      0.60000000      0.60000000      0.60000000      0.60000000
      0.60000000      0.60000000      0.60000000      0.60000000      0.60000000      0.60000000      0.60000000      0.60000000      0.60000000      0.60000000      0.60000000      0.60000000      0.60000000      0.60000000      0.60000000      0.60000000      0.60000000      0.60000000      0.60000000      0.60000000
      0.60000000      0.60000000      0.60000000      0.60000000      0.60000000      0.60000000      0.60000000      0.60000000      5.00000000      5.00000000      5.00000000      5.00000000      5.00000000      5.00000000      5.00000000      5.00000000      5.00000000      5.00000000      5.00000000      5.00000000
      5.00000000      5.00000000      5.00000000      5.00000000      0.60000000      0.60000000      0.60000000      0.60000000      0.60000000      0.60000000      0.60000000      0.60000000      0.60000000      0.60000000      0.60000000      0.60000000      0.60000000      0.60000000      0.60000000      0.60000000
      0.60000000      0.60000000      0.60000000      0.60000000      0.60000000      0.60000000      0.60000000      0.60000000      0.60000000      0.60000000      0.60000000      0.60000000      0.60000000      0.60000000      0.60000000      0.60000000      0.60000000      0.60000000      0.60000000      0.60000000
      0.60000000      0.60000000      0.60000000      0.60000000      0.60000000      0.60000000      0.60000000      0.60000000      0.60000000      0.60000000      0.60000000      0.60000000      0.60000000      0.60000000      0.60000000      0.60000000      0.60000000      0.60000000      0.60000000      0.60000000
      0.60000000      0.60000000      0.60000000      0.60000000      0.60000000      0.60000000      0.60000000      0.60000000      0.60000000      0.60000000      0.60000000      0.60000000      0.60000000      0.60000000      0.60000000      0.60000000      0.60000000      0.60000000      0.60000000      0.60000000
      0.60000000      0.60000000      0.60000000      0.60000000      0.60000000      0.60000000      0.60000000      0.60000000      0.60000000      0.60000000      0.60000000      0.60000000</v>
  <i type="string" name="LREAL"> Auto</i>
  <i type="int" name="ISMEAR">     0</i>
  <i name="SIGMA">      0.05000000</i>
  <i type="int" name="LMAXMIX">     4</i>
  <v type="int" name="KPOINT_BSE">    -1     0     0     0</v>
  <i type="int" name="NELM">    40</i>
  <i type="logical" name="LDAU"> T  </i>
  <v type="int" name="LDAUTYPE">     2</v>
  <v type="int" name="LDAUL">     0     2     2     0</v>
  <v name="LDAUU">      0.00000000      3.00000000      5.00000000      0.00000000</v>
  <v name="LDAUJ">      0.00000000      0.00000000      0.00000000      0.00000000</v>
  <i type="int" name="LDAUPRINT">     1</i>
 </incar>
 <kpoints>
  <generation param="Monkhorst-Pack">
   <v type="int" name="divisions">       2        2        2 </v>
   <v name="usershift">      0.00000000       0.00000000       0.00000000 </v>
   <v name="genvec1">      0.50000000      -0.00000000       0.00000000 </v>
   <v name="genvec2">      0.00000000       0.50000000      -0.00000000 </v>
   <v name="genvec3">      0.00000000       0.00000000       0.50000000 </v>
   <v name="shift">      0.50000000       0.50000000       0.50000000 </v>
  </generation>
  <varray name="kpointlist" >
   <v>       0.25000000       0.25000000       0.25000000 </v>
   <v>      -0.25000000       0.25000000       0.25000000 </v>
   <v>       0.25000000      -0.25000000       0.25000000 </v>
   <v>      -0.25000000      -0.25000000       0.25000000 </v>
  </varray>
  <varray name="weights" >
   <v>       0.25000000 </v>
   <v>       0.25000000 </v>
   <v>       0.25000000 </v>
   <v>       0.25000000 </v>
  </varray>
 </kpoints>
 <parameters>
  <separator name="general" >
   <i type="string" name="SYSTEM">STF</i>
   <i type="logical" name="LCOMPAT"> F  </i>
  </separator>
  <separator name="electronic" >
   <i type="string" name="PREC">normal</i>
   <i name="ENMAX">    520.00000000</i>
   <i name="ENAUG">    605.39200000</i>
   <i name="EDIFF">      0.00010000</i>
   <i type="int" name="IALGO">    68</i>
   <i type="int" name="IWAVPR">    11</i>
   <i type="int" name="NBANDS">   768</i>
   <i name="NELECT">   1040.00000000</i>
   <i type="int" name="TURBO">     0</i>
   <i type="int" name="IRESTART">     0</i>
   <i type="int" name="NREBOOT">     0</i>
   <i type="int" name="NMIN">     0</i>
   <i name="EREF">      0.00000000</i>
   <separator name="electronic smearing" >
    <i type="int" name="ISMEAR">     0</i>
    <i name="SIGMA">      0.05000000</i>
    <i name="KSPACING">      0.50000000</i>
    <i type="logical" name="KGAMMA"> T  </i>
   </separator>
   <separator name="electronic projectors" >
    <i type="logical" name="LREAL"> T  </i>
    <v name="ROPT">     -0.00050000     -0.00050000     -0.00050000     -0.00050000</v>
    <i type="int" name="LMAXPAW">  -100</i>
    <i type="int" name="LMAXMIX">     4</i>
    <i type="logical" name="NLSPLINE"> F  </i>
   </separator>
   <separator name="electronic startup" >
    <i type="int" name="ISTART">     1</i>
    <i type="int" name="ICHARG">     0</i>
    <i type="int" name="INIWAV">     1</i>
   </separator>
   <separator name="electronic spin" >
    <i type="int" name="ISPIN">     2</i>
    <i type="logical" name="LNONCOLLINEAR"> F  </i>
    <v name="MAGMOM">      0.60000000      0.60000000      0.60000000      0.60000000      0.60000000      0.60000000      0.60000000      0.60000000      0.60000000      0.60000000      0.60000000      0.60000000      0.60000000      0.60000000      0.60000000      0.60000000      0.60000000      0.60000000      0.60000000      0.60000000
      0.60000000      0.60000000      0.60000000      0.60000000      0.60000000      0.60000000      0.60000000      0.60000000      0.60000000      0.60000000      0.60000000      0.60000000      0.60000000      0.60000000      0.60000000      0.60000000      0.60000000      0.60000000      0.60000000      0.60000000
      0.60000000      0.60000000      0.60000000      0.60000000      0.60000000      0.60000000      0.60000000      0.60000000      5.00000000      5.00000000      5.00000000      5.00000000      5.00000000      5.00000000      5.00000000      5.00000000      5.00000000      5.00000000      5.00000000      5.00000000
      5.00000000      5.00000000      5.00000000      5.00000000      0.60000000      0.60000000      0.60000000      0.60000000      0.60000000      0.60000000      0.60000000      0.60000000      0.60000000      0.60000000      0.60000000      0.60000000      0.60000000      0.60000000      0.60000000      0.60000000
      0.60000000      0.60000000      0.60000000      0.60000000      0.60000000      0.60000000      0.60000000      0.60000000      0.60000000      0.60000000      0.60000000      0.60000000      0.60000000      0.60000000      0.60000000      0.60000000      0.60000000      0.60000000      0.60000000      0.60000000
      0.60000000      0.60000000      0.60000000      0.60000000      0.60000000      0.60000000      0.60000000      0.60000000      0.60000000      0.60000000      0.60000000      0.60000000      0.60000000      0.60000000      0.60000000      0.60000000      0.60000000      0.60000000      0.60000000      0.60000000
      0.60000000      0.60000000      0.60000000      0.60000000      0.60000000      0.60000000      0.60000000      0.60000000      0.60000000      0.60000000      0.60000000      0.60000000      0.60000000      0.60000000      0.60000000      0.60000000      0.60000000      0.60000000      0.60000000      0.60000000
      0.60000000      0.60000000      0.60000000      0.60000000      0.60000000      0.60000000      0.60000000      0.60000000      0.60000000      0.60000000      0.60000000      0.60000000</v>
    <i name="NUPDOWN">     -1.00000000</i>
    <i type="logical" name="LSORBIT"> F  </i>
    <v name="SAXIS">      0.00000000      0.00000000      1.00000000</v>
    <i type="logical" name="LSPIRAL"> F  </i>
    <v name="QSPIRAL">      0.00000000      0.00000000      0.00000000</v>
    <i type="logical" name="LZEROZ"> F  </i>
   </separator>
   <separator name="electronic exchange-correlation" >
    <i type="logical" name="LASPH"> F  </i>
    <i type="logical" name="LMETAGGA"> F  </i>
   </separator>
   <separator name="electronic convergence" >
    <i type="int" name="NELM">    40</i>
    <i type="int" name="NELMDL">     0</i>
    <i type="int" name="NELMIN">     8</i>
    <i name="ENINI">    520.00000000</i>
    <separator name="electronic convergence detail" >
     <i type="logical" name="LDIAG"> T  </i>
     <i type="logical" name="LSUBROT"> F  </i>
     <i name="WEIMIN">      0.00100000</i>
     <i name="EBREAK">      0.00000003</i>
     <i name="DEPER">      0.30000000</i>
     <i type="int" name="NRMM">     4</i>
     <i name="TIME">      0.40000000</i>
    </separator>
   </separator>
   <separator name="electronic mixer" >
    <i name="AMIX">      0.40000000</i>
    <i name="BMIX">      1.00000000</i>
    <i name="AMIN">      0.10000000</i>
    <i name="AMIX_MAG">      1.60000000</i>
    <i name="BMIX_MAG">      1.00000000</i>
    <separator name="electronic mixer details" >
     <i type="int" name="IMIX">     4</i>
     <i type="logical" name="MIXFIRST"> F  </i>
     <i type="int" name="MAXMIX">   -45</i>
     <i name="WC">    100.00000000</i>
     <i type="int" name="INIMIX">     1</i>
     <i type="int" name="MIXPRE">     1</i>
     <i type="int" name="MREMOVE">     5</i>
    </separator>
   </separator>
   <separator name="electronic dipolcorrection" >
    <i type="logical" name="LDIPOL"> F  </i>
    <i type="logical" name="LMONO"> F  </i>
    <i type="int" name="IDIPOL">     0</i>
    <i name="EPSILON">      1.00000000</i>
    <v name="DIPOL">   -100.00000000   -100.00000000   -100.00000000</v>
    <i name="EFIELD">      0.00000000</i>
   </separator>
  </separator>
  <separator name="grids" >
   <i type="int" name="NGX">    64</i>
   <i type="int" name="NGY">    64</i>
   <i type="int" name="NGZ">    90</i>
   <i type="int" name="NGXF">   128</i>
   <i type="int" name="NGYF">   128</i>
   <i type="int" name="NGZF">   180</i>
   <i type="logical" name="ADDGRID"> F  </i>
  </separator>
  <separator name="ionic" >
   <i type="int" name="NSW">    30</i>
   <i type="int" name="IBRION">     2</i>
   <i type="int" name="ISIF">     3</i>
   <i name="PSTRESS">      0.00000000</i>
   <i name="EDIFFG">     -0.03000000</i>
   <i type="int" name="NFREE">     1</i>
   <i name="POTIM">      0.50000000</i>
   <i name="SMASS">     -3.00000000</i>
   <i name="SCALEE">      1.00000000</i>
  </separator>
  <separator name="ionic md" >
   <i name="TEBEG">      0.00010000</i>
   <i name="TEEND">      0.00010000</i>
   <i type="int" name="NBLOCK">     1</i>
   <i type="int" name="KBLOCK">    30</i>
   <i type="int" name="NPACO">   256</i>
   <i name="APACO">     16.00000000</i>
  </separator>
  <separator name="symmetry" >
   <i type="int" name="ISYM">     2</i>
   <i name="SYMPREC">      0.00001000</i>
  </separator>
  <separator name="dos" >
   <i type="logical" name="LORBIT"> F  </i>
   <v name="RWIGS">     -1.00000000     -1.00000000     -1.00000000     -1.00000000</v>
   <i type="int" name="NEDOS">   301</i>
   <i name="EMIN">     10.00000000</i>
   <i name="EMAX">    -10.00000000</i>
   <i name="EFERMI">      0.00000000</i>
  </separator>
  <separator name="writing" >
   <i type="int" name="NWRITE">     2</i>
   <i type="logical" name="LWAVE"> T  </i>
   <i type="logical" name="LCHARG"> T  </i>
   <i type="logical" name="LPARD"> F  </i>
   <i type="logical" name="LVTOT"> F  </i>
   <i type="logical" name="LVHAR"> F  </i>
   <i type="logical" name="LELF"> F  </i>
   <i type="logical" name="LOPTICS"> F  </i>
   <v name="STM">      0.00000000      0.00000000      0.00000000      0.00000000      0.00000000      0.00000000      0.00000000</v>
  </separator>
  <separator name="performance" >
   <i type="int" name="NPAR">     2</i>
   <i type="int" name="NSIM">     4</i>
   <i type="int" name="NBLK">    -1</i>
   <i type="logical" name="LPLANE"> T  </i>
   <i type="logical" name="LSCALAPACK"> T  </i>
   <i type="logical" name="LSCAAWARE"> F  </i>
   <i type="logical" name="LSCALU"> F  </i>
   <i type="logical" name="LASYNC"> F  </i>
   <i type="logical" name="LORBITALREAL"> F  </i>
  </separator>
  <separator name="miscellaneous" >
   <i type="int" name="IDIOT">     3</i>
   <i type="logical" name="LMUSIC"> F  </i>
   <v name="POMASS">     87.62000000     47.88000000     55.84700000     16.00000000</v>
   <v name="DARWINR">      0.00000000      0.00000000      0.00000000      0.00000000</v>
   <v name="DARWINV">      1.00000000      1.00000000      1.00000000      1.00000000</v>
   <i type="logical" name="LCORR"> T  </i>
  </separator>
  <i type="logical" name="GGA_COMPAT"> T  </i>
  <i type="logical" name="LBERRY"> F  </i>
  <i type="int" name="ICORELEVEL">     0</i>
  <i type="logical" name="LDAU"> T  </i>
  <v type="int" name="LDAUTYPE">     2</v>
  <v type="int" name="LDAUL">     0</v>
  <v name="LDAUU">      0.00000000</v>
  <v name="LDAUJ">      0.00000000</v>
  <i type="int" name="LDAUPRINT">     1</i>
  <i type="int" name="I_CONSTRAINED_M">     0</i>
  <separator name="electronic exchange-correlation" >
   <i type="string" name="GGA">--</i>
   <i type="int" name="VOSKOWN">     0</i>
   <i type="logical" name="LHFCALC"> F  </i>
   <i type="string" name="PRECFOCK"></i>
   <i type="logical" name="LSYMGRAD"> F  </i>
   <i type="logical" name="LHFONE"> F  </i>
   <i type="logical" name="LRHFCALC"> F  </i>
   <i type="logical" name="LTHOMAS"> F  </i>
   <i type="logical" name="LMODELHF"> F  </i>
   <i name="ENCUT4O">     -1.00000000</i>
   <i type="int" name="EXXOEP">     0</i>
   <i type="int" name="FOURORBIT">     0</i>
   <i name="AEXX">      0.00000000</i>
   <i name="HFALPHA">      0.00000000</i>
   <i name="MCALPHA">      0.00000000</i>
   <i name="ALDAX">      1.00000000</i>
   <i name="AGGAX">      1.00000000</i>
   <i name="ALDAC">      1.00000000</i>
   <i name="AGGAC">      1.00000000</i>
   <i type="int" name="NKREDX">     1</i>
   <i type="int" name="NKREDY">     1</i>
   <i type="int" name="NKREDZ">     1</i>
   <i type="logical" name="SHIFTRED"> F  </i>
   <i type="logical" name="ODDONLY"> F  </i>
   <i type="logical" name="EVENONLY"> F  </i>
   <i type="int" name="LMAXFOCK">     0</i>
   <i type="int" name="NMAXFOCKAE">     0</i>
   <i type="logical" name="LFOCKAEDFT"> F  </i>
   <i name="HFSCREEN">      0.00000000</i>
   <i name="HFSCREENC">      0.00000000</i>
   <i type="int" name="NBANDSGWLOW">     0</i>
  </separator>
  <separator name="vdW DFT" >
   <i type="logical" name="LUSE_VDW"> F  </i>
   <i name="Zab_VDW">     -0.84910000</i>
   <i name="PARAM1">      0.12340000</i>
   <i name="PARAM2">      1.00000000</i>
   <i name="PARAM3">      0.00000000</i>
  </separator>
  <separator name="model GW" >
   <i type="int" name="MODEL_GW">     0</i>
   <i name="MODEL_EPS0">      7.93552276</i>
   <i name="MODEL_ALPHA">      1.00000000</i>
  </separator>
  <separator name="linear response parameters" >
   <i type="logical" name="LEPSILON"> F  </i>
   <i type="logical" name="LRPA"> F  </i>
   <i type="logical" name="LNABLA"> F  </i>
   <i type="logical" name="LVEL"> F  </i>
   <i type="int" name="KINTER">     0</i>
   <i name="CSHIFT">      0.10000000</i>
   <i name="OMEGAMAX">     -1.00000000</i>
   <i name="DEG_THRESHOLD">      0.00200000</i>
  </separator>
  <separator name="orbital magnetization" >
   <i type="logical" name="NUCIND"> F  </i>
   <v name="MAGPOS">      0.00000000      0.00000000      0.00000000</v>
   <i type="logical" name="LNICSALL"> T  </i>
   <i type="logical" name="ORBITALMAG"> F  </i>
   <i type="logical" name="LMAGBLOCH"> F  </i>
   <i type="logical" name="LCHIMAG"> F  </i>
   <i type="logical" name="LGAUGE"> T  </i>
   <i type="int" name="MAGATOM">     0</i>
   <v name="MAGDIPOL">      0.00000000      0.00000000      0.00000000</v>
   <v name="AVECCONST">      0.00000000      0.00000000      0.00000000</v>
  </separator>
  <separator name="response functions" >
   <i type="logical" name="LADDER"> F  </i>
   <i type="logical" name="LFXC"> F  </i>
   <i type="logical" name="LHARTREE"> T  </i>
   <i type="int" name="IBSE">     0</i>
   <v type="int" name="KPOINT">    -1     0     0     0</v>
   <i type="logical" name="LTCTE"> F  </i>
   <i type="logical" name="LTETE"> F  </i>
   <i type="logical" name="LTRIPLET"> F  </i>
   <i type="logical" name="LFXCEPS"> F  </i>
   <i type="logical" name="LFXHEG"> F  </i>
   <i type="int" name="NATURALO">     0</i>
   <i type="logical" name="L2ORDER"> F  </i>
   <i type="logical" name="LUSEW"> F  </i>
   <i name="ENCUTGW">     -2.00000000</i>
   <i name="ENCUTGWSOFT">     -2.00000000</i>
   <i name="ENCUTLF">     -1.00000000</i>
   <i type="int" name="LMAXMP2">    -1</i>
   <i name="SCISSOR">      0.00000000</i>
   <i type="int" name="NOMEGA">     0</i>
   <i type="int" name="NOMEGAR">     0</i>
   <i type="int" name="NBANDSGW">    -1</i>
   <i type="int" name="NBANDSO">    -1</i>
   <i type="int" name="NBANDSV">    -1</i>
   <i type="int" name="NELM">    40</i>
   <i type="int" name="NELMHF">     1</i>
   <i type="int" name="DIM">     3</i>
   <i type="int" name="ANTIRES">     0</i>
   <i name="OMEGAMAX">    -30.00000000</i>
   <i name="OMEGAMIN">    -30.00000000</i>
   <i name="OMEGATL">   -200.00000000</i>
   <i type="int" name="OMEGAGRID">     0</i>
   <i name="CSHIFT">     -0.10000000</i>
   <i type="logical" name="SELFENERGY"> F  </i>
   <i type="logical" name="LSPECTRAL"> F  </i>
   <i type="logical" name="LSPECTRALGW"> F  </i>
   <i type="logical" name="LSINGLES"> F  </i>
   <i type="logical" name="LFERMIGW"> F  </i>
   <i type="logical" name="ODDONLYGW"> F  </i>
   <i type="logical" name="EVENONLYGW"> F  </i>
   <i type="int" name="NKREDLFX">     1</i>
   <i type="int" name="NKREDLFY">     1</i>
   <i type="int" name="NKREDLFZ">     1</i>
   <i type="int" name="MAXMEM">  1800</i>
   <i type="int" name="TELESCOPE">     0</i>
   <i type="int" name="TAUPAR">     1</i>
   <i type="int" name="OMEGAPAR">    -1</i>
   <i name="LAMBDA">      1.00000000</i>
  </separator>
  <separator name="External order field" >
   <i name="OFIELD_KAPPA">      0.00000000</i>
   <v name="OFIELD_K">      0.00000000      0.00000000      0.00000000</v>
   <i name="OFIELD_Q6_NEAR">      0.00000000</i>
   <i name="OFIELD_Q6_FAR">      0.00000000</i>
   <i name="OFIELD_A">      0.00000000</i>
  </separator>
 </parameters>
 <atominfo>
  <atoms>     152 </atoms>
  <types>       4 </types>
  <array name="atoms" >
   <dimension dim="1">ion</dimension>
   <field type="string">element</field>
   <field type="int">atomtype</field>
   <set>
    <rc><c>Sr</c><c>   1</c></rc>
    <rc><c>Sr</c><c>   1</c></rc>
    <rc><c>Sr</c><c>   1</c></rc>
    <rc><c>Sr</c><c>   1</c></rc>
    <rc><c>Sr</c><c>   1</c></rc>
    <rc><c>Sr</c><c>   1</c></rc>
    <rc><c>Sr</c><c>   1</c></rc>
    <rc><c>Sr</c><c>   1</c></rc>
    <rc><c>Sr</c><c>   1</c></rc>
    <rc><c>Sr</c><c>   1</c></rc>
    <rc><c>Sr</c><c>   1</c></rc>
    <rc><c>Sr</c><c>   1</c></rc>
    <rc><c>Sr</c><c>   1</c></rc>
    <rc><c>Sr</c><c>   1</c></rc>
    <rc><c>Sr</c><c>   1</c></rc>
    <rc><c>Sr</c><c>   1</c></rc>
    <rc><c>Sr</c><c>   1</c></rc>
    <rc><c>Sr</c><c>   1</c></rc>
    <rc><c>Sr</c><c>   1</c></rc>
    <rc><c>Sr</c><c>   1</c></rc>
    <rc><c>Sr</c><c>   1</c></rc>
    <rc><c>Sr</c><c>   1</c></rc>
    <rc><c>Sr</c><c>   1</c></rc>
    <rc><c>Sr</c><c>   1</c></rc>
    <rc><c>Sr</c><c>   1</c></rc>
    <rc><c>Sr</c><c>   1</c></rc>
    <rc><c>Sr</c><c>   1</c></rc>
    <rc><c>Sr</c><c>   1</c></rc>
    <rc><c>Sr</c><c>   1</c></rc>
    <rc><c>Sr</c><c>   1</c></rc>
    <rc><c>Sr</c><c>   1</c></rc>
    <rc><c>Sr</c><c>   1</c></rc>
    <rc><c>Ti</c><c>   2</c></rc>
    <rc><c>Ti</c><c>   2</c></rc>
    <rc><c>Ti</c><c>   2</c></rc>
    <rc><c>Ti</c><c>   2</c></rc>
    <rc><c>Ti</c><c>   2</c></rc>
    <rc><c>Ti</c><c>   2</c></rc>
    <rc><c>Ti</c><c>   2</c></rc>
    <rc><c>Ti</c><c>   2</c></rc>
    <rc><c>Ti</c><c>   2</c></rc>
    <rc><c>Ti</c><c>   2</c></rc>
    <rc><c>Ti</c><c>   2</c></rc>
    <rc><c>Ti</c><c>   2</c></rc>
    <rc><c>Ti</c><c>   2</c></rc>
    <rc><c>Ti</c><c>   2</c></rc>
    <rc><c>Ti</c><c>   2</c></rc>
    <rc><c>Ti</c><c>   2</c></rc>
    <rc><c>Fe</c><c>   3</c></rc>
    <rc><c>Fe</c><c>   3</c></rc>
    <rc><c>Fe</c><c>   3</c></rc>
    <rc><c>Fe</c><c>   3</c></rc>
    <rc><c>Fe</c><c>   3</c></rc>
    <rc><c>Fe</c><c>   3</c></rc>
    <rc><c>Fe</c><c>   3</c></rc>
    <rc><c>Fe</c><c>   3</c></rc>
    <rc><c>Fe</c><c>   3</c></rc>
    <rc><c>Fe</c><c>   3</c></rc>
    <rc><c>Fe</c><c>   3</c></rc>
    <rc><c>Fe</c><c>   3</c></rc>
    <rc><c>Fe</c><c>   3</c></rc>
    <rc><c>Fe</c><c>   3</c></rc>
    <rc><c>Fe</c><c>   3</c></rc>
    <rc><c>Fe</c><c>   3</c></rc>
    <rc><c>O </c><c>   4</c></rc>
    <rc><c>O </c><c>   4</c></rc>
    <rc><c>O </c><c>   4</c></rc>
    <rc><c>O </c><c>   4</c></rc>
    <rc><c>O </c><c>   4</c></rc>
    <rc><c>O </c><c>   4</c></rc>
    <rc><c>O </c><c>   4</c></rc>
    <rc><c>O </c><c>   4</c></rc>
    <rc><c>O </c><c>   4</c></rc>
    <rc><c>O </c><c>   4</c></rc>
    <rc><c>O </c><c>   4</c></rc>
    <rc><c>O </c><c>   4</c></rc>
    <rc><c>O </c><c>   4</c></rc>
    <rc><c>O </c><c>   4</c></rc>
    <rc><c>O </c><c>   4</c></rc>
    <rc><c>O </c><c>   4</c></rc>
    <rc><c>O </c><c>   4</c></rc>
    <rc><c>O </c><c>   4</c></rc>
    <rc><c>O </c><c>   4</c></rc>
    <rc><c>O </c><c>   4</c></rc>
    <rc><c>O </c><c>   4</c></rc>
    <rc><c>O </c><c>   4</c></rc>
    <rc><c>O </c><c>   4</c></rc>
    <rc><c>O </c><c>   4</c></rc>
    <rc><c>O </c><c>   4</c></rc>
    <rc><c>O </c><c>   4</c></rc>
    <rc><c>O </c><c>   4</c></rc>
    <rc><c>O </c><c>   4</c></rc>
    <rc><c>O </c><c>   4</c></rc>
    <rc><c>O </c><c>   4</c></rc>
    <rc><c>O </c><c>   4</c></rc>
    <rc><c>O </c><c>   4</c></rc>
    <rc><c>O </c><c>   4</c></rc>
    <rc><c>O </c><c>   4</c></rc>
    <rc><c>O </c><c>   4</c></rc>
    <rc><c>O </c><c>   4</c></rc>
    <rc><c>O </c><c>   4</c></rc>
    <rc><c>O </c><c>   4</c></rc>
    <rc><c>O </c><c>   4</c></rc>
    <rc><c>O </c><c>   4</c></rc>
    <rc><c>O </c><c>   4</c></rc>
    <rc><c>O </c><c>   4</c></rc>
    <rc><c>O </c><c>   4</c></rc>
    <rc><c>O </c><c>   4</c></rc>
    <rc><c>O </c><c>   4</c></rc>
    <rc><c>O </c><c>   4</c></rc>
    <rc><c>O </c><c>   4</c></rc>
    <rc><c>O </c><c>   4</c></rc>
    <rc><c>O </c><c>   4</c></rc>
    <rc><c>O </c><c>   4</c></rc>
    <rc><c>O </c><c>   4</c></rc>
    <rc><c>O </c><c>   4</c></rc>
    <rc><c>O </c><c>   4</c></rc>
    <rc><c>O </c><c>   4</c></rc>
    <rc><c>O </c><c>   4</c></rc>
    <rc><c>O </c><c>   4</c></rc>
    <rc><c>O </c><c>   4</c></rc>
    <rc><c>O </c><c>   4</c></rc>
    <rc><c>O </c><c>   4</c></rc>
    <rc><c>O </c><c>   4</c></rc>
    <rc><c>O </c><c>   4</c></rc>
    <rc><c>O </c><c>   4</c></rc>
    <rc><c>O </c><c>   4</c></rc>
    <rc><c>O </c><c>   4</c></rc>
    <rc><c>O </c><c>   4</c></rc>
    <rc><c>O </c><c>   4</c></rc>
    <rc><c>O </c><c>   4</c></rc>
    <rc><c>O </c><c>   4</c></rc>
    <rc><c>O </c><c>   4</c></rc>
    <rc><c>O </c><c>   4</c></rc>
    <rc><c>O </c><c>   4</c></rc>
    <rc><c>O </c><c>   4</c></rc>
    <rc><c>O </c><c>   4</c></rc>
    <rc><c>O </c><c>   4</c></rc>
    <rc><c>O </c><c>   4</c></rc>
    <rc><c>O </c><c>   4</c></rc>
    <rc><c>O </c><c>   4</c></rc>
    <rc><c>O </c><c>   4</c></rc>
    <rc><c>O </c><c>   4</c></rc>
    <rc><c>O </c><c>   4</c></rc>
    <rc><c>O </c><c>   4</c></rc>
    <rc><c>O </c><c>   4</c></rc>
    <rc><c>O </c><c>   4</c></rc>
    <rc><c>O </c><c>   4</c></rc>
    <rc><c>O </c><c>   4</c></rc>
    <rc><c>O </c><c>   4</c></rc>
    <rc><c>O </c><c>   4</c></rc>
    <rc><c>O </c><c>   4</c></rc>
   </set>
  </array>
  <array name="atomtypes" >
   <dimension dim="1">type</dimension>
   <field type="int">atomspertype</field>
   <field type="string">element</field>
   <field>mass</field>
   <field>valence</field>
   <field type="string">pseudopotential</field>
   <set>
    <rc><c>  32</c><c>Sr</c><c>     87.62000000</c><c>     10.00000000</c><c>  PAW_PBE Sr_sv 07Sep2000               </c></rc>
    <rc><c>  16</c><c>Ti</c><c>     47.88000000</c><c>      4.00000000</c><c>  PAW_PBE Ti 08Apr2002                  </c></rc>
    <rc><c>  16</c><c>Fe</c><c>     55.84700000</c><c>      8.00000000</c><c>  PAW_PBE Fe 06Sep2000                  </c></rc>
    <rc><c>  88</c><c>O </c><c>     16.00000000</c><c>      6.00000000</c><c>  PAW_PBE O 08Apr2002                   </c></rc>
   </set>
  </array>
 </atominfo>
 <structure name="initialpos" >
  <crystal>
   <varray name="basis" >
    <v>      11.25972645      -0.02895824      -0.00757609 </v>
    <v>      -0.02891436      11.26987778       0.00927766 </v>
    <v>      -0.01034841       0.01313229      15.84251713 </v>
   </varray>
   <i name="volume">   2010.33243373 </i>
   <varray name="rec_basis" >
    <v>       0.08881273       0.00022781       0.00005782 </v>
    <v>       0.00022816       0.08873275      -0.00007340 </v>
    <v>       0.00004234      -0.00005185       0.06312135 </v>
   </varray>
  </crystal>
  <varray name="positions" >
   <v>       0.00892044       0.26418009       0.12237279 </v>
   <v>       0.99464240       0.26562110       0.62915962 </v>
   <v>       0.00009642       0.73409902       0.12581511 </v>
   <v>       0.00787656       0.72835871       0.61970888 </v>
   <v>       0.49100401       0.24576373       0.11894146 </v>
   <v>       0.51470309       0.26552693       0.62248702 </v>
   <v>       0.49752471       0.75427707       0.11972445 </v>
   <v>       0.48713610       0.73747754       0.62163958 </v>
   <v>       0.99897219       0.26253252       0.37308820 </v>
   <v>       0.99985111       0.26551284       0.88427751 </v>
   <v>       0.00873246       0.72643029       0.37547125 </v>
   <v>       0.98945953       0.73570370       0.88059487 </v>
   <v>       0.50294547       0.24427837       0.37879755 </v>
   <v>       0.50746751       0.25735143       0.87828215 </v>
   <v>       0.48808166       0.74986211       0.37944718 </v>
   <v>       0.50793366       0.73950412       0.87467206 </v>
   <v>       0.25380564       0.01435333       0.12668211 </v>
   <v>       0.26009200       0.98111104       0.61944313 </v>
   <v>       0.24182131       0.48789417       0.12385527 </v>
   <v>       0.25213472       0.50466896       0.61639007 </v>
   <v>       0.73790591       0.00335912       0.11631159 </v>
   <v>       0.73564164       0.01569945       0.62255646 </v>
   <v>       0.76424055       0.49697198       0.11993426 </v>
   <v>       0.75194989       0.49239846       0.62307775 </v>
   <v>       0.25400701       0.99496075       0.37219586 </v>
   <v>       0.26180176       0.00525834       0.88539019 </v>
   <v>       0.24085521       0.49479784       0.37881934 </v>
   <v>       0.25034251       0.49393209       0.87836175 </v>
   <v>       0.73483800       0.01480538       0.37891348 </v>
   <v>       0.74241515       0.00892436       0.87939529 </v>
   <v>       0.76158358       0.48534635       0.37792281 </v>
   <v>       0.75377675       0.49364247       0.87547813 </v>
   <v>       0.99898410       0.99596975       0.00893602 </v>
   <v>       0.99585309       0.99691586       0.49337912 </v>
   <v>       0.49528674       0.00238428       0.50125511 </v>
   <v>       0.50027875       0.49929770       0.99977662 </v>
   <v>       0.24972929       0.75146089       0.00696148 </v>
   <v>       0.75189942       0.24893316       0.00199409 </v>
   <v>       0.74881469       0.75026264       0.99871853 </v>
   <v>       0.74362457       0.74751858       0.50373274 </v>
   <v>       0.24874366       0.74659769       0.25380887 </v>
   <v>       0.76363956       0.78011759       0.25327157 </v>
   <v>       0.75107729       0.74365582       0.74765592 </v>
   <v>       0.99521883       0.97736340       0.73842132 </v>
   <v>       0.00224603       0.50283932       0.75174635 </v>
   <v>       0.49546274       0.99908050       0.24768316 </v>
   <v>       0.51260147       0.99075629       0.75196724 </v>
   <v>       0.48650172       0.48874501       0.25203119 </v>
   <v>       0.00209080       0.50013968       0.99977061 </v>
   <v>       0.00262413       0.49464030       0.50107348 </v>
   <v>       0.49755663       0.00145838       0.99685716 </v>
   <v>       0.50151050       0.49972268       0.49859890 </v>
   <v>       0.25084769       0.24758894       0.99968093 </v>
   <v>       0.25838583       0.25171151       0.49551819 </v>
   <v>       0.25131060       0.74375753       0.49694110 </v>
   <v>       0.75126864       0.25201863       0.50078671 </v>
   <v>       0.24152868       0.24489715       0.25211408 </v>
   <v>       0.25057034       0.27070378       0.74888462 </v>
   <v>       0.25255891       0.74886070       0.74344921 </v>
   <v>       0.73944162       0.26077331       0.24619340 </v>
   <v>       0.74468975       0.26385312       0.75088830 </v>
   <v>       0.01146719       0.99043761       0.25123977 </v>
   <v>       0.00309882       0.49353628       0.24963278 </v>
   <v>       0.50041692       0.50145456       0.74825158 </v>
   <v>       0.10912276       0.12548856       0.23339999 </v>
   <v>       0.12660525       0.62318819       0.24618670 </v>
   <v>       0.11553417       0.64797529       0.76129776 </v>
   <v>       0.63270470       0.11147572       0.24541595 </v>
   <v>       0.62493966       0.12900409       0.74563414 </v>
   <v>       0.62120812       0.63994005       0.73070867 </v>
   <v>       0.37580169       0.37190267       0.27283572 </v>
   <v>       0.39544563       0.35304170       0.75170580 </v>
   <v>       0.36209549       0.88126657       0.25351833 </v>
   <v>       0.37551136       0.87985312       0.75742237 </v>
   <v>       0.87958406       0.36662256       0.25056644 </v>
   <v>       0.88689465       0.37288130       0.75234728 </v>
   <v>       0.84843762       0.92342868       0.25221242 </v>
   <v>       0.87628041       0.87733734       0.77633979 </v>
   <v>       0.37772926       0.12341856       0.24833768 </v>
   <v>       0.38266094       0.63150517       0.25003321 </v>
   <v>       0.36646093       0.62607665       0.76771569 </v>
   <v>       0.94994871       0.12534987       0.77150731 </v>
   <v>       0.85914767       0.63581909       0.25354625 </v>
   <v>       0.87093741       0.62389415       0.74438415 </v>
   <v>       0.13000015       0.37659720       0.25194113 </v>
   <v>       0.13771142       0.39426178       0.74730204 </v>
   <v>       0.11206726       0.86064435       0.25412448 </v>
   <v>       0.13865563       0.90540924       0.76909155 </v>
   <v>       0.62738517       0.38667203       0.23679213 </v>
   <v>       0.63746186       0.39160026       0.74403307 </v>
   <v>       0.60373465       0.83776020       0.25396391 </v>
   <v>       0.63303616       0.88073805       0.75522663 </v>
   <v>       0.38022695       0.37395392       0.98868995 </v>
   <v>       0.38223698       0.36522997       0.48829728 </v>
   <v>       0.37362137       0.86612307       0.98068722 </v>
   <v>       0.38247153       0.86724954       0.50087057 </v>
   <v>       0.87463706       0.37357828       0.00119243 </v>
   <v>       0.87861827       0.37497166       0.49811772 </v>
   <v>       0.87601789       0.87620421       0.97994456 </v>
   <v>       0.11989773       0.11757014       0.00029732 </v>
   <v>       0.12925811       0.63060639       0.99187575 </v>
   <v>       0.12537901       0.61859354       0.49917529 </v>
   <v>       0.62447082       0.12759038       0.00465866 </v>
   <v>       0.61302395       0.13392189       0.50312024 </v>
   <v>       0.62334006       0.62865097       0.01386365 </v>
   <v>       0.62386393       0.63734797       0.51158275 </v>
   <v>       0.12901367       0.37520283       0.99733285 </v>
   <v>       0.12616436       0.35763835       0.50986347 </v>
   <v>       0.12450382       0.87323502       0.97624563 </v>
   <v>       0.12179007       0.87958666       0.49375661 </v>
   <v>       0.62872535       0.37521828       0.01244830 </v>
   <v>       0.63169181       0.38308459       0.50087979 </v>
   <v>       0.62665638       0.87713746       0.98968387 </v>
   <v>       0.63649754       0.89056445       0.50712987 </v>
   <v>       0.37118100       0.12102328       0.00700116 </v>
   <v>       0.35618926       0.10905087       0.49962915 </v>
   <v>       0.37064354       0.62711494       0.98823074 </v>
   <v>       0.37284735       0.61776597       0.49250911 </v>
   <v>       0.87831431       0.11700591       0.98685027 </v>
   <v>       0.86964249       0.11130941       0.50348024 </v>
   <v>       0.87437566       0.62842839       0.00458495 </v>
   <v>       0.87702080       0.63884042       0.50017427 </v>
   <v>       0.99049634       0.97826044       0.12333184 </v>
   <v>       0.99030411       0.97638376       0.62016674 </v>
   <v>       0.00101360       0.50184159       0.12561878 </v>
   <v>       0.00166422       0.50324348       0.62585096 </v>
   <v>       0.49755230       0.98312151       0.12477132 </v>
   <v>       0.48633058       0.01007184       0.63049815 </v>
   <v>       0.48274258       0.50445547       0.12706393 </v>
   <v>       0.48126272       0.50144201       0.62390076 </v>
   <v>       0.99756316       0.01984782       0.37342414 </v>
   <v>       0.00288034       0.49831600       0.37519729 </v>
   <v>       0.99631040       0.50250347       0.87500580 </v>
   <v>       0.50215559       0.00028372       0.37583171 </v>
   <v>       0.49056784       0.02901578       0.86873283 </v>
   <v>       0.53738084       0.52754737       0.36464355 </v>
   <v>       0.52234034       0.50520002       0.87725228 </v>
   <v>       0.22306623       0.22033305       0.37823043 </v>
   <v>       0.23960940       0.22206803       0.86272969 </v>
   <v>       0.24754625       0.74607216       0.37373380 </v>
   <v>       0.75210715       0.24214910       0.36959611 </v>
   <v>       0.74570008       0.25119168       0.87617942 </v>
   <v>       0.76638629       0.77857814       0.38187242 </v>
   <v>       0.74017823       0.72597929       0.87302382 </v>
   <v>       0.25894836       0.26009771       0.12611605 </v>
   <v>       0.22501536       0.19628206       0.64367334 </v>
   <v>       0.24993527       0.76250025       0.12282495 </v>
   <v>       0.24781326       0.74812638       0.62465953 </v>
   <v>       0.77645881       0.22821981       0.12757847 </v>
   <v>       0.76295808       0.24612558       0.62774634 </v>
   <v>       0.75585565       0.76801256       0.12701749 </v>
   <v>       0.78054481       0.78372240       0.62353651 </v>
  </varray>
 </structure>
 <calculation>
  <scstep>
   <time name="dav">  600.84  600.89</time>
   <time name="total">  608.08  608.19</time>
   <energy>
    <i name="alphaZ">   5602.17668655 </i>
    <i name="ewald"> -61393.48913717 </i>
    <i name="hartreedc"> -18169.52839067 </i>
    <i name="XCdc">   3183.81126486 </i>
    <i name="pawpsdc"> 114730.73046746 </i>
    <i name="pawaedc">-113933.13241114 </i>
    <i name="eentropy">     -0.00429425 </i>
    <i name="bandstr">  -7122.81450638 </i>
    <i name="atom">  76050.17612637 </i>
    <i name="e_fr_energy">  -1052.07419438 </i>
    <i name="e_wo_entrp">  -1052.06990013 </i>
    <i name="e_0_energy">  -1052.07204725 </i>
   </energy>
  </scstep>
  <scstep>
   <time name="diag">   65.07   65.11</time>
   <time name="diis">   59.78   59.80</time>
   <time name="orth">   33.42   33.42</time>
   <time name="total">  165.54  165.74</time>
   <energy>
    <i name="e_fr_energy">  -1052.07419402 </i>
    <i name="e_wo_entrp">  -1052.06987269 </i>
    <i name="e_0_energy">  -1052.07203336 </i>
   </energy>
  </scstep>
  <scstep>
   <time name="diag">   65.18   65.19</time>
   <time name="diis">   55.77   55.77</time>
   <time name="orth">   33.47   33.48</time>
   <time name="total">  161.66  162.01</time>
   <energy>
    <i name="e_fr_energy">  -1052.07419410 </i>
    <i name="e_wo_entrp">  -1052.06987931 </i>
    <i name="e_0_energy">  -1052.07203670 </i>
   </energy>
  </scstep>
  <scstep>
   <time name="diag">   65.04   65.08</time>
   <time name="diis">   45.34   45.39</time>
   <time name="orth">   33.49   33.49</time>
   <time name="total">  151.09  151.24</time>
   <energy>
    <i name="e_fr_energy">  -1052.07419414 </i>
    <i name="e_wo_entrp">  -1052.06988273 </i>
    <i name="e_0_energy">  -1052.07203843 </i>
   </energy>
  </scstep>
  <scstep>
   <time name="diag">   65.20   65.19</time>
   <time name="diis">   44.85   44.85</time>
   <time name="orth">   33.43   33.43</time>
   <time name="total">  150.76  150.87</time>
   <energy>
    <i name="e_fr_energy">  -1052.07419414 </i>
    <i name="e_wo_entrp">  -1052.06988585 </i>
    <i name="e_0_energy">  -1052.07203999 </i>
   </energy>
  </scstep>
  <scstep>
   <time name="diag">   65.11   65.11</time>
   <time name="diis">   42.12   42.12</time>
   <time name="orth">   33.50   33.50</time>
   <time name="total">  147.98  148.01</time>
   <energy>
    <i name="e_fr_energy">  -1052.07419414 </i>
    <i name="e_wo_entrp">  -1052.06988512 </i>
    <i name="e_0_energy">  -1052.07203963 </i>
   </energy>
  </scstep>
  <scstep>
   <time name="diag">   64.95   64.96</time>
   <time name="diis">   41.86   41.86</time>
   <time name="orth">   33.59   33.59</time>
   <time name="total">  147.64  147.69</time>
   <energy>
    <i name="e_fr_energy">  -1052.07419415 </i>
    <i name="e_wo_entrp">  -1052.06988517 </i>
    <i name="e_0_energy">  -1052.07203966 </i>
   </energy>
  </scstep>
  <scstep>
   <time name="diag">   64.92   64.94</time>
   <time name="diis">   41.57   41.58</time>
   <time name="orth">   33.57   33.57</time>
   <time name="total">  141.12  141.18</time>
   <energy>
    <i name="alphaZ">   5602.17668655 </i>
    <i name="ewald"> -61393.48913717 </i>
    <i name="hartreedc"> -18169.51775792 </i>
    <i name="XCdc">   3183.81130837 </i>
    <i name="pawpsdc"> 114730.33435732 </i>
    <i name="pawaedc">-113932.73123382 </i>
    <i name="eentropy">     -0.00430898 </i>
    <i name="bandstr">  -7122.83023487 </i>
    <i name="atom">  76050.17612637 </i>
    <i name="e_fr_energy">  -1052.07419416 </i>
    <i name="e_wo_entrp">  -1052.06988518 </i>
    <i name="e_0_energy">  -1052.07203967 </i>
   </energy>
  </scstep>
  <structure>
   <crystal>
    <varray name="basis" >
     <v>      11.25972645      -0.02895824      -0.00757609 </v>
     <v>      -0.02891436      11.26987778       0.00927766 </v>
     <v>      -0.01034841       0.01313229      15.84251713 </v>
    </varray>
    <i name="volume">   2010.33243373 </i>
    <varray name="rec_basis" >
     <v>       0.08881273       0.00022781       0.00005782 </v>
     <v>       0.00022816       0.08873275      -0.00007340 </v>
     <v>       0.00004234      -0.00005185       0.06312135 </v>
    </varray>
   </crystal>
   <varray name="positions" >
    <v>       0.00892044       0.26418009       0.12237279 </v>
    <v>       0.99464240       0.26562110       0.62915962 </v>
    <v>       0.00009642       0.73409902       0.12581511 </v>
    <v>       0.00787656       0.72835871       0.61970888 </v>
    <v>       0.49100401       0.24576373       0.11894146 </v>
    <v>       0.51470309       0.26552693       0.62248702 </v>
    <v>       0.49752471       0.75427707       0.11972445 </v>
    <v>       0.48713610       0.73747754       0.62163958 </v>
    <v>       0.99897219       0.26253252       0.37308820 </v>
    <v>       0.99985111       0.26551284       0.88427751 </v>
    <v>       0.00873246       0.72643029       0.37547125 </v>
    <v>       0.98945953       0.73570370       0.88059487 </v>
    <v>       0.50294547       0.24427837       0.37879755 </v>
    <v>       0.50746751       0.25735143       0.87828215 </v>
    <v>       0.48808166       0.74986211       0.37944718 </v>
    <v>       0.50793366       0.73950412       0.87467206 </v>
    <v>       0.25380564       0.01435333       0.12668211 </v>
    <v>       0.26009200       0.98111104       0.61944313 </v>
    <v>       0.24182131       0.48789417       0.12385527 </v>
    <v>       0.25213472       0.50466896       0.61639007 </v>
    <v>       0.73790591       0.00335912       0.11631159 </v>
    <v>       0.73564164       0.01569945       0.62255646 </v>
    <v>       0.76424055       0.49697198       0.11993426 </v>
    <v>       0.75194989       0.49239846       0.62307775 </v>
    <v>       0.25400701       0.99496075       0.37219586 </v>
    <v>       0.26180176       0.00525834       0.88539019 </v>
    <v>       0.24085521       0.49479784       0.37881934 </v>
    <v>       0.25034251       0.49393209       0.87836175 </v>
    <v>       0.73483800       0.01480538       0.37891348 </v>
    <v>       0.74241515       0.00892436       0.87939529 </v>
    <v>       0.76158358       0.48534635       0.37792281 </v>
    <v>       0.75377675       0.49364247       0.87547813 </v>
    <v>       0.99898410       0.99596975       0.00893602 </v>
    <v>       0.99585309       0.99691586       0.49337912 </v>
    <v>       0.49528674       0.00238428       0.50125511 </v>
    <v>       0.50027875       0.49929770       0.99977662 </v>
    <v>       0.24972929       0.75146089       0.00696148 </v>
    <v>       0.75189942       0.24893316       0.00199409 </v>
    <v>       0.74881469       0.75026264       0.99871853 </v>
    <v>       0.74362457       0.74751858       0.50373274 </v>
    <v>       0.24874366       0.74659769       0.25380887 </v>
    <v>       0.76363956       0.78011759       0.25327157 </v>
    <v>       0.75107729       0.74365582       0.74765592 </v>
    <v>       0.99521883       0.97736340       0.73842132 </v>
    <v>       0.00224603       0.50283932       0.75174635 </v>
    <v>       0.49546274       0.99908050       0.24768316 </v>
    <v>       0.51260147       0.99075629       0.75196724 </v>
    <v>       0.48650172       0.48874501       0.25203119 </v>
    <v>       0.00209080       0.50013968       0.99977061 </v>
    <v>       0.00262413       0.49464030       0.50107348 </v>
    <v>       0.49755663       0.00145838       0.99685716 </v>
    <v>       0.50151050       0.49972268       0.49859890 </v>
    <v>       0.25084769       0.24758894       0.99968093 </v>
    <v>       0.25838583       0.25171151       0.49551819 </v>
    <v>       0.25131060       0.74375753       0.49694110 </v>
    <v>       0.75126864       0.25201863       0.50078671 </v>
    <v>       0.24152868       0.24489715       0.25211408 </v>
    <v>       0.25057034       0.27070378       0.74888462 </v>
    <v>       0.25255891       0.74886070       0.74344921 </v>
    <v>       0.73944162       0.26077331       0.24619340 </v>
    <v>       0.74468975       0.26385312       0.75088830 </v>
    <v>       0.01146719       0.99043761       0.25123977 </v>
    <v>       0.00309882       0.49353628       0.24963278 </v>
    <v>       0.50041692       0.50145456       0.74825158 </v>
    <v>       0.10912276       0.12548856       0.23339999 </v>
    <v>       0.12660525       0.62318819       0.24618670 </v>
    <v>       0.11553417       0.64797529       0.76129776 </v>
    <v>       0.63270470       0.11147572       0.24541595 </v>
    <v>       0.62493966       0.12900409       0.74563414 </v>
    <v>       0.62120812       0.63994005       0.73070867 </v>
    <v>       0.37580169       0.37190267       0.27283572 </v>
    <v>       0.39544563       0.35304170       0.75170580 </v>
    <v>       0.36209549       0.88126657       0.25351833 </v>
    <v>       0.37551136       0.87985312       0.75742237 </v>
    <v>       0.87958406       0.36662256       0.25056644 </v>
    <v>       0.88689465       0.37288130       0.75234728 </v>
    <v>       0.84843762       0.92342868       0.25221242 </v>
    <v>       0.87628041       0.87733734       0.77633979 </v>
    <v>       0.37772926       0.12341856       0.24833768 </v>
    <v>       0.38266094       0.63150517       0.25003321 </v>
    <v>       0.36646093       0.62607665       0.76771569 </v>
    <v>       0.94994871       0.12534987       0.77150731 </v>
    <v>       0.85914767       0.63581909       0.25354625 </v>
    <v>       0.87093741       0.62389415       0.74438415 </v>
    <v>       0.13000015       0.37659720       0.25194113 </v>
    <v>       0.13771142       0.39426178       0.74730204 </v>
    <v>       0.11206726       0.86064435       0.25412448 </v>
    <v>       0.13865563       0.90540924       0.76909155 </v>
    <v>       0.62738517       0.38667203       0.23679213 </v>
    <v>       0.63746186       0.39160026       0.74403307 </v>
    <v>       0.60373465       0.83776020       0.25396391 </v>
    <v>       0.63303616       0.88073805       0.75522663 </v>
    <v>       0.38022695       0.37395392       0.98868995 </v>
    <v>       0.38223698       0.36522997       0.48829728 </v>
    <v>       0.37362137       0.86612307       0.98068722 </v>
    <v>       0.38247153       0.86724954       0.50087057 </v>
    <v>       0.87463706       0.37357828       0.00119243 </v>
    <v>       0.87861827       0.37497166       0.49811772 </v>
    <v>       0.87601789       0.87620421       0.97994456 </v>
    <v>       0.11989773       0.11757014       0.00029732 </v>
    <v>       0.12925811       0.63060639       0.99187575 </v>
    <v>       0.12537901       0.61859354       0.49917529 </v>
    <v>       0.62447082       0.12759038       0.00465866 </v>
    <v>       0.61302395       0.13392189       0.50312024 </v>
    <v>       0.62334006       0.62865097       0.01386365 </v>
    <v>       0.62386393       0.63734797       0.51158275 </v>
    <v>       0.12901367       0.37520283       0.99733285 </v>
    <v>       0.12616436       0.35763835       0.50986347 </v>
    <v>       0.12450382       0.87323502       0.97624563 </v>
    <v>       0.12179007       0.87958666       0.49375661 </v>
    <v>       0.62872535       0.37521828       0.01244830 </v>
    <v>       0.63169181       0.38308459       0.50087979 </v>
    <v>       0.62665638       0.87713746       0.98968387 </v>
    <v>       0.63649754       0.89056445       0.50712987 </v>
    <v>       0.37118100       0.12102328       0.00700116 </v>
    <v>       0.35618926       0.10905087       0.49962915 </v>
    <v>       0.37064354       0.62711494       0.98823074 </v>
    <v>       0.37284735       0.61776597       0.49250911 </v>
    <v>       0.87831431       0.11700591       0.98685027 </v>
    <v>       0.86964249       0.11130941       0.50348024 </v>
    <v>       0.87437566       0.62842839       0.00458495 </v>
    <v>       0.87702080       0.63884042       0.50017427 </v>
    <v>       0.99049634       0.97826044       0.12333184 </v>
    <v>       0.99030411       0.97638376       0.62016674 </v>
    <v>       0.00101360       0.50184159       0.12561878 </v>
    <v>       0.00166422       0.50324348       0.62585096 </v>
    <v>       0.49755230       0.98312151       0.12477132 </v>
    <v>       0.48633058       0.01007184       0.63049815 </v>
    <v>       0.48274258       0.50445547       0.12706393 </v>
    <v>       0.48126272       0.50144201       0.62390076 </v>
    <v>       0.99756316       0.01984782       0.37342414 </v>
    <v>       0.00288034       0.49831600       0.37519729 </v>
    <v>       0.99631040       0.50250347       0.87500580 </v>
    <v>       0.50215559       0.00028372       0.37583171 </v>
    <v>       0.49056784       0.02901578       0.86873283 </v>
    <v>       0.53738084       0.52754737       0.36464355 </v>
    <v>       0.52234034       0.50520002       0.87725228 </v>
    <v>       0.22306623       0.22033305       0.37823043 </v>
    <v>       0.23960940       0.22206803       0.86272969 </v>
    <v>       0.24754625       0.74607216       0.37373380 </v>
    <v>       0.75210715       0.24214910       0.36959611 </v>
    <v>       0.74570008       0.25119168       0.87617942 </v>
    <v>       0.76638629       0.77857814       0.38187242 </v>
    <v>       0.74017823       0.72597929       0.87302382 </v>
    <v>       0.25894836       0.26009771       0.12611605 </v>
    <v>       0.22501536       0.19628206       0.64367334 </v>
    <v>       0.24993527       0.76250025       0.12282495 </v>
    <v>       0.24781326       0.74812638       0.62465953 </v>
    <v>       0.77645881       0.22821981       0.12757847 </v>
    <v>       0.76295808       0.24612558       0.62774634 </v>
    <v>       0.75585565       0.76801256       0.12701749 </v>
    <v>       0.78054481       0.78372240       0.62353651 </v>
   </varray>
  </structure>
  <varray name="forces" >
   <v>       0.00934932      -0.00356134       0.00804696 </v>
   <v>      -0.00815491       0.01300395      -0.00405379 </v>
   <v>      -0.01392239      -0.00495047      -0.00493194 </v>
   <v>       0.00394518       0.01207696       0.00126653 </v>
   <v>       0.00203784      -0.00484355       0.00238469 </v>
   <v>      -0.00206273      -0.00079277      -0.00247203 </v>
   <v>       0.00935198       0.00399722       0.00817211 </v>
   <v>       0.00503220      -0.00317641       0.00470644 </v>
   <v>       0.00507983      -0.00503333      -0.00777281 </v>
   <v>       0.00161100       0.02362151       0.01378980 </v>
   <v>      -0.00039066       0.00664946       0.00186955 </v>
   <v>      -0.00577480       0.00973400      -0.00212696 </v>
   <v>       0.00214934       0.00932908      -0.00438518 </v>
   <v>       0.00187897       0.00113134      -0.00535422 </v>
   <v>       0.00618905      -0.00493151      -0.00112591 </v>
   <v>      -0.00115423       0.00447228       0.00635293 </v>
   <v>       0.01984805      -0.00223607      -0.00102105 </v>
   <v>       0.00815457      -0.00548846      -0.00354576 </v>
   <v>      -0.00494200      -0.00099921      -0.00005389 </v>
   <v>       0.00825527      -0.00008819       0.01071330 </v>
   <v>       0.00457916      -0.01414350      -0.00728595 </v>
   <v>      -0.00290054       0.00842454      -0.00452938 </v>
   <v>       0.00044397      -0.01833148       0.00039554 </v>
   <v>      -0.00319158      -0.00534902       0.00740204 </v>
   <v>       0.00755058       0.00043701       0.00185515 </v>
   <v>       0.00392681      -0.00275185      -0.00105792 </v>
   <v>       0.00140234       0.00760405       0.00641572 </v>
   <v>       0.00263786       0.01084490      -0.00430565 </v>
   <v>       0.01914499      -0.00500563      -0.00424435 </v>
   <v>      -0.00426570      -0.00879400       0.00127499 </v>
   <v>      -0.01260436       0.00417646       0.00017520 </v>
   <v>      -0.00721190      -0.00528348       0.00014188 </v>
   <v>       0.00932834       0.00052765      -0.01295874 </v>
   <v>      -0.01817214       0.02063699      -0.01376071 </v>
   <v>      -0.00839239      -0.00502957       0.00150073 </v>
   <v>       0.02196910       0.01862170      -0.01619920 </v>
   <v>      -0.02357909      -0.01519782      -0.00689347 </v>
   <v>      -0.00358039      -0.00295701      -0.01088871 </v>
   <v>      -0.02789763       0.01223528       0.00246664 </v>
   <v>      -0.00290529      -0.00730150      -0.01632106 </v>
   <v>       0.00196242      -0.00839537      -0.00736267 </v>
   <v>      -0.03062297       0.00539848       0.01644171 </v>
   <v>      -0.00775147       0.00670545       0.01802728 </v>
   <v>      -0.00888572      -0.03323276      -0.02000244 </v>
   <v>      -0.00378682       0.00035239       0.00239740 </v>
   <v>       0.01811858      -0.00314446      -0.00389185 </v>
   <v>       0.00002740      -0.02406973      -0.00712013 </v>
   <v>      -0.01758406       0.00859884       0.02655736 </v>
   <v>      -0.00090895       0.00834173      -0.00292149 </v>
   <v>       0.00923486      -0.00023731      -0.00452000 </v>
   <v>       0.02637979      -0.01377776      -0.00228323 </v>
   <v>       0.00806279       0.00263553      -0.00730532 </v>
   <v>       0.00509392       0.00287514       0.00645040 </v>
   <v>       0.01471871      -0.00089412      -0.00931639 </v>
   <v>       0.00952704      -0.00368303       0.00249851 </v>
   <v>      -0.00735537      -0.00159714      -0.00061729 </v>
   <v>       0.00367070       0.00382194       0.00441752 </v>
   <v>      -0.00802821       0.01333548      -0.00656697 </v>
   <v>      -0.00127851       0.00428367       0.00610910 </v>
   <v>       0.00867777      -0.00827710       0.00450975 </v>
   <v>      -0.00899091      -0.00111435      -0.00320976 </v>
   <v>       0.00098641       0.01403531       0.01910638 </v>
   <v>      -0.00203577      -0.00124690       0.00490740 </v>
   <v>       0.00232431       0.00113127       0.01526615 </v>
   <v>      -0.00996138       0.00678410       0.00736230 </v>
   <v>       0.01192555      -0.00293654      -0.00333607 </v>
   <v>       0.00560034      -0.01389232      -0.00551423 </v>
   <v>      -0.01210829      -0.00675271       0.00449113 </v>
   <v>      -0.00042146      -0.00344134      -0.00677478 </v>
   <v>       0.01122253      -0.01016532       0.00563937 </v>
   <v>      -0.00660122       0.00580160      -0.01675587 </v>
   <v>      -0.01409148      -0.00487166      -0.01010164 </v>
   <v>      -0.00251737       0.01754673      -0.01005879 </v>
   <v>      -0.00994776       0.01741014      -0.00430492 </v>
   <v>      -0.01164142       0.01177411      -0.00978722 </v>
   <v>      -0.01673594      -0.00918258       0.00313516 </v>
   <v>       0.00907734      -0.00735114      -0.00250287 </v>
   <v>      -0.00240099       0.01564604      -0.02116284 </v>
   <v>       0.01986780       0.00621095       0.00376275 </v>
   <v>       0.00626674       0.03457997      -0.01572077 </v>
   <v>      -0.00011948      -0.00459831      -0.00593307 </v>
   <v>       0.00105890       0.00914974      -0.01026193 </v>
   <v>       0.00711284       0.00964424      -0.00170602 </v>
   <v>      -0.00417549       0.00070697      -0.00555609 </v>
   <v>      -0.01779370      -0.00618616      -0.00900486 </v>
   <v>       0.02352011      -0.01758525      -0.00035398 </v>
   <v>      -0.00127950      -0.01276130       0.01133441 </v>
   <v>       0.01435102       0.00485807       0.02039802 </v>
   <v>      -0.01308987      -0.01036808      -0.00664692 </v>
   <v>      -0.00163968      -0.00657718      -0.00572275 </v>
   <v>       0.02433669      -0.00033610      -0.00341667 </v>
   <v>      -0.01312817       0.00482982      -0.00459591 </v>
   <v>      -0.00795475      -0.01193539       0.00612212 </v>
   <v>      -0.01449387      -0.01579798       0.02211102 </v>
   <v>      -0.00844111       0.00911791       0.00575210 </v>
   <v>      -0.00569512      -0.00981433       0.00058417 </v>
   <v>       0.01926346       0.00708482       0.00260835 </v>
   <v>      -0.00311648      -0.00217235      -0.00058041 </v>
   <v>       0.00569897       0.00650088       0.00322171 </v>
   <v>       0.00173058      -0.00612121       0.00678719 </v>
   <v>      -0.00313535       0.00553227      -0.00211204 </v>
   <v>       0.00624523       0.00273024       0.00839821 </v>
   <v>       0.00414993       0.00029289      -0.00271799 </v>
   <v>      -0.00202321      -0.00638548      -0.00589244 </v>
   <v>      -0.00438461      -0.00845699      -0.00417834 </v>
   <v>       0.01592707      -0.00481160      -0.00398234 </v>
   <v>      -0.00616320       0.00111266       0.00416424 </v>
   <v>       0.01284655      -0.00157173       0.00472979 </v>
   <v>      -0.00485856       0.00579821      -0.00809610 </v>
   <v>       0.01295940      -0.00710037      -0.00064107 </v>
   <v>      -0.00520651      -0.00231784      -0.00967651 </v>
   <v>       0.01525759      -0.00452602       0.00498071 </v>
   <v>      -0.00841019      -0.00205597      -0.00359119 </v>
   <v>       0.00905058      -0.01134959      -0.00021398 </v>
   <v>       0.00327468       0.00873890      -0.00815921 </v>
   <v>      -0.00827816       0.01170133      -0.00105578 </v>
   <v>      -0.00542135      -0.00222524       0.01515623 </v>
   <v>      -0.00790928       0.00881121       0.00772877 </v>
   <v>       0.02117620      -0.00639251      -0.00514779 </v>
   <v>       0.00277665      -0.00309457       0.00098973 </v>
   <v>       0.00943160      -0.01674220       0.00267209 </v>
   <v>      -0.00757551       0.00909310       0.00841295 </v>
   <v>      -0.00553419      -0.00162428       0.01051256 </v>
   <v>       0.00940796       0.01980765       0.00582993 </v>
   <v>       0.00339507       0.00480253      -0.00862423 </v>
   <v>      -0.00414239       0.00245067      -0.00666961 </v>
   <v>      -0.00279696       0.00427616       0.00441076 </v>
   <v>      -0.00774960      -0.00221179       0.00031093 </v>
   <v>      -0.00873820      -0.01093873      -0.02198728 </v>
   <v>      -0.00279166       0.01238072      -0.00061654 </v>
   <v>       0.00329257      -0.01186834      -0.00068181 </v>
   <v>      -0.00477889       0.00345232       0.00225638 </v>
   <v>      -0.00635131       0.00237840       0.01657674 </v>
   <v>       0.00483009       0.00293502      -0.00538672 </v>
   <v>      -0.00950810      -0.00952502       0.01287830 </v>
   <v>      -0.01160668      -0.00731901      -0.00634105 </v>
   <v>      -0.01480506      -0.00269089       0.01167688 </v>
   <v>       0.00904507       0.00802799       0.02281738 </v>
   <v>      -0.00265377      -0.00702148       0.00368287 </v>
   <v>       0.00472864      -0.00411749       0.00954958 </v>
   <v>       0.00220688       0.01135939       0.00865975 </v>
   <v>       0.00391651      -0.00682869      -0.01019430 </v>
   <v>       0.00754303       0.01225073       0.00429374 </v>
   <v>       0.00521718       0.01168749      -0.01125733 </v>
   <v>      -0.01304463      -0.00692273      -0.00271388 </v>
   <v>      -0.00436442      -0.00450681       0.01083368 </v>
   <v>      -0.01224972       0.00704141       0.01150559 </v>
   <v>      -0.00644493       0.00256515      -0.00652090 </v>
   <v>       0.00321418       0.00390461      -0.00111459 </v>
   <v>       0.00855030      -0.01494768      -0.00051335 </v>
   <v>       0.01265631      -0.00363026       0.00826750 </v>
   <v>      -0.00817015      -0.00986998      -0.00193306 </v>
  </varray>
  <varray name="stress" >
   <v>      -0.07529504      -0.04045162       0.02026410 </v>
   <v>      -0.04045073      -0.01113424      -0.03044855 </v>
   <v>       0.02026408      -0.03044865      -0.00411275 </v>
  </varray>
  <energy>
   <i name="e_fr_energy">  -1052.07419416 </i>
   <i name="e_wo_entrp">  -1052.07203967 </i>
   <i name="e_0_energy">     -0.00430898 </i>
  </energy>
  <time name="totalsc"> 1937.47 1940.05</time>
 </calculation>
 <calculation>
  <scstep>
   <time name="dav">  577.19  577.23</time>
   <time name="total">  584.42  584.50</time>
   <energy>
    <i name="alphaZ">   5602.37869566 </i>
    <i name="ewald"> -61393.82851674 </i>
    <i name="hartreedc"> -18170.06851376 </i>
    <i name="XCdc">   3183.86325950 </i>
    <i name="pawpsdc"> 114730.32786788 </i>
    <i name="pawaedc">-113932.72475307 </i>
    <i name="eentropy">     -0.00427603 </i>
    <i name="bandstr">  -7122.19386835 </i>
    <i name="atom">  76050.17612637 </i>
    <i name="e_fr_energy">  -1052.07397853 </i>
    <i name="e_wo_entrp">  -1052.06970250 </i>
    <i name="e_0_energy">  -1052.07184052 </i>
   </energy>
  </scstep>
  <scstep>
   <time name="diag">   65.12   65.12</time>
   <time name="diis">  104.91  104.91</time>
   <time name="orth">   33.55   33.55</time>
   <time name="total">  210.83  210.86</time>
   <energy>
    <i name="e_fr_energy">  -1052.07512088 </i>
    <i name="e_wo_entrp">  -1052.07079984 </i>
    <i name="e_0_energy">  -1052.07296036 </i>
   </energy>
  </scstep>
  <scstep>
   <time name="diag">   65.04   65.04</time>
   <time name="diis">   90.39   90.40</time>
   <time name="orth">   33.59   33.59</time>
   <time name="total">  196.26  196.30</time>
   <energy>
    <i name="e_fr_energy">  -1052.07517074 </i>
    <i name="e_wo_entrp">  -1052.07086278 </i>
    <i name="e_0_energy">  -1052.07301676 </i>
   </energy>
  </scstep>
  <scstep>
   <time name="diag">   65.15   65.16</time>
   <time name="diis">   65.94   65.95</time>
   <time name="orth">   33.53   33.53</time>
   <time name="total">  171.89  172.20</time>
   <energy>
    <i name="e_fr_energy">  -1052.07512103 </i>
    <i name="e_wo_entrp">  -1052.07081032 </i>
    <i name="e_0_energy">  -1052.07296568 </i>
   </energy>
  </scstep>
  <scstep>
   <time name="diag">   65.08   65.09</time>
   <time name="diis">   65.28   65.28</time>
   <time name="orth">   33.51   33.51</time>
   <time name="total">  171.13  171.25</time>
   <energy>
    <i name="e_fr_energy">  -1052.07509608 </i>
    <i name="e_wo_entrp">  -1052.07077446 </i>
    <i name="e_0_energy">  -1052.07293527 </i>
   </energy>
  </scstep>
  <scstep>
   <time name="diag">   65.14   65.14</time>
   <time name="diis">   63.71   63.71</time>
   <time name="orth">   33.52   33.52</time>
   <time name="total">  169.64  169.70</time>
   <energy>
    <i name="e_fr_energy">  -1052.07509849 </i>
    <i name="e_wo_entrp">  -1052.07078667 </i>
    <i name="e_0_energy">  -1052.07294258 </i>
   </energy>
  </scstep>
  <scstep>
   <time name="diag">   65.09   65.10</time>
   <time name="diis">   61.00   61.02</time>
   <time name="orth">   33.41   33.41</time>
   <time name="total">  166.80  166.89</time>
   <energy>
    <i name="e_fr_energy">  -1052.07509898 </i>
    <i name="e_wo_entrp">  -1052.07078882 </i>
    <i name="e_0_energy">  -1052.07294390 </i>
   </energy>
  </scstep>
  <scstep>
   <time name="diag">   65.06   65.07</time>
   <time name="diis">   58.12   58.13</time>
   <time name="orth">   33.43   33.43</time>
   <time name="total">  157.67  157.73</time>
   <energy>
    <i name="alphaZ">   5602.37869566 </i>
    <i name="ewald"> -61393.82851674 </i>
    <i name="hartreedc"> -18169.54864366 </i>
    <i name="XCdc">   3183.82729386 </i>
    <i name="pawpsdc"> 114734.17369218 </i>
    <i name="pawaedc">-113936.58332938 </i>
    <i name="eentropy">     -0.00431537 </i>
    <i name="bandstr">  -7122.66610227 </i>
    <i name="atom">  76050.17612637 </i>
    <i name="e_fr_energy">  -1052.07509936 </i>
    <i name="e_wo_entrp">  -1052.07078398 </i>
    <i name="e_0_energy">  -1052.07294167 </i>
   </energy>
  </scstep>
  <structure>
   <crystal>
    <varray name="basis" >
     <v>      11.25938923      -0.02913941      -0.00748486 </v>
     <v>      -0.02909497      11.26982816       0.00914076 </v>
     <v>      -0.01022046       0.01294029      15.84249094 </v>
    </varray>
    <i name="volume">   2010.25994569 </i>
    <varray name="rec_basis" >
     <v>       0.08881540       0.00022925       0.00005711 </v>
     <v>       0.00022959       0.08873315      -0.00007233 </v>
     <v>       0.00004183      -0.00005109       0.06312146 </v>
    </varray>
   </crystal>
   <varray name="positions" >
    <v>       0.00896048       0.26416492       0.12239733 </v>
    <v>       0.99460759       0.26567669       0.62914722 </v>
    <v>       0.00003670       0.73407769       0.12580007 </v>
    <v>       0.00789360       0.72841044       0.61971272 </v>
    <v>       0.49101270       0.24574301       0.11894873 </v>
    <v>       0.51469424       0.26552353       0.62247949 </v>
    <v>       0.49756484       0.75429425       0.11974934 </v>
    <v>       0.48715764       0.73746398       0.62165393 </v>
    <v>       0.99899388       0.26251106       0.37306455 </v>
    <v>       0.99985831       0.26561392       0.88431945 </v>
    <v>       0.00873087       0.72645874       0.37547692 </v>
    <v>       0.98943489       0.73574531       0.88058836 </v>
    <v>       0.50295476       0.24431835       0.37878417 </v>
    <v>       0.50747556       0.25735631       0.87826585 </v>
    <v>       0.48810812       0.74984107       0.37944377 </v>
    <v>       0.50792878       0.73952323       0.87469139 </v>
    <v>       0.25389065       0.01434398       0.12667904 </v>
    <v>       0.26012687       0.98108765       0.61943236 </v>
    <v>       0.24180012       0.48788984       0.12385510 </v>
    <v>       0.25217012       0.50466864       0.61642271 </v>
    <v>       0.73792536       0.00329865       0.11628944 </v>
    <v>       0.73562929       0.01573550       0.62254264 </v>
    <v>       0.76424225       0.49689352       0.11993551 </v>
    <v>       0.75193618       0.49237550       0.62310029 </v>
    <v>       0.25403937       0.99496270       0.37220152 </v>
    <v>       0.26181856       0.00524661       0.88538699 </v>
    <v>       0.24086132       0.49483038       0.37883886 </v>
    <v>       0.25035392       0.49397855       0.87834862 </v>
    <v>       0.73491996       0.01478418       0.37890061 </v>
    <v>       0.74239678       0.00888667       0.87939918 </v>
    <v>       0.76152962       0.48536409       0.37792330 </v>
    <v>       0.75374579       0.49361977       0.87547856 </v>
    <v>       0.99902404       0.99597216       0.00889658 </v>
    <v>       0.99577542       0.99700405       0.49333713 </v>
    <v>       0.49525073       0.00236266       0.50125967 </v>
    <v>       0.50037304       0.49937772       0.99972729 </v>
    <v>       0.24962808       0.75139560       0.00694047 </v>
    <v>       0.75188402       0.24892050       0.00196094 </v>
    <v>       0.74869530       0.75031470       0.99872596 </v>
    <v>       0.74361200       0.74748735       0.50368305 </v>
    <v>       0.24875195       0.74656180       0.25378647 </v>
    <v>       0.76350846       0.78014030       0.25332156 </v>
    <v>       0.75104421       0.74368438       0.74771079 </v>
    <v>       0.99518034       0.97722111       0.73836048 </v>
    <v>       0.00222981       0.50284078       0.75175364 </v>
    <v>       0.49554033       0.99906726       0.24767136 </v>
    <v>       0.51260130       0.99065328       0.75194562 </v>
    <v>       0.48642654       0.48878154       0.25211200 </v>
    <v>       0.00208699       0.50017539       0.99976170 </v>
    <v>       0.00266368       0.49463940       0.50105974 </v>
    <v>       0.49766950       0.00139970       0.99685030 </v>
    <v>       0.50154506       0.49973407       0.49857667 </v>
    <v>       0.25086956       0.24760128       0.99970057 </v>
    <v>       0.25844886       0.25170788       0.49548985 </v>
    <v>       0.25135138       0.74374186       0.49694873 </v>
    <v>       0.75123711       0.25201171       0.50078482 </v>
    <v>       0.24154446       0.24491353       0.25212753 </v>
    <v>       0.25053607       0.27076080       0.74886457 </v>
    <v>       0.25255350       0.74887900       0.74346780 </v>
    <v>       0.73947873       0.26073796       0.24620717 </v>
    <v>       0.74465120       0.26384826       0.75087851 </v>
    <v>       0.01147162       0.99049764       0.25129792 </v>
    <v>       0.00309009       0.49353091       0.24964773 </v>
    <v>       0.50042693       0.50145938       0.74829807 </v>
    <v>       0.10908018       0.12551747       0.23342237 </v>
    <v>       0.12665631       0.62317576       0.24617657 </v>
    <v>       0.11555799       0.64791590       0.76128102 </v>
    <v>       0.63265276       0.11144667       0.24542962 </v>
    <v>       0.62493780       0.12898938       0.74561351 </v>
    <v>       0.62125611       0.63989663       0.73072589 </v>
    <v>       0.37577343       0.37192750       0.27278467 </v>
    <v>       0.39538518       0.35302073       0.75167502 </v>
    <v>       0.36208487       0.88134169       0.25348765 </v>
    <v>       0.37546892       0.87992755       0.75740920 </v>
    <v>       0.87953429       0.36667287       0.25053659 </v>
    <v>       0.88682285       0.37284180       0.75235681 </v>
    <v>       0.84847642       0.92339732       0.25220484 </v>
    <v>       0.87627023       0.87740437       0.77627530 </v>
    <v>       0.37781446       0.12344535       0.24834916 </v>
    <v>       0.38268813       0.63165333       0.24998527 </v>
    <v>       0.36646035       0.62605698       0.76769764 </v>
    <v>       0.94995332       0.12538909       0.77147604 </v>
    <v>       0.85917824       0.63586046       0.25354104 </v>
    <v>       0.87091952       0.62389715       0.74436722 </v>
    <v>       0.12992382       0.37657056       0.25191369 </v>
    <v>       0.13781200       0.39418676       0.74730105 </v>
    <v>       0.11206167       0.86058967       0.25415902 </v>
    <v>       0.13871723       0.90543012       0.76915368 </v>
    <v>       0.62732895       0.38662753       0.23677189 </v>
    <v>       0.63745474       0.39157211       0.74401566 </v>
    <v>       0.60383891       0.83775904       0.25395356 </v>
    <v>       0.63297995       0.88075859       0.75521260 </v>
    <v>       0.38019275       0.37390271       0.98870860 </v>
    <v>       0.38217477       0.36516211       0.48836462 </v>
    <v>       0.37358532       0.86616199       0.98070469 </v>
    <v>       0.38244703       0.86720746       0.50087236 </v>
    <v>       0.87471968       0.37360881       0.00120039 </v>
    <v>       0.87860489       0.37496233       0.49811595 </v>
    <v>       0.87604239       0.87623209       0.97995436 </v>
    <v>       0.11990510       0.11754393       0.00031800 </v>
    <v>       0.12924473       0.63063004       0.99186930 </v>
    <v>       0.12540582       0.61860527       0.49920087 </v>
    <v>       0.62448859       0.12759169       0.00465040 </v>
    <v>       0.61301520       0.13389455       0.50310231 </v>
    <v>       0.62332117       0.62861474       0.01385093 </v>
    <v>       0.62393210       0.63732756       0.51157067 </v>
    <v>       0.12898729       0.37520751       0.99734551 </v>
    <v>       0.12621940       0.35763175       0.50987791 </v>
    <v>       0.12448305       0.87325981       0.97622096 </v>
    <v>       0.12184552       0.87955641       0.49375470 </v>
    <v>       0.62870299       0.37520833       0.01241883 </v>
    <v>       0.63175715       0.38306536       0.50089500 </v>
    <v>       0.62662032       0.87712858       0.98967292 </v>
    <v>       0.63653619       0.89051597       0.50712926 </v>
    <v>       0.37119510       0.12106076       0.00697629 </v>
    <v>       0.35615392       0.10910087       0.49962589 </v>
    <v>       0.37062033       0.62710530       0.98827689 </v>
    <v>       0.37281358       0.61780358       0.49253261 </v>
    <v>       0.87840496       0.11697880       0.98683465 </v>
    <v>       0.86965436       0.11129619       0.50348326 </v>
    <v>       0.87441589       0.62835681       0.00459315 </v>
    <v>       0.87698846       0.63887923       0.50019985 </v>
    <v>       0.99047264       0.97825339       0.12336385 </v>
    <v>       0.99034465       0.97646863       0.62018446 </v>
    <v>       0.00102817       0.50186222       0.12559251 </v>
    <v>       0.00164648       0.50325394       0.62583064 </v>
    <v>       0.49754038       0.98313977       0.12478474 </v>
    <v>       0.48629736       0.01006229       0.63049909 </v>
    <v>       0.48270496       0.50440862       0.12699698 </v>
    <v>       0.48125090       0.50149497       0.62389884 </v>
    <v>       0.99757714       0.01979706       0.37342210 </v>
    <v>       0.00285991       0.49833072       0.37520414 </v>
    <v>       0.99628326       0.50251352       0.87505626 </v>
    <v>       0.50217630       0.00029635       0.37581531 </v>
    <v>       0.49052703       0.02897485       0.86877206 </v>
    <v>       0.53733101       0.52751594       0.36462423 </v>
    <v>       0.52227691       0.50518829       0.87728782 </v>
    <v>       0.22310513       0.22036744       0.37829991 </v>
    <v>       0.23959797       0.22203794       0.86274091 </v>
    <v>       0.24756649       0.74605455       0.37376290 </v>
    <v>       0.75211675       0.24219772       0.36962246 </v>
    <v>       0.74571676       0.25116253       0.87614841 </v>
    <v>       0.76641875       0.77863065       0.38188548 </v>
    <v>       0.74020068       0.72602942       0.87298952 </v>
    <v>       0.25889238       0.26006795       0.12610778 </v>
    <v>       0.22499664       0.19626268       0.64370634 </v>
    <v>       0.24988289       0.76253021       0.12285994 </v>
    <v>       0.24778566       0.74813731       0.62463965 </v>
    <v>       0.77647262       0.22823657       0.12757507 </v>
    <v>       0.76299455       0.24606169       0.62774483 </v>
    <v>       0.75590986       0.76799713       0.12704270 </v>
    <v>       0.78050969       0.78368007       0.62353063 </v>
   </varray>
  </structure>
  <varray name="forces" >
   <v>       0.00850483      -0.00386231       0.00220648 </v>
   <v>      -0.00371970       0.00387206       0.00154535 </v>
   <v>      -0.01584522       0.00110919       0.00267318 </v>
   <v>       0.00373543       0.00577139      -0.00594209 </v>
   <v>      -0.00148782       0.00148887       0.00009979 </v>
   <v>      -0.00575485      -0.00127546      -0.00040948 </v>
   <v>      -0.00336562       0.00032542       0.00842336 </v>
   <v>       0.00551578      -0.00480440       0.00170813 </v>
   <v>       0.00458646       0.00141730      -0.00466104 </v>
   <v>       0.00347889       0.00613994       0.00285043 </v>
   <v>       0.00215614       0.00718253       0.00105271 </v>
   <v>      -0.00689500       0.00631908      -0.00010360 </v>
   <v>       0.00316012       0.00281822      -0.00450489 </v>
   <v>      -0.00742921      -0.00247031      -0.00304858 </v>
   <v>      -0.00228757       0.00074553       0.00300095 </v>
   <v>      -0.01025460       0.00583016       0.00522624 </v>
   <v>       0.01447614      -0.00364625      -0.00275534 </v>
   <v>       0.00019525       0.00167429      -0.00261343 </v>
   <v>      -0.00158849      -0.00277153      -0.00426754 </v>
   <v>       0.00616971      -0.00085404       0.00944248 </v>
   <v>       0.01521154      -0.00392559      -0.00308714 </v>
   <v>      -0.00040554       0.00378528      -0.00071428 </v>
   <v>       0.00349569      -0.01764427       0.00234123 </v>
   <v>       0.00030725       0.00023860       0.00392737 </v>
   <v>       0.00475960      -0.00498646       0.00049386 </v>
   <v>       0.00293782       0.00360316       0.00125987 </v>
   <v>      -0.00470036       0.00798379       0.00869831 </v>
   <v>       0.00370650       0.00291694      -0.00151121 </v>
   <v>       0.01086637      -0.00011760      -0.00034156 </v>
   <v>       0.00271267      -0.00022774      -0.00457828 </v>
   <v>      -0.00441790       0.00104378       0.00049959 </v>
   <v>      -0.00018916      -0.00615778      -0.00085769 </v>
   <v>       0.01364270       0.00351425       0.02672010 </v>
   <v>       0.01046893      -0.00750484       0.01193401 </v>
   <v>      -0.00095533       0.00030599      -0.00311686 </v>
   <v>      -0.02177229      -0.01899607       0.01752595 </v>
   <v>       0.01111647       0.01695976       0.01534338 </v>
   <v>       0.01180456       0.00184914      -0.00872995 </v>
   <v>       0.02041465      -0.00836118       0.00568523 </v>
   <v>       0.01398129       0.00372698       0.01340196 </v>
   <v>      -0.01069234       0.01268170       0.00287554 </v>
   <v>       0.03383255      -0.00531560       0.00463949 </v>
   <v>       0.00356434      -0.00184241      -0.01698590 </v>
   <v>       0.01793629       0.05647286       0.02084201 </v>
   <v>      -0.00179201      -0.00970059      -0.00065702 </v>
   <v>       0.00069873       0.00337317       0.00430814 </v>
   <v>      -0.01161232       0.02401332       0.00674043 </v>
   <v>      -0.00654569       0.00758237      -0.02823922 </v>
   <v>      -0.00300974       0.00164420       0.00495674 </v>
   <v>       0.00663218      -0.00195519      -0.00061515 </v>
   <v>      -0.00889904       0.00823085      -0.00288766 </v>
   <v>      -0.00216275      -0.00318632       0.00844698 </v>
   <v>       0.00802402       0.00228807      -0.00399776 </v>
   <v>      -0.00544034      -0.00190517       0.01168180 </v>
   <v>      -0.00298628       0.00224071      -0.00096195 </v>
   <v>      -0.00261627       0.00117013       0.00105903 </v>
   <v>       0.00034546      -0.00201575       0.00090437 </v>
   <v>      -0.00444453      -0.01655779       0.00380126 </v>
   <v>      -0.00404027       0.00622697      -0.00445459 </v>
   <v>       0.00093843      -0.00085979      -0.00024644 </v>
   <v>      -0.00058458      -0.01465252      -0.00462649 </v>
   <v>       0.00656993      -0.00972395      -0.00354044 </v>
   <v>      -0.00574637       0.00723421      -0.00243595 </v>
   <v>      -0.00111893      -0.00634924       0.00145437 </v>
   <v>      -0.00033920       0.01096601       0.01135032 </v>
   <v>       0.00970799      -0.01023693       0.00042453 </v>
   <v>       0.00440183      -0.01319487      -0.00056540 </v>
   <v>       0.00510020      -0.00065433       0.00257797 </v>
   <v>      -0.00495331      -0.00996847      -0.00282570 </v>
   <v>       0.00137891      -0.00797345       0.00977216 </v>
   <v>      -0.01800905       0.00300507      -0.00625789 </v>
   <v>       0.00637855       0.00778011      -0.00714750 </v>
   <v>       0.00188724       0.01024860      -0.00686153 </v>
   <v>      -0.00819833       0.00604034      -0.00135899 </v>
   <v>      -0.00985030       0.00932228      -0.00720578 </v>
   <v>      -0.00311497       0.00878546       0.00112656 </v>
   <v>      -0.00284213      -0.01047405       0.00168042 </v>
   <v>      -0.03034974      -0.01197444      -0.00643569 </v>
   <v>       0.01086044       0.00983630       0.00397425 </v>
   <v>       0.02336605       0.01747185      -0.01060967 </v>
   <v>       0.00185751       0.00046530      -0.00286752 </v>
   <v>       0.01081291      -0.03164706      -0.02033347 </v>
   <v>      -0.00336342       0.00954681       0.00029432 </v>
   <v>      -0.00056830       0.00115417       0.00029659 </v>
   <v>      -0.00939546      -0.01175434      -0.00584470 </v>
   <v>      -0.01590334       0.01701918      -0.00088907 </v>
   <v>      -0.00734914      -0.00047239       0.01360589 </v>
   <v>       0.00051942      -0.00614132       0.00865926 </v>
[...]
       <r>   -17.0471     0.0000    32.0000 </r>
       <r>   -16.8937     0.0000    32.0000 </r>
       <r>   -16.7403     0.0000    32.0000 </r>
       <r>   -16.5869     0.0000    32.0000 </r>
       <r>   -16.4335     0.0000    32.0000 </r>
       <r>   -16.2800     0.0000    32.0000 </r>
       <r>   -16.1266     0.0000    32.0000 </r>
       <r>   -15.9732     0.0000    32.0000 </r>
       <r>   -15.8198     0.0000    32.0000 </r>
       <r>   -15.6664     0.0000    32.0000 </r>
       <r>   -15.5130     0.0000    32.0000 </r>
       <r>   -15.3596     0.0000    32.0000 </r>
       <r>   -15.2062     0.6337    32.0972 </r>
       <r>   -15.0528    20.8298    35.2927 </r>
       <r>   -14.8994    41.6879    41.6880 </r>
       <r>   -14.7459    42.7927    48.2528 </r>
       <r>   -14.5925    39.7178    54.3459 </r>
       <r>   -14.4391    42.2198    60.8229 </r>
       <r>   -14.2857    46.1423    67.9016 </r>
       <r>   -14.1323    67.5029    78.2571 </r>
       <r>   -13.9789    85.5783    91.3857 </r>
       <r>   -13.8255    81.8619   103.9441 </r>
       <r>   -13.6721    53.4823   112.1488 </r>
       <r>   -13.5187    34.3962   117.4255 </r>
       <r>   -13.3653    16.7153   119.9898 </r>
       <r>   -13.2118     0.0665   120.0000 </r>
       <r>   -13.0584     0.0000   120.0000 </r>
       <r>   -12.9050     0.0007   120.0001 </r>
       <r>   -12.7516     9.0559   121.3894 </r>
       <r>   -12.5982    67.0608   131.6772 </r>
       <r>   -12.4448   140.1130   153.1719 </r>
       <r>   -12.2914   124.0629   172.2043 </r>
       <r>   -12.1380    98.4541   187.3081 </r>
       <r>   -11.9846    93.5075   201.6531 </r>
       <r>   -11.8312    64.6884   211.5769 </r>
       <r>   -11.6778    25.4550   215.4820 </r>
       <r>   -11.5243     3.3768   216.0000 </r>
       <r>   -11.3709     0.0000   216.0000 </r>
       <r>   -11.2175     0.0000   216.0000 </r>
       <r>   -11.0641     0.0000   216.0000 </r>
       <r>   -10.9107     0.0000   216.0000 </r>
       <r>   -10.7573     0.0000   216.0000 </r>
       <r>   -10.6039     0.0000   216.0000 </r>
       <r>   -10.4505     0.0000   216.0000 </r>
       <r>   -10.2971     0.0000   216.0000 </r>
       <r>   -10.1437     0.0000   216.0000 </r>
       <r>    -9.9902     0.0000   216.0000 </r>
       <r>    -9.8368     0.0000   216.0000 </r>
       <r>    -9.6834     0.0000   216.0000 </r>
       <r>    -9.5300     0.0000   216.0000 </r>
       <r>    -9.3766     0.0000   216.0000 </r>
       <r>    -9.2232     0.0000   216.0000 </r>
       <r>    -9.0698     0.0000   216.0000 </r>
       <r>    -8.9164     0.0000   216.0000 </r>
       <r>    -8.7630     0.0000   216.0000 </r>
       <r>    -8.6096     0.0000   216.0000 </r>
       <r>    -8.4561     0.0000   216.0000 </r>
       <r>    -8.3027     0.0000   216.0000 </r>
       <r>    -8.1493     0.0000   216.0000 </r>
       <r>    -7.9959     0.0000   216.0000 </r>
       <r>    -7.8425     0.0000   216.0000 </r>
       <r>    -7.6891     0.0000   216.0000 </r>
       <r>    -7.5357     0.0000   216.0000 </r>
       <r>    -7.3823     0.0000   216.0000 </r>
       <r>    -7.2289     0.0000   216.0000 </r>
       <r>    -7.0755     0.0000   216.0000 </r>
       <r>    -6.9221     0.0000   216.0000 </r>
       <r>    -6.7686     0.0000   216.0000 </r>
       <r>    -6.6152     0.0000   216.0000 </r>
       <r>    -6.4618     0.0000   216.0000 </r>
       <r>    -6.3084     0.0000   216.0000 </r>
       <r>    -6.1550     0.0000   216.0000 </r>
       <r>    -6.0016     0.0000   216.0000 </r>
       <r>    -5.8482     0.0000   216.0000 </r>
       <r>    -5.6948     0.0000   216.0000 </r>
       <r>    -5.5414     0.0000   216.0000 </r>
       <r>    -5.3880     0.0000   216.0000 </r>
       <r>    -5.2345     0.0000   216.0000 </r>
       <r>    -5.0811     0.0000   216.0000 </r>
       <r>    -4.9277     0.0000   216.0000 </r>
       <r>    -4.7743     0.0000   216.0000 </r>
       <r>    -4.6209     0.0000   216.0000 </r>
       <r>    -4.4675     0.0000   216.0000 </r>
       <r>    -4.3141     0.0000   216.0000 </r>
       <r>    -4.1607     0.0000   216.0000 </r>
       <r>    -4.0073     0.0000   216.0000 </r>
       <r>    -3.8539     0.0000   216.0000 </r>
       <r>    -3.7004     0.0000   216.0000 </r>
       <r>    -3.5470     0.0000   216.0000 </r>
       <r>    -3.3936     0.0000   216.0000 </r>
       <r>    -3.2402     0.0000   216.0000 </r>
       <r>    -3.0868     0.0000   216.0000 </r>
       <r>    -2.9334     0.0000   216.0000 </r>
       <r>    -2.7800     0.0002   216.0000 </r>
       <r>    -2.6266     3.8313   216.5878 </r>
       <r>    -2.4732     4.6534   217.3017 </r>
       <r>    -2.3198    11.6254   219.0851 </r>
       <r>    -2.1663    15.9045   221.5250 </r>
       <r>    -2.0129    23.2206   225.0873 </r>
       <r>    -1.8595    26.4242   229.1410 </r>
       <r>    -1.7061    35.4766   234.5835 </r>
       <r>    -1.5527    39.7592   240.6829 </r>
       <r>    -1.3993    47.9897   248.0450 </r>
       <r>    -1.2459    56.6897   256.7418 </r>
       <r>    -1.0925    68.2787   267.2164 </r>
       <r>    -0.9391    74.2062   278.6003 </r>
       <r>    -0.7857    82.1880   291.2088 </r>
       <r>    -0.6323   101.0792   306.7153 </r>
       <r>    -0.4788    97.1831   321.6241 </r>
       <r>    -0.3254    76.7873   333.4041 </r>
       <r>    -0.1720    61.3763   342.8198 </r>
       <r>    -0.0186    57.2729   351.6060 </r>
       <r>     0.1348    52.8032   359.7065 </r>
       <r>     0.2882    55.7327   368.2565 </r>
       <r>     0.4416    53.4454   376.4555 </r>
       <r>     0.5950    54.8813   384.8748 </r>
       <r>     0.7484    56.3001   393.5118 </r>
       <r>     0.9018    53.3155   401.6909 </r>
       <r>     1.0553    58.6722   410.6918 </r>
       <r>     1.2087    67.3068   421.0173 </r>
       <r>     1.3621    72.5426   432.1461 </r>
       <r>     1.5155    71.5914   443.1289 </r>
       <r>     1.6689    65.0617   453.1100 </r>
       <r>     1.8223    69.4377   463.7624 </r>
       <r>     1.9757    43.0674   470.3693 </r>
       <r>     2.1291    34.3711   475.6422 </r>
       <r>     2.2825    20.6347   478.8078 </r>
       <r>     2.4359     7.7684   479.9995 </r>
       <r>     2.5894     0.0032   480.0000 </r>
       <r>     2.7428     0.0000   480.0000 </r>
       <r>     2.8962     0.0000   480.0000 </r>
       <r>     3.0496     0.0000   480.0000 </r>
       <r>     3.2030     0.0000   480.0000 </r>
       <r>     3.3564     0.0000   480.0000 </r>
       <r>     3.5098     0.0000   480.0000 </r>
       <r>     3.6632     0.0000   480.0000 </r>
       <r>     3.8166     0.0000   480.0000 </r>
       <r>     3.9700     0.0000   480.0000 </r>
       <r>     4.1234     0.0000   480.0000 </r>
       <r>     4.2769     0.8517   480.1307 </r>
       <r>     4.4303    16.0889   482.5989 </r>
       <r>     4.5837    40.3442   488.7881 </r>
       <r>     4.7371    51.5888   496.7023 </r>
       <r>     4.8905    56.0239   505.2969 </r>
       <r>     5.0439    58.3043   514.2413 </r>
       <r>     5.1973    66.8951   524.5037 </r>
       <r>     5.3507    75.9047   536.1482 </r>
       <r>     5.5041    78.1439   548.1362 </r>
       <r>     5.6575    75.4545   559.7117 </r>
       <r>     5.8110    60.0516   568.9242 </r>
       <r>     5.9644    67.3134   579.2507 </r>
       <r>     6.1178    70.1114   590.0065 </r>
       <r>     6.2712    66.0613   600.1409 </r>
       <r>     6.4246    43.4256   606.8028 </r>
       <r>     6.5780    23.4330   610.3977 </r>
       <r>     6.7314    25.3343   614.2842 </r>
       <r>     6.8848    19.7499   617.3140 </r>
       <r>     7.0382    15.1427   619.6370 </r>
       <r>     7.1916     9.8709   621.1513 </r>
       <r>     7.3451    14.4325   623.3654 </r>
       <r>     7.4985    15.0263   625.6706 </r>
       <r>     7.6519    15.8383   628.1003 </r>
       <r>     7.8053    14.9499   630.3938 </r>
       <r>     7.9587    17.3726   633.0589 </r>
       <r>     8.1121    19.7187   636.0840 </r>
       <r>     8.2655    25.0556   639.9277 </r>
       <r>     8.4189    25.3562   643.8176 </r>
       <r>     8.5723    24.4002   647.5609 </r>
       <r>     8.7257    29.9696   652.1585 </r>
       <r>     8.8792    31.4125   656.9775 </r>
       <r>     9.0326    33.2504   662.0784 </r>
       <r>     9.1860    35.3532   667.5019 </r>
       <r>     9.3394    43.0637   674.1083 </r>
       <r>     9.4928    48.5911   681.5627 </r>
       <r>     9.6462    49.7235   689.1908 </r>
       <r>     9.7996    53.9191   697.4625 </r>
       <r>     9.9530    53.2701   705.6346 </r>
       <r>    10.1064    56.4916   714.3010 </r>
       <r>    10.2598    53.9726   722.5809 </r>
       <r>    10.4132    53.7205   730.8222 </r>
       <r>    10.5667    55.4292   739.3255 </r>
       <r>    10.7201    53.6932   747.5626 </r>
       <r>    10.8735    52.3020   755.5862 </r>
       <r>    11.0269    57.9863   764.4819 </r>
       <r>    11.1803    22.9181   767.9978 </r>
       <r>    11.3337     0.0146   768.0000 </r>
       <r>    11.4871     0.0000   768.0000 </r>
       <r>    11.6405     0.0000   768.0000 </r>
       <r>    11.7939     0.0000   768.0000 </r>
       <r>    11.9473     0.0000   768.0000 </r>
       <r>    12.1008     0.0000   768.0000 </r>
       <r>    12.2542     0.0000   768.0000 </r>
       <r>    12.4076     0.0000   768.0000 </r>
       <r>    12.5610     0.0000   768.0000 </r>
       <r>    12.7144     0.0000   768.0000 </r>
       <r>    12.8678     0.0000   768.0000 </r>
       <r>    13.0212     0.0000   768.0000 </r>
       <r>    13.1746     0.0000   768.0000 </r>
      </set>
     </set>
    </array>
   </total>
  </dos>
 </calculation>
 <structure name="finalpos" >
  <crystal>
   <varray name="basis" >
    <v>      11.25946021      -0.02891346      -0.00739266 </v>
    <v>      -0.02886906      11.26981237       0.00899210 </v>
    <v>      -0.01009100       0.01273133      15.84261165 </v>
   </varray>
   <i name="volume">   2010.28539283 </i>
   <varray name="rec_basis" >
    <v>       0.08881483       0.00022747       0.00005639 </v>
    <v>       0.00022781       0.08873326      -0.00007116 </v>
    <v>       0.00004131      -0.00005026       0.06312097 </v>
   </varray>
  </crystal>
  <varray name="positions" >
   <v>       0.00901322       0.26414328       0.12241736 </v>
   <v>       0.99457401       0.26572306       0.62914329 </v>
   <v>      -0.00005292       0.73406865       0.12579762 </v>
   <v>       0.00791700       0.72846118       0.61970073 </v>
   <v>       0.49101275       0.24573573       0.11895333 </v>
   <v>       0.51466979       0.26551697       0.62247357 </v>
   <v>       0.49757843       0.75430606       0.11978475 </v>
   <v>       0.48719003       0.73743994       0.62166691 </v>
   <v>       0.99902219       0.26250312       0.37303923 </v>
   <v>       0.99987414       0.26569439       0.88435043 </v>
   <v>       0.00873681       0.72649971       0.37548324 </v>
   <v>       0.98939596       0.73579115       0.88058310 </v>
   <v>       0.50297124       0.24435301       0.37876513 </v>
   <v>       0.50745588       0.25735132       0.87824842 </v>
   <v>       0.48811736       0.74983058       0.37944855 </v>
   <v>       0.50789167       0.73955433       0.87471536 </v>
   <v>       0.25399071       0.01432688       0.12667077 </v>
   <v>       0.26014892       0.98107985       0.61941930 </v>
   <v>       0.24178232       0.48787788       0.12384483 </v>
   <v>       0.25221233       0.50466629       0.61646527 </v>
   <v>       0.73798816       0.00325074       0.11626847 </v>
   <v>       0.73562089       0.01576855       0.62253309 </v>
   <v>       0.76425452       0.49678679       0.11994154 </v>
   <v>       0.75192828       0.49235849       0.62312426 </v>
   <v>       0.25407466       0.99494745       0.37220603 </v>
   <v>       0.26183956       0.00525117       0.88538845 </v>
   <v>       0.24085020       0.49487623       0.37887041 </v>
   <v>       0.25037397       0.49401761       0.87833703 </v>
   <v>       0.73500545       0.01477264       0.37889224 </v>
   <v>       0.74239488       0.00886241       0.87938994 </v>
   <v>       0.76148111       0.48537894       0.37792462 </v>
   <v>       0.75372567       0.49358671       0.87547646 </v>
   <v>       0.99909558       0.99598617       0.00894057 </v>
   <v>       0.99576557       0.99703031       0.49334344 </v>
   <v>       0.49522748       0.00235211       0.50125474 </v>
   <v>       0.50035103       0.49935738       0.99974176 </v>
   <v>       0.24960064       0.75141471       0.00696466 </v>
   <v>       0.75191618       0.24891913       0.00191916 </v>
   <v>       0.74869711       0.75031516       0.99874275 </v>
   <v>       0.74365382       0.74748145       0.50368801 </v>
   <v>       0.24871968       0.74658495       0.25378070 </v>
   <v>       0.76354967       0.78013555       0.25336215 </v>
   <v>       0.75103759       0.74369550       0.74769990 </v>
   <v>       0.99522060       0.97733694       0.73837846 </v>
   <v>       0.00221421       0.50280796       0.75175631 </v>
   <v>       0.49559042       0.99907074       0.24767527 </v>
   <v>       0.51253842       0.99065056       0.75195055 </v>
   <v>       0.48635852       0.48883027       0.25209036 </v>
   <v>       0.00207485       0.50020303       0.99976816 </v>
   <v>       0.00271076       0.49463237       0.50104977 </v>
   <v>       0.49770644       0.00139462       0.99683932 </v>
   <v>       0.50155836       0.49972937       0.49858389 </v>
   <v>       0.25091127       0.24761717       0.99970234 </v>
   <v>       0.25846803       0.25169992       0.49550174 </v>
   <v>       0.25136619       0.74374003       0.49695070 </v>
   <v>       0.75120897       0.25201199       0.50078599 </v>
   <v>       0.24155536       0.24491643       0.25213814 </v>
   <v>       0.25049916       0.27074164       0.74886303 </v>
   <v>       0.25253620       0.74891219       0.74346806 </v>
   <v>       0.73950501       0.26071325       0.24621513 </v>
   <v>       0.74462602       0.26379430       0.75086133 </v>
   <v>       0.01149752       0.99050069       0.25132382 </v>
   <v>       0.00306506       0.49355291       0.24965116 </v>
   <v>       0.50042979       0.50144026       0.74832985 </v>
   <v>       0.10905639       0.12557158       0.23346466 </v>
   <v>       0.12672077       0.62313205       0.24617236 </v>
   <v>       0.11558698       0.64783607       0.76127095 </v>
   <v>       0.63264075       0.11142187       0.24544733 </v>
   <v>       0.62491980       0.12894551       0.74559508 </v>
   <v>       0.62128762       0.63984487       0.73076176 </v>
   <v>       0.37569374       0.37195418       0.27274077 </v>
   <v>       0.39537077       0.35303896       0.75163583 </v>
   <v>       0.36208713       0.88141917       0.25345316 </v>
   <v>       0.37541855       0.87998959       0.75739857 </v>
   <v>       0.87947157       0.36673426       0.25050211 </v>
   <v>       0.88677040       0.37285231       0.75236501 </v>
   <v>       0.84848682       0.92334378       0.25220519 </v>
   <v>       0.87615788       0.87740045       0.77622225 </v>
   <v>       0.37790074       0.12349657       0.24836592 </v>
   <v>       0.38278710       0.63179926       0.24993221 </v>
   <v>       0.36646842       0.62604912       0.76768103 </v>
   <v>       0.94999212       0.12530215       0.77140820 </v>
   <v>       0.85918293       0.63591615       0.25353903 </v>
   <v>       0.87090778       0.62390319       0.74435940 </v>
   <v>       0.12984814       0.37651425       0.25188415 </v>
   <v>       0.13781340       0.39420436       0.74729817 </v>
   <v>       0.11203325       0.86055687       0.25421314 </v>
   <v>       0.13875348       0.90541886       0.76921434 </v>
   <v>       0.62723392       0.38657108       0.23675909 </v>
   <v>       0.63741380       0.39156395       0.74400256 </v>
   <v>       0.60385686       0.83779160       0.25394501 </v>
   <v>       0.63297023       0.88070236       0.75520262 </v>
   <v>       0.38018471       0.37387950       0.98872494 </v>
   <v>       0.38218089       0.36515243       0.48844172 </v>
   <v>       0.37353740       0.86617294       0.98073313 </v>
   <v>       0.38245496       0.86718153       0.50087317 </v>
   <v>       0.87476409       0.37360670       0.00120806 </v>
   <v>       0.87859816       0.37495401       0.49811093 </v>
   <v>       0.87601205       0.87621111       0.97995577 </v>
   <v>       0.11993160       0.11752506       0.00034597 </v>
   <v>       0.12921201       0.63064159       0.99184709 </v>
   <v>       0.12541705       0.61859539       0.49922795 </v>
   <v>       0.62452674       0.12757476       0.00463925 </v>
   <v>       0.61299625       0.13385200       0.50308379 </v>
   <v>       0.62332977       0.62862378       0.01382250 </v>
   <v>       0.62394905       0.63724410       0.51153931 </v>
   <v>       0.12896189       0.37522316       0.99736454 </v>
   <v>       0.12626456       0.35763291       0.50989247 </v>
   <v>       0.12447313       0.87325057       0.97618434 </v>
   <v>       0.12185397       0.87957896       0.49375471 </v>
   <v>       0.62870522       0.37518671       0.01236623 </v>
   <v>       0.63180281       0.38306890       0.50091005 </v>
   <v>       0.62658823       0.87709172       0.98966127 </v>
   <v>       0.63654177       0.89048812       0.50712671 </v>
   <v>       0.37124101       0.12108609       0.00695670 </v>
   <v>       0.35615478       0.10910238       0.49962130 </v>
   <v>       0.37059330       0.62710325       0.98832136 </v>
   <v>       0.37282497       0.61781160       0.49255563 </v>
   <v>       0.87847449       0.11697611       0.98680485 </v>
   <v>       0.86964097       0.11130117       0.50347933 </v>
   <v>       0.87439888       0.62834220       0.00458932 </v>
   <v>       0.87696981       0.63891508       0.50022292 </v>
   <v>       0.99045443       0.97825618       0.12335623 </v>
   <v>       0.99039171       0.97656023       0.62013978 </v>
   <v>       0.00105609       0.50188934       0.12557694 </v>
   <v>       0.00162366       0.50326446       0.62583397 </v>
   <v>       0.49755351       0.98314895       0.12477497 </v>
   <v>       0.48626791       0.01004322       0.63048566 </v>
   <v>       0.48266301       0.50435759       0.12696209 </v>
   <v>       0.48126001       0.50156084       0.62390022 </v>
   <v>       0.99758512       0.01975650       0.37341690 </v>
   <v>       0.00283869       0.49834620       0.37521045 </v>
   <v>       0.99626411       0.50253163       0.87505904 </v>
   <v>       0.50220935       0.00029527       0.37581005 </v>
   <v>       0.49051841       0.02890577       0.86878531 </v>
   <v>       0.53726304       0.52748545       0.36464101 </v>
   <v>       0.52220702       0.50518769       0.87729128 </v>
   <v>       0.22314338       0.22040234       0.37832596 </v>
   <v>       0.23958415       0.22200974       0.86274984 </v>
   <v>       0.24761305       0.74602612       0.37376318 </v>
   <v>       0.75212818       0.24225072       0.36964066 </v>
   <v>       0.74573248       0.25112526       0.87613128 </v>
   <v>       0.76644459       0.77869548       0.38188340 </v>
   <v>       0.74021570       0.72610690       0.87298062 </v>
   <v>       0.25881702       0.26002485       0.12612303 </v>
   <v>       0.22497306       0.19622049       0.64373738 </v>
   <v>       0.24980839       0.76255583       0.12284396 </v>
   <v>       0.24775846       0.74815220       0.62465729 </v>
   <v>       0.77648075       0.22824788       0.12756345 </v>
   <v>       0.76303181       0.24598438       0.62773261 </v>
   <v>       0.75594456       0.76797660       0.12703454 </v>
   <v>       0.78045778       0.78363347       0.62353866 </v>
  </varray>
 </structure>
</modeling>
