       N       E                     dE             d eps       ncg     rms          rms(c)
DAV:   1    -0.112136522904E+04   -0.11214E+04   -0.63451E-02 13160   0.579E-01    0.260E-02
RMM:   2    -0.112136522921E+04   -0.16658E-06   -0.28269E-05  7050   0.946E-03    0.455E-02
RMM:   3    -0.112136522937E+04   -0.16020E-06   -0.90860E-06  6743   0.597E-03    0.601E-03
RMM:   4    -0.112136522946E+04   -0.86555E-07   -0.38437E-06  4270   0.279E-03    0.394E-03
RMM:   5    -0.112136522929E+04    0.16569E-06   -0.23178E-06  4088   0.300E-03    0.697E-03
RMM:   6    -0.112136522906E+04    0.23021E-06   -0.13573E-06  3131   0.219E-03    0.126E-03
RMM:   7    -0.112136522898E+04    0.76776E-07   -0.65732E-07  2352   0.216E-03    0.768E-04
RMM:   8    -0.112136522893E+04    0.48109E-07   -0.26178E-07  1809   0.190E-03
   1 F= -.11213652E+04 E0= -.11213652E+04  d E =-.112137E+04  mag=    40.0000
       N       E                     dE             d eps       ncg     rms          rms(c)
DAV:   1    -0.112136514991E+04    0.79076E-04   -0.40478E-01 12416   0.736E-01    0.296E-01
RMM:   2    -0.112136633852E+04   -0.11886E-02   -0.11713E-02 12294   0.146E-01    0.213E-01
RMM:   3    -0.112136639815E+04   -0.59626E-04   -0.65229E-04 11016   0.463E-02    0.112E-01
RMM:   4    -0.112136628515E+04    0.11300E-03   -0.23962E-04  8540   0.195E-02    0.614E-02
RMM:   5    -0.112136626125E+04    0.23903E-04   -0.74824E-05  7269   0.124E-02    0.570E-02
RMM:   6    -0.112136626235E+04   -0.11008E-05   -0.30944E-05  7091   0.856E-03    0.218E-02
RMM:   7    -0.112136626308E+04   -0.73417E-06   -0.11526E-05  6603   0.536E-03    0.163E-02
RMM:   8    -0.112136626377E+04   -0.68481E-06   -0.65041E-06  5904   0.383E-03
   2 F= -.11213663E+04 E0= -.11213663E+04  d E =-.103483E-02  mag=    40.0000
       N       E                     dE             d eps       ncg     rms          rms(c)
DAV:   1    -0.112136627754E+04   -0.14457E-04   -0.82461E-03 13424   0.105E-01    0.422E-02
RMM:   2    -0.112136629811E+04   -0.20569E-04   -0.20983E-04  7815   0.210E-02    0.319E-02
RMM:   3    -0.112136630147E+04   -0.33606E-05   -0.21101E-05  6481   0.905E-03    0.151E-02
RMM:   4    -0.112136629964E+04    0.18302E-05   -0.62283E-06  5771   0.375E-03    0.120E-02
RMM:   5    -0.112136629869E+04    0.95044E-06   -0.21671E-06  4414   0.277E-03    0.557E-03
RMM:   6    -0.112136629863E+04    0.51878E-07   -0.78940E-07  2482   0.204E-03    0.253E-03
RMM:   7    -0.112136629863E+04    0.27212E-08   -0.32490E-08  1359   0.177E-03    0.156E-03
RMM:   8    -0.112136629862E+04    0.11350E-07   -0.40992E-08  1160   0.178E-03
   3 F= -.11213663E+04 E0= -.11213663E+04  d E =-.106969E-02  mag=    40.0000
       N       E                     dE             d eps       ncg     rms          rms(c)
DAV:   1    -0.112136588913E+04    0.40950E-03   -0.54331E-01 12400   0.861E-01    0.270E-01
RMM:   2    -0.112136739327E+04   -0.15041E-02   -0.13936E-02 12358   0.157E-01    0.182E-01
RMM:   3    -0.112136746183E+04   -0.68556E-04   -0.71698E-04 10946   0.508E-02    0.107E-01
RMM:   4    -0.112136741425E+04    0.47581E-04   -0.14594E-04  7433   0.161E-02    0.616E-02
RMM:   5    -0.112136740156E+04    0.12688E-04   -0.75847E-05  7126   0.117E-02    0.344E-02
RMM:   6    -0.112136740309E+04   -0.15284E-05   -0.21773E-05  7014   0.813E-03    0.259E-02
RMM:   7    -0.112136740372E+04   -0.63633E-06   -0.10700E-05  6424   0.437E-03    0.910E-03
RMM:   8    -0.112136740362E+04    0.99200E-07   -0.57432E-06  5831   0.428E-03
   4 F= -.11213674E+04 E0= -.11213674E+04  d E =-.110500E-02  mag=    40.0000
