<?xml version="1.0" encoding="ISO-8859-1"?>
<modeling>
 <generator>
  <i name="program" type="string">vasp </i>
  <i name="version" type="string">5.4.1  </i>
  <i name="subversion" type="string">05Feb16 (build Jan 25 2017 20:16:33) complex                          parallel </i>
  <i name="platform" type="string">BWXE6 </i>
  <i name="date" type="string">2019 08 06 </i>
  <i name="time" type="string">12:15:13 </i>
 </generator>
 <incar>
  <i type="string" name="SYSTEM"> STF</i>
  <i type="string" name="PREC">normal</i>
  <i type="string" name="ALGO"> Fast</i>
  <i type="int" name="ISPIN">     2</i>
  <i type="int" name="NELM">    40</i>
  <i type="int" name="NELMIN">     8</i>
  <i type="int" name="IBRION">     2</i>
  <i name="EDIFF">      0.00010000</i>
  <i name="EDIFFG">     -0.03000000</i>
  <i type="int" name="NSW">    30</i>
  <i type="int" name="ISIF">     3</i>
  <i name="ENCUT">    520.00000000</i>
  <i type="int" name="NBANDS">   768</i>
  <v name="MAGMOM">      0.60000000      0.60000000      0.60000000      0.60000000      0.60000000      0.60000000      0.60000000      0.60000000      0.60000000      0.60000000      0.60000000      0.60000000      0.60000000      0.60000000      0.60000000      0.60000000      0.60000000      0.60000000      0.60000000      0.60000000
      0.60000000      0.60000000      0.60000000      0.60000000      0.60000000      0.60000000      0.60000000      0.60000000      0.60000000      0.60000000      0.60000000      0.60000000      0.60000000      0.60000000      0.60000000      0.60000000      0.60000000      0.60000000      0.60000000      0.60000000
      0.60000000      0.60000000      0.60000000      0.60000000      0.60000000      0.60000000      0.60000000      0.60000000      0.60000000      0.60000000      0.60000000      0.60000000      0.60000000      0.60000000      0.60000000      0.60000000      5.00000000      5.00000000      5.00000000      5.00000000
      5.00000000      5.00000000      5.00000000      5.00000000      0.60000000      0.60000000      0.60000000      0.60000000      0.60000000      0.60000000      0.60000000      0.60000000      0.60000000      0.60000000      0.60000000      0.60000000      0.60000000      0.60000000      0.60000000      0.60000000
      0.60000000      0.60000000      0.60000000      0.60000000      0.60000000      0.60000000      0.60000000      0.60000000      0.60000000      0.60000000      0.60000000      0.60000000      0.60000000      0.60000000      0.60000000      0.60000000      0.60000000      0.60000000      0.60000000      0.60000000
      0.60000000      0.60000000      0.60000000      0.60000000      0.60000000      0.60000000      0.60000000      0.60000000      0.60000000      0.60000000      0.60000000      0.60000000      0.60000000      0.60000000      0.60000000      0.60000000      0.60000000      0.60000000      0.60000000      0.60000000
      0.60000000      0.60000000      0.60000000      0.60000000      0.60000000      0.60000000      0.60000000      0.60000000      0.60000000      0.60000000      0.60000000      0.60000000      0.60000000      0.60000000      0.60000000      0.60000000      0.60000000      0.60000000      0.60000000      0.60000000
      0.60000000      0.60000000      0.60000000      0.60000000      0.60000000      0.60000000      0.60000000      0.60000000      0.60000000      0.60000000      0.60000000      0.60000000      0.60000000      0.60000000      0.60000000      0.60000000</v>
  <i type="string" name="LREAL"> Auto</i>
  <i type="int" name="ISMEAR">     0</i>
  <i name="SIGMA">      0.05000000</i>
  <i type="int" name="LMAXMIX">     4</i>
  <v type="int" name="KPOINT_BSE">    -1     0     0     0</v>
  <i type="int" name="NELM">    40</i>
  <i type="logical" name="LDAU"> T  </i>
  <v type="int" name="LDAUTYPE">     2</v>
  <v type="int" name="LDAUL">     0     2     2     0</v>
  <v name="LDAUU">      0.00000000      3.00000000      5.00000000      0.00000000</v>
  <v name="LDAUJ">      0.00000000      0.00000000      0.00000000      0.00000000</v>
  <i type="int" name="LDAUPRINT">     1</i>
 </incar>
 <kpoints>
  <generation param="Monkhorst-Pack">
   <v type="int" name="divisions">       2        2        2 </v>
   <v name="usershift">      0.00000000       0.00000000       0.00000000 </v>
   <v name="genvec1">      0.50000000      -0.00000000      -0.00000000 </v>
   <v name="genvec2">     -0.00000000       0.50000000       0.00000000 </v>
   <v name="genvec3">      0.00000000       0.00000000       0.50000000 </v>
   <v name="shift">      0.50000000       0.50000000       0.50000000 </v>
  </generation>
  <varray name="kpointlist" >
   <v>       0.25000000       0.25000000       0.25000000 </v>
   <v>      -0.25000000       0.25000000       0.25000000 </v>
   <v>       0.25000000      -0.25000000       0.25000000 </v>
   <v>      -0.25000000      -0.25000000       0.25000000 </v>
  </varray>
  <varray name="weights" >
   <v>       0.25000000 </v>
   <v>       0.25000000 </v>
   <v>       0.25000000 </v>
   <v>       0.25000000 </v>
  </varray>
 </kpoints>
 <parameters>
  <separator name="general" >
   <i type="string" name="SYSTEM">STF</i>
   <i type="logical" name="LCOMPAT"> F  </i>
  </separator>
  <separator name="electronic" >
   <i type="string" name="PREC">normal</i>
   <i name="ENMAX">    520.00000000</i>
   <i name="ENAUG">    605.39200000</i>
   <i name="EDIFF">      0.00010000</i>
   <i type="int" name="IALGO">    68</i>
   <i type="int" name="IWAVPR">    11</i>
   <i type="int" name="NBANDS">   768</i>
   <i name="NELECT">   1032.00000000</i>
   <i type="int" name="TURBO">     0</i>
   <i type="int" name="IRESTART">     0</i>
   <i type="int" name="NREBOOT">     0</i>
   <i type="int" name="NMIN">     0</i>
   <i name="EREF">      0.00000000</i>
   <separator name="electronic smearing" >
    <i type="int" name="ISMEAR">     0</i>
    <i name="SIGMA">      0.05000000</i>
    <i name="KSPACING">      0.50000000</i>
    <i type="logical" name="KGAMMA"> T  </i>
   </separator>
   <separator name="electronic projectors" >
    <i type="logical" name="LREAL"> T  </i>
    <v name="ROPT">     -0.00050000     -0.00050000     -0.00050000     -0.00050000</v>
    <i type="int" name="LMAXPAW">  -100</i>
    <i type="int" name="LMAXMIX">     4</i>
    <i type="logical" name="NLSPLINE"> F  </i>
   </separator>
   <separator name="electronic startup" >
    <i type="int" name="ISTART">     1</i>
    <i type="int" name="ICHARG">     0</i>
    <i type="int" name="INIWAV">     1</i>
   </separator>
   <separator name="electronic spin" >
    <i type="int" name="ISPIN">     2</i>
    <i type="logical" name="LNONCOLLINEAR"> F  </i>
    <v name="MAGMOM">      0.60000000      0.60000000      0.60000000      0.60000000      0.60000000      0.60000000      0.60000000      0.60000000      0.60000000      0.60000000      0.60000000      0.60000000      0.60000000      0.60000000      0.60000000      0.60000000      0.60000000      0.60000000      0.60000000      0.60000000
      0.60000000      0.60000000      0.60000000      0.60000000      0.60000000      0.60000000      0.60000000      0.60000000      0.60000000      0.60000000      0.60000000      0.60000000      0.60000000      0.60000000      0.60000000      0.60000000      0.60000000      0.60000000      0.60000000      0.60000000
      0.60000000      0.60000000      0.60000000      0.60000000      0.60000000      0.60000000      0.60000000      0.60000000      0.60000000      0.60000000      0.60000000      0.60000000      0.60000000      0.60000000      0.60000000      0.60000000      5.00000000      5.00000000      5.00000000      5.00000000
      5.00000000      5.00000000      5.00000000      5.00000000      0.60000000      0.60000000      0.60000000      0.60000000      0.60000000      0.60000000      0.60000000      0.60000000      0.60000000      0.60000000      0.60000000      0.60000000      0.60000000      0.60000000      0.60000000      0.60000000
      0.60000000      0.60000000      0.60000000      0.60000000      0.60000000      0.60000000      0.60000000      0.60000000      0.60000000      0.60000000      0.60000000      0.60000000      0.60000000      0.60000000      0.60000000      0.60000000      0.60000000      0.60000000      0.60000000      0.60000000
      0.60000000      0.60000000      0.60000000      0.60000000      0.60000000      0.60000000      0.60000000      0.60000000      0.60000000      0.60000000      0.60000000      0.60000000      0.60000000      0.60000000      0.60000000      0.60000000      0.60000000      0.60000000      0.60000000      0.60000000
      0.60000000      0.60000000      0.60000000      0.60000000      0.60000000      0.60000000      0.60000000      0.60000000      0.60000000      0.60000000      0.60000000      0.60000000      0.60000000      0.60000000      0.60000000      0.60000000      0.60000000      0.60000000      0.60000000      0.60000000
      0.60000000      0.60000000      0.60000000      0.60000000      0.60000000      0.60000000      0.60000000      0.60000000      0.60000000      0.60000000      0.60000000      0.60000000      0.60000000      0.60000000      0.60000000      0.60000000</v>
    <i name="NUPDOWN">     -1.00000000</i>
    <i type="logical" name="LSORBIT"> F  </i>
    <v name="SAXIS">      0.00000000      0.00000000      1.00000000</v>
    <i type="logical" name="LSPIRAL"> F  </i>
    <v name="QSPIRAL">      0.00000000      0.00000000      0.00000000</v>
    <i type="logical" name="LZEROZ"> F  </i>
   </separator>
   <separator name="electronic exchange-correlation" >
    <i type="logical" name="LASPH"> F  </i>
    <i type="logical" name="LMETAGGA"> F  </i>
   </separator>
   <separator name="electronic convergence" >
    <i type="int" name="NELM">    40</i>
    <i type="int" name="NELMDL">     0</i>
    <i type="int" name="NELMIN">     8</i>
    <i name="ENINI">    520.00000000</i>
    <separator name="electronic convergence detail" >
     <i type="logical" name="LDIAG"> T  </i>
     <i type="logical" name="LSUBROT"> F  </i>
     <i name="WEIMIN">      0.00100000</i>
     <i name="EBREAK">      0.00000003</i>
     <i name="DEPER">      0.30000000</i>
     <i type="int" name="NRMM">     4</i>
     <i name="TIME">      0.40000000</i>
    </separator>
   </separator>
   <separator name="electronic mixer" >
    <i name="AMIX">      0.40000000</i>
    <i name="BMIX">      1.00000000</i>
    <i name="AMIN">      0.10000000</i>
    <i name="AMIX_MAG">      1.60000000</i>
    <i name="BMIX_MAG">      1.00000000</i>
    <separator name="electronic mixer details" >
     <i type="int" name="IMIX">     4</i>
     <i type="logical" name="MIXFIRST"> F  </i>
     <i type="int" name="MAXMIX">   -45</i>
     <i name="WC">    100.00000000</i>
     <i type="int" name="INIMIX">     1</i>
     <i type="int" name="MIXPRE">     1</i>
     <i type="int" name="MREMOVE">     5</i>
    </separator>
   </separator>
   <separator name="electronic dipolcorrection" >
    <i type="logical" name="LDIPOL"> F  </i>
    <i type="logical" name="LMONO"> F  </i>
    <i type="int" name="IDIPOL">     0</i>
    <i name="EPSILON">      1.00000000</i>
    <v name="DIPOL">   -100.00000000   -100.00000000   -100.00000000</v>
    <i name="EFIELD">      0.00000000</i>
   </separator>
  </separator>
  <separator name="grids" >
   <i type="int" name="NGX">    64</i>
   <i type="int" name="NGY">    64</i>
   <i type="int" name="NGZ">    90</i>
   <i type="int" name="NGXF">   128</i>
   <i type="int" name="NGYF">   128</i>
   <i type="int" name="NGZF">   180</i>
   <i type="logical" name="ADDGRID"> F  </i>
  </separator>
  <separator name="ionic" >
   <i type="int" name="NSW">    30</i>
   <i type="int" name="IBRION">     2</i>
   <i type="int" name="ISIF">     3</i>
   <i name="PSTRESS">      0.00000000</i>
   <i name="EDIFFG">     -0.03000000</i>
   <i type="int" name="NFREE">     1</i>
   <i name="POTIM">      0.50000000</i>
   <i name="SMASS">     -3.00000000</i>
   <i name="SCALEE">      1.00000000</i>
  </separator>
  <separator name="ionic md" >
   <i name="TEBEG">      0.00010000</i>
   <i name="TEEND">      0.00010000</i>
   <i type="int" name="NBLOCK">     1</i>
   <i type="int" name="KBLOCK">    30</i>
   <i type="int" name="NPACO">   256</i>
   <i name="APACO">     16.00000000</i>
  </separator>
  <separator name="symmetry" >
   <i type="int" name="ISYM">     2</i>
   <i name="SYMPREC">      0.00001000</i>
  </separator>
  <separator name="dos" >
   <i type="logical" name="LORBIT"> F  </i>
   <v name="RWIGS">     -1.00000000     -1.00000000     -1.00000000     -1.00000000</v>
   <i type="int" name="NEDOS">   301</i>
   <i name="EMIN">     10.00000000</i>
   <i name="EMAX">    -10.00000000</i>
   <i name="EFERMI">      0.00000000</i>
  </separator>
  <separator name="writing" >
   <i type="int" name="NWRITE">     2</i>
   <i type="logical" name="LWAVE"> T  </i>
   <i type="logical" name="LCHARG"> T  </i>
   <i type="logical" name="LPARD"> F  </i>
   <i type="logical" name="LVTOT"> F  </i>
   <i type="logical" name="LVHAR"> F  </i>
   <i type="logical" name="LELF"> F  </i>
   <i type="logical" name="LOPTICS"> F  </i>
   <v name="STM">      0.00000000      0.00000000      0.00000000      0.00000000      0.00000000      0.00000000      0.00000000</v>
  </separator>
  <separator name="performance" >
   <i type="int" name="NPAR">     2</i>
   <i type="int" name="NSIM">     4</i>
   <i type="int" name="NBLK">    -1</i>
   <i type="logical" name="LPLANE"> T  </i>
   <i type="logical" name="LSCALAPACK"> T  </i>
   <i type="logical" name="LSCAAWARE"> F  </i>
   <i type="logical" name="LSCALU"> F  </i>
   <i type="logical" name="LASYNC"> F  </i>
   <i type="logical" name="LORBITALREAL"> F  </i>
  </separator>
  <separator name="miscellaneous" >
   <i type="int" name="IDIOT">     3</i>
   <i type="logical" name="LMUSIC"> F  </i>
   <v name="POMASS">     87.62000000     47.88000000     55.84700000     16.00000000</v>
   <v name="DARWINR">      0.00000000      0.00000000      0.00000000      0.00000000</v>
   <v name="DARWINV">      1.00000000      1.00000000      1.00000000      1.00000000</v>
   <i type="logical" name="LCORR"> T  </i>
  </separator>
  <i type="logical" name="GGA_COMPAT"> T  </i>
  <i type="logical" name="LBERRY"> F  </i>
  <i type="int" name="ICORELEVEL">     0</i>
  <i type="logical" name="LDAU"> T  </i>
  <v type="int" name="LDAUTYPE">     2</v>
  <v type="int" name="LDAUL">     0</v>
  <v name="LDAUU">      0.00000000</v>
  <v name="LDAUJ">      0.00000000</v>
  <i type="int" name="LDAUPRINT">     1</i>
  <i type="int" name="I_CONSTRAINED_M">     0</i>
  <separator name="electronic exchange-correlation" >
   <i type="string" name="GGA">--</i>
   <i type="int" name="VOSKOWN">     0</i>
   <i type="logical" name="LHFCALC"> F  </i>
   <i type="string" name="PRECFOCK"></i>
   <i type="logical" name="LSYMGRAD"> F  </i>
   <i type="logical" name="LHFONE"> F  </i>
   <i type="logical" name="LRHFCALC"> F  </i>
   <i type="logical" name="LTHOMAS"> F  </i>
   <i type="logical" name="LMODELHF"> F  </i>
   <i name="ENCUT4O">     -1.00000000</i>
   <i type="int" name="EXXOEP">     0</i>
   <i type="int" name="FOURORBIT">     0</i>
   <i name="AEXX">      0.00000000</i>
   <i name="HFALPHA">      0.00000000</i>
   <i name="MCALPHA">      0.00000000</i>
   <i name="ALDAX">      1.00000000</i>
   <i name="AGGAX">      1.00000000</i>
   <i name="ALDAC">      1.00000000</i>
   <i name="AGGAC">      1.00000000</i>
   <i type="int" name="NKREDX">     1</i>
   <i type="int" name="NKREDY">     1</i>
   <i type="int" name="NKREDZ">     1</i>
   <i type="logical" name="SHIFTRED"> F  </i>
   <i type="logical" name="ODDONLY"> F  </i>
   <i type="logical" name="EVENONLY"> F  </i>
   <i type="int" name="LMAXFOCK">     0</i>
   <i type="int" name="NMAXFOCKAE">     0</i>
   <i type="logical" name="LFOCKAEDFT"> F  </i>
   <i name="HFSCREEN">      0.00000000</i>
   <i name="HFSCREENC">      0.00000000</i>
   <i type="int" name="NBANDSGWLOW">     0</i>
  </separator>
  <separator name="vdW DFT" >
   <i type="logical" name="LUSE_VDW"> F  </i>
   <i name="Zab_VDW">     -0.84910000</i>
   <i name="PARAM1">      0.12340000</i>
   <i name="PARAM2">      1.00000000</i>
   <i name="PARAM3">      0.00000000</i>
  </separator>
  <separator name="model GW" >
   <i type="int" name="MODEL_GW">     0</i>
   <i name="MODEL_EPS0">      7.70761224</i>
   <i name="MODEL_ALPHA">      1.00000000</i>
  </separator>
  <separator name="linear response parameters" >
   <i type="logical" name="LEPSILON"> F  </i>
   <i type="logical" name="LRPA"> F  </i>
   <i type="logical" name="LNABLA"> F  </i>
   <i type="logical" name="LVEL"> F  </i>
   <i type="int" name="KINTER">     0</i>
   <i name="CSHIFT">      0.10000000</i>
   <i name="OMEGAMAX">     -1.00000000</i>
   <i name="DEG_THRESHOLD">      0.00200000</i>
  </separator>
  <separator name="orbital magnetization" >
   <i type="logical" name="NUCIND"> F  </i>
   <v name="MAGPOS">      0.00000000      0.00000000      0.00000000</v>
   <i type="logical" name="LNICSALL"> T  </i>
   <i type="logical" name="ORBITALMAG"> F  </i>
   <i type="logical" name="LMAGBLOCH"> F  </i>
   <i type="logical" name="LCHIMAG"> F  </i>
   <i type="logical" name="LGAUGE"> T  </i>
   <i type="int" name="MAGATOM">     0</i>
   <v name="MAGDIPOL">      0.00000000      0.00000000      0.00000000</v>
   <v name="AVECCONST">      0.00000000      0.00000000      0.00000000</v>
  </separator>
  <separator name="response functions" >
   <i type="logical" name="LADDER"> F  </i>
   <i type="logical" name="LFXC"> F  </i>
   <i type="logical" name="LHARTREE"> T  </i>
   <i type="int" name="IBSE">     0</i>
   <v type="int" name="KPOINT">    -1     0     0     0</v>
   <i type="logical" name="LTCTE"> F  </i>
   <i type="logical" name="LTETE"> F  </i>
   <i type="logical" name="LTRIPLET"> F  </i>
   <i type="logical" name="LFXCEPS"> F  </i>
   <i type="logical" name="LFXHEG"> F  </i>
   <i type="int" name="NATURALO">     0</i>
   <i type="logical" name="L2ORDER"> F  </i>
   <i type="logical" name="LUSEW"> F  </i>
   <i name="ENCUTGW">     -2.00000000</i>
   <i name="ENCUTGWSOFT">     -2.00000000</i>
   <i name="ENCUTLF">     -1.00000000</i>
   <i type="int" name="LMAXMP2">    -1</i>
   <i name="SCISSOR">      0.00000000</i>
   <i type="int" name="NOMEGA">     0</i>
   <i type="int" name="NOMEGAR">     0</i>
   <i type="int" name="NBANDSGW">    -1</i>
   <i type="int" name="NBANDSO">    -1</i>
   <i type="int" name="NBANDSV">    -1</i>
   <i type="int" name="NELM">    40</i>
   <i type="int" name="NELMHF">     1</i>
   <i type="int" name="DIM">     3</i>
   <i type="int" name="ANTIRES">     0</i>
   <i name="OMEGAMAX">    -30.00000000</i>
   <i name="OMEGAMIN">    -30.00000000</i>
   <i name="OMEGATL">   -200.00000000</i>
   <i type="int" name="OMEGAGRID">     0</i>
   <i name="CSHIFT">     -0.10000000</i>
   <i type="logical" name="SELFENERGY"> F  </i>
   <i type="logical" name="LSPECTRAL"> F  </i>
   <i type="logical" name="LSPECTRALGW"> F  </i>
   <i type="logical" name="LSINGLES"> F  </i>
   <i type="logical" name="LFERMIGW"> F  </i>
   <i type="logical" name="ODDONLYGW"> F  </i>
   <i type="logical" name="EVENONLYGW"> F  </i>
   <i type="int" name="NKREDLFX">     1</i>
   <i type="int" name="NKREDLFY">     1</i>
   <i type="int" name="NKREDLFZ">     1</i>
   <i type="int" name="MAXMEM">  1800</i>
   <i type="int" name="TELESCOPE">     0</i>
   <i type="int" name="TAUPAR">     1</i>
   <i type="int" name="OMEGAPAR">    -1</i>
   <i name="LAMBDA">      1.00000000</i>
  </separator>
  <separator name="External order field" >
   <i name="OFIELD_KAPPA">      0.00000000</i>
   <v name="OFIELD_K">      0.00000000      0.00000000      0.00000000</v>
   <i name="OFIELD_Q6_NEAR">      0.00000000</i>
   <i name="OFIELD_Q6_FAR">      0.00000000</i>
   <i name="OFIELD_A">      0.00000000</i>
  </separator>
 </parameters>
 <atominfo>
  <atoms>     156 </atoms>
  <types>       4 </types>
  <array name="atoms" >
   <dimension dim="1">ion</dimension>
   <field type="string">element</field>
   <field type="int">atomtype</field>
   <set>
    <rc><c>Sr</c><c>   1</c></rc>
    <rc><c>Sr</c><c>   1</c></rc>
    <rc><c>Sr</c><c>   1</c></rc>
    <rc><c>Sr</c><c>   1</c></rc>
    <rc><c>Sr</c><c>   1</c></rc>
    <rc><c>Sr</c><c>   1</c></rc>
    <rc><c>Sr</c><c>   1</c></rc>
    <rc><c>Sr</c><c>   1</c></rc>
    <rc><c>Sr</c><c>   1</c></rc>
    <rc><c>Sr</c><c>   1</c></rc>
    <rc><c>Sr</c><c>   1</c></rc>
    <rc><c>Sr</c><c>   1</c></rc>
    <rc><c>Sr</c><c>   1</c></rc>
    <rc><c>Sr</c><c>   1</c></rc>
    <rc><c>Sr</c><c>   1</c></rc>
    <rc><c>Sr</c><c>   1</c></rc>
    <rc><c>Sr</c><c>   1</c></rc>
    <rc><c>Sr</c><c>   1</c></rc>
    <rc><c>Sr</c><c>   1</c></rc>
    <rc><c>Sr</c><c>   1</c></rc>
    <rc><c>Sr</c><c>   1</c></rc>
    <rc><c>Sr</c><c>   1</c></rc>
    <rc><c>Sr</c><c>   1</c></rc>
    <rc><c>Sr</c><c>   1</c></rc>
    <rc><c>Sr</c><c>   1</c></rc>
    <rc><c>Sr</c><c>   1</c></rc>
    <rc><c>Sr</c><c>   1</c></rc>
    <rc><c>Sr</c><c>   1</c></rc>
    <rc><c>Sr</c><c>   1</c></rc>
    <rc><c>Sr</c><c>   1</c></rc>
    <rc><c>Sr</c><c>   1</c></rc>
    <rc><c>Sr</c><c>   1</c></rc>
    <rc><c>Ti</c><c>   2</c></rc>
    <rc><c>Ti</c><c>   2</c></rc>
    <rc><c>Ti</c><c>   2</c></rc>
    <rc><c>Ti</c><c>   2</c></rc>
    <rc><c>Ti</c><c>   2</c></rc>
    <rc><c>Ti</c><c>   2</c></rc>
    <rc><c>Ti</c><c>   2</c></rc>
    <rc><c>Ti</c><c>   2</c></rc>
    <rc><c>Ti</c><c>   2</c></rc>
    <rc><c>Ti</c><c>   2</c></rc>
    <rc><c>Ti</c><c>   2</c></rc>
    <rc><c>Ti</c><c>   2</c></rc>
    <rc><c>Ti</c><c>   2</c></rc>
    <rc><c>Ti</c><c>   2</c></rc>
    <rc><c>Ti</c><c>   2</c></rc>
    <rc><c>Ti</c><c>   2</c></rc>
    <rc><c>Ti</c><c>   2</c></rc>
    <rc><c>Ti</c><c>   2</c></rc>
    <rc><c>Ti</c><c>   2</c></rc>
    <rc><c>Ti</c><c>   2</c></rc>
    <rc><c>Ti</c><c>   2</c></rc>
    <rc><c>Ti</c><c>   2</c></rc>
    <rc><c>Ti</c><c>   2</c></rc>
    <rc><c>Ti</c><c>   2</c></rc>
    <rc><c>Fe</c><c>   3</c></rc>
    <rc><c>Fe</c><c>   3</c></rc>
    <rc><c>Fe</c><c>   3</c></rc>
    <rc><c>Fe</c><c>   3</c></rc>
    <rc><c>Fe</c><c>   3</c></rc>
    <rc><c>Fe</c><c>   3</c></rc>
    <rc><c>Fe</c><c>   3</c></rc>
    <rc><c>Fe</c><c>   3</c></rc>
    <rc><c>O </c><c>   4</c></rc>
    <rc><c>O </c><c>   4</c></rc>
    <rc><c>O </c><c>   4</c></rc>
    <rc><c>O </c><c>   4</c></rc>
    <rc><c>O </c><c>   4</c></rc>
    <rc><c>O </c><c>   4</c></rc>
    <rc><c>O </c><c>   4</c></rc>
    <rc><c>O </c><c>   4</c></rc>
    <rc><c>O </c><c>   4</c></rc>
    <rc><c>O </c><c>   4</c></rc>
    <rc><c>O </c><c>   4</c></rc>
    <rc><c>O </c><c>   4</c></rc>
    <rc><c>O </c><c>   4</c></rc>
    <rc><c>O </c><c>   4</c></rc>
    <rc><c>O </c><c>   4</c></rc>
    <rc><c>O </c><c>   4</c></rc>
    <rc><c>O </c><c>   4</c></rc>
    <rc><c>O </c><c>   4</c></rc>
    <rc><c>O </c><c>   4</c></rc>
    <rc><c>O </c><c>   4</c></rc>
    <rc><c>O </c><c>   4</c></rc>
    <rc><c>O </c><c>   4</c></rc>
    <rc><c>O </c><c>   4</c></rc>
    <rc><c>O </c><c>   4</c></rc>
    <rc><c>O </c><c>   4</c></rc>
    <rc><c>O </c><c>   4</c></rc>
    <rc><c>O </c><c>   4</c></rc>
    <rc><c>O </c><c>   4</c></rc>
    <rc><c>O </c><c>   4</c></rc>
    <rc><c>O </c><c>   4</c></rc>
    <rc><c>O </c><c>   4</c></rc>
    <rc><c>O </c><c>   4</c></rc>
    <rc><c>O </c><c>   4</c></rc>
    <rc><c>O </c><c>   4</c></rc>
    <rc><c>O </c><c>   4</c></rc>
    <rc><c>O </c><c>   4</c></rc>
    <rc><c>O </c><c>   4</c></rc>
    <rc><c>O </c><c>   4</c></rc>
    <rc><c>O </c><c>   4</c></rc>
    <rc><c>O </c><c>   4</c></rc>
    <rc><c>O </c><c>   4</c></rc>
    <rc><c>O </c><c>   4</c></rc>
    <rc><c>O </c><c>   4</c></rc>
    <rc><c>O </c><c>   4</c></rc>
    <rc><c>O </c><c>   4</c></rc>
    <rc><c>O </c><c>   4</c></rc>
    <rc><c>O </c><c>   4</c></rc>
    <rc><c>O </c><c>   4</c></rc>
    <rc><c>O </c><c>   4</c></rc>
    <rc><c>O </c><c>   4</c></rc>
    <rc><c>O </c><c>   4</c></rc>
    <rc><c>O </c><c>   4</c></rc>
    <rc><c>O </c><c>   4</c></rc>
    <rc><c>O </c><c>   4</c></rc>
    <rc><c>O </c><c>   4</c></rc>
    <rc><c>O </c><c>   4</c></rc>
    <rc><c>O </c><c>   4</c></rc>
    <rc><c>O </c><c>   4</c></rc>
    <rc><c>O </c><c>   4</c></rc>
    <rc><c>O </c><c>   4</c></rc>
    <rc><c>O </c><c>   4</c></rc>
    <rc><c>O </c><c>   4</c></rc>
    <rc><c>O </c><c>   4</c></rc>
    <rc><c>O </c><c>   4</c></rc>
    <rc><c>O </c><c>   4</c></rc>
    <rc><c>O </c><c>   4</c></rc>
    <rc><c>O </c><c>   4</c></rc>
    <rc><c>O </c><c>   4</c></rc>
    <rc><c>O </c><c>   4</c></rc>
    <rc><c>O </c><c>   4</c></rc>
    <rc><c>O </c><c>   4</c></rc>
    <rc><c>O </c><c>   4</c></rc>
    <rc><c>O </c><c>   4</c></rc>
    <rc><c>O </c><c>   4</c></rc>
    <rc><c>O </c><c>   4</c></rc>
    <rc><c>O </c><c>   4</c></rc>
    <rc><c>O </c><c>   4</c></rc>
    <rc><c>O </c><c>   4</c></rc>
    <rc><c>O </c><c>   4</c></rc>
    <rc><c>O </c><c>   4</c></rc>
    <rc><c>O </c><c>   4</c></rc>
    <rc><c>O </c><c>   4</c></rc>
    <rc><c>O </c><c>   4</c></rc>
    <rc><c>O </c><c>   4</c></rc>
    <rc><c>O </c><c>   4</c></rc>
    <rc><c>O </c><c>   4</c></rc>
    <rc><c>O </c><c>   4</c></rc>
    <rc><c>O </c><c>   4</c></rc>
    <rc><c>O </c><c>   4</c></rc>
    <rc><c>O </c><c>   4</c></rc>
    <rc><c>O </c><c>   4</c></rc>
    <rc><c>O </c><c>   4</c></rc>
   </set>
  </array>
  <array name="atomtypes" >
   <dimension dim="1">type</dimension>
   <field type="int">atomspertype</field>
   <field type="string">element</field>
   <field>mass</field>
   <field>valence</field>
   <field type="string">pseudopotential</field>
   <set>
    <rc><c>  32</c><c>Sr</c><c>     87.62000000</c><c>     10.00000000</c><c>  PAW_PBE Sr_sv 07Sep2000               </c></rc>
    <rc><c>  24</c><c>Ti</c><c>     47.88000000</c><c>      4.00000000</c><c>  PAW_PBE Ti 08Apr2002                  </c></rc>
    <rc><c>   8</c><c>Fe</c><c>     55.84700000</c><c>      8.00000000</c><c>  PAW_PBE Fe 06Sep2000                  </c></rc>
    <rc><c>  92</c><c>O </c><c>     16.00000000</c><c>      6.00000000</c><c>  PAW_PBE O 08Apr2002                   </c></rc>
   </set>
  </array>
 </atominfo>
 <structure name="initialpos" >
  <crystal>
   <varray name="basis" >
    <v>      11.22800838      -0.00468119      -0.00046037 </v>
    <v>      -0.00465470      11.23079609      -0.00077132 </v>
    <v>      -0.00066165      -0.00112601      15.89205332 </v>
   </varray>
   <i name="volume">   2003.97918200 </i>
   <varray name="rec_basis" >
    <v>       0.08906301       0.00003691       0.00000371 </v>
    <v>       0.00003712       0.08904090       0.00000631 </v>
    <v>       0.00000258       0.00000432       0.06292453 </v>
   </varray>
  </crystal>
  <varray name="positions" >
   <v>       0.99296833       0.25120577       0.12149175 </v>
   <v>       0.99663250       0.24971095       0.62379341 </v>
   <v>       0.00128965       0.74774845       0.12233447 </v>
   <v>       0.00469610       0.75072429       0.62247636 </v>
   <v>       0.50469610       0.25072429       0.12247636 </v>
   <v>       0.50128965       0.24774845       0.62233447 </v>
   <v>       0.49663250       0.74971095       0.12379341 </v>
   <v>       0.49296833       0.75120577       0.62149175 </v>
   <v>       0.99026634       0.25165329       0.38016846 </v>
   <v>       0.99836193       0.24946268       0.87543038 </v>
   <v>       0.99956089       0.74771355       0.37667368 </v>
   <v>       0.00716894       0.75054533       0.87860027 </v>
   <v>       0.50716894       0.25054533       0.37860027 </v>
   <v>       0.49956089       0.24771355       0.87667368 </v>
   <v>       0.49836193       0.74946268       0.37543038 </v>
   <v>       0.49026634       0.75165329       0.88016846 </v>
   <v>       0.24757609       0.98910324       0.11615522 </v>
   <v>       0.25023739       0.99855271       0.62514708 </v>
   <v>       0.24864954       0.51377152       0.12241045 </v>
   <v>       0.25328058       0.50122690       0.62336787 </v>
   <v>       0.75328058       0.00122690       0.12336787 </v>
   <v>       0.74864954       0.01377152       0.62241045 </v>
   <v>       0.75023739       0.49855271       0.12514708 </v>
   <v>       0.74757609       0.48910324       0.61615522 </v>
   <v>       0.24807801       0.99120330       0.38262413 </v>
   <v>       0.25008545       0.99678161       0.87577292 </v>
   <v>       0.24822441       0.51097023       0.37622284 </v>
   <v>       0.25352705       0.50335751       0.87758160 </v>
   <v>       0.75352705       0.00335751       0.37758160 </v>
   <v>       0.74822441       0.01097023       0.87622284 </v>
   <v>       0.75008545       0.49678161       0.37577292 </v>
   <v>       0.74807801       0.49120330       0.88262413 </v>
   <v>       0.00045135       0.99910100       0.99996927 </v>
   <v>       0.50091015       0.00153796       0.49852788 </v>
   <v>       0.99864712       0.49945011       0.50143350 </v>
   <v>       0.00177153       0.00176431       0.75001792 </v>
   <v>       0.25072111       0.24739603       0.74995891 </v>
   <v>       0.74970230       0.25725407       0.74868760 </v>
   <v>       0.00091015       0.50153796       0.99852788 </v>
   <v>       0.24892088       0.24751030       0.49871899 </v>
   <v>       0.74932559       0.24948195       0.00052045 </v>
   <v>       0.49852899       0.50122369       0.00006711 </v>
   <v>       0.74892088       0.74751030       0.99871899 </v>
   <v>       0.74904309       0.74751391       0.50107014 </v>
   <v>       0.24932559       0.74948195       0.50052045 </v>
   <v>       0.24962142       0.74902586       0.75131017 </v>
   <v>       0.74962142       0.24902586       0.25131017 </v>
   <v>       0.75072111       0.74739603       0.24995891 </v>
   <v>       0.99852899       0.00122369       0.50006711 </v>
   <v>       0.49864712       0.99945011       0.00143350 </v>
   <v>       0.99804460       0.50275747       0.24992223 </v>
   <v>       0.24970230       0.75725407       0.24868760 </v>
   <v>       0.50045135       0.49910100       0.49996927 </v>
   <v>       0.49804460       0.00275747       0.74992223 </v>
   <v>       0.50177153       0.50176431       0.25001792 </v>
   <v>       0.24904309       0.24751391       0.00107014 </v>
   <v>       0.75358759       0.77657233       0.74996437 </v>
   <v>       0.49038336       0.48523016       0.74996416 </v>
   <v>       0.25358759       0.27657233       0.24996437 </v>
   <v>       0.51644912       0.98937963       0.25014970 </v>
   <v>       0.74921873       0.24965385       0.49946205 </v>
   <v>       0.01644912       0.48937963       0.75014970 </v>
   <v>       0.24921873       0.74965385       0.99946205 </v>
   <v>       0.99038336       0.98523016       0.24996416 </v>
   <v>       0.00048274       0.00603982       0.12506040 </v>
   <v>       0.00163465       0.00098919       0.62595530 </v>
   <v>       0.99839750       0.50485419       0.12483144 </v>
   <v>       0.99507047       0.50348874       0.62641968 </v>
   <v>       0.49507047       0.00348874       0.12641968 </v>
   <v>       0.49839750       0.00485419       0.62483144 </v>
   <v>       0.50163465       0.50098919       0.12595530 </v>
   <v>       0.50048274       0.50603982       0.62506040 </v>
   <v>       0.00070269       0.00376971       0.37495894 </v>
   <v>       0.00110606       0.00258488       0.87417775 </v>
   <v>       0.00065891       0.50481406       0.37494491 </v>
   <v>       0.99339711       0.50345168       0.87353181 </v>
   <v>       0.49339711       0.00345168       0.37353181 </v>
   <v>       0.50065891       0.00481406       0.87494491 </v>
   <v>       0.50110606       0.50258488       0.37417775 </v>
   <v>       0.50070269       0.50376971       0.87495894 </v>
   <v>       0.24177867       0.21795441       0.36167412 </v>
   <v>       0.25106511       0.25207435       0.87728499 </v>
   <v>       0.24872329       0.75068444       0.37529384 </v>
   <v>       0.24987950       0.75011210       0.87383836 </v>
   <v>       0.74987950       0.25011210       0.37383836 </v>
   <v>       0.74872329       0.25068444       0.87529384 </v>
   <v>       0.75106511       0.75207435       0.37728499 </v>
   <v>       0.74177867       0.71795441       0.86167412 </v>
   <v>       0.24303010       0.21631891       0.13881374 </v>
   <v>       0.25070943       0.25156286       0.62280590 </v>
   <v>       0.24885652       0.75086145       0.12585923 </v>
   <v>       0.24988264       0.75004388       0.62493639 </v>
   <v>       0.74988264       0.25004388       0.12493639 </v>
   <v>       0.74885652       0.25086145       0.62585923 </v>
   <v>       0.75070943       0.75156286       0.12280590 </v>
   <v>       0.74303010       0.71631891       0.63881374 </v>
   <v>       0.60548820       0.14342939       0.24987214 </v>
   <v>       0.86858266       0.11457176       0.24995505 </v>
   <v>       0.14020087       0.39700107       0.24904437 </v>
   <v>       0.40052918       0.35425478       0.25054431 </v>
   <v>       0.64417764       0.39408934       0.24986118 </v>
   <v>       0.89281928       0.36037591       0.24980887 </v>
   <v>       0.10719495       0.64700881       0.25012025 </v>
   <v>       0.35992859       0.61207312       0.25015528 </v>
   <v>       0.60862108       0.64455259       0.24982271 </v>
   <v>       0.85547436       0.60680335       0.25057932 </v>
   <v>       0.14727083       0.90624223       0.24997400 </v>
   <v>       0.38922343       0.86650013       0.25021114 </v>
   <v>       0.65200004       0.89205112       0.25046871 </v>
   <v>       0.89429193       0.84881229       0.24927922 </v>
   <v>       0.13771758       0.11079630       0.50282166 </v>
   <v>       0.38683965       0.13846040       0.49914197 </v>
   <v>       0.63621350       0.11058103       0.49810326 </v>
   <v>       0.88738351       0.13493115       0.50149800 </v>
   <v>       0.11321040       0.36041401       0.49571348 </v>
   <v>       0.35956031       0.38583434       0.49237314 </v>
   <v>       0.61078738       0.36424488       0.50110160 </v>
   <v>       0.86573045       0.38680156       0.49728235 </v>
   <v>       0.13856552       0.61138993       0.50150574 </v>
   <v>       0.38664546       0.63758735       0.49875635 </v>
   <v>       0.63746967       0.61184555       0.49709600 </v>
   <v>       0.88775423       0.63854357       0.50059957 </v>
   <v>       0.11171835       0.86160904       0.49906276 </v>
   <v>       0.36303267       0.88612275       0.50217715 </v>
   <v>       0.61235283       0.86009173       0.50456217 </v>
   <v>       0.85990994       0.88479192       0.50812608 </v>
   <v>       0.10862108       0.14455259       0.74982271 </v>
   <v>       0.35547436       0.10680335       0.75057932 </v>
   <v>       0.60719495       0.14700881       0.75012025 </v>
   <v>       0.85992859       0.11207312       0.75015528 </v>
   <v>       0.15200004       0.39205112       0.75046871 </v>
   <v>       0.39429193       0.34881229       0.74927922 </v>
   <v>       0.64727083       0.40624223       0.74997400 </v>
   <v>       0.88922343       0.36650013       0.75021114 </v>
   <v>       0.10548820       0.64342939       0.74987214 </v>
   <v>       0.36858266       0.61457176       0.74995505 </v>
   <v>       0.14417764       0.89408934       0.74986118 </v>
   <v>       0.39281928       0.86037591       0.74980887 </v>
   <v>       0.64020087       0.89700107       0.74904437 </v>
   <v>       0.90052918       0.85425478       0.75054431 </v>
   <v>       0.13746967       0.11184555       0.99709600 </v>
   <v>       0.38775423       0.13854357       0.00059957 </v>
   <v>       0.63856552       0.11138993       0.00150574 </v>
   <v>       0.88664546       0.13758735       0.99875635 </v>
   <v>       0.11235283       0.36009173       0.00456217 </v>
   <v>       0.35990994       0.38479192       0.00812608 </v>
   <v>       0.61171835       0.36160904       0.99906276 </v>
   <v>       0.86303267       0.38612275       0.00217715 </v>
   <v>       0.13621350       0.61058103       0.99810326 </v>
   <v>       0.38738351       0.63493115       0.00149800 </v>
   <v>       0.63771758       0.61079630       0.00282166 </v>
   <v>       0.88683965       0.63846040       0.99914197 </v>
   <v>       0.11078738       0.86424488       0.00110160 </v>
   <v>       0.36573045       0.88680156       0.99728235 </v>
   <v>       0.61321040       0.86041401       0.99571348 </v>
   <v>       0.85956031       0.88583434       0.99237314 </v>
  </varray>
 </structure>
 <calculation>
  <scstep>
   <time name="dav">  298.82  298.83</time>
   <time name="total">  302.54  302.63</time>
   <energy>
    <i name="alphaZ">   5631.47383927 </i>
    <i name="ewald"> -61492.92424873 </i>
    <i name="hartreedc"> -16046.26891433 </i>
    <i name="XCdc">   2963.96331982 </i>
    <i name="pawpsdc"> 112927.69556810 </i>
    <i name="pawaedc">-111828.04565253 </i>
    <i name="eentropy">     -0.00000000 </i>
    <i name="bandstr">  -7060.70693734 </i>
    <i name="atom">  73783.44779670 </i>
    <i name="e_fr_energy">  -1121.36522904 </i>
    <i name="e_wo_entrp">  -1121.36522904 </i>
    <i name="e_0_energy">  -1121.36522904 </i>
   </energy>
  </scstep>
  <scstep>
   <time name="diag">   33.26   33.29</time>
   <time name="diis">   31.47   31.50</time>
   <time name="orth">   18.93   18.93</time>
   <time name="total">   87.40   87.51</time>
   <energy>
    <i name="e_fr_energy">  -1121.36522921 </i>
    <i name="e_wo_entrp">  -1121.36522921 </i>
    <i name="e_0_energy">  -1121.36522921 </i>
   </energy>
  </scstep>
  <scstep>
   <time name="diag">   33.29   33.31</time>
   <time name="diis">   30.71   30.72</time>
   <time name="orth">   18.96   18.96</time>
   <time name="total">   86.71   86.81</time>
   <energy>
    <i name="e_fr_energy">  -1121.36522937 </i>
    <i name="e_wo_entrp">  -1121.36522937 </i>
    <i name="e_0_energy">  -1121.36522937 </i>
   </energy>
  </scstep>
  <scstep>
   <time name="diag">   33.28   33.29</time>
   <time name="diis">   26.88   26.89</time>
   <time name="orth">   18.92   18.92</time>
   <time name="total">   82.82   82.93</time>
   <energy>
    <i name="e_fr_energy">  -1121.36522946 </i>
    <i name="e_wo_entrp">  -1121.36522946 </i>
    <i name="e_0_energy">  -1121.36522946 </i>
   </energy>
  </scstep>
  <scstep>
   <time name="diag">   33.38   33.40</time>
   <time name="diis">   26.45   26.47</time>
   <time name="orth">   18.93   18.94</time>
   <time name="total">   82.53   82.67</time>
   <energy>
    <i name="e_fr_energy">  -1121.36522929 </i>
    <i name="e_wo_entrp">  -1121.36522929 </i>
    <i name="e_0_energy">  -1121.36522929 </i>
   </energy>
  </scstep>
  <scstep>
   <time name="diag">   33.33   33.34</time>
   <time name="diis">   24.84   24.85</time>
   <time name="orth">   18.92   18.93</time>
   <time name="total">   80.83   80.95</time>
   <energy>
    <i name="e_fr_energy">  -1121.36522906 </i>
    <i name="e_wo_entrp">  -1121.36522906 </i>
    <i name="e_0_energy">  -1121.36522906 </i>
   </energy>
  </scstep>
  <scstep>
   <time name="diag">   33.28   33.29</time>
   <time name="diis">   23.51   23.53</time>
   <time name="orth">   18.97   18.97</time>
   <time name="total">   79.47   79.51</time>
   <energy>
    <i name="e_fr_energy">  -1121.36522898 </i>
    <i name="e_wo_entrp">  -1121.36522898 </i>
    <i name="e_0_energy">  -1121.36522898 </i>
   </energy>
  </scstep>
  <scstep>
   <time name="diag">   33.32   33.32</time>
   <time name="diis">   22.65   22.66</time>
   <time name="orth">   19.01   19.00</time>
   <time name="total">   75.55   75.59</time>
   <energy>
    <i name="alphaZ">   5631.47383927 </i>
    <i name="ewald"> -61492.92424873 </i>
    <i name="hartreedc"> -16046.20785175 </i>
    <i name="XCdc">   2963.95755538 </i>
    <i name="pawpsdc"> 112925.08653751 </i>
    <i name="pawaedc">-111825.45754321 </i>
    <i name="eentropy">     -0.00000000 </i>
    <i name="bandstr">  -7060.74131410 </i>
    <i name="atom">  73783.44779670 </i>
    <i name="e_fr_energy">  -1121.36522893 </i>
    <i name="e_wo_entrp">  -1121.36522893 </i>
    <i name="e_0_energy">  -1121.36522893 </i>
   </energy>
  </scstep>
  <structure>
   <crystal>
    <varray name="basis" >
     <v>      11.22800838      -0.00468119      -0.00046037 </v>
     <v>      -0.00465470      11.23079609      -0.00077132 </v>
     <v>      -0.00066165      -0.00112601      15.89205332 </v>
    </varray>
    <i name="volume">   2003.97918200 </i>
    <varray name="rec_basis" >
     <v>       0.08906301       0.00003691       0.00000371 </v>
     <v>       0.00003712       0.08904090       0.00000631 </v>
     <v>       0.00000258       0.00000432       0.06292453 </v>
    </varray>
   </crystal>
   <varray name="positions" >
    <v>       0.99296833       0.25120577       0.12149175 </v>
    <v>       0.99663250       0.24971095       0.62379341 </v>
    <v>       0.00128965       0.74774845       0.12233447 </v>
    <v>       0.00469610       0.75072429       0.62247636 </v>
    <v>       0.50469610       0.25072429       0.12247636 </v>
    <v>       0.50128965       0.24774845       0.62233447 </v>
    <v>       0.49663250       0.74971095       0.12379341 </v>
    <v>       0.49296833       0.75120577       0.62149175 </v>
    <v>       0.99026634       0.25165329       0.38016846 </v>
    <v>       0.99836193       0.24946268       0.87543038 </v>
    <v>       0.99956089       0.74771355       0.37667368 </v>
    <v>       0.00716894       0.75054533       0.87860027 </v>
    <v>       0.50716894       0.25054533       0.37860027 </v>
    <v>       0.49956089       0.24771355       0.87667368 </v>
    <v>       0.49836193       0.74946268       0.37543038 </v>
    <v>       0.49026634       0.75165329       0.88016846 </v>
    <v>       0.24757609       0.98910324       0.11615522 </v>
    <v>       0.25023739       0.99855271       0.62514708 </v>
    <v>       0.24864954       0.51377152       0.12241045 </v>
    <v>       0.25328058       0.50122690       0.62336787 </v>
    <v>       0.75328058       0.00122690       0.12336787 </v>
    <v>       0.74864954       0.01377152       0.62241045 </v>
    <v>       0.75023739       0.49855271       0.12514708 </v>
    <v>       0.74757609       0.48910324       0.61615522 </v>
    <v>       0.24807801       0.99120330       0.38262413 </v>
    <v>       0.25008545       0.99678161       0.87577292 </v>
    <v>       0.24822441       0.51097023       0.37622284 </v>
    <v>       0.25352705       0.50335751       0.87758160 </v>
    <v>       0.75352705       0.00335751       0.37758160 </v>
    <v>       0.74822441       0.01097023       0.87622284 </v>
    <v>       0.75008545       0.49678161       0.37577292 </v>
    <v>       0.74807801       0.49120330       0.88262413 </v>
    <v>       0.00045135       0.99910100       0.99996927 </v>
    <v>       0.50091015       0.00153796       0.49852788 </v>
    <v>       0.99864712       0.49945011       0.50143350 </v>
    <v>       0.00177153       0.00176431       0.75001792 </v>
    <v>       0.25072111       0.24739603       0.74995891 </v>
    <v>       0.74970230       0.25725407       0.74868760 </v>
    <v>       0.00091015       0.50153796       0.99852788 </v>
    <v>       0.24892088       0.24751030       0.49871899 </v>
    <v>       0.74932559       0.24948195       0.00052045 </v>
    <v>       0.49852899       0.50122369       0.00006711 </v>
    <v>       0.74892088       0.74751030       0.99871899 </v>
    <v>       0.74904309       0.74751391       0.50107014 </v>
    <v>       0.24932559       0.74948195       0.50052045 </v>
    <v>       0.24962142       0.74902586       0.75131017 </v>
    <v>       0.74962142       0.24902586       0.25131017 </v>
    <v>       0.75072111       0.74739603       0.24995891 </v>
    <v>       0.99852899       0.00122369       0.50006711 </v>
    <v>       0.49864712       0.99945011       0.00143350 </v>
    <v>       0.99804460       0.50275747       0.24992223 </v>
    <v>       0.24970230       0.75725407       0.24868760 </v>
    <v>       0.50045135       0.49910100       0.49996927 </v>
    <v>       0.49804460       0.00275747       0.74992223 </v>
    <v>       0.50177153       0.50176431       0.25001792 </v>
    <v>       0.24904309       0.24751391       0.00107014 </v>
    <v>       0.75358759       0.77657233       0.74996437 </v>
    <v>       0.49038336       0.48523016       0.74996416 </v>
    <v>       0.25358759       0.27657233       0.24996437 </v>
    <v>       0.51644912       0.98937963       0.25014970 </v>
    <v>       0.74921873       0.24965385       0.49946205 </v>
    <v>       0.01644912       0.48937963       0.75014970 </v>
    <v>       0.24921873       0.74965385       0.99946205 </v>
    <v>       0.99038336       0.98523016       0.24996416 </v>
    <v>       0.00048274       0.00603982       0.12506040 </v>
    <v>       0.00163465       0.00098919       0.62595530 </v>
    <v>       0.99839750       0.50485419       0.12483144 </v>
    <v>       0.99507047       0.50348874       0.62641968 </v>
    <v>       0.49507047       0.00348874       0.12641968 </v>
    <v>       0.49839750       0.00485419       0.62483144 </v>
    <v>       0.50163465       0.50098919       0.12595530 </v>
    <v>       0.50048274       0.50603982       0.62506040 </v>
    <v>       0.00070269       0.00376971       0.37495894 </v>
    <v>       0.00110606       0.00258488       0.87417775 </v>
    <v>       0.00065891       0.50481406       0.37494491 </v>
    <v>       0.99339711       0.50345168       0.87353181 </v>
    <v>       0.49339711       0.00345168       0.37353181 </v>
    <v>       0.50065891       0.00481406       0.87494491 </v>
    <v>       0.50110606       0.50258488       0.37417775 </v>
    <v>       0.50070269       0.50376971       0.87495894 </v>
    <v>       0.24177867       0.21795441       0.36167412 </v>
    <v>       0.25106511       0.25207435       0.87728499 </v>
    <v>       0.24872329       0.75068444       0.37529384 </v>
    <v>       0.24987950       0.75011210       0.87383836 </v>
    <v>       0.74987950       0.25011210       0.37383836 </v>
    <v>       0.74872329       0.25068444       0.87529384 </v>
    <v>       0.75106511       0.75207435       0.37728499 </v>
    <v>       0.74177867       0.71795441       0.86167412 </v>
    <v>       0.24303010       0.21631891       0.13881374 </v>
    <v>       0.25070943       0.25156286       0.62280590 </v>
    <v>       0.24885652       0.75086145       0.12585923 </v>
    <v>       0.24988264       0.75004388       0.62493639 </v>
    <v>       0.74988264       0.25004388       0.12493639 </v>
    <v>       0.74885652       0.25086145       0.62585923 </v>
    <v>       0.75070943       0.75156286       0.12280590 </v>
    <v>       0.74303010       0.71631891       0.63881374 </v>
    <v>       0.60548820       0.14342939       0.24987214 </v>
    <v>       0.86858266       0.11457176       0.24995505 </v>
    <v>       0.14020087       0.39700107       0.24904437 </v>
    <v>       0.40052918       0.35425478       0.25054431 </v>
    <v>       0.64417764       0.39408934       0.24986118 </v>
    <v>       0.89281928       0.36037591       0.24980887 </v>
    <v>       0.10719495       0.64700881       0.25012025 </v>
    <v>       0.35992859       0.61207312       0.25015528 </v>
    <v>       0.60862108       0.64455259       0.24982271 </v>
    <v>       0.85547436       0.60680335       0.25057932 </v>
    <v>       0.14727083       0.90624223       0.24997400 </v>
    <v>       0.38922343       0.86650013       0.25021114 </v>
    <v>       0.65200004       0.89205112       0.25046871 </v>
    <v>       0.89429193       0.84881229       0.24927922 </v>
    <v>       0.13771758       0.11079630       0.50282166 </v>
    <v>       0.38683965       0.13846040       0.49914197 </v>
    <v>       0.63621350       0.11058103       0.49810326 </v>
    <v>       0.88738351       0.13493115       0.50149800 </v>
    <v>       0.11321040       0.36041401       0.49571348 </v>
    <v>       0.35956031       0.38583434       0.49237314 </v>
    <v>       0.61078738       0.36424488       0.50110160 </v>
    <v>       0.86573045       0.38680156       0.49728235 </v>
    <v>       0.13856552       0.61138993       0.50150574 </v>
    <v>       0.38664546       0.63758735       0.49875635 </v>
    <v>       0.63746967       0.61184555       0.49709600 </v>
    <v>       0.88775423       0.63854357       0.50059957 </v>
    <v>       0.11171835       0.86160904       0.49906276 </v>
    <v>       0.36303267       0.88612275       0.50217715 </v>
    <v>       0.61235283       0.86009173       0.50456217 </v>
    <v>       0.85990994       0.88479192       0.50812608 </v>
    <v>       0.10862108       0.14455259       0.74982271 </v>
    <v>       0.35547436       0.10680335       0.75057932 </v>
    <v>       0.60719495       0.14700881       0.75012025 </v>
    <v>       0.85992859       0.11207312       0.75015528 </v>
    <v>       0.15200004       0.39205112       0.75046871 </v>
    <v>       0.39429193       0.34881229       0.74927922 </v>
    <v>       0.64727083       0.40624223       0.74997400 </v>
    <v>       0.88922343       0.36650013       0.75021114 </v>
    <v>       0.10548820       0.64342939       0.74987214 </v>
    <v>       0.36858266       0.61457176       0.74995505 </v>
    <v>       0.14417764       0.89408934       0.74986118 </v>
    <v>       0.39281928       0.86037591       0.74980887 </v>
    <v>       0.64020087       0.89700107       0.74904437 </v>
    <v>       0.90052918       0.85425478       0.75054431 </v>
    <v>       0.13746967       0.11184555       0.99709600 </v>
    <v>       0.38775423       0.13854357       0.00059957 </v>
    <v>       0.63856552       0.11138993       0.00150574 </v>
    <v>       0.88664546       0.13758735       0.99875635 </v>
    <v>       0.11235283       0.36009173       0.00456217 </v>
    <v>       0.35990994       0.38479192       0.00812608 </v>
    <v>       0.61171835       0.36160904       0.99906276 </v>
    <v>       0.86303267       0.38612275       0.00217715 </v>
    <v>       0.13621350       0.61058103       0.99810326 </v>
    <v>       0.38738351       0.63493115       0.00149800 </v>
    <v>       0.63771758       0.61079630       0.00282166 </v>
    <v>       0.88683965       0.63846040       0.99914197 </v>
    <v>       0.11078738       0.86424488       0.00110160 </v>
    <v>       0.36573045       0.88680156       0.99728235 </v>
    <v>       0.61321040       0.86041401       0.99571348 </v>
    <v>       0.85956031       0.88583434       0.99237314 </v>
   </varray>
  </structure>
  <varray name="forces" >
   <v>       0.00114642       0.00316633       0.00210269 </v>
   <v>       0.00536241       0.00227164       0.00284509 </v>
   <v>       0.00258271       0.00528820      -0.00675779 </v>
   <v>       0.00247025      -0.00067755       0.01501357 </v>
   <v>       0.00247025      -0.00067755       0.01501357 </v>
   <v>       0.00258271       0.00528820      -0.00675779 </v>
   <v>       0.00536241       0.00227164       0.00284509 </v>
   <v>       0.00114642       0.00316633       0.00210269 </v>
   <v>      -0.00287417      -0.00000607      -0.00326556 </v>
   <v>       0.00557698       0.00225139      -0.00228633 </v>
   <v>      -0.00086774       0.00566943       0.00377909 </v>
   <v>       0.01042840      -0.00354207      -0.01362600 </v>
   <v>       0.01042840      -0.00354207      -0.01362600 </v>
   <v>      -0.00086774       0.00566943       0.00377909 </v>
   <v>       0.00557698       0.00225139      -0.00228633 </v>
   <v>      -0.00287417      -0.00000607      -0.00326556 </v>
   <v>      -0.00485946       0.01017094      -0.00231512 </v>
   <v>      -0.00463587       0.00976499      -0.00404373 </v>
   <v>      -0.00263689       0.00430507       0.00633783 </v>
   <v>      -0.00825467      -0.00941954       0.01631232 </v>
   <v>      -0.00825467      -0.00941954       0.01631232 </v>
   <v>      -0.00263689       0.00430507       0.00633783 </v>
   <v>      -0.00463587       0.00976499      -0.00404373 </v>
   <v>      -0.00485946       0.01017094      -0.00231512 </v>
   <v>      -0.00418899       0.01381277      -0.00123782 </v>
   <v>      -0.00476590       0.00495888       0.00224441 </v>
   <v>      -0.00013399      -0.00022255      -0.00912589 </v>
   <v>      -0.00760133      -0.00174954      -0.01205548 </v>
   <v>      -0.00760133      -0.00174954      -0.01205548 </v>
   <v>      -0.00013399      -0.00022255      -0.00912589 </v>
   <v>      -0.00476590       0.00495888       0.00224441 </v>
   <v>      -0.00418899       0.01381277      -0.00123782 </v>
   <v>       0.00906295      -0.00051646       0.02869891 </v>
   <v>       0.00994193       0.00437053      -0.02344334 </v>
   <v>      -0.01937874      -0.02051390       0.01833042 </v>
   <v>      -0.01335022      -0.03015549      -0.00159543 </v>
   <v>      -0.01740359       0.04848640      -0.00184023 </v>
   <v>       0.00181267       0.01403639       0.00196095 </v>
   <v>       0.00994193       0.00437053      -0.02344334 </v>
   <v>      -0.00888078      -0.00668622      -0.00430244 </v>
   <v>       0.01463467       0.01046130      -0.00724613 </v>
   <v>      -0.00789156       0.00511202      -0.00575019 </v>
   <v>      -0.00888078      -0.00668622      -0.00430244 </v>
   <v>      -0.00082262      -0.01251083       0.00895730 </v>
   <v>       0.01463467       0.01046130      -0.00724613 </v>
   <v>      -0.00520780      -0.04350912       0.01850759 </v>
   <v>      -0.00520780      -0.04350912       0.01850759 </v>
   <v>      -0.01740359       0.04848640      -0.00184023 </v>
   <v>      -0.00789156       0.00511202      -0.00575019 </v>
   <v>      -0.01937874      -0.02051390       0.01833042 </v>
   <v>       0.01864577      -0.00139557       0.00175358 </v>
   <v>       0.00181267       0.01403639       0.00196095 </v>
   <v>       0.00906295      -0.00051646       0.02869891 </v>
   <v>       0.01864577      -0.00139557       0.00175358 </v>
   <v>      -0.01335022      -0.03015549      -0.00159543 </v>
   <v>      -0.00082262      -0.01251083       0.00895730 </v>
   <v>       0.00867106       0.00762538       0.00286962 </v>
   <v>      -0.02166722      -0.02395037      -0.00988896 </v>
   <v>       0.00867106       0.00762538       0.00286962 </v>
   <v>       0.03016277      -0.00120825      -0.00795485 </v>
   <v>       0.00641747       0.00779977      -0.01175494 </v>
   <v>       0.03016277      -0.00120825      -0.00795485 </v>
   <v>       0.00641747       0.00779977      -0.01175494 </v>
   <v>      -0.02166722      -0.02395037      -0.00988896 </v>
   <v>      -0.00126804      -0.00948490      -0.00433691 </v>
   <v>       0.00887838       0.00494061       0.00684772 </v>
   <v>      -0.00536502       0.00664596       0.01346695 </v>
   <v>      -0.01093214       0.01176716      -0.00620625 </v>
   <v>      -0.01093214       0.01176716      -0.00620625 </v>
   <v>      -0.00536502       0.00664596       0.01346695 </v>
   <v>       0.00887838       0.00494061       0.00684772 </v>
   <v>      -0.00126804      -0.00948490      -0.00433691 </v>
   <v>       0.00055333      -0.01174034       0.01975067 </v>
   <v>       0.00370168       0.00028093      -0.00872074 </v>
   <v>      -0.00616240       0.00057566      -0.00937513 </v>
   <v>      -0.00443626       0.00013264       0.00660266 </v>
   <v>      -0.00443626       0.00013264       0.00660266 </v>
   <v>      -0.00616240       0.00057566      -0.00937513 </v>
   <v>       0.00370168       0.00028093      -0.00872074 </v>
   <v>       0.00055333      -0.01174034       0.01975067 </v>
   <v>      -0.00815263       0.01138087      -0.01536831 </v>
   <v>       0.00834075      -0.00967050       0.00226309 </v>
   <v>       0.00224472      -0.00811184      -0.00164189 </v>
   <v>      -0.00305024      -0.01572843      -0.00278179 </v>
   <v>      -0.00305024      -0.01572843      -0.00278179 </v>
   <v>       0.00224472      -0.00811184      -0.00164189 </v>
   <v>       0.00834075      -0.00967050       0.00226309 </v>
   <v>      -0.00815263       0.01138087      -0.01536831 </v>
   <v>       0.00298738       0.01544296       0.00778007 </v>
   <v>       0.00590453      -0.01261815       0.00089767 </v>
   <v>      -0.00421505       0.00001162       0.00878302 </v>
   <v>      -0.00595477      -0.01953533      -0.00817839 </v>
   <v>      -0.00595477      -0.01953533      -0.00817839 </v>
   <v>      -0.00421505       0.00001162       0.00878302 </v>
   <v>       0.00590453      -0.01261815       0.00089767 </v>
   <v>       0.00298738       0.01544296       0.00778007 </v>
   <v>       0.00478568      -0.01087811      -0.00781265 </v>
   <v>       0.02483398      -0.00000852      -0.00282320 </v>
   <v>      -0.00685226       0.01448167      -0.00469882 </v>
   <v>      -0.00009777      -0.01035388       0.00723629 </v>
   <v>      -0.00628505       0.00792416       0.00181313 </v>
   <v>       0.01826160       0.01256901      -0.00105121 </v>
   <v>      -0.01735559       0.00172187      -0.00575462 </v>
   <v>       0.00947215      -0.00245720      -0.00210137 </v>
   <v>      -0.01487401       0.00374182      -0.00205488 </v>
   <v>      -0.01950818      -0.01228572       0.00274062 </v>
   <v>       0.02161664       0.01010832       0.00061916 </v>
   <v>      -0.00116659       0.00444993       0.00041227 </v>
   <v>       0.00246910       0.00082256       0.00210383 </v>
   <v>       0.01232794      -0.01150165       0.00060933 </v>
   <v>       0.01566762       0.00457770      -0.02001156 </v>
   <v>      -0.01822913       0.00529485      -0.01765589 </v>
   <v>      -0.01610045      -0.00451973       0.01503614 </v>
   <v>      -0.01046952      -0.00630831      -0.00426935 </v>
   <v>       0.00760459       0.00775869       0.00379580 </v>
   <v>       0.00817348       0.00086309       0.00446273 </v>
   <v>      -0.00229921       0.00588825      -0.01364741 </v>
   <v>       0.00833452       0.01067795       0.01693135 </v>
   <v>      -0.00239828      -0.00497741      -0.00539605 </v>
   <v>      -0.01227262      -0.00511023      -0.00366073 </v>
   <v>       0.01120098       0.00701479       0.01000543 </v>
   <v>      -0.01483819       0.00588696       0.00944171 </v>
   <v>       0.00559016       0.00266137       0.01768899 </v>
   <v>       0.00583867      -0.00998437      -0.00595471 </v>
   <v>       0.00482938       0.00586547      -0.00155250 </v>
   <v>       0.00717118      -0.00170015      -0.00545746 </v>
   <v>      -0.01487401       0.00374182      -0.00205488 </v>
   <v>      -0.01950818      -0.01228572       0.00274062 </v>
   <v>      -0.01735559       0.00172187      -0.00575462 </v>
   <v>       0.00947215      -0.00245720      -0.00210137 </v>
   <v>       0.00246910       0.00082256       0.00210383 </v>
   <v>       0.01232794      -0.01150165       0.00060933 </v>
   <v>       0.02161664       0.01010832       0.00061916 </v>
   <v>      -0.00116659       0.00444993       0.00041227 </v>
   <v>       0.00478568      -0.01087811      -0.00781265 </v>
   <v>       0.02483398      -0.00000852      -0.00282320 </v>
   <v>      -0.00628505       0.00792416       0.00181313 </v>
   <v>       0.01826160       0.01256901      -0.00105121 </v>
   <v>      -0.00685226       0.01448167      -0.00469882 </v>
   <v>      -0.00009777      -0.01035388       0.00723629 </v>
   <v>       0.01120098       0.00701479       0.01000543 </v>
   <v>      -0.01483819       0.00588696       0.00944171 </v>
   <v>      -0.00239828      -0.00497741      -0.00539605 </v>
   <v>      -0.01227262      -0.00511023      -0.00366073 </v>
   <v>       0.00482938       0.00586547      -0.00155250 </v>
   <v>       0.00717118      -0.00170015      -0.00545746 </v>
   <v>       0.00559016       0.00266137       0.01768899 </v>
   <v>       0.00583867      -0.00998437      -0.00595471 </v>
   <v>      -0.01610045      -0.00451973       0.01503614 </v>
   <v>      -0.01046952      -0.00630831      -0.00426935 </v>
   <v>       0.01566762       0.00457770      -0.02001156 </v>
   <v>      -0.01822913       0.00529485      -0.01765589 </v>
   <v>      -0.00229921       0.00588825      -0.01364741 </v>
   <v>       0.00833452       0.01067795       0.01693135 </v>
   <v>       0.00760459       0.00775869       0.00379580 </v>
   <v>       0.00817348       0.00086309       0.00446273 </v>
  </varray>
  <varray name="stress" >
   <v>      -0.21232044      -0.11751814       0.02073353 </v>
   <v>      -0.11751797       0.26950252       0.01036794 </v>
   <v>       0.02073333       0.01036782      -0.10794607 </v>
  </varray>
  <energy>
   <i name="e_fr_energy">  -1121.36522893 </i>
   <i name="e_wo_entrp">  -1121.36522893 </i>
   <i name="e_0_energy">     -0.00000000 </i>
  </energy>
  <time name="totalsc"> 1030.80 1033.33</time>
 </calculation>
 <calculation>
  <scstep>
   <time name="dav">  285.19  285.20</time>
   <time name="total">  288.90  288.95</time>
   <energy>
    <i name="alphaZ">   5631.58448451 </i>
    <i name="ewald"> -61493.25115194 </i>
    <i name="hartreedc"> -16046.29138962 </i>
    <i name="XCdc">   2963.98627740 </i>
    <i name="pawpsdc"> 112925.04020412 </i>
    <i name="pawaedc">-111825.41270531 </i>
    <i name="eentropy">     -0.00000000 </i>
    <i name="bandstr">  -7060.46866576 </i>
    <i name="atom">  73783.44779670 </i>
    <i name="e_fr_energy">  -1121.36514991 </i>
    <i name="e_wo_entrp">  -1121.36514991 </i>
    <i name="e_0_energy">  -1121.36514991 </i>
   </energy>
  </scstep>
  <scstep>
   <time name="diag">   33.28   33.28</time>
   <time name="diis">   51.79   51.80</time>
   <time name="orth">   18.85   18.85</time>
   <time name="total">  107.63  107.69</time>
   <energy>
    <i name="e_fr_energy">  -1121.36633852 </i>
    <i name="e_wo_entrp">  -1121.36633852 </i>
    <i name="e_0_energy">  -1121.36633852 </i>
   </energy>
  </scstep>
  <scstep>
   <time name="diag">   33.24   33.24</time>
   <time name="diis">   47.09   47.11</time>
   <time name="orth">   18.85   18.85</time>
   <time name="total">  102.89  103.01</time>
   <energy>
    <i name="e_fr_energy">  -1121.36639815 </i>
    <i name="e_wo_entrp">  -1121.36639815 </i>
    <i name="e_0_energy">  -1121.36639815 </i>
   </energy>
  </scstep>
  <scstep>
   <time name="diag">   33.24   33.24</time>
   <time name="diis">   37.39   37.40</time>
   <time name="orth">   18.85   18.85</time>
   <time name="total">   93.21   93.28</time>
   <energy>
    <i name="e_fr_energy">  -1121.36628515 </i>
    <i name="e_wo_entrp">  -1121.36628515 </i>
    <i name="e_0_energy">  -1121.36628515 </i>
   </energy>
  </scstep>
  <scstep>
   <time name="diag">   33.25   33.25</time>
   <time name="diis">   32.39   32.40</time>
   <time name="orth">   18.83   18.82</time>
   <time name="total">   88.18   88.27</time>
   <energy>
    <i name="e_fr_energy">  -1121.36626125 </i>
    <i name="e_wo_entrp">  -1121.36626125 </i>
    <i name="e_0_energy">  -1121.36626125 </i>
   </energy>
  </scstep>
  <scstep>
   <time name="diag">   33.25   33.26</time>
   <time name="diis">   31.79   31.80</time>
   <time name="orth">   18.83   18.84</time>
   <time name="total">   87.59   87.74</time>
   <energy>
    <i name="e_fr_energy">  -1121.36626235 </i>
    <i name="e_wo_entrp">  -1121.36626235 </i>
    <i name="e_0_energy">  -1121.36626235 </i>
   </energy>
  </scstep>
  <scstep>
   <time name="diag">   33.24   33.30</time>
   <time name="diis">   30.88   30.90</time>
   <time name="orth">   18.83   18.83</time>
   <time name="total">   86.69   86.82</time>
   <energy>
    <i name="e_fr_energy">  -1121.36626308 </i>
    <i name="e_wo_entrp">  -1121.36626308 </i>
    <i name="e_0_energy">  -1121.36626308 </i>
   </energy>
  </scstep>
  <scstep>
   <time name="diag">   33.28   33.29</time>
   <time name="diis">   29.81   29.81</time>
   <time name="orth">   18.85   18.85</time>
   <time name="total">   82.52   82.61</time>
   <energy>
    <i name="alphaZ">   5631.58448451 </i>
    <i name="ewald"> -61493.25115194 </i>
    <i name="hartreedc"> -16045.93924183 </i>
    <i name="XCdc">   2963.97114282 </i>
    <i name="pawpsdc"> 112931.44426086 </i>
    <i name="pawaedc">-111831.83198210 </i>
    <i name="eentropy">     -0.00000000 </i>
    <i name="bandstr">  -7060.79157279 </i>
    <i name="atom">  73783.44779670 </i>
    <i name="e_fr_energy">  -1121.36626377 </i>
    <i name="e_wo_entrp">  -1121.36626377 </i>
    <i name="e_0_energy">  -1121.36626377 </i>
   </energy>
  </scstep>
  <structure>
   <crystal>
    <varray name="basis" >
     <v>      11.22708647      -0.00519206      -0.00037032 </v>
     <v>      -0.00516483      11.23196704      -0.00072628 </v>
     <v>      -0.00053409      -0.00106237      15.89138975 </v>
    </varray>
    <i name="volume">   2003.93980928 </i>
    <varray name="rec_basis" >
     <v>       0.08907032       0.00004096       0.00000300 </v>
     <v>       0.00004117       0.08903162       0.00000595 </v>
     <v>       0.00000208       0.00000407       0.06292716 </v>
    </varray>
   </crystal>
   <varray name="positions" >
    <v>       0.99297326       0.25121937       0.12149814 </v>
    <v>       0.99665555       0.24972072       0.62380204 </v>
    <v>       0.00130076       0.74777117       0.12231396 </v>
    <v>       0.00470671       0.75072139       0.62252193 </v>
    <v>       0.50470671       0.25072139       0.12252193 </v>
    <v>       0.50130076       0.24777117       0.62231396 </v>
    <v>       0.49665555       0.74972072       0.12380204 </v>
    <v>       0.49297326       0.75121937       0.62149814 </v>
    <v>       0.99025399       0.25165325       0.38015855 </v>
    <v>       0.99838589       0.24947236       0.87542344 </v>
    <v>       0.99955717       0.74773791       0.37668516 </v>
    <v>       0.00721374       0.75053013       0.87855891 </v>
    <v>       0.50721374       0.25053013       0.37855891 </v>
    <v>       0.49955717       0.24773791       0.87668516 </v>
    <v>       0.49838589       0.74947236       0.37542344 </v>
    <v>       0.49025399       0.75165325       0.88015855 </v>
    <v>       0.24755523       0.98914692       0.11614819 </v>
    <v>       0.25021749       0.99859465       0.62513480 </v>
    <v>       0.24863822       0.51379001       0.12242969 </v>
    <v>       0.25324510       0.50118643       0.62341739 </v>
    <v>       0.75324510       0.00118643       0.12341739 </v>
    <v>       0.74863822       0.01379001       0.62242969 </v>
    <v>       0.75021749       0.49859465       0.12513480 </v>
    <v>       0.74755523       0.48914692       0.61614819 </v>
    <v>       0.24806004       0.99126262       0.38262037 </v>
    <v>       0.25006498       0.99680291       0.87577974 </v>
    <v>       0.24822383       0.51096927       0.37619513 </v>
    <v>       0.25349439       0.50334998       0.87754500 </v>
    <v>       0.75349439       0.00334998       0.37754500 </v>
    <v>       0.74822383       0.01096927       0.87619513 </v>
    <v>       0.75006498       0.49680291       0.37577974 </v>
    <v>       0.74806004       0.49126262       0.88262037 </v>
    <v>       0.00049030       0.99909880       0.00005639 </v>
    <v>       0.50095287       0.00155674       0.49845671 </v>
    <v>       0.99856382       0.49936196       0.50148914 </v>
    <v>       0.00171412       0.00163475       0.75001307 </v>
    <v>       0.25064642       0.24760428       0.74995333 </v>
    <v>       0.74971012       0.25731437       0.74869356 </v>
    <v>       0.00095287       0.50155674       0.99845671 </v>
    <v>       0.24888271       0.24748156       0.49870593 </v>
    <v>       0.74938849       0.24952691       0.00049845 </v>
    <v>       0.49849510       0.50124563       0.00004965 </v>
    <v>       0.74888271       0.74748156       0.99870593 </v>
    <v>       0.74903953       0.74746017       0.50109733 </v>
    <v>       0.24938849       0.74952691       0.50049845 </v>
    <v>       0.24959897       0.74883896       0.75136635 </v>
    <v>       0.74959897       0.24883896       0.25136635 </v>
    <v>       0.75064642       0.74760428       0.24995333 </v>
    <v>       0.99849510       0.00124563       0.50004965 </v>
    <v>       0.49856382       0.99936196       0.00148914 </v>
    <v>       0.99812471       0.50275151       0.24992755 </v>
    <v>       0.24971012       0.75731437       0.24869356 </v>
    <v>       0.50049030       0.49909880       0.50005639 </v>
    <v>       0.49812471       0.00275151       0.74992755 </v>
    <v>       0.50171412       0.50163475       0.25001307 </v>
    <v>       0.24903953       0.24746017       0.00109733 </v>
    <v>       0.75362486       0.77660510       0.74997308 </v>
    <v>       0.49029022       0.48512724       0.74993413 </v>
    <v>       0.25362486       0.27660510       0.24997308 </v>
    <v>       0.51657872       0.98937450       0.25012556 </v>
    <v>       0.74924632       0.24968736       0.49942637 </v>
    <v>       0.01657872       0.48937450       0.75012556 </v>
    <v>       0.24924632       0.74968736       0.99942637 </v>
    <v>       0.99029022       0.98512724       0.24993413 </v>
    <v>       0.00047728       0.00599907       0.12504723 </v>
    <v>       0.00167281       0.00101043       0.62597608 </v>
    <v>       0.99837446       0.50488273       0.12487232 </v>
    <v>       0.99502352       0.50353926       0.62640084 </v>
    <v>       0.49502352       0.00353926       0.12640084 </v>
    <v>       0.49837446       0.00488273       0.62487232 </v>
    <v>       0.50167281       0.50101043       0.12597608 </v>
    <v>       0.50047728       0.50599907       0.62504723 </v>
    <v>       0.00070505       0.00371929       0.37501889 </v>
    <v>       0.00112196       0.00258609       0.87415128 </v>
    <v>       0.00063243       0.50481652       0.37491645 </v>
    <v>       0.99337805       0.50345224       0.87355185 </v>
    <v>       0.49337805       0.00345224       0.37355185 </v>
    <v>       0.50063243       0.00481652       0.87491645 </v>
    <v>       0.50112196       0.50258609       0.37415128 </v>
    <v>       0.50070505       0.50371929       0.87501889 </v>
    <v>       0.24174366       0.21800328       0.36162747 </v>
    <v>       0.25110093       0.25203282       0.87729186 </v>
    <v>       0.24873292       0.75064959       0.37528886 </v>
    <v>       0.24986637       0.75004453       0.87382992 </v>
    <v>       0.74986637       0.25004453       0.37382992 </v>
    <v>       0.74873292       0.25064959       0.87528886 </v>
    <v>       0.75110093       0.75203282       0.37729186 </v>
    <v>       0.74174366       0.71800328       0.86162747 </v>
    <v>       0.24304297       0.21638526       0.13883737 </v>
    <v>       0.25073478       0.25150867       0.62280863 </v>
    <v>       0.24883841       0.75086150       0.12588589 </v>
    <v>       0.24985702       0.74995995       0.62491156 </v>
    <v>       0.74985702       0.24995995       0.12491156 </v>
    <v>       0.74883841       0.25086150       0.62588589 </v>
    <v>       0.75073478       0.75150867       0.12280863 </v>
    <v>       0.74304297       0.71638526       0.63883737 </v>
    <v>       0.60550874       0.14338267       0.24984842 </v>
    <v>       0.86868936       0.11457176       0.24994648 </v>
    <v>       0.14017145       0.39706326       0.24903011 </v>
    <v>       0.40052874       0.35421030       0.25056628 </v>
    <v>       0.64415065       0.39412337       0.24986668 </v>
    <v>       0.89289777       0.36042993       0.24980568 </v>
    <v>       0.10712038       0.64701617       0.25010278 </v>
    <v>       0.35996928       0.61206258       0.25014891 </v>
    <v>       0.60855718       0.64456863       0.24981647 </v>
    <v>       0.85539051       0.60675054       0.25058764 </v>
    <v>       0.14736372       0.90628569       0.24997588 </v>
    <v>       0.38921843       0.86651924       0.25021239 </v>
    <v>       0.65201065       0.89205466       0.25047510 </v>
    <v>       0.89434488       0.84876290       0.24928107 </v>
    <v>       0.13778491       0.11081599       0.50276091 </v>
    <v>       0.38676133       0.13848310       0.49908837 </v>
    <v>       0.63614431       0.11056159       0.49814890 </v>
    <v>       0.88733852       0.13490403       0.50148504 </v>
    <v>       0.11324308       0.36044735       0.49572501 </v>
    <v>       0.35959543       0.38583806       0.49238669 </v>
    <v>       0.61077750       0.36427016       0.50106017 </v>
    <v>       0.86576628       0.38684745       0.49733376 </v>
    <v>       0.13855521       0.61136854       0.50148936 </v>
    <v>       0.38659272       0.63756538       0.49874523 </v>
    <v>       0.63751781       0.61187570       0.49712638 </v>
    <v>       0.88769049       0.63856884       0.50062823 </v>
    <v>       0.11174238       0.86162049       0.49911646 </v>
    <v>       0.36305773       0.88607987       0.50215908 </v>
    <v>       0.61237359       0.86011694       0.50455745 </v>
    <v>       0.85994075       0.88478462       0.50810952 </v>
    <v>       0.10855718       0.14456863       0.74981647 </v>
    <v>       0.35539051       0.10675054       0.75058764 </v>
    <v>       0.60712038       0.14701617       0.75010278 </v>
    <v>       0.85996928       0.11206258       0.75014891 </v>
    <v>       0.15201065       0.39205466       0.75047510 </v>
    <v>       0.39434488       0.34876290       0.74928107 </v>
    <v>       0.64736372       0.40628569       0.74997588 </v>
    <v>       0.88921843       0.36651924       0.75021239 </v>
    <v>       0.10550874       0.64338267       0.74984842 </v>
    <v>       0.36868936       0.61457176       0.74994648 </v>
    <v>       0.14415065       0.89412337       0.74986668 </v>
    <v>       0.39289777       0.86042993       0.74980568 </v>
    <v>       0.64017145       0.89706326       0.74903011 </v>
    <v>       0.90052874       0.85421030       0.75056628 </v>
    <v>       0.13751781       0.11187570       0.99712638 </v>
    <v>       0.38769049       0.13856884       0.00062823 </v>
    <v>       0.63855521       0.11136854       0.00148936 </v>
    <v>       0.88659272       0.13756538       0.99874523 </v>
    <v>       0.11237359       0.36011694       0.00455745 </v>
    <v>       0.35994075       0.38478462       0.00810952 </v>
    <v>       0.61174238       0.36162049       0.99911646 </v>
    <v>       0.86305773       0.38607987       0.00215908 </v>
    <v>       0.13614431       0.61056159       0.99814890 </v>
    <v>       0.38733852       0.63490403       0.00148504 </v>
    <v>       0.63778491       0.61081599       0.00276091 </v>
    <v>       0.88676133       0.63848310       0.99908837 </v>
    <v>       0.11077750       0.86427016       0.00106017 </v>
    <v>       0.36576628       0.88684745       0.99733376 </v>
    <v>       0.61324308       0.86044735       0.99572501 </v>
    <v>       0.85959543       0.88583806       0.99238669 </v>
   </varray>
  </structure>
  <varray name="forces" >
   <v>      -0.00246094       0.01293332       0.00363216 </v>
   <v>       0.00195554      -0.01115809       0.00741462 </v>
   <v>      -0.00112579      -0.00754209      -0.00560950 </v>
   <v>       0.00650753       0.00163654       0.00089960 </v>
   <v>       0.00650753       0.00163654       0.00089960 </v>
   <v>      -0.00112579      -0.00754209      -0.00560950 </v>
   <v>       0.00195554      -0.01115809       0.00741462 </v>
   <v>      -0.00246094       0.01293332       0.00363216 </v>
   <v>       0.00359682       0.00531593      -0.00789418 </v>
   <v>       0.00152770      -0.00822318      -0.00256261 </v>
   <v>      -0.00046187      -0.00580647       0.00872194 </v>
   <v>       0.00091919       0.00428025      -0.00545949 </v>
   <v>       0.00091919       0.00428025      -0.00545949 </v>
   <v>      -0.00046187      -0.00580647       0.00872194 </v>
   <v>       0.00152770      -0.00822318      -0.00256261 </v>
   <v>       0.00359682       0.00531593      -0.00789418 </v>
   <v>      -0.00197716       0.00954723       0.00285171 </v>
   <v>       0.00116339       0.00822900       0.00634914 </v>
   <v>      -0.00341267       0.00380020       0.00698006 </v>
   <v>      -0.00645792      -0.00064555      -0.00838643 </v>
   <v>      -0.00645792      -0.00064555      -0.00838643 </v>
   <v>      -0.00341267       0.00380020       0.00698006 </v>
   <v>       0.00116339       0.00822900       0.00634914 </v>
   <v>      -0.00197716       0.00954723       0.00285171 </v>
   <v>      -0.00270715       0.00839182       0.00151624 </v>
   <v>      -0.00332261       0.01434110      -0.01439154 </v>
   <v>      -0.00115921       0.00286098      -0.00064609 </v>
   <v>      -0.00246129      -0.00694779       0.00456307 </v>
   <v>      -0.00246129      -0.00694779       0.00456307 </v>
   <v>      -0.00115921       0.00286098      -0.00064609 </v>
   <v>      -0.00332261       0.01434110      -0.01439154 </v>
   <v>      -0.00270715       0.00839182       0.00151624 </v>
   <v>      -0.01541880       0.00404543      -0.02140410 </v>
   <v>      -0.01494123      -0.00451369       0.02266549 </v>
   <v>       0.01723869       0.01622564      -0.01309081 </v>
   <v>       0.01561285       0.01200001       0.00806081 </v>
   <v>       0.01011383      -0.06861033      -0.00170293 </v>
   <v>      -0.00059346      -0.00342308       0.00796395 </v>
   <v>      -0.01494123      -0.00451369       0.02266549 </v>
   <v>       0.00389269       0.00409715      -0.00056192 </v>
   <v>      -0.01127835       0.00162617      -0.00267551 </v>
   <v>       0.00059281      -0.01806466       0.01013702 </v>
   <v>       0.00389269       0.00409715      -0.00056192 </v>
   <v>       0.00846692       0.00444994       0.00426609 </v>
   <v>      -0.01127835       0.00162617      -0.00267551 </v>
   <v>       0.01438231       0.02265780      -0.02621632 </v>
   <v>       0.01438231       0.02265780      -0.02621632 </v>
   <v>       0.01011383      -0.06861033      -0.00170293 </v>
   <v>       0.00059281      -0.01806466       0.01013702 </v>
   <v>       0.01723869       0.01622564      -0.01309081 </v>
   <v>      -0.02321808       0.01502882      -0.00015765 </v>
   <v>      -0.00059346      -0.00342308       0.00796395 </v>
   <v>      -0.01541880       0.00404543      -0.02140410 </v>
   <v>      -0.02321808       0.01502882      -0.00015765 </v>
   <v>       0.01561285       0.01200001       0.00806081 </v>
   <v>       0.00846692       0.00444994       0.00426609 </v>
   <v>      -0.01292346       0.01281806      -0.00031769 </v>
   <v>       0.00771845      -0.01213399       0.00212134 </v>
   <v>      -0.01292346       0.01281806      -0.00031769 </v>
   <v>      -0.00655028      -0.00145765      -0.00550424 </v>
   <v>      -0.00005608       0.00048993       0.00832070 </v>
   <v>      -0.00655028      -0.00145765      -0.00550424 </v>
   <v>      -0.00005608       0.00048993       0.00832070 </v>
   <v>       0.00771845      -0.01213399       0.00212134 </v>
   <v>      -0.00055943      -0.01052213       0.00728671 </v>
   <v>       0.00469625       0.00459988      -0.00790915 </v>
   <v>      -0.00509707       0.00497069      -0.01528815 </v>
   <v>      -0.00758135       0.00584931       0.01599268 </v>
[...]
       <r>   -16.2164     0.0000    32.0000 </r>
       <r>   -16.0641     0.0000    32.0000 </r>
       <r>   -15.9118     0.0000    32.0000 </r>
       <r>   -15.7595     0.0000    32.0000 </r>
       <r>   -15.6072     0.0000    32.0000 </r>
       <r>   -15.4549     0.0000    32.0000 </r>
       <r>   -15.3026     0.0000    32.0000 </r>
       <r>   -15.1503     0.5634    32.0858 </r>
       <r>   -14.9980    22.9771    35.5852 </r>
       <r>   -14.8457    56.4305    44.1794 </r>
       <r>   -14.6934    43.8529    50.8581 </r>
       <r>   -14.5411    31.9865    55.7295 </r>
       <r>   -14.3888    31.4007    60.5118 </r>
       <r>   -14.2365    39.3805    66.5093 </r>
       <r>   -14.0842   106.5785    82.7409 </r>
       <r>   -13.9319   125.6693   101.8800 </r>
       <r>   -13.7796   105.3905   117.9307 </r>
       <r>   -13.6273    36.3617   123.4685 </r>
       <r>   -13.4750     3.4898   124.0000 </r>
       <r>   -13.3227     0.0000   124.0000 </r>
       <r>   -13.1704     0.0000   124.0000 </r>
       <r>   -13.0181     0.0000   124.0000 </r>
       <r>   -12.8658     0.0000   124.0000 </r>
       <r>   -12.7135     0.4941   124.0752 </r>
       <r>   -12.5612    46.1776   131.1080 </r>
       <r>   -12.4089   133.7195   151.4731 </r>
       <r>   -12.2566   156.0647   175.2414 </r>
       <r>   -12.1043   134.2474   195.6869 </r>
       <r>   -11.9521   104.0111   211.5275 </r>
       <r>   -11.7998    52.1888   219.4757 </r>
       <r>   -11.6475     3.4425   220.0000 </r>
       <r>   -11.4952     0.0000   220.0000 </r>
       <r>   -11.3429     0.0000   220.0000 </r>
       <r>   -11.1906     0.0000   220.0000 </r>
       <r>   -11.0383     0.0000   220.0000 </r>
       <r>   -10.8860     0.0000   220.0000 </r>
       <r>   -10.7337     0.0000   220.0000 </r>
       <r>   -10.5814     0.0000   220.0000 </r>
       <r>   -10.4291     0.0000   220.0000 </r>
       <r>   -10.2768     0.0000   220.0000 </r>
       <r>   -10.1245     0.0000   220.0000 </r>
       <r>    -9.9722     0.0000   220.0000 </r>
       <r>    -9.8199     0.0000   220.0000 </r>
       <r>    -9.6676     0.0000   220.0000 </r>
       <r>    -9.5153     0.0000   220.0000 </r>
       <r>    -9.3630     0.0000   220.0000 </r>
       <r>    -9.2107     0.0000   220.0000 </r>
       <r>    -9.0584     0.0000   220.0000 </r>
       <r>    -8.9061     0.0000   220.0000 </r>
       <r>    -8.7538     0.0000   220.0000 </r>
       <r>    -8.6015     0.0000   220.0000 </r>
       <r>    -8.4492     0.0000   220.0000 </r>
       <r>    -8.2969     0.0000   220.0000 </r>
       <r>    -8.1446     0.0000   220.0000 </r>
       <r>    -7.9923     0.0000   220.0000 </r>
       <r>    -7.8400     0.0000   220.0000 </r>
       <r>    -7.6877     0.0000   220.0000 </r>
       <r>    -7.5354     0.0000   220.0000 </r>
       <r>    -7.3831     0.0000   220.0000 </r>
       <r>    -7.2308     0.0000   220.0000 </r>
       <r>    -7.0785     0.0000   220.0000 </r>
       <r>    -6.9262     0.0000   220.0000 </r>
       <r>    -6.7739     0.0000   220.0000 </r>
       <r>    -6.6216     0.0000   220.0000 </r>
       <r>    -6.4693     0.0000   220.0000 </r>
       <r>    -6.3170     0.0000   220.0000 </r>
       <r>    -6.1648     0.0000   220.0000 </r>
       <r>    -6.0125     0.0000   220.0000 </r>
       <r>    -5.8602     0.0000   220.0000 </r>
       <r>    -5.7079     0.0000   220.0000 </r>
       <r>    -5.5556     0.0000   220.0000 </r>
       <r>    -5.4033     0.0000   220.0000 </r>
       <r>    -5.2510     0.0000   220.0000 </r>
       <r>    -5.0987     0.0000   220.0000 </r>
       <r>    -4.9464     0.0000   220.0000 </r>
       <r>    -4.7941     0.0000   220.0000 </r>
       <r>    -4.6418     0.0000   220.0000 </r>
       <r>    -4.4895     0.0000   220.0000 </r>
       <r>    -4.3372     0.0000   220.0000 </r>
       <r>    -4.1849     0.0000   220.0000 </r>
       <r>    -4.0326     0.0000   220.0000 </r>
       <r>    -3.8803     0.0000   220.0000 </r>
       <r>    -3.7280     0.0000   220.0000 </r>
       <r>    -3.5757     0.0000   220.0000 </r>
       <r>    -3.4234     0.0000   220.0000 </r>
       <r>    -3.2711     0.0000   220.0000 </r>
       <r>    -3.1188     0.0000   220.0000 </r>
       <r>    -2.9665     0.0000   220.0000 </r>
       <r>    -2.8142     0.0000   220.0000 </r>
       <r>    -2.6619     0.0000   220.0000 </r>
       <r>    -2.5096     0.0000   220.0000 </r>
       <r>    -2.3573     2.5728   220.3918 </r>
       <r>    -2.2050    12.0432   222.2260 </r>
       <r>    -2.0527    24.0020   225.8814 </r>
       <r>    -1.9004    31.7801   230.7214 </r>
       <r>    -1.7481    46.8575   237.8577 </r>
       <r>    -1.5958    49.8135   245.4442 </r>
       <r>    -1.4435    56.6625   254.0737 </r>
       <r>    -1.2912    59.3930   263.1191 </r>
       <r>    -1.1389    64.8130   272.9900 </r>
       <r>    -0.9866    81.0969   285.3408 </r>
       <r>    -0.8343    70.7303   296.1128 </r>
       <r>    -0.6820    85.4053   309.1198 </r>
       <r>    -0.5298   117.4259   327.0035 </r>
       <r>    -0.3775    93.4667   341.2382 </r>
       <r>    -0.2252    69.1830   351.7746 </r>
       <r>    -0.0729    51.1987   359.5720 </r>
       <r>     0.0794    47.2905   366.7742 </r>
       <r>     0.2317    51.4793   374.6144 </r>
       <r>     0.3840    48.3632   381.9800 </r>
       <r>     0.5363    57.1087   390.6775 </r>
       <r>     0.6886    60.8464   399.9442 </r>
       <r>     0.8409    37.2582   405.6186 </r>
       <r>     0.9932    50.3842   413.2919 </r>
       <r>     1.1455    64.9192   423.1790 </r>
       <r>     1.2978    93.7063   437.4502 </r>
       <r>     1.4501    89.6299   451.1006 </r>
       <r>     1.6024    87.0093   464.3519 </r>
       <r>     1.7547    79.3396   476.4351 </r>
       <r>     1.9070    54.1561   484.6829 </r>
       <r>     2.0593    46.8056   491.8113 </r>
       <r>     2.2116    17.5989   494.4915 </r>
       <r>     2.3639     9.6245   495.9573 </r>
       <r>     2.5162     0.2803   496.0000 </r>
       <r>     2.6685     0.0000   496.0000 </r>
       <r>     2.8208     0.0000   496.0000 </r>
       <r>     2.9731     0.0000   496.0000 </r>
       <r>     3.1254     0.0000   496.0000 </r>
       <r>     3.2777     0.0000   496.0000 </r>
       <r>     3.4300     0.0000   496.0000 </r>
       <r>     3.5823     0.0000   496.0000 </r>
       <r>     3.7346     0.0000   496.0000 </r>
       <r>     3.8869     0.0000   496.0000 </r>
       <r>     4.0392     0.0000   496.0000 </r>
       <r>     4.1915     0.0000   496.0000 </r>
       <r>     4.3438     0.0009   496.0001 </r>
       <r>     4.4961     9.3621   497.4260 </r>
       <r>     4.6484    36.5479   502.9921 </r>
       <r>     4.8007    48.4950   510.3778 </r>
       <r>     4.9530    23.8289   514.0068 </r>
       <r>     5.1053    45.8459   520.9890 </r>
       <r>     5.2575    53.3739   529.1178 </r>
       <r>     5.4098    70.5538   539.8629 </r>
       <r>     5.5621    66.3260   549.9642 </r>
       <r>     5.7144    64.9751   559.8597 </r>
       <r>     5.8667    71.5579   570.7578 </r>
       <r>     6.0190   106.9028   587.0388 </r>
       <r>     6.1713    70.4671   597.7708 </r>
       <r>     6.3236    60.8888   607.0440 </r>
       <r>     6.4759    27.5641   611.2419 </r>
       <r>     6.6282    19.3086   614.1825 </r>
       <r>     6.7805    22.9796   617.6823 </r>
       <r>     6.9328    19.8656   620.7078 </r>
       <r>     7.0851    27.1035   624.8356 </r>
       <r>     7.2374    18.2508   627.6151 </r>
       <r>     7.3897    13.9074   629.7332 </r>
       <r>     7.5420     9.0660   631.1139 </r>
       <r>     7.6943    16.2424   633.5876 </r>
       <r>     7.8466    22.1129   636.9553 </r>
       <r>     7.9989    25.5841   640.8517 </r>
       <r>     8.1512    22.1107   644.2191 </r>
       <r>     8.3035    21.6417   647.5151 </r>
       <r>     8.4558    29.7662   652.0484 </r>
       <r>     8.6081    14.9630   654.3272 </r>
       <r>     8.7604    28.0429   658.5980 </r>
       <r>     8.9127    25.6596   662.5059 </r>
       <r>     9.0650    34.3033   667.7302 </r>
       <r>     9.2173    44.0153   674.4337 </r>
       <r>     9.3696    33.7853   679.5791 </r>
       <r>     9.5219    43.4577   686.1976 </r>
       <r>     9.6742    39.6941   692.2429 </r>
       <r>     9.8265    54.4805   700.5401 </r>
       <r>     9.9788    62.5227   710.0621 </r>
       <r>    10.1311    73.0637   721.1895 </r>
       <r>    10.2834    63.5942   730.8748 </r>
       <r>    10.4357    56.8255   739.5291 </r>
       <r>    10.5880    57.1819   748.2378 </r>
       <r>    10.7403    62.3094   757.7273 </r>
       <r>    10.8926    49.9728   765.3380 </r>
       <r>    11.0448    17.4653   767.9980 </r>
       <r>    11.1971     0.0133   768.0000 </r>
       <r>    11.3494     0.0000   768.0000 </r>
       <r>    11.5017     0.0000   768.0000 </r>
       <r>    11.6540     0.0000   768.0000 </r>
       <r>    11.8063     0.0000   768.0000 </r>
       <r>    11.9586     0.0000   768.0000 </r>
       <r>    12.1109     0.0000   768.0000 </r>
       <r>    12.2632     0.0000   768.0000 </r>
       <r>    12.4155     0.0000   768.0000 </r>
       <r>    12.5678     0.0000   768.0000 </r>
       <r>    12.7201     0.0000   768.0000 </r>
       <r>    12.8724     0.0000   768.0000 </r>
       <r>    13.0247     0.0000   768.0000 </r>
      </set>
     </set>
    </array>
   </total>
  </dos>
 </calculation>
 <structure name="finalpos" >
  <crystal>
   <varray name="basis" >
    <v>      11.22685555      -0.00525155      -0.00034329 </v>
    <v>      -0.00522377      11.23299239      -0.00078253 </v>
    <v>      -0.00049584      -0.00114202      15.89148672 </v>
   </varray>
   <i name="volume">   2004.09374270 </i>
   <varray name="rec_basis" >
    <v>       0.08907216       0.00004142       0.00000278 </v>
    <v>       0.00004164       0.08902349       0.00000640 </v>
    <v>       0.00000193       0.00000438       0.06292677 </v>
   </varray>
  </crystal>
  <varray name="positions" >
   <v>       0.99296665       0.25127007       0.12151064 </v>
   <v>       0.99667738       0.24968842       0.62382615 </v>
   <v>       0.00130231       0.74775974       0.12228783 </v>
   <v>       0.00473501       0.75072246       0.62255095 </v>
   <v>       0.50473501       0.25072246       0.12255095 </v>
   <v>       0.50130231       0.24775974       0.62228783 </v>
   <v>       0.49667738       0.74968842       0.12382615 </v>
   <v>       0.49296665       0.75127007       0.62151064 </v>
   <v>       0.99025720       0.25167032       0.38013382 </v>
   <v>       0.99840912       0.24944919       0.87541338 </v>
   <v>       0.99955232       0.74773206       0.37671328 </v>
   <v>       0.00724258       0.75053361       0.87852101 </v>
   <v>       0.50724258       0.25053361       0.37852101 </v>
   <v>       0.49955232       0.24773206       0.87671328 </v>
   <v>       0.49840912       0.74944919       0.37541338 </v>
   <v>       0.49025720       0.75167032       0.88013382 </v>
   <v>       0.24753622       0.98920392       0.11615118 </v>
   <v>       0.25020945       0.99864547       0.62514218 </v>
   <v>       0.24861980       0.51381860       0.12245645 </v>
   <v>       0.25320166       0.50116118       0.62342620 </v>
   <v>       0.75320166       0.00116118       0.12342620 </v>
   <v>       0.74861980       0.01381860       0.62245645 </v>
   <v>       0.75020945       0.49864547       0.12514218 </v>
   <v>       0.74753622       0.48920392       0.61615118 </v>
   <v>       0.24804112       0.99132356       0.38262155 </v>
   <v>       0.25004019       0.99686281       0.87574942 </v>
   <v>       0.24821916       0.51097749       0.37617848 </v>
   <v>       0.25346555       0.50332233       0.87753406 </v>
   <v>       0.75346555       0.00332233       0.37753406 </v>
   <v>       0.74821916       0.01097749       0.87617848 </v>
   <v>       0.75004019       0.49686281       0.37574942 </v>
   <v>       0.74804112       0.49132356       0.88262155 </v>
   <v>       0.00046675       0.99910854       0.00004964 </v>
   <v>       0.50094006       0.00155755       0.49846911 </v>
   <v>       0.99857689       0.49936905       0.50148928 </v>
   <v>       0.00174605       0.00160509       0.75003495 </v>
   <v>       0.25062641       0.24748399       0.74994660 </v>
   <v>       0.74971202       0.25733885       0.74871713 </v>
   <v>       0.00094006       0.50155755       0.99846911 </v>
   <v>       0.24887349       0.24748045       0.49869813 </v>
   <v>       0.74937932       0.24956273       0.00047799 </v>
   <v>       0.49847729       0.50119209       0.00006521 </v>
   <v>       0.74887349       0.74748045       0.99869813 </v>
   <v>       0.74906850       0.74743874       0.50112478 </v>
   <v>       0.24937932       0.74956273       0.50047799 </v>
   <v>       0.24963522       0.74881735       0.75133031 </v>
   <v>       0.74963522       0.24881735       0.25133031 </v>
   <v>       0.75062641       0.74748399       0.24994660 </v>
   <v>       0.99847729       0.00119209       0.50006521 </v>
   <v>       0.49857689       0.99936905       0.00148928 </v>
   <v>       0.99808434       0.50280000       0.24993056 </v>
   <v>       0.24971202       0.75733885       0.24871713 </v>
   <v>       0.50046675       0.49910854       0.50004964 </v>
   <v>       0.49808434       0.00280000       0.74993056 </v>
   <v>       0.50174605       0.50160509       0.25003495 </v>
   <v>       0.24906850       0.24743874       0.00112478 </v>
   <v>       0.75360072       0.77667006       0.74997755 </v>
   <v>       0.49026204       0.48502325       0.74992154 </v>
   <v>       0.25360072       0.27667006       0.24997755 </v>
   <v>       0.51663227       0.98936621       0.25009718 </v>
   <v>       0.74926298       0.24971185       0.49942143 </v>
   <v>       0.01663227       0.48936621       0.75009718 </v>
   <v>       0.24926298       0.74971185       0.99942143 </v>
   <v>       0.99026204       0.98502325       0.24992154 </v>
   <v>       0.00047135       0.00593754       0.12505782 </v>
   <v>       0.00171049       0.00103927       0.62596826 </v>
   <v>       0.99834593       0.50492293       0.12485907 </v>
   <v>       0.99496853       0.50358753       0.62643112 </v>
   <v>       0.49496853       0.00358753       0.12643112 </v>
   <v>       0.49834593       0.00492293       0.62485907 </v>
   <v>       0.50171049       0.50103927       0.12596826 </v>
   <v>       0.50047135       0.50593754       0.62505782 </v>
   <v>       0.00069240       0.00365146       0.37504534 </v>
   <v>       0.00114413       0.00258203       0.87415926 </v>
   <v>       0.00059812       0.50480929       0.37494131 </v>
   <v>       0.99338060       0.50346380       0.87352549 </v>
   <v>       0.49338060       0.00346380       0.37352549 </v>
   <v>       0.50059812       0.00480929       0.87494131 </v>
   <v>       0.50114413       0.50258203       0.37415926 </v>
   <v>       0.50069240       0.50365146       0.87504534 </v>
   <v>       0.24168637       0.21805883       0.36157559 </v>
   <v>       0.25113445       0.25200778       0.87729461 </v>
   <v>       0.24873844       0.75062553       0.37526771 </v>
   <v>       0.24984132       0.74994919       0.87383171 </v>
   <v>       0.74984132       0.24994919       0.37383171 </v>
   <v>       0.74873844       0.25062553       0.87526771 </v>
   <v>       0.75113445       0.75200778       0.37729461 </v>
   <v>       0.74168637       0.71805883       0.86157559 </v>
   <v>       0.24305443       0.21644699       0.13886229 </v>
   <v>       0.25074970       0.25146975       0.62281014 </v>
   <v>       0.24881380       0.75087556       0.12588351 </v>
   <v>       0.24982803       0.74983230       0.62493429 </v>
   <v>       0.74982803       0.24983230       0.12493429 </v>
   <v>       0.74881380       0.25087556       0.62588351 </v>
   <v>       0.75074970       0.75146975       0.12281014 </v>
   <v>       0.74305443       0.71644699       0.63886229 </v>
   <v>       0.60553019       0.14330730       0.24983367 </v>
   <v>       0.86881403       0.11455643       0.24994479 </v>
   <v>       0.14021717       0.39709494       0.24901051 </v>
   <v>       0.40054462       0.35414121       0.25059109 </v>
   <v>       0.64415120       0.39406865       0.24988496 </v>
   <v>       0.89292001       0.36038156       0.24980704 </v>
   <v>       0.10708566       0.64708241       0.25008184 </v>
   <v>       0.35998305       0.61206399       0.25013554 </v>
   <v>       0.60850252       0.64463300       0.24980809 </v>
   <v>       0.85525520       0.60674893       0.25060215 </v>
   <v>       0.14743908       0.90637221       0.24997711 </v>
   <v>       0.38926284       0.86657702       0.25021241 </v>
   <v>       0.65202189       0.89211728       0.25048334 </v>
   <v>       0.89440551       0.84871138       0.24927963 </v>
   <v>       0.13783072       0.11083364       0.50267852 </v>
   <v>       0.38670877       0.13848981       0.49900847 </v>
   <v>       0.63609554       0.11059321       0.49818943 </v>
   <v>       0.88725920       0.13490262       0.50146484 </v>
   <v>       0.11325994       0.36048405       0.49574922 </v>
   <v>       0.35964608       0.38584016       0.49241444 </v>
   <v>       0.61081648       0.36427104       0.50101276 </v>
   <v>       0.86575936       0.38683385       0.49739578 </v>
   <v>       0.13851935       0.61133386       0.50147155 </v>
   <v>       0.38657106       0.63751352       0.49873692 </v>
   <v>       0.63754798       0.61188894       0.49717876 </v>
   <v>       0.88762722       0.63857073       0.50067483 </v>
   <v>       0.11176756       0.86165972       0.49918443 </v>
   <v>       0.36310541       0.88605952       0.50213984 </v>
   <v>       0.61239573       0.86015731       0.50454440 </v>
   <v>       0.85997846       0.88478486       0.50808813 </v>
   <v>       0.10850252       0.14463300       0.74980809 </v>
   <v>       0.35525520       0.10674893       0.75060215 </v>
   <v>       0.60708566       0.14708241       0.75008184 </v>
   <v>       0.85998305       0.11206399       0.75013554 </v>
   <v>       0.15202189       0.39211728       0.75048334 </v>
   <v>       0.39440551       0.34871138       0.74927963 </v>
   <v>       0.64743908       0.40637221       0.74997711 </v>
   <v>       0.88926284       0.36657702       0.75021241 </v>
   <v>       0.10553019       0.64330730       0.74983367 </v>
   <v>       0.36881403       0.61455643       0.74994479 </v>
   <v>       0.14415120       0.89406865       0.74988496 </v>
   <v>       0.39292001       0.86038156       0.74980704 </v>
   <v>       0.64021717       0.89709494       0.74901051 </v>
   <v>       0.90054462       0.85414121       0.75059109 </v>
   <v>       0.13754798       0.11188894       0.99717876 </v>
   <v>       0.38762722       0.13857073       0.00067483 </v>
   <v>       0.63851935       0.11133386       0.00147155 </v>
   <v>       0.88657106       0.13751352       0.99873692 </v>
   <v>       0.11239573       0.36015731       0.00454440 </v>
   <v>       0.35997846       0.38478486       0.00808813 </v>
   <v>       0.61176756       0.36165972       0.99918443 </v>
   <v>       0.86310541       0.38605952       0.00213984 </v>
   <v>       0.13609554       0.61059321       0.99818943 </v>
   <v>       0.38725920       0.63490262       0.00146484 </v>
   <v>       0.63783072       0.61083364       0.00267852 </v>
   <v>       0.88670877       0.63848981       0.99900847 </v>
   <v>       0.11081648       0.86427104       0.00101276 </v>
   <v>       0.36575936       0.88683385       0.99739578 </v>
   <v>       0.61325994       0.86048405       0.99574922 </v>
   <v>       0.85964608       0.88584016       0.99241444 </v>
  </varray>
 </structure>
</modeling>
