       N       E                     dE             d eps       ncg     rms          rms(c)
DAV:   1     0.122123347656E+05    0.12212E+05   -0.42877E+05  3072   0.133E+03
DAV:   2     0.751235518654E+03   -0.11461E+05   -0.10242E+05  3080   0.383E+02
DAV:   3    -0.133883238399E+04   -0.20901E+04   -0.20092E+04  3304   0.170E+02
DAV:   4    -0.148948633659E+04   -0.15065E+03   -0.14812E+03  4040   0.485E+01
DAV:   5    -0.149964915723E+04   -0.10163E+02   -0.10116E+02  5560   0.117E+01    0.179E+02
RMM:   6    -0.116015450612E+04    0.33949E+03   -0.16882E+03  3149   0.370E+01    0.142E+02
RMM:   7    -0.114043238551E+04    0.19722E+02   -0.65376E+01  3197   0.127E+01    0.822E+01
RMM:   8    -0.114286168345E+04   -0.24293E+01   -0.21397E+01  3479   0.497E+00    0.411E+01
RMM:   9    -0.114767720357E+04   -0.48155E+01   -0.10075E+01  3202   0.384E+00    0.142E+01
RMM:  10    -0.114863166705E+04   -0.95446E+00   -0.26583E+00  3437   0.182E+00    0.724E+00
RMM:  11    -0.114980779429E+04   -0.11761E+01   -0.13438E+00  3597   0.955E-01    0.435E+00
RMM:  12    -0.115056025164E+04   -0.75246E+00   -0.64653E-01  3473   0.768E-01    0.233E+00
RMM:  13    -0.115081749406E+04   -0.25724E+00   -0.28286E-01  3685   0.484E-01    0.134E+00
RMM:  14    -0.115088395189E+04   -0.66458E-01   -0.12343E-01  3608   0.310E-01    0.807E-01
RMM:  15    -0.115089591857E+04   -0.11967E-01   -0.43468E-02  3696   0.201E-01    0.605E-01
RMM:  16    -0.115089912934E+04   -0.32108E-02   -0.16895E-02  4146   0.103E-01    0.340E-01
RMM:  17    -0.115089902482E+04    0.10451E-03   -0.56052E-03  3411   0.668E-02    0.984E-02
RMM:  18    -0.115089924685E+04   -0.22203E-03   -0.23563E-03  3287   0.304E-02    0.447E-02
RMM:  19    -0.115089935977E+04   -0.11291E-03   -0.10898E-03  2589   0.215E-02    0.189E-02
RMM:  20    -0.115089943173E+04   -0.71965E-04   -0.66152E-04  2458   0.153E-02
   1 F= -.11508994E+04 E0= -.11508994E+04  d E =-.115090E+04  mag=    20.0007
       N       E                     dE             d eps       ncg     rms          rms(c)
DAV:   1    -0.112271907632E+04    0.28180E+02   -0.64853E+02  3680   0.245E+01    0.225E+01
RMM:   2    -0.115253025055E+04   -0.29811E+02   -0.48322E+01  3262   0.765E+00    0.386E+01
RMM:   3    -0.115273867050E+04   -0.20842E+00   -0.26638E+00  3219   0.257E+00    0.121E+01
RMM:   4    -0.115263492064E+04    0.10375E+00   -0.17695E+00  3348   0.140E+00    0.345E+00
RMM:   5    -0.115260539454E+04    0.29526E-01   -0.21767E-01  3418   0.493E-01    0.356E+00
RMM:   6    -0.115260009296E+04    0.53016E-02   -0.73698E-02  3637   0.261E-01    0.200E+00
RMM:   7    -0.115260351201E+04   -0.34190E-02   -0.27604E-02  3794   0.155E-01    0.129E+00
RMM:   8    -0.115260365029E+04   -0.13829E-03   -0.44290E-03  4321   0.667E-02    0.557E-01
RMM:   9    -0.115260306772E+04    0.58257E-03   -0.32372E-03  3464   0.481E-02    0.307E-01
RMM:  10    -0.115260302633E+04    0.41395E-04   -0.56424E-04  2689   0.281E-02
   2 F= -.11526030E+04 E0= -.11526030E+04  d E =-.170359E+01  mag=    20.0000
       N       E                     dE             d eps       ncg     rms          rms(c)
DAV:   1    -0.115259920871E+04    0.38590E-02   -0.54308E-01  3480   0.688E-01    0.683E-01
RMM:   2    -0.115260408170E+04   -0.48730E-02   -0.13288E-02  3119   0.138E-01    0.402E-01
RMM:   3    -0.115260499955E+04   -0.91785E-03   -0.89555E-04  2741   0.523E-02    0.227E-01
RMM:   4    -0.115260495814E+04    0.41403E-04   -0.59168E-04  2522   0.259E-02    0.831E-02
RMM:   5    -0.115260497198E+04   -0.13840E-04   -0.12990E-04  1973   0.162E-02    0.894E-02
RMM:   6    -0.115260497322E+04   -0.12336E-05   -0.28646E-05  1839   0.822E-03    0.245E-02
RMM:   7    -0.115260497641E+04   -0.31967E-05   -0.12672E-05  1769   0.501E-03    0.127E-02
RMM:   8    -0.115260498058E+04   -0.41684E-05   -0.91285E-06  1625   0.403E-03
   3 F= -.11526050E+04 E0= -.11526050E+04  d E =-.170555E+01  mag=    20.0000
       N       E                     dE             d eps       ncg     rms          rms(c)
DAV:   1    -0.115267342874E+04   -0.68452E-01   -0.22177E+02  3208   0.165E+01    0.796E+00
RMM:   2    -0.115309207683E+04   -0.41865E+00   -0.70895E+00  3112   0.336E+00    0.521E+00
RMM:   3    -0.115306142142E+04    0.30655E-01   -0.45388E-01  3311   0.109E+00    0.300E+00
RMM:   4    -0.115301998560E+04    0.41436E-01   -0.16860E-01  3445   0.446E-01    0.215E+00
RMM:   5    -0.115301161584E+04    0.83698E-02   -0.40008E-02  3422   0.226E-01    0.140E+00
RMM:   6    -0.115301189137E+04   -0.27553E-03   -0.10162E-02  4386   0.949E-02    0.509E-01
RMM:   7    -0.115301208752E+04   -0.19615E-03   -0.39029E-03  4094   0.612E-02    0.331E-01
RMM:   8    -0.115301221970E+04   -0.13219E-03   -0.13126E-03  3980   0.328E-02    0.124E-01
RMM:   9    -0.115301222689E+04   -0.71844E-05   -0.46059E-04  2800   0.194E-02
   4 F= -.11530122E+04 E0= -.11530122E+04  d E =-.407246E+00  mag=    20.0000
       N       E                     dE             d eps       ncg     rms          rms(c)
DAV:   1    -0.115301318803E+04   -0.96832E-03   -0.11317E+00  3576   0.118E+00    0.588E-01
RMM:   2    -0.115301504213E+04   -0.18541E-02   -0.36539E-02  3117   0.241E-01    0.382E-01
RMM:   3    -0.115301477108E+04    0.27104E-03   -0.22814E-03  3286   0.780E-02    0.214E-01
RMM:   4    -0.115301454476E+04    0.22633E-03   -0.88044E-04  2978   0.325E-02    0.132E-01
RMM:   5    -0.115301452549E+04    0.19270E-04   -0.21332E-04  2012   0.210E-02    0.106E-01
RMM:   6    -0.115301453535E+04   -0.98627E-05   -0.62997E-05  1796   0.109E-02    0.419E-02
RMM:   7    -0.115301454514E+04   -0.97897E-05   -0.21160E-05  1745   0.646E-03    0.212E-02
RMM:   8    -0.115301455616E+04   -0.11023E-04   -0.15446E-05  1574   0.447E-03
   5 F= -.11530146E+04 E0= -.11530146E+04  d E =-.409576E+00  mag=    20.0000
       N       E                     dE             d eps       ncg     rms          rms(c)
DAV:   1    -0.115306548013E+04   -0.50935E-01   -0.53810E+01  3104   0.829E+00    0.267E+00
RMM:   2    -0.115312335529E+04   -0.57875E-01   -0.14302E+00  3096   0.153E+00    0.204E+00
RMM:   3    -0.115310378182E+04    0.19573E-01   -0.77895E-02  3250   0.471E-01    0.120E+00
RMM:   4    -0.115308497054E+04    0.18811E-01   -0.50189E-02  3234   0.229E-01    0.537E-01
RMM:   5    -0.115308265791E+04    0.23126E-02   -0.86402E-03  3476   0.118E-01    0.310E-01
RMM:   6    -0.115308268708E+04   -0.29169E-04   -0.18906E-03  3761   0.412E-02    0.249E-01
RMM:   7    -0.115308266369E+04    0.23393E-04   -0.42224E-04  2795   0.198E-02    0.127E-01
RMM:   8    -0.115308268880E+04   -0.25117E-04   -0.24062E-04  2310   0.173E-02
   6 F= -.11530827E+04 E0= -.11530827E+04  d E =-.681326E-01  mag=    20.0000
       N       E                     dE             d eps       ncg     rms          rms(c)
DAV:   1    -0.115309783274E+04   -0.15169E-01   -0.53103E+00  3376   0.259E+00    0.843E-01
RMM:   2    -0.115310326898E+04   -0.54362E-02   -0.13738E-01  3097   0.475E-01    0.642E-01
RMM:   3    -0.115310139904E+04    0.18699E-02   -0.75189E-03  3195   0.147E-01    0.381E-01
RMM:   4    -0.115309950790E+04    0.18911E-02   -0.47544E-03  3161   0.722E-02    0.176E-01
RMM:   5    -0.115309927029E+04    0.23761E-03   -0.77628E-04  2666   0.393E-02    0.103E-01
RMM:   6    -0.115309926821E+04    0.20839E-05   -0.16449E-04  2055   0.146E-02    0.921E-02
RMM:   7    -0.115309926188E+04    0.63223E-05   -0.43376E-05  1835   0.102E-02    0.395E-02
RMM:   8    -0.115309925849E+04    0.33956E-05   -0.27967E-05  1777   0.705E-03
   7 F= -.11530993E+04 E0= -.11530993E+04  d E =-.847023E-01  mag=    20.0000
       N       E                     dE             d eps       ncg     rms          rms(c)
DAV:   1    -0.115314490075E+04   -0.45639E-01   -0.10338E+01  3224   0.379E+00    0.176E+00
RMM:   2    -0.115314133613E+04    0.35646E-02   -0.34070E-01  3108   0.728E-01    0.129E+00
RMM:   3    -0.115313272037E+04    0.86158E-02   -0.22588E-02  3195   0.268E-01    0.636E-01
RMM:   4    -0.115313042990E+04    0.22905E-02   -0.10924E-02  3358   0.109E-01    0.473E-01
RMM:   5    -0.115313030686E+04    0.12304E-03   -0.17464E-03  3380   0.560E-02    0.263E-01
RMM:   6    -0.115313034526E+04   -0.38401E-04   -0.86294E-04  3237   0.264E-02    0.131E-01
RMM:   7    -0.115313040655E+04   -0.61292E-04   -0.22866E-04  2077   0.187E-02    0.942E-02
RMM:   8    -0.115313045255E+04   -0.46006E-04   -0.11018E-04  1866   0.137E-02
   8 F= -.11531305E+04 E0= -.11531305E+04  d E =-.311941E-01  mag=    20.0000
       N       E                     dE             d eps       ncg     rms          rms(c)
DAV:   1    -0.115314361306E+04   -0.13207E-01   -0.54602E+00  3136   0.276E+00    0.128E+00
RMM:   2    -0.115314246315E+04    0.11499E-02   -0.18132E-01  3104   0.531E-01    0.941E-01
RMM:   3    -0.115313807353E+04    0.43896E-02   -0.11701E-02  3187   0.197E-01    0.464E-01
RMM:   4    -0.115313682056E+04    0.12530E-02   -0.51545E-03  3368   0.780E-02    0.344E-01
RMM:   5    -0.115313671722E+04    0.10334E-03   -0.93695E-04  3199   0.401E-02    0.192E-01
RMM:   6    -0.115313672254E+04   -0.53193E-05   -0.41029E-04  2557   0.200E-02    0.953E-02
RMM:   7    -0.115313675983E+04   -0.37289E-04   -0.15964E-04  1925   0.165E-02    0.817E-02
RMM:   8    -0.115313678836E+04   -0.28533E-04   -0.86504E-05  1818   0.127E-02
   9 F= -.11531368E+04 E0= -.11531368E+04  d E =-.375299E-01  mag=    20.0000
       N       E                     dE             d eps       ncg     rms          rms(c)
DAV:   1    -0.115314384888E+04   -0.70891E-02   -0.78110E+00  3232   0.322E+00    0.118E+00
RMM:   2    -0.115315993180E+04   -0.16083E-01   -0.21251E-01  3139   0.586E-01    0.851E-01
RMM:   3    -0.115315914515E+04    0.78664E-03   -0.12324E-02  3282   0.194E-01    0.424E-01
RMM:   4    -0.115315832878E+04    0.81637E-03   -0.45777E-03  3693   0.697E-02    0.232E-01
RMM:   5    -0.115315818890E+04    0.13987E-03   -0.84534E-04  3228   0.293E-02    0.110E-01
RMM:   6    -0.115315819397E+04   -0.50686E-05   -0.19926E-04  2000   0.145E-02    0.530E-02
RMM:   7    -0.115315818665E+04    0.73186E-05   -0.86330E-05  1835   0.119E-02    0.183E-02
RMM:   8    -0.115315818560E+04    0.10522E-05   -0.49064E-05  1786   0.907E-03
  10 F= -.11531582E+04 E0= -.11531582E+04  d E =-.213972E-01  mag=    20.0000
       N       E                     dE             d eps       ncg     rms          rms(c)
DAV:   1    -0.115313976253E+04    0.18424E-01   -0.15925E+01  3168   0.460E+00    0.168E+00
RMM:   2    -0.115317299457E+04   -0.33232E-01   -0.43167E-01  3138   0.835E-01    0.121E+00
RMM:   3    -0.115317148483E+04    0.15097E-02   -0.24866E-02  3290   0.274E-01    0.599E-01
RMM:   4    -0.115316984753E+04    0.16373E-02   -0.90142E-03  3651   0.983E-02    0.328E-01
RMM:   5    -0.115316956800E+04    0.27953E-03   -0.17020E-03  3764   0.415E-02    0.154E-01
RMM:   6    -0.115316959349E+04   -0.25494E-04   -0.41876E-04  2496   0.189E-02    0.749E-02
RMM:   7    -0.115316959065E+04    0.28414E-05   -0.18455E-04  1994   0.145E-02    0.282E-02
RMM:   8    -0.115316959015E+04    0.50286E-06   -0.87305E-05  1862   0.116E-02
  11 F= -.11531696E+04 E0= -.11531696E+04  d E =-.328018E-01  mag=    20.0000
       N       E                     dE             d eps       ncg     rms          rms(c)
DAV:   1    -0.115317383807E+04   -0.42474E-02   -0.28244E+00  3152   0.193E+00    0.650E-01
RMM:   2    -0.115317976231E+04   -0.59242E-02   -0.66482E-02  3124   0.334E-01    0.397E-01
RMM:   3    -0.115317967815E+04    0.84161E-04   -0.37481E-03  3252   0.105E-01    0.224E-01
RMM:   4    -0.115317915192E+04    0.52622E-03   -0.14912E-03  3289   0.428E-02    0.837E-02
RMM:   5    -0.115317912454E+04    0.27381E-04   -0.18627E-04  2079   0.205E-02    0.667E-02
RMM:   6    -0.115317913170E+04   -0.71540E-05   -0.62782E-05  1808   0.106E-02    0.214E-02
RMM:   7    -0.115317913615E+04   -0.44553E-05   -0.34041E-05  1771   0.838E-03    0.132E-02
RMM:   8    -0.115317914052E+04   -0.43656E-05   -0.25440E-05  1704   0.547E-03
  12 F= -.11531791E+04 E0= -.11531791E+04  d E =-.955037E-02  mag=    20.0000
       N       E                     dE             d eps       ncg     rms          rms(c)
DAV:   1    -0.115316803205E+04    0.11104E-01   -0.91132E+00  3072   0.347E+00    0.117E+00
RMM:   2    -0.115318702622E+04   -0.18994E-01   -0.21328E-01  3113   0.600E-01    0.714E-01
RMM:   3    -0.115318682471E+04    0.20151E-03   -0.12095E-02  3236   0.190E-01    0.402E-01
RMM:   4    -0.115318514478E+04    0.16799E-02   -0.48176E-03  3389   0.765E-02    0.147E-01
RMM:   5    -0.115318506532E+04    0.79462E-04   -0.65107E-04  2924   0.319E-02    0.106E-01
RMM:   6    -0.115318508017E+04   -0.14852E-04   -0.15746E-04  2000   0.133E-02    0.371E-02
RMM:   7    -0.115318508823E+04   -0.80560E-05   -0.58711E-05  1852   0.102E-02    0.211E-02
RMM:   8    -0.115318509751E+04   -0.92832E-05   -0.48195E-05  1817   0.759E-03
  13 F= -.11531851E+04 E0= -.11531851E+04  d E =-.155074E-01  mag=    20.0000
       N       E                     dE             d eps       ncg     rms          rms(c)
DAV:   1    -0.115318466126E+04    0.42697E-03   -0.44613E+00  3104   0.243E+00    0.580E-01
RMM:   2    -0.115319258393E+04   -0.79227E-02   -0.11445E-01  3139   0.427E-01    0.392E-01
RMM:   3    -0.115319186669E+04    0.71724E-03   -0.60612E-03  3267   0.138E-01    0.244E-01
RMM:   4    -0.115319148578E+04    0.38091E-03   -0.19510E-03  3629   0.474E-02    0.136E-01
RMM:   5    -0.115319137581E+04    0.10998E-03   -0.47731E-04  2813   0.240E-02    0.561E-02
RMM:   6    -0.115319138268E+04   -0.68757E-05   -0.10426E-04  1855   0.131E-02    0.605E-02
RMM:   7    -0.115319139016E+04   -0.74769E-05   -0.47424E-05  1789   0.919E-03    0.242E-02
RMM:   8    -0.115319140020E+04   -0.10040E-04   -0.31922E-05  1758   0.751E-03
  14 F= -.11531914E+04 E0= -.11531914E+04  d E =-.630269E-02  mag=    20.0000
       N       E                     dE             d eps       ncg     rms          rms(c)
DAV:   1    -0.115319064816E+04    0.74200E-03   -0.10419E+00  3152   0.118E+00    0.280E-01
RMM:   2    -0.115319253710E+04   -0.18889E-02   -0.26945E-02  3160   0.207E-01    0.190E-01
RMM:   3    -0.115319236484E+04    0.17227E-03   -0.14112E-03  3114   0.654E-02    0.118E-01
RMM:   4    -0.115319227510E+04    0.89735E-04   -0.42160E-04  2501   0.234E-02    0.654E-02
RMM:   5    -0.115319225247E+04    0.22632E-04   -0.10427E-04  1815   0.150E-02    0.230E-02
RMM:   6    -0.115319225802E+04   -0.55528E-05   -0.38537E-05  1767   0.964E-03    0.342E-02
RMM:   7    -0.115319226082E+04   -0.28000E-05   -0.20604E-05  1733   0.657E-03    0.124E-02
RMM:   8    -0.115319226556E+04   -0.47394E-05   -0.12763E-05  1662   0.513E-03
  15 F= -.11531923E+04 E0= -.11531923E+04  d E =-.716805E-02  mag=    20.0000
       N       E                     dE             d eps       ncg     rms          rms(c)
DAV:   1    -0.115319074740E+04    0.15134E-02   -0.56504E+00  3072   0.272E+00    0.737E-01
RMM:   2    -0.115320102209E+04   -0.10275E-01   -0.14073E-01  3094   0.467E-01    0.536E-01
RMM:   3    -0.115320033712E+04    0.68497E-03   -0.72593E-03  3182   0.157E-01    0.309E-01
RMM:   4    -0.115319986881E+04    0.46831E-03   -0.21325E-03  3543   0.495E-02    0.159E-01
RMM:   5    -0.115319977905E+04    0.89765E-04   -0.50576E-04  2675   0.243E-02    0.647E-02
RMM:   6    -0.115319977702E+04    0.20310E-05   -0.11025E-04  1850   0.132E-02    0.461E-02
RMM:   7    -0.115319977953E+04   -0.25125E-05   -0.53822E-05  1790   0.940E-03    0.231E-02
RMM:   8    -0.115319977621E+04    0.33233E-05   -0.35209E-05  1767   0.781E-03
  16 F= -.11531998E+04 E0= -.11531998E+04  d E =-.751065E-02  mag=    20.0000
       N       E                     dE             d eps       ncg     rms          rms(c)
DAV:   1    -0.115319603333E+04    0.37462E-02   -0.35208E+00  3088   0.214E+00    0.576E-01
RMM:   2    -0.115320248082E+04   -0.64475E-02   -0.88057E-02  3102   0.369E-01    0.417E-01
RMM:   3    -0.115320203935E+04    0.44146E-03   -0.44830E-03  3167   0.122E-01    0.240E-01
RMM:   4    -0.115320175090E+04    0.28845E-03   -0.13159E-03  3390   0.395E-02    0.123E-01
RMM:   5    -0.115320169438E+04    0.56521E-04   -0.31887E-04  2289   0.214E-02    0.530E-02
RMM:   6    -0.115320169526E+04   -0.88572E-06   -0.78272E-05  1817   0.126E-02    0.422E-02
RMM:   7    -0.115320169723E+04   -0.19644E-05   -0.44181E-05  1780   0.862E-03    0.190E-02
RMM:   8    -0.115320169429E+04    0.29327E-05   -0.26924E-05  1754   0.768E-03
  17 F= -.11532017E+04 E0= -.11532017E+04  d E =-.942873E-02  mag=    20.0000
       N       E                     dE             d eps       ncg     rms          rms(c)
DAV:   1    -0.115319053414E+04    0.11163E-01   -0.68383E+00  3072   0.296E+00    0.929E-01
RMM:   2    -0.115320676813E+04   -0.16234E-01   -0.17020E-01  3128   0.517E-01    0.624E-01
RMM:   3    -0.115320668465E+04    0.83478E-04   -0.86747E-03  3307   0.161E-01    0.340E-01
RMM:   4    -0.115320595906E+04    0.72560E-03   -0.31719E-03  3520   0.612E-02    0.165E-01
RMM:   5    -0.115320590119E+04    0.57865E-04   -0.55709E-04  2805   0.285E-02    0.145E-01
RMM:   6    -0.115320591879E+04   -0.17602E-04   -0.14824E-04  1951   0.130E-02    0.489E-02
RMM:   7    -0.115320593185E+04   -0.13057E-04   -0.67729E-05  1819   0.102E-02    0.293E-02
RMM:   8    -0.115320594405E+04   -0.12197E-04   -0.45359E-05  1781   0.779E-03
  18 F= -.11532059E+04 E0= -.11532059E+04  d E =-.424975E-02  mag=    20.0000
       N       E                     dE             d eps       ncg     rms          rms(c)
DAV:   1    -0.115320593902E+04   -0.71681E-05   -0.56778E-03  3472   0.861E-02    0.284E-02
RMM:   2    -0.115320595127E+04   -0.12250E-04   -0.13081E-04  1782   0.165E-02    0.228E-02
RMM:   3    -0.115320595344E+04   -0.21663E-05   -0.18495E-05  1665   0.779E-03    0.118E-02
RMM:   4    -0.115320595355E+04   -0.11953E-06   -0.74228E-06  1340   0.399E-03    0.109E-02
RMM:   5    -0.115320595374E+04   -0.18753E-06   -0.37969E-06  1131   0.331E-03    0.457E-03
RMM:   6    -0.115320595403E+04   -0.29222E-06   -0.20524E-06   754   0.235E-03    0.155E-03
RMM:   7    -0.115320595420E+04   -0.16915E-06   -0.12261E-06   644   0.229E-03    0.146E-03
RMM:   8    -0.115320595433E+04   -0.12922E-06   -0.80144E-07   521   0.201E-03
  19 F= -.11532060E+04 E0= -.11532060E+04  d E =-.426004E-02  mag=    20.0000
       N       E                     dE             d eps       ncg     rms          rms(c)
DAV:   1    -0.115320462466E+04    0.13295E-02   -0.20202E+00  3104   0.162E+00    0.345E-01
RMM:   2    -0.115320871727E+04   -0.40926E-02   -0.49744E-02  3084   0.278E-01    0.258E-01
RMM:   3    -0.115320855251E+04    0.16477E-03   -0.24943E-03  3095   0.899E-02    0.164E-01
RMM:   4    -0.115320841654E+04    0.13597E-03   -0.75496E-04  3067   0.303E-02    0.950E-02
RMM:   5    -0.115320837631E+04    0.40230E-04   -0.19200E-04  2143   0.184E-02    0.751E-02
RMM:   6    -0.115320838240E+04   -0.60872E-05   -0.49267E-05  1770   0.108E-02    0.232E-02
RMM:   7    -0.115320838714E+04   -0.47426E-05   -0.26561E-05  1736   0.677E-03    0.137E-02
RMM:   8    -0.115320839131E+04   -0.41720E-05   -0.16919E-05  1676   0.626E-03
  20 F= -.11532084E+04 E0= -.11532084E+04  d E =-.243698E-02  mag=    20.0000
       N       E                     dE             d eps       ncg     rms          rms(c)
DAV:   1    -0.115320805927E+04    0.32787E-03   -0.28286E-01  3104   0.605E-01    0.129E-01
RMM:   2    -0.115320865191E+04   -0.59264E-03   -0.71229E-03  3107   0.106E-01    0.972E-02
RMM:   3    -0.115320862374E+04    0.28165E-04   -0.33158E-04  2169   0.330E-02    0.641E-02
RMM:   4    -0.115320860619E+04    0.17549E-04   -0.96665E-05  1771   0.127E-02    0.352E-02
RMM:   5    -0.115320860433E+04    0.18638E-05   -0.38760E-05  1740   0.881E-03    0.305E-02
RMM:   6    -0.115320860609E+04   -0.17548E-05   -0.15654E-05  1647   0.593E-03    0.132E-02
RMM:   7    -0.115320860753E+04   -0.14442E-05   -0.83198E-06  1396   0.388E-03    0.567E-03
RMM:   8    -0.115320860881E+04   -0.12777E-05   -0.52705E-06  1265   0.346E-03
  21 F= -.11532086E+04 E0= -.11532086E+04  d E =-.265447E-02  mag=    20.0000
       N       E                     dE             d eps       ncg     rms          rms(c)
DAV:   1    -0.115320796460E+04    0.64293E-03   -0.15260E+00  3088   0.141E+00    0.396E-01
RMM:   2    -0.115321066462E+04   -0.27000E-02   -0.37969E-02  3117   0.242E-01    0.253E-01
RMM:   3    -0.115321045491E+04    0.20971E-03   -0.19854E-03  3143   0.787E-02    0.149E-01
RMM:   4    -0.115321032470E+04    0.13021E-03   -0.67476E-04  3073   0.289E-02    0.821E-02
RMM:   5    -0.115321029361E+04    0.31094E-04   -0.13363E-04  1890   0.171E-02    0.833E-02
RMM:   6    -0.115321029455E+04   -0.93950E-06   -0.45905E-05  1754   0.987E-03    0.237E-02
RMM:   7    -0.115321029434E+04    0.21033E-06   -0.24621E-05  1726   0.701E-03    0.160E-02
RMM:   8    -0.115321029339E+04    0.94097E-06   -0.16690E-05  1657   0.551E-03
  22 F= -.11532103E+04 E0= -.11532103E+04  d E =-.168459E-02  mag=    20.0000
       N       E                     dE             d eps       ncg     rms          rms(c)
DAV:   1    -0.115321010782E+04    0.18652E-03   -0.25906E-01  3104   0.583E-01    0.163E-01
RMM:   2    -0.115321058340E+04   -0.47558E-03   -0.66183E-03  3184   0.101E-01    0.105E-01
RMM:   3    -0.115321054128E+04    0.42128E-04   -0.30349E-04  2241   0.312E-02    0.627E-02
RMM:   4    -0.115321051941E+04    0.21867E-04   -0.99037E-05  1759   0.131E-02    0.336E-02
RMM:   5    -0.115321051462E+04    0.47920E-05   -0.34150E-05  1737   0.874E-03    0.275E-02
RMM:   6    -0.115321051512E+04   -0.50521E-06   -0.15101E-05  1684   0.573E-03    0.151E-02
RMM:   7    -0.115321051485E+04    0.26781E-06   -0.78505E-06  1440   0.402E-03    0.619E-03
RMM:   8    -0.115321051420E+04    0.65143E-06   -0.50518E-06  1263   0.329E-03
  23 F= -.11532105E+04 E0= -.11532105E+04  d E =-.190540E-02  mag=    20.0000
       N       E                     dE             d eps       ncg     rms          rms(c)
DAV:   1    -0.115320868196E+04    0.18329E-02   -0.10360E+00  3072   0.117E+00    0.326E-01
RMM:   2    -0.115321052030E+04   -0.18383E-02   -0.25850E-02  3125   0.199E-01    0.209E-01
RMM:   3    -0.115321037588E+04    0.14442E-03   -0.13364E-03  3042   0.640E-02    0.122E-01
RMM:   4    -0.115321028552E+04    0.90361E-04   -0.43265E-04  2431   0.237E-02    0.670E-02
RMM:   5    -0.115321026511E+04    0.20402E-04   -0.99806E-05  1828   0.156E-02    0.716E-02
RMM:   6    -0.115321026585E+04   -0.73139E-06   -0.36273E-05  1746   0.919E-03    0.204E-02
RMM:   7    -0.115321026547E+04    0.37368E-06   -0.18888E-05  1708   0.626E-03    0.135E-02
RMM:   8    -0.115321026461E+04    0.85906E-06   -0.13020E-05  1631   0.497E-03
  24 F= -.11532103E+04 E0= -.11532103E+04  d E =-.165580E-02  mag=    20.0000
       N       E                     dE             d eps       ncg     rms          rms(c)
DAV:   1    -0.115320954498E+04    0.72049E-03   -0.65108E-01  3088   0.924E-01    0.260E-01
RMM:   2    -0.115321067602E+04   -0.11310E-02   -0.16067E-02  3107   0.158E-01    0.166E-01
RMM:   3    -0.115321058116E+04    0.94859E-04   -0.80045E-04  2822   0.523E-02    0.966E-02
RMM:   4    -0.115321052449E+04    0.56674E-04   -0.24311E-04  1903   0.194E-02    0.589E-02
RMM:   5    -0.115321051807E+04    0.64193E-05   -0.58373E-05  1659   0.126E-02    0.660E-02
RMM:   6    -0.115321052093E+04   -0.28568E-05   -0.23416E-05  1623   0.724E-03    0.147E-02
RMM:   7    -0.115321052392E+04   -0.29960E-05   -0.98944E-06  1500   0.479E-03    0.114E-02
RMM:   8    -0.115321052610E+04   -0.21834E-05   -0.60515E-06  1243   0.351E-03
  25 F= -.11532105E+04 E0= -.11532105E+04  d E =-.191730E-02  mag=    20.0000
       N       E                     dE             d eps       ncg     rms          rms(c)
DAV:   1    -0.115321073610E+04   -0.21218E-03   -0.35629E-01  3120   0.669E-01    0.180E-01
RMM:   2    -0.115321137717E+04   -0.64107E-03   -0.93184E-03  3081   0.120E-01    0.140E-01
RMM:   3    -0.115321130379E+04    0.73382E-04   -0.44433E-04  2472   0.395E-02    0.815E-02
RMM:   4    -0.115321126667E+04    0.37121E-04   -0.16149E-04  1800   0.160E-02    0.675E-02
RMM:   5    -0.115321126359E+04    0.30777E-05   -0.35864E-05  1726   0.937E-03    0.345E-02
RMM:   6    -0.115321126551E+04   -0.19182E-05   -0.18014E-05  1638   0.562E-03    0.133E-02
RMM:   7    -0.115321126880E+04   -0.32855E-05   -0.75468E-06  1459   0.414E-03    0.768E-03
RMM:   8    -0.115321127183E+04   -0.30313E-05   -0.46437E-06  1182   0.302E-03
  26 F= -.11532113E+04 E0= -.11532113E+04  d E =-.745723E-03  mag=    20.0000
