<?xml version="1.0" encoding="ISO-8859-1"?>
<modeling>
 <generator>
  <i name="program" type="string">vasp </i>
  <i name="version" type="string">5.4.1  </i>
  <i name="subversion" type="string">05Feb16 (build Jan 25 2017 20:16:33) complex                          parallel </i>
  <i name="platform" type="string">BWXE6 </i>
  <i name="date" type="string">2019 08 10 </i>
  <i name="time" type="string">22:54:12 </i>
 </generator>
 <incar>
  <i type="string" name="SYSTEM"> STF</i>
  <i type="string" name="PREC">normal</i>
  <i type="string" name="ALGO"> Fast</i>
  <i type="int" name="ISPIN">     2</i>
  <i type="int" name="NELM">    40</i>
  <i type="int" name="NELMIN">     8</i>
  <i type="int" name="IBRION">     2</i>
  <i name="EDIFF">      0.00010000</i>
  <i name="EDIFFG">     -0.03000000</i>
  <i type="int" name="NSW">    30</i>
  <i type="int" name="ISIF">     3</i>
  <i name="ENCUT">    520.00000000</i>
  <i type="int" name="NBANDS">   768</i>
  <v name="MAGMOM">      0.60000000      0.60000000      0.60000000      0.60000000      0.60000000      0.60000000      0.60000000      0.60000000      0.60000000      0.60000000      0.60000000      0.60000000      0.60000000      0.60000000      0.60000000      0.60000000      0.60000000      0.60000000      0.60000000      0.60000000
      0.60000000      0.60000000      0.60000000      0.60000000      0.60000000      0.60000000      0.60000000      0.60000000      0.60000000      0.60000000      0.60000000      0.60000000      0.60000000      0.60000000      0.60000000      0.60000000      0.60000000      0.60000000      0.60000000      0.60000000
      0.60000000      0.60000000      0.60000000      0.60000000      0.60000000      0.60000000      0.60000000      0.60000000      0.60000000      0.60000000      0.60000000      0.60000000      0.60000000      0.60000000      0.60000000      0.60000000      0.60000000      0.60000000      0.60000000      0.60000000
      5.00000000      5.00000000      5.00000000      5.00000000      0.60000000      0.60000000      0.60000000      0.60000000      0.60000000      0.60000000      0.60000000      0.60000000      0.60000000      0.60000000      0.60000000      0.60000000      0.60000000      0.60000000      0.60000000      0.60000000
      0.60000000      0.60000000      0.60000000      0.60000000      0.60000000      0.60000000      0.60000000      0.60000000      0.60000000      0.60000000      0.60000000      0.60000000      0.60000000      0.60000000      0.60000000      0.60000000      0.60000000      0.60000000      0.60000000      0.60000000
      0.60000000      0.60000000      0.60000000      0.60000000      0.60000000      0.60000000      0.60000000      0.60000000      0.60000000      0.60000000      0.60000000      0.60000000      0.60000000      0.60000000      0.60000000      0.60000000      0.60000000      0.60000000      0.60000000      0.60000000
      0.60000000      0.60000000      0.60000000      0.60000000      0.60000000      0.60000000      0.60000000      0.60000000      0.60000000      0.60000000      0.60000000      0.60000000      0.60000000      0.60000000      0.60000000      0.60000000      0.60000000      0.60000000      0.60000000      0.60000000
      0.60000000      0.60000000      0.60000000      0.60000000      0.60000000      0.60000000      0.60000000      0.60000000      0.60000000      0.60000000      0.60000000      0.60000000      0.60000000      0.60000000      0.60000000      0.60000000      0.60000000      0.60000000</v>
  <i type="string" name="LREAL"> Auto</i>
  <i type="int" name="ISMEAR">     0</i>
  <i name="SIGMA">      0.05000000</i>
  <i type="int" name="LMAXMIX">     4</i>
  <v type="int" name="KPOINT_BSE">    -1     0     0     0</v>
  <i type="int" name="NELM">    40</i>
  <i type="logical" name="LDAU"> T  </i>
  <v type="int" name="LDAUTYPE">     2</v>
  <v type="int" name="LDAUL">     0     2     2     0</v>
  <v name="LDAUU">      0.00000000      3.00000000      5.00000000      0.00000000</v>
  <v name="LDAUJ">      0.00000000      0.00000000      0.00000000      0.00000000</v>
  <i type="int" name="LDAUPRINT">     1</i>
 </incar>
 <kpoints>
  <generation param="Monkhorst-Pack">
   <v type="int" name="divisions">       2        2        2 </v>
   <v name="usershift">      0.00000000       0.00000000       0.00000000 </v>
   <v name="genvec1">      0.50000000       0.00000000       0.00000000 </v>
   <v name="genvec2">      0.00000000       0.50000000       0.00000000 </v>
   <v name="genvec3">      0.00000000       0.00000000       0.50000000 </v>
   <v name="shift">      0.50000000       0.50000000       0.50000000 </v>
  </generation>
  <varray name="kpointlist" >
   <v>       0.25000000       0.25000000       0.25000000 </v>
  </varray>
  <varray name="weights" >
   <v>       1.00000000 </v>
  </varray>
 </kpoints>
 <parameters>
  <separator name="general" >
   <i type="string" name="SYSTEM">STF</i>
   <i type="logical" name="LCOMPAT"> F  </i>
  </separator>
  <separator name="electronic" >
   <i type="string" name="PREC">normal</i>
   <i name="ENMAX">    520.00000000</i>
   <i name="ENAUG">    605.39200000</i>
   <i name="EDIFF">      0.00010000</i>
   <i type="int" name="IALGO">    68</i>
   <i type="int" name="IWAVPR">    11</i>
   <i type="int" name="NBANDS">   768</i>
   <i name="NELECT">   1028.00000000</i>
   <i type="int" name="TURBO">     0</i>
   <i type="int" name="IRESTART">     0</i>
   <i type="int" name="NREBOOT">     0</i>
   <i type="int" name="NMIN">     0</i>
   <i name="EREF">      0.00000000</i>
   <separator name="electronic smearing" >
    <i type="int" name="ISMEAR">     0</i>
    <i name="SIGMA">      0.05000000</i>
    <i name="KSPACING">      0.50000000</i>
    <i type="logical" name="KGAMMA"> T  </i>
   </separator>
   <separator name="electronic projectors" >
    <i type="logical" name="LREAL"> T  </i>
    <v name="ROPT">     -0.00050000     -0.00050000     -0.00050000     -0.00050000</v>
    <i type="int" name="LMAXPAW">  -100</i>
    <i type="int" name="LMAXMIX">     4</i>
    <i type="logical" name="NLSPLINE"> F  </i>
   </separator>
   <separator name="electronic startup" >
    <i type="int" name="ISTART">     0</i>
    <i type="int" name="ICHARG">     2</i>
    <i type="int" name="INIWAV">     1</i>
   </separator>
   <separator name="electronic spin" >
    <i type="int" name="ISPIN">     2</i>
    <i type="logical" name="LNONCOLLINEAR"> F  </i>
    <v name="MAGMOM">      0.60000000      0.60000000      0.60000000      0.60000000      0.60000000      0.60000000      0.60000000      0.60000000      0.60000000      0.60000000      0.60000000      0.60000000      0.60000000      0.60000000      0.60000000      0.60000000      0.60000000      0.60000000      0.60000000      0.60000000
      0.60000000      0.60000000      0.60000000      0.60000000      0.60000000      0.60000000      0.60000000      0.60000000      0.60000000      0.60000000      0.60000000      0.60000000      0.60000000      0.60000000      0.60000000      0.60000000      0.60000000      0.60000000      0.60000000      0.60000000
      0.60000000      0.60000000      0.60000000      0.60000000      0.60000000      0.60000000      0.60000000      0.60000000      0.60000000      0.60000000      0.60000000      0.60000000      0.60000000      0.60000000      0.60000000      0.60000000      0.60000000      0.60000000      0.60000000      0.60000000
      5.00000000      5.00000000      5.00000000      5.00000000      0.60000000      0.60000000      0.60000000      0.60000000      0.60000000      0.60000000      0.60000000      0.60000000      0.60000000      0.60000000      0.60000000      0.60000000      0.60000000      0.60000000      0.60000000      0.60000000
      0.60000000      0.60000000      0.60000000      0.60000000      0.60000000      0.60000000      0.60000000      0.60000000      0.60000000      0.60000000      0.60000000      0.60000000      0.60000000      0.60000000      0.60000000      0.60000000      0.60000000      0.60000000      0.60000000      0.60000000
      0.60000000      0.60000000      0.60000000      0.60000000      0.60000000      0.60000000      0.60000000      0.60000000      0.60000000      0.60000000      0.60000000      0.60000000      0.60000000      0.60000000      0.60000000      0.60000000      0.60000000      0.60000000      0.60000000      0.60000000
      0.60000000      0.60000000      0.60000000      0.60000000      0.60000000      0.60000000      0.60000000      0.60000000      0.60000000      0.60000000      0.60000000      0.60000000      0.60000000      0.60000000      0.60000000      0.60000000      0.60000000      0.60000000      0.60000000      0.60000000
      0.60000000      0.60000000      0.60000000      0.60000000      0.60000000      0.60000000      0.60000000      0.60000000      0.60000000      0.60000000      0.60000000      0.60000000      0.60000000      0.60000000      0.60000000      0.60000000      0.60000000      0.60000000</v>
    <i name="NUPDOWN">     -1.00000000</i>
    <i type="logical" name="LSORBIT"> F  </i>
    <v name="SAXIS">      0.00000000      0.00000000      1.00000000</v>
    <i type="logical" name="LSPIRAL"> F  </i>
    <v name="QSPIRAL">      0.00000000      0.00000000      0.00000000</v>
    <i type="logical" name="LZEROZ"> F  </i>
   </separator>
   <separator name="electronic exchange-correlation" >
    <i type="logical" name="LASPH"> F  </i>
    <i type="logical" name="LMETAGGA"> F  </i>
   </separator>
   <separator name="electronic convergence" >
    <i type="int" name="NELM">    40</i>
    <i type="int" name="NELMDL">    -5</i>
    <i type="int" name="NELMIN">     8</i>
    <i name="ENINI">    520.00000000</i>
    <separator name="electronic convergence detail" >
     <i type="logical" name="LDIAG"> T  </i>
     <i type="logical" name="LSUBROT"> F  </i>
     <i name="WEIMIN">      0.00100000</i>
     <i name="EBREAK">      0.00000003</i>
     <i name="DEPER">      0.30000000</i>
     <i type="int" name="NRMM">     4</i>
     <i name="TIME">      0.40000000</i>
    </separator>
   </separator>
   <separator name="electronic mixer" >
    <i name="AMIX">      0.40000000</i>
    <i name="BMIX">      1.00000000</i>
    <i name="AMIN">      0.10000000</i>
    <i name="AMIX_MAG">      1.60000000</i>
    <i name="BMIX_MAG">      1.00000000</i>
    <separator name="electronic mixer details" >
     <i type="int" name="IMIX">     4</i>
     <i type="logical" name="MIXFIRST"> F  </i>
     <i type="int" name="MAXMIX">   -45</i>
     <i name="WC">    100.00000000</i>
     <i type="int" name="INIMIX">     1</i>
     <i type="int" name="MIXPRE">     1</i>
     <i type="int" name="MREMOVE">     5</i>
    </separator>
   </separator>
   <separator name="electronic dipolcorrection" >
    <i type="logical" name="LDIPOL"> F  </i>
    <i type="logical" name="LMONO"> F  </i>
    <i type="int" name="IDIPOL">     0</i>
    <i name="EPSILON">      1.00000000</i>
    <v name="DIPOL">   -100.00000000   -100.00000000   -100.00000000</v>
    <i name="EFIELD">      0.00000000</i>
   </separator>
  </separator>
  <separator name="grids" >
   <i type="int" name="NGX">    64</i>
   <i type="int" name="NGY">    64</i>
   <i type="int" name="NGZ">    90</i>
   <i type="int" name="NGXF">   128</i>
   <i type="int" name="NGYF">   128</i>
   <i type="int" name="NGZF">   180</i>
   <i type="logical" name="ADDGRID"> F  </i>
  </separator>
  <separator name="ionic" >
   <i type="int" name="NSW">    30</i>
   <i type="int" name="IBRION">     2</i>
   <i type="int" name="ISIF">     3</i>
   <i name="PSTRESS">      0.00000000</i>
   <i name="EDIFFG">     -0.03000000</i>
   <i type="int" name="NFREE">     1</i>
   <i name="POTIM">      0.50000000</i>
   <i name="SMASS">     -3.00000000</i>
   <i name="SCALEE">      1.00000000</i>
  </separator>
  <separator name="ionic md" >
   <i name="TEBEG">      0.00010000</i>
   <i name="TEEND">      0.00010000</i>
   <i type="int" name="NBLOCK">     1</i>
   <i type="int" name="KBLOCK">    30</i>
   <i type="int" name="NPACO">   256</i>
   <i name="APACO">     16.00000000</i>
  </separator>
  <separator name="symmetry" >
   <i type="int" name="ISYM">     2</i>
   <i name="SYMPREC">      0.00001000</i>
  </separator>
  <separator name="dos" >
   <i type="logical" name="LORBIT"> F  </i>
   <v name="RWIGS">     -1.00000000     -1.00000000     -1.00000000     -1.00000000</v>
   <i type="int" name="NEDOS">   301</i>
   <i name="EMIN">     10.00000000</i>
   <i name="EMAX">    -10.00000000</i>
   <i name="EFERMI">      0.00000000</i>
  </separator>
  <separator name="writing" >
   <i type="int" name="NWRITE">     2</i>
   <i type="logical" name="LWAVE"> T  </i>
   <i type="logical" name="LCHARG"> T  </i>
   <i type="logical" name="LPARD"> F  </i>
   <i type="logical" name="LVTOT"> F  </i>
   <i type="logical" name="LVHAR"> F  </i>
   <i type="logical" name="LELF"> F  </i>
   <i type="logical" name="LOPTICS"> F  </i>
   <v name="STM">      0.00000000      0.00000000      0.00000000      0.00000000      0.00000000      0.00000000      0.00000000</v>
  </separator>
  <separator name="performance" >
   <i type="int" name="NPAR">     2</i>
   <i type="int" name="NSIM">     4</i>
   <i type="int" name="NBLK">    -1</i>
   <i type="logical" name="LPLANE"> T  </i>
   <i type="logical" name="LSCALAPACK"> T  </i>
   <i type="logical" name="LSCAAWARE"> F  </i>
   <i type="logical" name="LSCALU"> F  </i>
   <i type="logical" name="LASYNC"> F  </i>
   <i type="logical" name="LORBITALREAL"> F  </i>
  </separator>
  <separator name="miscellaneous" >
   <i type="int" name="IDIOT">     3</i>
   <i type="logical" name="LMUSIC"> F  </i>
   <v name="POMASS">     87.62000000     47.88000000     55.84700000     16.00000000</v>
   <v name="DARWINR">      0.00000000      0.00000000      0.00000000      0.00000000</v>
   <v name="DARWINV">      1.00000000      1.00000000      1.00000000      1.00000000</v>
   <i type="logical" name="LCORR"> T  </i>
  </separator>
  <i type="logical" name="GGA_COMPAT"> T  </i>
  <i type="logical" name="LBERRY"> F  </i>
  <i type="int" name="ICORELEVEL">     0</i>
  <i type="logical" name="LDAU"> T  </i>
  <v type="int" name="LDAUTYPE">     2</v>
  <v type="int" name="LDAUL">     0</v>
  <v name="LDAUU">      0.00000000</v>
  <v name="LDAUJ">      0.00000000</v>
  <i type="int" name="LDAUPRINT">     1</i>
  <i type="int" name="I_CONSTRAINED_M">     0</i>
  <separator name="electronic exchange-correlation" >
   <i type="string" name="GGA">--</i>
   <i type="int" name="VOSKOWN">     0</i>
   <i type="logical" name="LHFCALC"> F  </i>
   <i type="string" name="PRECFOCK"></i>
   <i type="logical" name="LSYMGRAD"> F  </i>
   <i type="logical" name="LHFONE"> F  </i>
   <i type="logical" name="LRHFCALC"> F  </i>
   <i type="logical" name="LTHOMAS"> F  </i>
   <i type="logical" name="LMODELHF"> F  </i>
   <i name="ENCUT4O">     -1.00000000</i>
   <i type="int" name="EXXOEP">     0</i>
   <i type="int" name="FOURORBIT">     0</i>
   <i name="AEXX">      0.00000000</i>
   <i name="HFALPHA">      0.00000000</i>
   <i name="MCALPHA">      0.00000000</i>
   <i name="ALDAX">      1.00000000</i>
   <i name="AGGAX">      1.00000000</i>
   <i name="ALDAC">      1.00000000</i>
   <i name="AGGAC">      1.00000000</i>
   <i type="int" name="NKREDX">     1</i>
   <i type="int" name="NKREDY">     1</i>
   <i type="int" name="NKREDZ">     1</i>
   <i type="logical" name="SHIFTRED"> F  </i>
   <i type="logical" name="ODDONLY"> F  </i>
   <i type="logical" name="EVENONLY"> F  </i>
   <i type="int" name="LMAXFOCK">     0</i>
   <i type="int" name="NMAXFOCKAE">     0</i>
   <i type="logical" name="LFOCKAEDFT"> F  </i>
   <i name="HFSCREEN">      0.00000000</i>
   <i name="HFSCREENC">      0.00000000</i>
   <i type="int" name="NBANDSGWLOW">     0</i>
  </separator>
  <separator name="vdW DFT" >
   <i type="logical" name="LUSE_VDW"> F  </i>
   <i name="Zab_VDW">     -0.84910000</i>
   <i name="PARAM1">      0.12340000</i>
   <i name="PARAM2">      1.00000000</i>
   <i name="PARAM3">      0.00000000</i>
  </separator>
  <separator name="model GW" >
   <i type="int" name="MODEL_GW">     0</i>
   <i name="MODEL_EPS0">      7.61221335</i>
   <i name="MODEL_ALPHA">      1.00000000</i>
  </separator>
  <separator name="linear response parameters" >
   <i type="logical" name="LEPSILON"> F  </i>
   <i type="logical" name="LRPA"> F  </i>
   <i type="logical" name="LNABLA"> F  </i>
   <i type="logical" name="LVEL"> F  </i>
   <i type="int" name="KINTER">     0</i>
   <i name="CSHIFT">      0.10000000</i>
   <i name="OMEGAMAX">     -1.00000000</i>
   <i name="DEG_THRESHOLD">      0.00200000</i>
  </separator>
  <separator name="orbital magnetization" >
   <i type="logical" name="NUCIND"> F  </i>
   <v name="MAGPOS">      0.00000000      0.00000000      0.00000000</v>
   <i type="logical" name="LNICSALL"> T  </i>
   <i type="logical" name="ORBITALMAG"> F  </i>
   <i type="logical" name="LMAGBLOCH"> F  </i>
   <i type="logical" name="LCHIMAG"> F  </i>
   <i type="logical" name="LGAUGE"> T  </i>
   <i type="int" name="MAGATOM">     0</i>
   <v name="MAGDIPOL">      0.00000000      0.00000000      0.00000000</v>
   <v name="AVECCONST">      0.00000000      0.00000000      0.00000000</v>
  </separator>
  <separator name="response functions" >
   <i type="logical" name="LADDER"> F  </i>
   <i type="logical" name="LFXC"> F  </i>
   <i type="logical" name="LHARTREE"> T  </i>
   <i type="int" name="IBSE">     0</i>
   <v type="int" name="KPOINT">    -1     0     0     0</v>
   <i type="logical" name="LTCTE"> F  </i>
   <i type="logical" name="LTETE"> F  </i>
   <i type="logical" name="LTRIPLET"> F  </i>
   <i type="logical" name="LFXCEPS"> F  </i>
   <i type="logical" name="LFXHEG"> F  </i>
   <i type="int" name="NATURALO">     0</i>
   <i type="logical" name="L2ORDER"> F  </i>
   <i type="logical" name="LUSEW"> F  </i>
   <i name="ENCUTGW">     -2.00000000</i>
   <i name="ENCUTGWSOFT">     -2.00000000</i>
   <i name="ENCUTLF">     -1.00000000</i>
   <i type="int" name="LMAXMP2">    -1</i>
   <i name="SCISSOR">      0.00000000</i>
   <i type="int" name="NOMEGA">     0</i>
   <i type="int" name="NOMEGAR">     0</i>
   <i type="int" name="NBANDSGW">    -1</i>
   <i type="int" name="NBANDSO">    -1</i>
   <i type="int" name="NBANDSV">    -1</i>
   <i type="int" name="NELM">    40</i>
   <i type="int" name="NELMHF">     1</i>
   <i type="int" name="DIM">     3</i>
   <i type="int" name="ANTIRES">     0</i>
   <i name="OMEGAMAX">    -30.00000000</i>
   <i name="OMEGAMIN">    -30.00000000</i>
   <i name="OMEGATL">   -200.00000000</i>
   <i type="int" name="OMEGAGRID">     0</i>
   <i name="CSHIFT">     -0.10000000</i>
   <i type="logical" name="SELFENERGY"> F  </i>
   <i type="logical" name="LSPECTRAL"> F  </i>
   <i type="logical" name="LSPECTRALGW"> F  </i>
   <i type="logical" name="LSINGLES"> F  </i>
   <i type="logical" name="LFERMIGW"> F  </i>
   <i type="logical" name="ODDONLYGW"> F  </i>
   <i type="logical" name="EVENONLYGW"> F  </i>
   <i type="int" name="NKREDLFX">     1</i>
   <i type="int" name="NKREDLFY">     1</i>
   <i type="int" name="NKREDLFZ">     1</i>
   <i type="int" name="MAXMEM">  1800</i>
   <i type="int" name="TELESCOPE">     0</i>
   <i type="int" name="TAUPAR">     1</i>
   <i type="int" name="OMEGAPAR">    -1</i>
   <i name="LAMBDA">      1.00000000</i>
  </separator>
  <separator name="External order field" >
   <i name="OFIELD_KAPPA">      0.00000000</i>
   <v name="OFIELD_K">      0.00000000      0.00000000      0.00000000</v>
   <i name="OFIELD_Q6_NEAR">      0.00000000</i>
   <i name="OFIELD_Q6_FAR">      0.00000000</i>
   <i name="OFIELD_A">      0.00000000</i>
  </separator>
 </parameters>
 <atominfo>
  <atoms>     158 </atoms>
  <types>       4 </types>
  <array name="atoms" >
   <dimension dim="1">ion</dimension>
   <field type="string">element</field>
   <field type="int">atomtype</field>
   <set>
    <rc><c>Sr</c><c>   1</c></rc>
    <rc><c>Sr</c><c>   1</c></rc>
    <rc><c>Sr</c><c>   1</c></rc>
    <rc><c>Sr</c><c>   1</c></rc>
    <rc><c>Sr</c><c>   1</c></rc>
    <rc><c>Sr</c><c>   1</c></rc>
    <rc><c>Sr</c><c>   1</c></rc>
    <rc><c>Sr</c><c>   1</c></rc>
    <rc><c>Sr</c><c>   1</c></rc>
    <rc><c>Sr</c><c>   1</c></rc>
    <rc><c>Sr</c><c>   1</c></rc>
    <rc><c>Sr</c><c>   1</c></rc>
    <rc><c>Sr</c><c>   1</c></rc>
    <rc><c>Sr</c><c>   1</c></rc>
    <rc><c>Sr</c><c>   1</c></rc>
    <rc><c>Sr</c><c>   1</c></rc>
    <rc><c>Sr</c><c>   1</c></rc>
    <rc><c>Sr</c><c>   1</c></rc>
    <rc><c>Sr</c><c>   1</c></rc>
    <rc><c>Sr</c><c>   1</c></rc>
    <rc><c>Sr</c><c>   1</c></rc>
    <rc><c>Sr</c><c>   1</c></rc>
    <rc><c>Sr</c><c>   1</c></rc>
    <rc><c>Sr</c><c>   1</c></rc>
    <rc><c>Sr</c><c>   1</c></rc>
    <rc><c>Sr</c><c>   1</c></rc>
    <rc><c>Sr</c><c>   1</c></rc>
    <rc><c>Sr</c><c>   1</c></rc>
    <rc><c>Sr</c><c>   1</c></rc>
    <rc><c>Sr</c><c>   1</c></rc>
    <rc><c>Sr</c><c>   1</c></rc>
    <rc><c>Sr</c><c>   1</c></rc>
    <rc><c>Ti</c><c>   2</c></rc>
    <rc><c>Ti</c><c>   2</c></rc>
    <rc><c>Ti</c><c>   2</c></rc>
    <rc><c>Ti</c><c>   2</c></rc>
    <rc><c>Ti</c><c>   2</c></rc>
    <rc><c>Ti</c><c>   2</c></rc>
    <rc><c>Ti</c><c>   2</c></rc>
    <rc><c>Ti</c><c>   2</c></rc>
    <rc><c>Ti</c><c>   2</c></rc>
    <rc><c>Ti</c><c>   2</c></rc>
    <rc><c>Ti</c><c>   2</c></rc>
    <rc><c>Ti</c><c>   2</c></rc>
    <rc><c>Ti</c><c>   2</c></rc>
    <rc><c>Ti</c><c>   2</c></rc>
    <rc><c>Ti</c><c>   2</c></rc>
    <rc><c>Ti</c><c>   2</c></rc>
    <rc><c>Ti</c><c>   2</c></rc>
    <rc><c>Ti</c><c>   2</c></rc>
    <rc><c>Ti</c><c>   2</c></rc>
    <rc><c>Ti</c><c>   2</c></rc>
    <rc><c>Ti</c><c>   2</c></rc>
    <rc><c>Ti</c><c>   2</c></rc>
    <rc><c>Ti</c><c>   2</c></rc>
    <rc><c>Ti</c><c>   2</c></rc>
    <rc><c>Ti</c><c>   2</c></rc>
    <rc><c>Ti</c><c>   2</c></rc>
    <rc><c>Ti</c><c>   2</c></rc>
    <rc><c>Ti</c><c>   2</c></rc>
    <rc><c>Fe</c><c>   3</c></rc>
    <rc><c>Fe</c><c>   3</c></rc>
    <rc><c>Fe</c><c>   3</c></rc>
    <rc><c>Fe</c><c>   3</c></rc>
    <rc><c>O </c><c>   4</c></rc>
    <rc><c>O </c><c>   4</c></rc>
    <rc><c>O </c><c>   4</c></rc>
    <rc><c>O </c><c>   4</c></rc>
    <rc><c>O </c><c>   4</c></rc>
    <rc><c>O </c><c>   4</c></rc>
    <rc><c>O </c><c>   4</c></rc>
    <rc><c>O </c><c>   4</c></rc>
    <rc><c>O </c><c>   4</c></rc>
    <rc><c>O </c><c>   4</c></rc>
    <rc><c>O </c><c>   4</c></rc>
    <rc><c>O </c><c>   4</c></rc>
    <rc><c>O </c><c>   4</c></rc>
    <rc><c>O </c><c>   4</c></rc>
    <rc><c>O </c><c>   4</c></rc>
    <rc><c>O </c><c>   4</c></rc>
    <rc><c>O </c><c>   4</c></rc>
    <rc><c>O </c><c>   4</c></rc>
    <rc><c>O </c><c>   4</c></rc>
    <rc><c>O </c><c>   4</c></rc>
    <rc><c>O </c><c>   4</c></rc>
    <rc><c>O </c><c>   4</c></rc>
    <rc><c>O </c><c>   4</c></rc>
    <rc><c>O </c><c>   4</c></rc>
    <rc><c>O </c><c>   4</c></rc>
    <rc><c>O </c><c>   4</c></rc>
    <rc><c>O </c><c>   4</c></rc>
    <rc><c>O </c><c>   4</c></rc>
    <rc><c>O </c><c>   4</c></rc>
    <rc><c>O </c><c>   4</c></rc>
    <rc><c>O </c><c>   4</c></rc>
    <rc><c>O </c><c>   4</c></rc>
    <rc><c>O </c><c>   4</c></rc>
    <rc><c>O </c><c>   4</c></rc>
    <rc><c>O </c><c>   4</c></rc>
    <rc><c>O </c><c>   4</c></rc>
    <rc><c>O </c><c>   4</c></rc>
    <rc><c>O </c><c>   4</c></rc>
    <rc><c>O </c><c>   4</c></rc>
    <rc><c>O </c><c>   4</c></rc>
    <rc><c>O </c><c>   4</c></rc>
    <rc><c>O </c><c>   4</c></rc>
    <rc><c>O </c><c>   4</c></rc>
    <rc><c>O </c><c>   4</c></rc>
    <rc><c>O </c><c>   4</c></rc>
    <rc><c>O </c><c>   4</c></rc>
    <rc><c>O </c><c>   4</c></rc>
    <rc><c>O </c><c>   4</c></rc>
    <rc><c>O </c><c>   4</c></rc>
    <rc><c>O </c><c>   4</c></rc>
    <rc><c>O </c><c>   4</c></rc>
    <rc><c>O </c><c>   4</c></rc>
    <rc><c>O </c><c>   4</c></rc>
    <rc><c>O </c><c>   4</c></rc>
    <rc><c>O </c><c>   4</c></rc>
    <rc><c>O </c><c>   4</c></rc>
    <rc><c>O </c><c>   4</c></rc>
    <rc><c>O </c><c>   4</c></rc>
    <rc><c>O </c><c>   4</c></rc>
    <rc><c>O </c><c>   4</c></rc>
    <rc><c>O </c><c>   4</c></rc>
    <rc><c>O </c><c>   4</c></rc>
    <rc><c>O </c><c>   4</c></rc>
    <rc><c>O </c><c>   4</c></rc>
    <rc><c>O </c><c>   4</c></rc>
    <rc><c>O </c><c>   4</c></rc>
    <rc><c>O </c><c>   4</c></rc>
    <rc><c>O </c><c>   4</c></rc>
    <rc><c>O </c><c>   4</c></rc>
    <rc><c>O </c><c>   4</c></rc>
    <rc><c>O </c><c>   4</c></rc>
    <rc><c>O </c><c>   4</c></rc>
    <rc><c>O </c><c>   4</c></rc>
    <rc><c>O </c><c>   4</c></rc>
    <rc><c>O </c><c>   4</c></rc>
    <rc><c>O </c><c>   4</c></rc>
    <rc><c>O </c><c>   4</c></rc>
    <rc><c>O </c><c>   4</c></rc>
    <rc><c>O </c><c>   4</c></rc>
    <rc><c>O </c><c>   4</c></rc>
    <rc><c>O </c><c>   4</c></rc>
    <rc><c>O </c><c>   4</c></rc>
    <rc><c>O </c><c>   4</c></rc>
    <rc><c>O </c><c>   4</c></rc>
    <rc><c>O </c><c>   4</c></rc>
    <rc><c>O </c><c>   4</c></rc>
    <rc><c>O </c><c>   4</c></rc>
    <rc><c>O </c><c>   4</c></rc>
    <rc><c>O </c><c>   4</c></rc>
    <rc><c>O </c><c>   4</c></rc>
    <rc><c>O </c><c>   4</c></rc>
    <rc><c>O </c><c>   4</c></rc>
    <rc><c>O </c><c>   4</c></rc>
    <rc><c>O </c><c>   4</c></rc>
   </set>
  </array>
  <array name="atomtypes" >
   <dimension dim="1">type</dimension>
   <field type="int">atomspertype</field>
   <field type="string">element</field>
   <field>mass</field>
   <field>valence</field>
   <field type="string">pseudopotential</field>
   <set>
    <rc><c>  32</c><c>Sr</c><c>     87.62000000</c><c>     10.00000000</c><c>  PAW_PBE Sr_sv 07Sep2000               </c></rc>
    <rc><c>  28</c><c>Ti</c><c>     47.88000000</c><c>      4.00000000</c><c>  PAW_PBE Ti 08Apr2002                  </c></rc>
    <rc><c>   4</c><c>Fe</c><c>     55.84700000</c><c>      8.00000000</c><c>  PAW_PBE Fe 06Sep2000                  </c></rc>
    <rc><c>  94</c><c>O </c><c>     16.00000000</c><c>      6.00000000</c><c>  PAW_PBE O 08Apr2002                   </c></rc>
   </set>
  </array>
 </atominfo>
 <structure name="initialpos" >
  <crystal>
   <varray name="basis" >
    <v>      11.19900000       0.00000000       0.00000000 </v>
    <v>       0.00000000      11.19900000       0.00000000 </v>
    <v>       0.00000000       0.00000000      15.98300000 </v>
   </varray>
   <i name="volume">   2004.54951678 </i>
   <varray name="rec_basis" >
    <v>       0.08929369       0.00000000       0.00000000 </v>
    <v>       0.00000000       0.08929369       0.00000000 </v>
    <v>       0.00000000       0.00000000       0.06256648 </v>
   </varray>
  </crystal>
  <varray name="positions" >
   <v>       0.00000000       0.25000000       0.12500000 </v>
   <v>       0.00000000       0.25000000       0.62500000 </v>
   <v>       0.00000000       0.75000000       0.12500000 </v>
   <v>       0.00000000       0.75000000       0.62500000 </v>
   <v>       0.50000000       0.25000000       0.12500000 </v>
   <v>       0.50000000       0.25000000       0.62500000 </v>
   <v>       0.50000000       0.75000000       0.12500000 </v>
   <v>       0.50000000       0.75000000       0.62500000 </v>
   <v>       0.00000000       0.25000000       0.37500000 </v>
   <v>       0.00000000       0.25000000       0.87500000 </v>
   <v>       0.00000000       0.75000000       0.37500000 </v>
   <v>       0.00000000       0.75000000       0.87500000 </v>
   <v>       0.50000000       0.25000000       0.37500000 </v>
   <v>       0.50000000       0.25000000       0.87500000 </v>
   <v>       0.50000000       0.75000000       0.37500000 </v>
   <v>       0.50000000       0.75000000       0.87500000 </v>
   <v>       0.25000000       0.00000000       0.12500000 </v>
   <v>       0.25000000       0.00000000       0.62500000 </v>
   <v>       0.25000000       0.50000000       0.12500000 </v>
   <v>       0.25000000       0.50000000       0.62500000 </v>
   <v>       0.75000000       0.00000000       0.12500000 </v>
   <v>       0.75000000       0.00000000       0.62500000 </v>
   <v>       0.75000000       0.50000000       0.12500000 </v>
   <v>       0.75000000       0.50000000       0.62500000 </v>
   <v>       0.25000000       0.00000000       0.37500000 </v>
   <v>       0.25000000       0.00000000       0.87500000 </v>
   <v>       0.25000000       0.50000000       0.37500000 </v>
   <v>       0.25000000       0.50000000       0.87500000 </v>
   <v>       0.75000000       0.00000000       0.37500000 </v>
   <v>       0.75000000       0.00000000       0.87500000 </v>
   <v>       0.75000000       0.50000000       0.37500000 </v>
   <v>       0.75000000       0.50000000       0.87500000 </v>
   <v>       0.00000000       0.00000000       0.50000000 </v>
   <v>       0.00000000       0.50000000       0.00000000 </v>
   <v>       0.00000000       0.50000000       0.50000000 </v>
   <v>       0.50000000       0.00000000       0.00000000 </v>
   <v>       0.50000000       0.00000000       0.50000000 </v>
   <v>       0.50000000       0.50000000       0.50000000 </v>
   <v>       0.25000000       0.25000000       0.00000000 </v>
   <v>       0.25000000       0.25000000       0.50000000 </v>
   <v>       0.25000000       0.75000000       0.00000000 </v>
   <v>       0.25000000       0.75000000       0.50000000 </v>
   <v>       0.75000000       0.25000000       0.00000000 </v>
   <v>       0.75000000       0.25000000       0.50000000 </v>
   <v>       0.75000000       0.75000000       0.00000000 </v>
   <v>       0.75000000       0.75000000       0.50000000 </v>
   <v>       0.25000000       0.25000000       0.25000000 </v>
   <v>       0.25000000       0.25000000       0.75000000 </v>
   <v>       0.25000000       0.75000000       0.25000000 </v>
   <v>       0.25000000       0.75000000       0.75000000 </v>
   <v>       0.75000000       0.25000000       0.25000000 </v>
   <v>       0.75000000       0.25000000       0.75000000 </v>
   <v>       0.75000000       0.75000000       0.25000000 </v>
   <v>       0.75000000       0.75000000       0.75000000 </v>
   <v>       0.00000000       0.00000000       0.75000000 </v>
   <v>       0.00000000       0.50000000       0.25000000 </v>
   <v>       0.00000000       0.50000000       0.75000000 </v>
   <v>       0.50000000       0.00000000       0.25000000 </v>
   <v>       0.50000000       0.00000000       0.75000000 </v>
   <v>       0.50000000       0.50000000       0.75000000 </v>
   <v>       0.00000000       0.00000000       0.00000000 </v>
   <v>       0.00000000       0.00000000       0.25000000 </v>
   <v>       0.50000000       0.50000000       0.25000000 </v>
   <v>       0.50000000       0.50000000       0.00000000 </v>
   <v>       0.00000000       0.00000000       0.62500000 </v>
   <v>       0.00000000       0.50000000       0.12500000 </v>
   <v>       0.00000000       0.50000000       0.62500000 </v>
   <v>       0.50000000       0.00000000       0.12500000 </v>
   <v>       0.50000000       0.00000000       0.62500000 </v>
   <v>       0.50000000       0.50000000       0.62500000 </v>
   <v>       0.00000000       0.00000000       0.37500000 </v>
   <v>       0.00000000       0.00000000       0.87500000 </v>
   <v>       0.00000000       0.50000000       0.37500000 </v>
   <v>       0.00000000       0.50000000       0.87500000 </v>
   <v>       0.50000000       0.00000000       0.37500000 </v>
   <v>       0.50000000       0.00000000       0.87500000 </v>
   <v>       0.50000000       0.50000000       0.37500000 </v>
   <v>       0.50000000       0.50000000       0.87500000 </v>
   <v>       0.25000000       0.25000000       0.37500000 </v>
   <v>       0.25000000       0.25000000       0.87500000 </v>
   <v>       0.25000000       0.75000000       0.37500000 </v>
   <v>       0.25000000       0.75000000       0.87500000 </v>
   <v>       0.75000000       0.25000000       0.37500000 </v>
   <v>       0.75000000       0.25000000       0.87500000 </v>
   <v>       0.75000000       0.75000000       0.37500000 </v>
   <v>       0.75000000       0.75000000       0.87500000 </v>
   <v>       0.25000000       0.25000000       0.12500000 </v>
   <v>       0.25000000       0.25000000       0.62500000 </v>
   <v>       0.25000000       0.75000000       0.12500000 </v>
   <v>       0.25000000       0.75000000       0.62500000 </v>
   <v>       0.75000000       0.25000000       0.12500000 </v>
   <v>       0.75000000       0.25000000       0.62500000 </v>
   <v>       0.75000000       0.75000000       0.12500000 </v>
   <v>       0.75000000       0.75000000       0.62500000 </v>
   <v>       0.10900000       0.14100000       0.25000000 </v>
   <v>       0.35900000       0.10900000       0.25000000 </v>
   <v>       0.60900000       0.14100000       0.25000000 </v>
   <v>       0.85900000       0.10900000       0.25000000 </v>
   <v>       0.14100000       0.39100000       0.25000000 </v>
   <v>       0.39100000       0.35900000       0.25000000 </v>
   <v>       0.64100000       0.39100000       0.25000000 </v>
   <v>       0.89100000       0.35900000       0.25000000 </v>
   <v>       0.10900000       0.64100000       0.25000000 </v>
   <v>       0.35900000       0.60900000       0.25000000 </v>
   <v>       0.60900000       0.64100000       0.25000000 </v>
   <v>       0.85900000       0.60900000       0.25000000 </v>
   <v>       0.14100000       0.89100000       0.25000000 </v>
   <v>       0.39100000       0.85900000       0.25000000 </v>
   <v>       0.64100000       0.89100000       0.25000000 </v>
   <v>       0.89100000       0.85900000       0.25000000 </v>
   <v>       0.14100000       0.10900000       0.50000000 </v>
   <v>       0.39100000       0.14100000       0.50000000 </v>
   <v>       0.64100000       0.10900000       0.50000000 </v>
   <v>       0.89100000       0.14100000       0.50000000 </v>
   <v>       0.10900000       0.35900000       0.50000000 </v>
   <v>       0.35900000       0.39100000       0.50000000 </v>
   <v>       0.60900000       0.35900000       0.50000000 </v>
   <v>       0.85900000       0.39100000       0.50000000 </v>
   <v>       0.14100000       0.60900000       0.50000000 </v>
   <v>       0.39100000       0.64100000       0.50000000 </v>
   <v>       0.64100000       0.60900000       0.50000000 </v>
   <v>       0.89100000       0.64100000       0.50000000 </v>
   <v>       0.10900000       0.85900000       0.50000000 </v>
   <v>       0.35900000       0.89100000       0.50000000 </v>
   <v>       0.60900000       0.85900000       0.50000000 </v>
   <v>       0.85900000       0.89100000       0.50000000 </v>
   <v>       0.10900000       0.14100000       0.75000000 </v>
   <v>       0.35900000       0.10900000       0.75000000 </v>
   <v>       0.60900000       0.14100000       0.75000000 </v>
   <v>       0.85900000       0.10900000       0.75000000 </v>
   <v>       0.14100000       0.39100000       0.75000000 </v>
   <v>       0.39100000       0.35900000       0.75000000 </v>
   <v>       0.64100000       0.39100000       0.75000000 </v>
   <v>       0.89100000       0.35900000       0.75000000 </v>
   <v>       0.10900000       0.64100000       0.75000000 </v>
   <v>       0.35900000       0.60900000       0.75000000 </v>
   <v>       0.60900000       0.64100000       0.75000000 </v>
   <v>       0.85900000       0.60900000       0.75000000 </v>
   <v>       0.14100000       0.89100000       0.75000000 </v>
   <v>       0.39100000       0.85900000       0.75000000 </v>
   <v>       0.64100000       0.89100000       0.75000000 </v>
   <v>       0.89100000       0.85900000       0.75000000 </v>
   <v>       0.14100000       0.10900000       0.00000000 </v>
   <v>       0.39100000       0.14100000       0.00000000 </v>
   <v>       0.64100000       0.10900000       0.00000000 </v>
   <v>       0.89100000       0.14100000       0.00000000 </v>
   <v>       0.10900000       0.35900000       0.00000000 </v>
   <v>       0.35900000       0.39100000       0.00000000 </v>
   <v>       0.60900000       0.35900000       0.00000000 </v>
   <v>       0.85900000       0.39100000       0.00000000 </v>
   <v>       0.14100000       0.60900000       0.00000000 </v>
   <v>       0.39100000       0.64100000       0.00000000 </v>
   <v>       0.64100000       0.60900000       0.00000000 </v>
   <v>       0.89100000       0.64100000       0.00000000 </v>
   <v>       0.10900000       0.85900000       0.00000000 </v>
   <v>       0.35900000       0.89100000       0.00000000 </v>
   <v>       0.60900000       0.85900000       0.00000000 </v>
   <v>       0.85900000       0.89100000       0.00000000 </v>
  </varray>
 </structure>
 <calculation>
  <scstep>
   <time name="dav">   70.89   70.91</time>
   <time name="total">   71.48   71.52</time>
   <energy>
    <i name="alphaZ">   5635.31984428 </i>
    <i name="ewald"> -61350.45385377 </i>
    <i name="hartreedc"> -14032.36884241 </i>
    <i name="XCdc">   2738.00624445 </i>
    <i name="pawpsdc">  58487.96789684 </i>
    <i name="pawaedc"> -57024.96744451 </i>
    <i name="eentropy">     -0.06368856 </i>
    <i name="bandstr">   5108.81097740 </i>
    <i name="atom">  72650.08363186 </i>
    <i name="e_fr_energy">  12212.33476558 </i>
    <i name="e_wo_entrp">  12212.39845414 </i>
    <i name="e_0_energy">  12212.36660986 </i>
   </energy>
  </scstep>
  <scstep>
   <time name="dav">   70.95   70.96</time>
   <time name="total">   70.96   71.01</time>
   <energy>
    <i name="e_fr_energy">    751.23551865 </i>
    <i name="e_wo_entrp">    751.23551865 </i>
    <i name="e_0_energy">    751.23551865 </i>
   </energy>
  </scstep>
  <scstep>
   <time name="dav">   75.57   75.58</time>
   <time name="total">   75.58   75.59</time>
   <energy>
    <i name="e_fr_energy">  -1338.83238399 </i>
    <i name="e_wo_entrp">  -1338.83238399 </i>
    <i name="e_0_energy">  -1338.83238399 </i>
   </energy>
  </scstep>
  <scstep>
   <time name="dav">   89.67   89.68</time>
   <time name="total">   89.69   89.72</time>
   <energy>
    <i name="e_fr_energy">  -1489.48633659 </i>
    <i name="e_wo_entrp">  -1489.48633659 </i>
    <i name="e_0_energy">  -1489.48633659 </i>
   </energy>
  </scstep>
  <scstep>
   <time name="dav">  118.57  118.58</time>
   <time name="total">  119.74  119.79</time>
   <energy>
    <i name="e_fr_energy">  -1499.64915723 </i>
    <i name="e_wo_entrp">  -1499.64915723 </i>
    <i name="e_0_energy">  -1499.64915723 </i>
   </energy>
  </scstep>
  <scstep>
   <time name="diag">    8.35    8.35</time>
   <time name="diis">   13.25   13.25</time>
   <time name="orth">    4.76    4.75</time>
   <time name="total">   28.10   28.13</time>
   <energy>
    <i name="e_fr_energy">  -1160.15450612 </i>
    <i name="e_wo_entrp">  -1160.15450612 </i>
    <i name="e_0_energy">  -1160.15450612 </i>
   </energy>
  </scstep>
  <scstep>
   <time name="diag">    8.38    8.38</time>
   <time name="diis">   13.45   13.45</time>
   <time name="orth">    4.79    4.79</time>
   <time name="total">   28.38   28.40</time>
   <energy>
    <i name="e_fr_energy">  -1140.43238551 </i>
    <i name="e_wo_entrp">  -1140.43238551 </i>
    <i name="e_0_energy">  -1140.43238551 </i>
   </energy>
  </scstep>
  <scstep>
   <time name="diag">    8.34    8.34</time>
   <time name="diis">   14.54   14.54</time>
   <time name="orth">    4.78    4.78</time>
   <time name="total">   29.41   29.43</time>
   <energy>
    <i name="e_fr_energy">  -1142.86168345 </i>
    <i name="e_wo_entrp">  -1142.86168345 </i>
    <i name="e_0_energy">  -1142.86168345 </i>
   </energy>
  </scstep>
  <scstep>
   <time name="diag">    8.36    8.35</time>
   <time name="diis">   13.48   13.49</time>
   <time name="orth">    4.74    4.74</time>
   <time name="total">   28.34   28.36</time>
   <energy>
    <i name="e_fr_energy">  -1147.67720357 </i>
    <i name="e_wo_entrp">  -1147.67720357 </i>
    <i name="e_0_energy">  -1147.67720357 </i>
   </energy>
  </scstep>
  <scstep>
   <time name="diag">    8.32    8.33</time>
   <time name="diis">   14.40   14.40</time>
   <time name="orth">    4.78    4.77</time>
   <time name="total">   29.24   29.25</time>
   <energy>
    <i name="e_fr_energy">  -1148.63166705 </i>
    <i name="e_wo_entrp">  -1148.63166705 </i>
    <i name="e_0_energy">  -1148.63166705 </i>
   </energy>
  </scstep>
  <scstep>
   <time name="diag">    8.39    8.39</time>
   <time name="diis">   15.04   15.04</time>
   <time name="orth">    4.78    4.78</time>
   <time name="total">   29.96   30.01</time>
   <energy>
    <i name="e_fr_energy">  -1149.80779429 </i>
    <i name="e_wo_entrp">  -1149.80779429 </i>
    <i name="e_0_energy">  -1149.80779429 </i>
   </energy>
  </scstep>
  <scstep>
   <time name="diag">    8.34    8.34</time>
   <time name="diis">   14.58   14.58</time>
   <time name="orth">    4.81    4.81</time>
   <time name="total">   29.49   29.53</time>
   <energy>
    <i name="e_fr_energy">  -1150.56025164 </i>
    <i name="e_wo_entrp">  -1150.56025164 </i>
    <i name="e_0_energy">  -1150.56025164 </i>
   </energy>
  </scstep>
  <scstep>
   <time name="diag">    8.34    8.35</time>
   <time name="diis">   15.40   15.40</time>
   <time name="orth">    4.78    4.78</time>
   <time name="total">   30.27   30.32</time>
   <energy>
    <i name="e_fr_energy">  -1150.81749406 </i>
    <i name="e_wo_entrp">  -1150.81749406 </i>
    <i name="e_0_energy">  -1150.81749406 </i>
   </energy>
  </scstep>
  <scstep>
   <time name="diag">    8.35    8.35</time>
   <time name="diis">   15.10   15.10</time>
   <time name="orth">    4.80    4.80</time>
   <time name="total">   30.00   30.01</time>
   <energy>
    <i name="e_fr_energy">  -1150.88395189 </i>
    <i name="e_wo_entrp">  -1150.88395189 </i>
    <i name="e_0_energy">  -1150.88395189 </i>
   </energy>
  </scstep>
  <scstep>
   <time name="diag">    8.40    8.40</time>
   <time name="diis">   15.48   15.48</time>
   <time name="orth">    4.76    4.76</time>
   <time name="total">   30.39   30.43</time>
   <energy>
    <i name="e_fr_energy">  -1150.89591857 </i>
    <i name="e_wo_entrp">  -1150.89591857 </i>
    <i name="e_0_energy">  -1150.89591857 </i>
   </energy>
  </scstep>
  <scstep>
   <time name="diag">    8.37    8.37</time>
   <time name="diis">   17.38   17.38</time>
   <time name="orth">    4.76    4.76</time>
   <time name="total">   32.25   32.31</time>
   <energy>
    <i name="e_fr_energy">  -1150.89912934 </i>
    <i name="e_wo_entrp">  -1150.89912934 </i>
    <i name="e_0_energy">  -1150.89912934 </i>
   </energy>
  </scstep>
  <scstep>
   <time name="diag">    8.33    8.33</time>
   <time name="diis">   14.40   14.40</time>
   <time name="orth">    4.74    4.73</time>
   <time name="total">   29.21   29.24</time>
   <energy>
    <i name="e_fr_energy">  -1150.89902482 </i>
    <i name="e_wo_entrp">  -1150.89902482 </i>
    <i name="e_0_energy">  -1150.89902482 </i>
   </energy>
  </scstep>
  <scstep>
   <time name="diag">    8.30    8.30</time>
   <time name="diis">   14.02   14.03</time>
   <time name="orth">    4.76    4.75</time>
   <time name="total">   28.82   28.84</time>
   <energy>
    <i name="e_fr_energy">  -1150.89924685 </i>
    <i name="e_wo_entrp">  -1150.89924685 </i>
    <i name="e_0_energy">  -1150.89924685 </i>
   </energy>
  </scstep>
  <scstep>
   <time name="diag">    8.32    8.32</time>
   <time name="diis">   11.17   11.17</time>
   <time name="orth">    4.75    4.75</time>
   <time name="total">   26.00   26.04</time>
   <energy>
    <i name="e_fr_energy">  -1150.89935977 </i>
    <i name="e_wo_entrp">  -1150.89935977 </i>
    <i name="e_0_energy">  -1150.89935977 </i>
   </energy>
  </scstep>
  <scstep>
   <time name="diag">    8.34    8.35</time>
   <time name="diis">   10.58   10.59</time>
   <time name="orth">    4.74    4.74</time>
   <time name="total">   24.25   24.31</time>
   <energy>
    <i name="alphaZ">   5635.31984428 </i>
    <i name="ewald"> -61350.45385377 </i>
    <i name="hartreedc"> -15156.53928020 </i>
    <i name="XCdc">   2850.68362346 </i>
    <i name="pawpsdc"> 111047.36011108 </i>
    <i name="pawaedc">-109795.34221022 </i>
    <i name="eentropy">     -0.00000000 </i>
    <i name="bandstr">  -7032.01129824 </i>
    <i name="atom">  72650.08363186 </i>
    <i name="e_fr_energy">  -1150.89943173 </i>
    <i name="e_wo_entrp">  -1150.89943173 </i>
    <i name="e_0_energy">  -1150.89943173 </i>
   </energy>
  </scstep>
  <structure>
   <crystal>
    <varray name="basis" >
     <v>      11.19900000       0.00000000       0.00000000 </v>
     <v>       0.00000000      11.19900000       0.00000000 </v>
     <v>       0.00000000       0.00000000      15.98300000 </v>
    </varray>
    <i name="volume">   2004.54951678 </i>
    <varray name="rec_basis" >
     <v>       0.08929369       0.00000000       0.00000000 </v>
     <v>       0.00000000       0.08929369       0.00000000 </v>
     <v>       0.00000000       0.00000000       0.06256648 </v>
    </varray>
   </crystal>
   <varray name="positions" >
    <v>       0.00000000       0.25000000       0.12500000 </v>
    <v>       0.00000000       0.25000000       0.62500000 </v>
    <v>       0.00000000       0.75000000       0.12500000 </v>
    <v>       0.00000000       0.75000000       0.62500000 </v>
    <v>       0.50000000       0.25000000       0.12500000 </v>
    <v>       0.50000000       0.25000000       0.62500000 </v>
    <v>       0.50000000       0.75000000       0.12500000 </v>
    <v>       0.50000000       0.75000000       0.62500000 </v>
    <v>       0.00000000       0.25000000       0.37500000 </v>
    <v>       0.00000000       0.25000000       0.87500000 </v>
    <v>       0.00000000       0.75000000       0.37500000 </v>
    <v>       0.00000000       0.75000000       0.87500000 </v>
    <v>       0.50000000       0.25000000       0.37500000 </v>
    <v>       0.50000000       0.25000000       0.87500000 </v>
    <v>       0.50000000       0.75000000       0.37500000 </v>
    <v>       0.50000000       0.75000000       0.87500000 </v>
    <v>       0.25000000       0.00000000       0.12500000 </v>
    <v>       0.25000000       0.00000000       0.62500000 </v>
    <v>       0.25000000       0.50000000       0.12500000 </v>
    <v>       0.25000000       0.50000000       0.62500000 </v>
    <v>       0.75000000       0.00000000       0.12500000 </v>
    <v>       0.75000000       0.00000000       0.62500000 </v>
    <v>       0.75000000       0.50000000       0.12500000 </v>
    <v>       0.75000000       0.50000000       0.62500000 </v>
    <v>       0.25000000       0.00000000       0.37500000 </v>
    <v>       0.25000000       0.00000000       0.87500000 </v>
    <v>       0.25000000       0.50000000       0.37500000 </v>
    <v>       0.25000000       0.50000000       0.87500000 </v>
    <v>       0.75000000       0.00000000       0.37500000 </v>
    <v>       0.75000000       0.00000000       0.87500000 </v>
    <v>       0.75000000       0.50000000       0.37500000 </v>
    <v>       0.75000000       0.50000000       0.87500000 </v>
    <v>       0.00000000       0.00000000       0.50000000 </v>
    <v>       0.00000000       0.50000000       0.00000000 </v>
    <v>       0.00000000       0.50000000       0.50000000 </v>
    <v>       0.50000000       0.00000000       0.00000000 </v>
    <v>       0.50000000       0.00000000       0.50000000 </v>
    <v>       0.50000000       0.50000000       0.50000000 </v>
    <v>       0.25000000       0.25000000       0.00000000 </v>
    <v>       0.25000000       0.25000000       0.50000000 </v>
    <v>       0.25000000       0.75000000       0.00000000 </v>
    <v>       0.25000000       0.75000000       0.50000000 </v>
    <v>       0.75000000       0.25000000       0.00000000 </v>
    <v>       0.75000000       0.25000000       0.50000000 </v>
    <v>       0.75000000       0.75000000       0.00000000 </v>
    <v>       0.75000000       0.75000000       0.50000000 </v>
    <v>       0.25000000       0.25000000       0.25000000 </v>
    <v>       0.25000000       0.25000000       0.75000000 </v>
    <v>       0.25000000       0.75000000       0.25000000 </v>
    <v>       0.25000000       0.75000000       0.75000000 </v>
    <v>       0.75000000       0.25000000       0.25000000 </v>
    <v>       0.75000000       0.25000000       0.75000000 </v>
    <v>       0.75000000       0.75000000       0.25000000 </v>
    <v>       0.75000000       0.75000000       0.75000000 </v>
    <v>       0.00000000       0.00000000       0.75000000 </v>
    <v>       0.00000000       0.50000000       0.25000000 </v>
    <v>       0.00000000       0.50000000       0.75000000 </v>
    <v>       0.50000000       0.00000000       0.25000000 </v>
    <v>       0.50000000       0.00000000       0.75000000 </v>
    <v>       0.50000000       0.50000000       0.75000000 </v>
    <v>       0.00000000       0.00000000       0.00000000 </v>
    <v>       0.00000000       0.00000000       0.25000000 </v>
    <v>       0.50000000       0.50000000       0.25000000 </v>
    <v>       0.50000000       0.50000000       0.00000000 </v>
    <v>       0.00000000       0.00000000       0.62500000 </v>
    <v>       0.00000000       0.50000000       0.12500000 </v>
    <v>       0.00000000       0.50000000       0.62500000 </v>
    <v>       0.50000000       0.00000000       0.12500000 </v>
    <v>       0.50000000       0.00000000       0.62500000 </v>
    <v>       0.50000000       0.50000000       0.62500000 </v>
    <v>       0.00000000       0.00000000       0.37500000 </v>
    <v>       0.00000000       0.00000000       0.87500000 </v>
    <v>       0.00000000       0.50000000       0.37500000 </v>
    <v>       0.00000000       0.50000000       0.87500000 </v>
    <v>       0.50000000       0.00000000       0.37500000 </v>
    <v>       0.50000000       0.00000000       0.87500000 </v>
    <v>       0.50000000       0.50000000       0.37500000 </v>
    <v>       0.50000000       0.50000000       0.87500000 </v>
    <v>       0.25000000       0.25000000       0.37500000 </v>
    <v>       0.25000000       0.25000000       0.87500000 </v>
    <v>       0.25000000       0.75000000       0.37500000 </v>
    <v>       0.25000000       0.75000000       0.87500000 </v>
    <v>       0.75000000       0.25000000       0.37500000 </v>
    <v>       0.75000000       0.25000000       0.87500000 </v>
    <v>       0.75000000       0.75000000       0.37500000 </v>
    <v>       0.75000000       0.75000000       0.87500000 </v>
    <v>       0.25000000       0.25000000       0.12500000 </v>
    <v>       0.25000000       0.25000000       0.62500000 </v>
    <v>       0.25000000       0.75000000       0.12500000 </v>
    <v>       0.25000000       0.75000000       0.62500000 </v>
    <v>       0.75000000       0.25000000       0.12500000 </v>
    <v>       0.75000000       0.25000000       0.62500000 </v>
    <v>       0.75000000       0.75000000       0.12500000 </v>
    <v>       0.75000000       0.75000000       0.62500000 </v>
    <v>       0.10900000       0.14100000       0.25000000 </v>
    <v>       0.35900000       0.10900000       0.25000000 </v>
    <v>       0.60900000       0.14100000       0.25000000 </v>
    <v>       0.85900000       0.10900000       0.25000000 </v>
    <v>       0.14100000       0.39100000       0.25000000 </v>
    <v>       0.39100000       0.35900000       0.25000000 </v>
    <v>       0.64100000       0.39100000       0.25000000 </v>
    <v>       0.89100000       0.35900000       0.25000000 </v>
    <v>       0.10900000       0.64100000       0.25000000 </v>
    <v>       0.35900000       0.60900000       0.25000000 </v>
    <v>       0.60900000       0.64100000       0.25000000 </v>
    <v>       0.85900000       0.60900000       0.25000000 </v>
    <v>       0.14100000       0.89100000       0.25000000 </v>
    <v>       0.39100000       0.85900000       0.25000000 </v>
    <v>       0.64100000       0.89100000       0.25000000 </v>
    <v>       0.89100000       0.85900000       0.25000000 </v>
    <v>       0.14100000       0.10900000       0.50000000 </v>
    <v>       0.39100000       0.14100000       0.50000000 </v>
    <v>       0.64100000       0.10900000       0.50000000 </v>
    <v>       0.89100000       0.14100000       0.50000000 </v>
    <v>       0.10900000       0.35900000       0.50000000 </v>
    <v>       0.35900000       0.39100000       0.50000000 </v>
    <v>       0.60900000       0.35900000       0.50000000 </v>
    <v>       0.85900000       0.39100000       0.50000000 </v>
    <v>       0.14100000       0.60900000       0.50000000 </v>
    <v>       0.39100000       0.64100000       0.50000000 </v>
    <v>       0.64100000       0.60900000       0.50000000 </v>
    <v>       0.89100000       0.64100000       0.50000000 </v>
    <v>       0.10900000       0.85900000       0.50000000 </v>
    <v>       0.35900000       0.89100000       0.50000000 </v>
    <v>       0.60900000       0.85900000       0.50000000 </v>
    <v>       0.85900000       0.89100000       0.50000000 </v>
    <v>       0.10900000       0.14100000       0.75000000 </v>
    <v>       0.35900000       0.10900000       0.75000000 </v>
    <v>       0.60900000       0.14100000       0.75000000 </v>
    <v>       0.85900000       0.10900000       0.75000000 </v>
    <v>       0.14100000       0.39100000       0.75000000 </v>
    <v>       0.39100000       0.35900000       0.75000000 </v>
    <v>       0.64100000       0.39100000       0.75000000 </v>
    <v>       0.89100000       0.35900000       0.75000000 </v>
    <v>       0.10900000       0.64100000       0.75000000 </v>
    <v>       0.35900000       0.60900000       0.75000000 </v>
    <v>       0.60900000       0.64100000       0.75000000 </v>
    <v>       0.85900000       0.60900000       0.75000000 </v>
    <v>       0.14100000       0.89100000       0.75000000 </v>
    <v>       0.39100000       0.85900000       0.75000000 </v>
    <v>       0.64100000       0.89100000       0.75000000 </v>
    <v>       0.89100000       0.85900000       0.75000000 </v>
    <v>       0.14100000       0.10900000       0.00000000 </v>
    <v>       0.39100000       0.14100000       0.00000000 </v>
    <v>       0.64100000       0.10900000       0.00000000 </v>
    <v>       0.89100000       0.14100000       0.00000000 </v>
    <v>       0.10900000       0.35900000       0.00000000 </v>
    <v>       0.35900000       0.39100000       0.00000000 </v>
    <v>       0.60900000       0.35900000       0.00000000 </v>
    <v>       0.85900000       0.39100000       0.00000000 </v>
    <v>       0.14100000       0.60900000       0.00000000 </v>
    <v>       0.39100000       0.64100000       0.00000000 </v>
    <v>       0.64100000       0.60900000       0.00000000 </v>
    <v>       0.89100000       0.64100000       0.00000000 </v>
    <v>       0.10900000       0.85900000       0.00000000 </v>
    <v>       0.35900000       0.89100000       0.00000000 </v>
    <v>       0.60900000       0.85900000       0.00000000 </v>
    <v>       0.85900000       0.89100000       0.00000000 </v>
   </varray>
  </structure>
  <varray name="forces" >
   <v>      -0.00000000       0.79734067       0.00000000 </v>
   <v>      -0.00000000      -0.01454880       0.00000000 </v>
   <v>      -0.00000000      -0.79734067       0.00000000 </v>
   <v>      -0.00000000       0.01454880       0.00000000 </v>
   <v>      -0.00000000      -0.79734067       0.00000000 </v>
   <v>      -0.00000000       0.01454880       0.00000000 </v>
   <v>      -0.00000000       0.79734067       0.00000000 </v>
   <v>      -0.00000000      -0.01454880       0.00000000 </v>
   <v>      -0.01701569      -0.15902415      -0.02229758 </v>
   <v>       0.01701569      -0.15902415       0.02229758 </v>
   <v>       0.01701569       0.15902415      -0.02229758 </v>
   <v>      -0.01701569       0.15902415       0.02229758 </v>
   <v>       0.01701569       0.15902415      -0.02229758 </v>
   <v>      -0.01701569       0.15902415       0.02229758 </v>
   <v>      -0.01701569      -0.15902415      -0.02229758 </v>
   <v>       0.01701569      -0.15902415       0.02229758 </v>
   <v>       0.79734067      -0.00000000       0.00000000 </v>
   <v>      -0.01454880      -0.00000000       0.00000000 </v>
   <v>      -0.79734067      -0.00000000       0.00000000 </v>
   <v>       0.01454880      -0.00000000       0.00000000 </v>
   <v>      -0.79734067      -0.00000000       0.00000000 </v>
   <v>       0.01454880      -0.00000000       0.00000000 </v>
   <v>       0.79734067      -0.00000000       0.00000000 </v>
   <v>      -0.01454880      -0.00000000       0.00000000 </v>
   <v>      -0.15902415       0.01701569      -0.02229758 </v>
   <v>      -0.15902415      -0.01701569       0.02229758 </v>
   <v>       0.15902415      -0.01701569      -0.02229758 </v>
   <v>       0.15902415       0.01701569       0.02229758 </v>
   <v>       0.15902415      -0.01701569      -0.02229758 </v>
   <v>       0.15902415       0.01701569       0.02229758 </v>
   <v>      -0.15902415       0.01701569      -0.02229758 </v>
   <v>      -0.15902415      -0.01701569       0.02229758 </v>
   <v>      -0.00000000      -0.00000000      -0.35379484 </v>
   <v>      -0.00000000      -0.00000000      -0.21060005 </v>
   <v>      -0.00000000      -0.00000000       0.04512262 </v>
   <v>      -0.00000000      -0.00000000      -0.21060005 </v>
   <v>      -0.00000000      -0.00000000       0.04512262 </v>
   <v>      -0.00000000      -0.00000000      -0.35379484 </v>
   <v>      -0.00000000      -0.00000000      -0.07660493 </v>
   <v>      -0.00000000      -0.00000000       0.09795765 </v>
   <v>      -0.00000000      -0.00000000      -0.07660493 </v>
   <v>      -0.00000000      -0.00000000       0.09795765 </v>
   <v>      -0.00000000      -0.00000000      -0.07660493 </v>
   <v>      -0.00000000      -0.00000000       0.09795765 </v>
   <v>      -0.00000000      -0.00000000      -0.07660493 </v>
   <v>      -0.00000000      -0.00000000       0.09795765 </v>
   <v>      -0.00000000      -0.00000000       0.07660493 </v>
   <v>      -0.00000000      -0.00000000      -0.09795765 </v>
   <v>      -0.00000000      -0.00000000       0.07660493 </v>
   <v>      -0.00000000      -0.00000000      -0.09795765 </v>
   <v>      -0.00000000      -0.00000000       0.07660493 </v>
   <v>      -0.00000000      -0.00000000      -0.09795765 </v>
   <v>      -0.00000000      -0.00000000       0.07660493 </v>
   <v>      -0.00000000      -0.00000000      -0.09795765 </v>
   <v>      -0.00000000      -0.00000000       0.35379484 </v>
   <v>      -0.00000000      -0.00000000       0.21060005 </v>
   <v>      -0.00000000      -0.00000000      -0.04512262 </v>
   <v>      -0.00000000      -0.00000000       0.21060005 </v>
   <v>      -0.00000000      -0.00000000      -0.04512262 </v>
   <v>      -0.00000000      -0.00000000       0.35379484 </v>
   <v>      -0.00000000      -0.00000000      -3.09383267 </v>
   <v>      -0.00000000      -0.00000000       3.09383267 </v>
   <v>      -0.00000000      -0.00000000       3.09383267 </v>
   <v>      -0.00000000      -0.00000000      -3.09383267 </v>
   <v>      -0.00000000      -0.00000000       0.00000000 </v>
   <v>      -0.00000000      -0.00000000       0.00000000 </v>
   <v>      -0.00000000      -0.00000000       0.00000000 </v>
   <v>      -0.00000000      -0.00000000       0.00000000 </v>
   <v>      -0.00000000      -0.00000000       0.00000000 </v>
   <v>      -0.00000000      -0.00000000       0.00000000 </v>
   <v>      -0.00000000      -0.00000000      -0.00848201 </v>
   <v>      -0.00000000      -0.00000000       0.00848201 </v>
   <v>      -0.00000000      -0.00000000      -0.08738857 </v>
   <v>      -0.00000000      -0.00000000       0.08738857 </v>
   <v>      -0.00000000      -0.00000000      -0.08738857 </v>
   <v>      -0.00000000      -0.00000000       0.08738857 </v>
   <v>      -0.00000000      -0.00000000      -0.00848201 </v>
   <v>      -0.00000000      -0.00000000       0.00848201 </v>
   <v>      -0.00000000      -0.00000000      -0.15796519 </v>
   <v>      -0.00000000      -0.00000000       0.15796519 </v>
   <v>      -0.00000000      -0.00000000      -0.15796519 </v>
   <v>      -0.00000000      -0.00000000       0.15796519 </v>
   <v>      -0.00000000      -0.00000000      -0.15796519 </v>
   <v>      -0.00000000      -0.00000000       0.15796519 </v>
   <v>      -0.00000000      -0.00000000      -0.15796519 </v>
   <v>      -0.00000000      -0.00000000       0.15796519 </v>
   <v>      -0.00000000      -0.00000000       0.00000000 </v>
   <v>      -0.00000000      -0.00000000       0.00000000 </v>
   <v>      -0.00000000      -0.00000000       0.00000000 </v>
   <v>      -0.00000000      -0.00000000       0.00000000 </v>
   <v>      -0.00000000      -0.00000000       0.00000000 </v>
   <v>      -0.00000000      -0.00000000       0.00000000 </v>
   <v>      -0.00000000      -0.00000000       0.00000000 </v>
   <v>      -0.00000000      -0.00000000       0.00000000 </v>
   <v>      -0.32509454      -0.41593607      -0.91562063 </v>
   <v>       0.04059470      -0.03973272      -0.08179295 </v>
   <v>      -0.03973272      -0.04059470      -0.08179295 </v>
   <v>       0.41593607      -0.32509454      -0.91562063 </v>
   <v>      -0.04059470       0.03973272      -0.08179295 </v>
   <v>       0.32509454       0.41593607      -0.91562063 </v>
   <v>      -0.41593607       0.32509454      -0.91562063 </v>
   <v>       0.03973272       0.04059470      -0.08179295 </v>
   <v>      -0.03973272      -0.04059470      -0.08179295 </v>
   <v>       0.41593607      -0.32509454      -0.91562063 </v>
   <v>      -0.32509454      -0.41593607      -0.91562063 </v>
   <v>       0.04059470      -0.03973272      -0.08179295 </v>
   <v>      -0.41593607       0.32509454      -0.91562063 </v>
   <v>       0.03973272       0.04059470      -0.08179295 </v>
   <v>      -0.04059470       0.03973272      -0.08179295 </v>
   <v>       0.32509454       0.41593607      -0.91562063 </v>
   <v>       0.06492777       0.05457593       0.02992312 </v>
   <v>       0.00684257      -0.00859944      -0.01361889 </v>
   <v>      -0.00859944      -0.00684257      -0.01361889 </v>
   <v>      -0.05457593       0.06492777       0.02992312 </v>
   <v>      -0.00684257       0.00859944      -0.01361889 </v>
   <v>      -0.06492777      -0.05457593       0.02992312 </v>
   <v>       0.05457593      -0.06492777       0.02992312 </v>
   <v>       0.00859944       0.00684257      -0.01361889 </v>
   <v>      -0.00859944      -0.00684257      -0.01361889 </v>
   <v>      -0.05457593       0.06492777       0.02992312 </v>
   <v>       0.06492777       0.05457593       0.02992312 </v>
   <v>       0.00684257      -0.00859944      -0.01361889 </v>
   <v>       0.05457593      -0.06492777       0.02992312 </v>
   <v>       0.00859944       0.00684257      -0.01361889 </v>
   <v>      -0.00684257       0.00859944      -0.01361889 </v>
   <v>      -0.06492777      -0.05457593       0.02992312 </v>
   <v>       0.05457593       0.06492777      -0.02992312 </v>
   <v>       0.00859944      -0.00684257       0.01361889 </v>
   <v>      -0.00684257      -0.00859944       0.01361889 </v>
   <v>      -0.06492777       0.05457593      -0.02992312 </v>
   <v>      -0.00859944       0.00684257       0.01361889 </v>
   <v>      -0.05457593      -0.06492777      -0.02992312 </v>
   <v>       0.06492777      -0.05457593      -0.02992312 </v>
   <v>       0.00684257       0.00859944       0.01361889 </v>
   <v>      -0.00684257      -0.00859944       0.01361889 </v>
   <v>      -0.06492777       0.05457593      -0.02992312 </v>
   <v>       0.05457593       0.06492777      -0.02992312 </v>
   <v>       0.00859944      -0.00684257       0.01361889 </v>
   <v>       0.06492777      -0.05457593      -0.02992312 </v>
   <v>       0.00684257       0.00859944       0.01361889 </v>
   <v>      -0.00859944       0.00684257       0.01361889 </v>
   <v>      -0.05457593      -0.06492777      -0.02992312 </v>
   <v>      -0.41593607      -0.32509454       0.91562063 </v>
   <v>       0.03973272      -0.04059470       0.08179295 </v>
   <v>      -0.04059470      -0.03973272       0.08179295 </v>
   <v>       0.32509454      -0.41593607       0.91562063 </v>
   <v>      -0.03973272       0.04059470       0.08179295 </v>
   <v>       0.41593607       0.32509454       0.91562063 </v>
   <v>      -0.32509454       0.41593607       0.91562063 </v>
   <v>       0.04059470       0.03973272       0.08179295 </v>
   <v>      -0.04059470      -0.03973272       0.08179295 </v>
   <v>       0.32509454      -0.41593607       0.91562063 </v>
   <v>      -0.41593607      -0.32509454       0.91562063 </v>
   <v>       0.03973272      -0.04059470       0.08179295 </v>
   <v>      -0.32509454       0.41593607       0.91562063 </v>
   <v>       0.04059470       0.03973272       0.08179295 </v>
   <v>      -0.03973272       0.04059470       0.08179295 </v>
   <v>       0.41593607       0.32509454       0.91562063 </v>
  </varray>
  <varray name="stress" >
   <v>      -1.95576395       0.00000000       0.00000000 </v>
   <v>       0.00000000      -1.95576395       0.00000000 </v>
   <v>       0.00000000       0.00000000     -12.09754679 </v>
  </varray>
  <energy>
   <i name="e_fr_energy">  -1150.89943173 </i>
   <i name="e_wo_entrp">  -1150.89943173 </i>
   <i name="e_0_energy">     -0.00000000 </i>
  </energy>
  <time name="totalsc">  923.24  925.46</time>
 </calculation>
 <calculation>
  <scstep>
   <time name="dav">   82.73   82.74</time>
   <time name="total">   84.47   84.55</time>
   <energy>
    <i name="alphaZ">   5669.95330212 </i>
    <i name="ewald"> -61378.08321946 </i>
    <i name="hartreedc"> -15281.13376874 </i>
    <i name="XCdc">   2880.58169830 </i>
    <i name="pawpsdc"> 111046.98990778 </i>
    <i name="pawaedc">-109794.93248256 </i>
    <i name="eentropy">     -0.00000000 </i>
    <i name="bandstr">  -6916.17814562 </i>
    <i name="atom">  72650.08363186 </i>
    <i name="e_fr_energy">  -1122.71907632 </i>
    <i name="e_wo_entrp">  -1122.71907632 </i>
    <i name="e_0_energy">  -1122.71907632 </i>
   </energy>
  </scstep>
  <scstep>
   <time name="diag">    8.36    8.36</time>
   <time name="diis">   13.71   13.71</time>
   <time name="orth">    4.74    4.74</time>
   <time name="total">   28.57   28.58</time>
   <energy>
    <i name="e_fr_energy">  -1152.53025055 </i>
    <i name="e_wo_entrp">  -1152.53025055 </i>
    <i name="e_0_energy">  -1152.53025055 </i>
   </energy>
  </scstep>
  <scstep>
   <time name="diag">    8.34    8.34</time>
   <time name="diis">   13.58   13.59</time>
   <time name="orth">    4.76    4.76</time>
   <time name="total">   28.41   28.50</time>
   <energy>
    <i name="e_fr_energy">  -1152.73867050 </i>
    <i name="e_wo_entrp">  -1152.73867050 </i>
    <i name="e_0_energy">  -1152.73867050 </i>
   </energy>
  </scstep>
  <scstep>
   <time name="diag">    8.33    8.33</time>
   <time name="diis">   14.05   14.05</time>
   <time name="orth">    4.76    4.76</time>
   <time name="total">   28.89   28.89</time>
   <energy>
    <i name="e_fr_energy">  -1152.63492064 </i>
    <i name="e_wo_entrp">  -1152.63492064 </i>
    <i name="e_0_energy">  -1152.63492064 </i>
   </energy>
  </scstep>
  <scstep>
   <time name="diag">    8.39    8.39</time>
   <time name="diis">   14.36   14.36</time>
   <time name="orth">    4.76    4.75</time>
   <time name="total">   29.25   29.27</time>
   <energy>
    <i name="e_fr_energy">  -1152.60539454 </i>
    <i name="e_wo_entrp">  -1152.60539454 </i>
    <i name="e_0_energy">  -1152.60539454 </i>
   </energy>
  </scstep>
  <scstep>
   <time name="diag">    8.37    8.37</time>
   <time name="diis">   15.24   15.24</time>
   <time name="orth">    4.75    4.75</time>
   <time name="total">   30.11   30.11</time>
   <energy>
    <i name="e_fr_energy">  -1152.60009296 </i>
    <i name="e_wo_entrp">  -1152.60009296 </i>
    <i name="e_0_energy">  -1152.60009296 </i>
   </energy>
  </scstep>
  <scstep>
   <time name="diag">    8.35    8.35</time>
   <time name="diis">   15.94   15.94</time>
   <time name="orth">    4.78    4.77</time>
   <time name="total">   30.80   30.80</time>
   <energy>
    <i name="e_fr_energy">  -1152.60351201 </i>
    <i name="e_wo_entrp">  -1152.60351201 </i>
    <i name="e_0_energy">  -1152.60351201 </i>
   </energy>
  </scstep>
  <scstep>
   <time name="diag">    8.36    8.36</time>
   <time name="diis">   18.11   18.11</time>
   <time name="orth">    4.75    4.75</time>
   <time name="total">   32.96   33.03</time>
   <energy>
    <i name="e_fr_energy">  -1152.60365029 </i>
    <i name="e_wo_entrp">  -1152.60365029 </i>
    <i name="e_0_energy">  -1152.60365029 </i>
   </energy>
  </scstep>
  <scstep>
   <time name="diag">    8.34    8.34</time>
   <time name="diis">   14.58   14.58</time>
   <time name="orth">    4.75    4.75</time>
   <time name="total">   29.43   29.45</time>
   <energy>
    <i name="e_fr_energy">  -1152.60306772 </i>
    <i name="e_wo_entrp">  -1152.60306772 </i>
    <i name="e_0_energy">  -1152.60306772 </i>
   </energy>
  </scstep>
  <scstep>
   <time name="diag">    8.37    8.37</time>
   <time name="diis">   11.60   11.60</time>
   <time name="orth">    4.75    4.75</time>
   <time name="total">   25.31   25.32</time>
   <energy>
    <i name="alphaZ">   5669.95330212 </i>
    <i name="ewald"> -61378.08321946 </i>
    <i name="hartreedc"> -15200.06890670 </i>
    <i name="XCdc">   2854.40149340 </i>
    <i name="pawpsdc"> 112672.48072513 </i>
    <i name="pawaedc">-111421.38635568 </i>
    <i name="eentropy">     -0.00000000 </i>
    <i name="bandstr">  -6999.98369700 </i>
    <i name="atom">  72650.08363186 </i>
    <i name="e_fr_energy">  -1152.60302633 </i>
    <i name="e_wo_entrp">  -1152.60302633 </i>
    <i name="e_0_energy">  -1152.60302633 </i>
   </energy>
  </scstep>
  <structure>
   <crystal>
    <varray name="basis" >
     <v>      11.19063288       0.00000000       0.00000000 </v>
     <v>       0.00000000      11.19063288       0.00000000 </v>
     <v>       0.00000000       0.00000000      15.90913547 </v>
    </varray>
    <i name="volume">   1992.30523936 </i>
    <varray name="rec_basis" >
     <v>       0.08936045       0.00000000       0.00000000 </v>
     <v>       0.00000000       0.08936045       0.00000000 </v>
     <v>       0.00000000       0.00000000       0.06285697 </v>
    </varray>
   </crystal>
   <varray name="positions" >
    <v>      -0.00000000       0.25343476       0.12500000 </v>
    <v>      -0.00000000       0.24993733       0.62500000 </v>
    <v>      -0.00000000       0.74656524       0.12500000 </v>
    <v>      -0.00000000       0.75006267       0.62500000 </v>
    <v>       0.50000000       0.24656524       0.12500000 </v>
    <v>       0.50000000       0.25006267       0.62500000 </v>
    <v>       0.50000000       0.75343476       0.12500000 </v>
    <v>       0.50000000       0.74993733       0.62500000 </v>
    <v>      -0.00007330       0.24931496       0.37493270 </v>
    <v>       0.00007330       0.24931496       0.87506730 </v>
    <v>       0.00007330       0.75068504       0.37493270 </v>
    <v>      -0.00007330       0.75068504       0.87506730 </v>
    <v>       0.50007330       0.25068504       0.37493270 </v>
    <v>       0.49992670       0.25068504       0.87506730 </v>
    <v>       0.49992670       0.74931496       0.37493270 </v>
    <v>       0.50007330       0.74931496       0.87506730 </v>
    <v>       0.25343476      -0.00000000       0.12500000 </v>
    <v>       0.24993733      -0.00000000       0.62500000 </v>
    <v>       0.24656524       0.50000000       0.12500000 </v>
    <v>       0.25006267       0.50000000       0.62500000 </v>
    <v>       0.74656524      -0.00000000       0.12500000 </v>
    <v>       0.75006267      -0.00000000       0.62500000 </v>
    <v>       0.75343476       0.50000000       0.12500000 </v>
    <v>       0.74993733       0.50000000       0.62500000 </v>
    <v>       0.24931496       0.00007330       0.37493270 </v>
    <v>       0.24931496      -0.00007330       0.87506730 </v>
    <v>       0.25068504       0.49992670       0.37493270 </v>
    <v>       0.25068504       0.50007330       0.87506730 </v>
    <v>       0.75068504      -0.00007330       0.37493270 </v>
    <v>       0.75068504       0.00007330       0.87506730 </v>
    <v>       0.74931496       0.50007330       0.37493270 </v>
    <v>       0.74931496       0.49992670       0.87506730 </v>
    <v>      -0.00000000      -0.00000000       0.49893212 </v>
    <v>      -0.00000000       0.50000000      -0.00063567 </v>
    <v>      -0.00000000       0.50000000       0.50013620 </v>
    <v>       0.50000000      -0.00000000      -0.00063567 </v>
    <v>       0.50000000      -0.00000000       0.50013620 </v>
    <v>       0.50000000       0.50000000       0.49893212 </v>
    <v>       0.25000000       0.25000000      -0.00023122 </v>
    <v>       0.25000000       0.25000000       0.50029567 </v>
    <v>       0.25000000       0.75000000      -0.00023122 </v>
    <v>       0.25000000       0.75000000       0.50029567 </v>
    <v>       0.75000000       0.25000000      -0.00023122 </v>
    <v>       0.75000000       0.25000000       0.50029567 </v>
    <v>       0.75000000       0.75000000      -0.00023122 </v>
    <v>       0.75000000       0.75000000       0.50029567 </v>
    <v>       0.25000000       0.25000000       0.25023122 </v>
    <v>       0.25000000       0.25000000       0.74970433 </v>
    <v>       0.25000000       0.75000000       0.25023122 </v>
    <v>       0.25000000       0.75000000       0.74970433 </v>
    <v>       0.75000000       0.25000000       0.25023122 </v>
    <v>       0.75000000       0.25000000       0.74970433 </v>
    <v>       0.75000000       0.75000000       0.25023122 </v>
    <v>       0.75000000       0.75000000       0.74970433 </v>
    <v>      -0.00000000      -0.00000000       0.75106788 </v>
    <v>      -0.00000000       0.50000000       0.25063567 </v>
    <v>      -0.00000000       0.50000000       0.74986380 </v>
    <v>       0.50000000      -0.00000000       0.25063567 </v>
    <v>       0.50000000      -0.00000000       0.74986380 </v>
    <v>       0.50000000       0.50000000       0.75106788 </v>
    <v>      -0.00000000      -0.00000000      -0.00933834 </v>
    <v>      -0.00000000      -0.00000000       0.25933834 </v>
    <v>       0.50000000       0.50000000       0.25933834 </v>
    <v>       0.50000000       0.50000000      -0.00933834 </v>
    <v>      -0.00000000      -0.00000000       0.62500000 </v>
    <v>      -0.00000000       0.50000000       0.12500000 </v>
    <v>      -0.00000000       0.50000000       0.62500000 </v>
    <v>       0.50000000      -0.00000000       0.12500000 </v>
    <v>       0.50000000      -0.00000000       0.62500000 </v>
    <v>       0.50000000       0.50000000       0.62500000 </v>
    <v>      -0.00000000      -0.00000000       0.37497440 </v>
    <v>      -0.00000000      -0.00000000       0.87502560 </v>
    <v>      -0.00000000       0.50000000       0.37473623 </v>
    <v>      -0.00000000       0.50000000       0.87526377 </v>
    <v>       0.50000000      -0.00000000       0.37473623 </v>
    <v>       0.50000000      -0.00000000       0.87526377 </v>
    <v>       0.50000000       0.50000000       0.37497440 </v>
    <v>       0.50000000       0.50000000       0.87502560 </v>
    <v>       0.25000000       0.25000000       0.37452320 </v>
    <v>       0.25000000       0.25000000       0.87547680 </v>
    <v>       0.25000000       0.75000000       0.37452320 </v>
    <v>       0.25000000       0.75000000       0.87547680 </v>
    <v>       0.75000000       0.25000000       0.37452320 </v>
    <v>       0.75000000       0.25000000       0.87547680 </v>
    <v>       0.75000000       0.75000000       0.37452320 </v>
    <v>       0.75000000       0.75000000       0.87547680 </v>
    <v>       0.25000000       0.25000000       0.12500000 </v>
    <v>       0.25000000       0.25000000       0.62500000 </v>
    <v>       0.25000000       0.75000000       0.12500000 </v>
    <v>       0.25000000       0.75000000       0.62500000 </v>
    <v>       0.75000000       0.25000000       0.12500000 </v>
    <v>       0.75000000       0.25000000       0.62500000 </v>
    <v>       0.75000000       0.75000000       0.12500000 </v>
    <v>       0.75000000       0.75000000       0.62500000 </v>
    <v>       0.10759957       0.13920825       0.24723632 </v>
    <v>       0.35917487       0.10882884       0.24975312 </v>
    <v>       0.60882884       0.14082513       0.24975312 </v>
    <v>       0.86079175       0.10759957       0.24723632 </v>
    <v>       0.14082513       0.39117116       0.24975312 </v>
    <v>       0.39240043       0.36079175       0.24723632 </v>
    <v>       0.63920825       0.39240043       0.24723632 </v>
    <v>       0.89117116       0.35917487       0.24975312 </v>
    <v>       0.10882884       0.64082513       0.24975312 </v>
    <v>       0.36079175       0.60759957       0.24723632 </v>
    <v>       0.60759957       0.63920825       0.24723632 </v>
    <v>       0.85917487       0.60882884       0.24975312 </v>
    <v>       0.13920825       0.89240043       0.24723632 </v>
    <v>       0.39117116       0.85917487       0.24975312 </v>
    <v>       0.64082513       0.89117116       0.24975312 </v>
    <v>       0.89240043       0.86079175       0.24723632 </v>
    <v>       0.14127969       0.10923510       0.50009032 </v>
    <v>       0.39102948       0.14096296       0.49995889 </v>
    <v>       0.64096296       0.10897052       0.49995889 </v>
    <v>       0.89076490       0.14127969       0.50009032 </v>
    <v>       0.10897052       0.35903704       0.49995889 </v>
    <v>       0.35872031       0.39076490       0.50009032 </v>
    <v>       0.60923510       0.35872031       0.50009032 </v>
    <v>       0.85903704       0.39102948       0.49995889 </v>
    <v>       0.14096296       0.60897052       0.49995889 </v>
    <v>       0.39076490       0.64127969       0.50009032 </v>
    <v>       0.64127969       0.60923510       0.50009032 </v>
    <v>       0.89102948       0.64096296       0.49995889 </v>
    <v>       0.10923510       0.85872031       0.50009032 </v>
    <v>       0.35903704       0.89102948       0.49995889 </v>
    <v>       0.60897052       0.85903704       0.49995889 </v>
    <v>       0.85872031       0.89076490       0.50009032 </v>
    <v>       0.10923510       0.14127969       0.74990968 </v>
    <v>       0.35903704       0.10897052       0.75004111 </v>
    <v>       0.60897052       0.14096296       0.75004111 </v>
    <v>       0.85872031       0.10923510       0.74990968 </v>
    <v>       0.14096296       0.39102948       0.75004111 </v>
    <v>       0.39076490       0.35872031       0.74990968 </v>
    <v>       0.64127969       0.39076490       0.74990968 </v>
    <v>       0.89102948       0.35903704       0.75004111 </v>
    <v>       0.10897052       0.64096296       0.75004111 </v>
    <v>       0.35872031       0.60923510       0.74990968 </v>
    <v>       0.60923510       0.64127969       0.74990968 </v>
    <v>       0.85903704       0.60897052       0.75004111 </v>
    <v>       0.14127969       0.89076490       0.74990968 </v>
    <v>       0.39102948       0.85903704       0.75004111 </v>
    <v>       0.64096296       0.89102948       0.75004111 </v>
    <v>       0.89076490       0.85872031       0.74990968 </v>
    <v>       0.13920825       0.10759957       0.00276368 </v>
    <v>       0.39117116       0.14082513       0.00024688 </v>
    <v>       0.64082513       0.10882884       0.00024688 </v>
[...]
       <r>   -15.7465     0.0000    32.0000 </r>
       <r>   -15.5949     0.0000    32.0000 </r>
       <r>   -15.4434     0.0000    32.0000 </r>
       <r>   -15.2918     0.0000    32.0000 </r>
       <r>   -15.1402     0.3414    32.0517 </r>
       <r>   -14.9886    26.1036    36.0087 </r>
       <r>   -14.8370    57.1751    44.6756 </r>
       <r>   -14.6854    44.6965    51.4510 </r>
       <r>   -14.5338    30.0221    56.0019 </r>
       <r>   -14.3823    26.6243    60.0378 </r>
       <r>   -14.2307    34.5948    65.2818 </r>
       <r>   -14.0791   115.8103    82.8370 </r>
       <r>   -13.9275   158.2444   106.8246 </r>
       <r>   -13.7759    94.4322   121.1392 </r>
       <r>   -13.6243    18.8883   124.0024 </r>
       <r>   -13.4727    13.1046   125.9888 </r>
       <r>   -13.3212     0.0736   126.0000 </r>
       <r>   -13.1696     0.0000   126.0000 </r>
       <r>   -13.0180     0.0000   126.0000 </r>
       <r>   -12.8664     0.0000   126.0000 </r>
       <r>   -12.7148     0.1516   126.0230 </r>
       <r>   -12.5632    26.8683   130.0958 </r>
       <r>   -12.4116   139.0137   151.1683 </r>
       <r>   -12.2601   167.7360   176.5947 </r>
       <r>   -12.1085   143.0031   198.2719 </r>
       <r>   -11.9569   118.7246   216.2689 </r>
       <r>   -11.8053    36.3396   221.7775 </r>
       <r>   -11.6537     1.4681   222.0000 </r>
       <r>   -11.5021     0.0000   222.0000 </r>
       <r>   -11.3505     0.0000   222.0000 </r>
       <r>   -11.1990     0.0000   222.0000 </r>
       <r>   -11.0474     0.0000   222.0000 </r>
       <r>   -10.8958     0.0000   222.0000 </r>
       <r>   -10.7442     0.0000   222.0000 </r>
       <r>   -10.5926     0.0000   222.0000 </r>
       <r>   -10.4410     0.0000   222.0000 </r>
       <r>   -10.2894     0.0000   222.0000 </r>
       <r>   -10.1379     0.0000   222.0000 </r>
       <r>    -9.9863     0.0000   222.0000 </r>
       <r>    -9.8347     0.0000   222.0000 </r>
       <r>    -9.6831     0.0000   222.0000 </r>
       <r>    -9.5315     0.0000   222.0000 </r>
       <r>    -9.3799     0.0000   222.0000 </r>
       <r>    -9.2283     0.0000   222.0000 </r>
       <r>    -9.0768     0.0000   222.0000 </r>
       <r>    -8.9252     0.0000   222.0000 </r>
       <r>    -8.7736     0.0000   222.0000 </r>
       <r>    -8.6220     0.0000   222.0000 </r>
       <r>    -8.4704     0.0000   222.0000 </r>
       <r>    -8.3188     0.0000   222.0000 </r>
       <r>    -8.1672     0.0000   222.0000 </r>
       <r>    -8.0157     0.0000   222.0000 </r>
       <r>    -7.8641     0.0000   222.0000 </r>
       <r>    -7.7125     0.0000   222.0000 </r>
       <r>    -7.5609     0.0000   222.0000 </r>
       <r>    -7.4093     0.0000   222.0000 </r>
       <r>    -7.2577     0.0000   222.0000 </r>
       <r>    -7.1061     0.0000   222.0000 </r>
       <r>    -6.9546     0.0000   222.0000 </r>
       <r>    -6.8030     0.0000   222.0000 </r>
       <r>    -6.6514     0.0000   222.0000 </r>
       <r>    -6.4998     0.0000   222.0000 </r>
       <r>    -6.3482     0.0000   222.0000 </r>
       <r>    -6.1966     0.0000   222.0000 </r>
       <r>    -6.0450     0.0000   222.0000 </r>
       <r>    -5.8935     0.0000   222.0000 </r>
       <r>    -5.7419     0.0000   222.0000 </r>
       <r>    -5.5903     0.0000   222.0000 </r>
       <r>    -5.4387     0.0000   222.0000 </r>
       <r>    -5.2871     0.0000   222.0000 </r>
       <r>    -5.1355     0.0000   222.0000 </r>
       <r>    -4.9839     0.0000   222.0000 </r>
       <r>    -4.8324     0.0000   222.0000 </r>
       <r>    -4.6808     0.0000   222.0000 </r>
       <r>    -4.5292     0.0000   222.0000 </r>
       <r>    -4.3776     0.0000   222.0000 </r>
       <r>    -4.2260     0.0000   222.0000 </r>
       <r>    -4.0744     0.0000   222.0000 </r>
       <r>    -3.9228     0.0000   222.0000 </r>
       <r>    -3.7713     0.0000   222.0000 </r>
       <r>    -3.6197     0.0000   222.0000 </r>
       <r>    -3.4681     0.0000   222.0000 </r>
       <r>    -3.3165     0.0000   222.0000 </r>
       <r>    -3.1649     0.0000   222.0000 </r>
       <r>    -3.0133     0.0000   222.0000 </r>
       <r>    -2.8617     0.0000   222.0000 </r>
       <r>    -2.7102     0.0000   222.0000 </r>
       <r>    -2.5586     0.0000   222.0000 </r>
       <r>    -2.4070     0.0000   222.0000 </r>
       <r>    -2.2554     1.7778   222.2695 </r>
       <r>    -2.1038    16.3287   224.7447 </r>
       <r>    -1.9522    38.5322   230.5856 </r>
       <r>    -1.8006    49.4198   238.0770 </r>
       <r>    -1.6491    62.6335   247.5713 </r>
       <r>    -1.4975    53.6521   255.7042 </r>
       <r>    -1.3459    51.8626   263.5658 </r>
       <r>    -1.1943    69.0556   274.0337 </r>
       <r>    -1.0427    76.4669   285.6250 </r>
       <r>    -0.8911    73.8990   296.8270 </r>
       <r>    -0.7395    77.0558   308.5075 </r>
       <r>    -0.5880   102.0126   323.9712 </r>
       <r>    -0.4364   130.7275   343.7876 </r>
       <r>    -0.2848    72.7000   354.8079 </r>
       <r>    -0.1332    52.1511   362.7132 </r>
       <r>     0.0184    46.6531   369.7852 </r>
       <r>     0.1700    33.4662   374.8582 </r>
       <r>     0.3216    49.9377   382.4280 </r>
       <r>     0.4731    52.5402   390.3924 </r>
       <r>     0.6247    67.2734   400.5901 </r>
       <r>     0.7763    40.2361   406.6893 </r>
       <r>     0.9279    46.5003   413.7381 </r>
       <r>     1.0795    60.0635   422.8428 </r>
       <r>     1.2311    85.4185   435.7911 </r>
       <r>     1.3827    84.1961   448.5540 </r>
       <r>     1.5342   102.7395   464.1278 </r>
       <r>     1.6858    79.8714   476.2352 </r>
       <r>     1.8374    75.3416   487.6559 </r>
       <r>     1.9890    44.6398   494.4226 </r>
       <r>     2.1406    43.2460   500.9781 </r>
       <r>     2.2922    19.0961   503.8728 </r>
       <r>     2.4438     0.8390   504.0000 </r>
       <r>     2.5953     0.0000   504.0000 </r>
       <r>     2.7469     0.0000   504.0000 </r>
       <r>     2.8985     0.0000   504.0000 </r>
       <r>     3.0501     0.0000   504.0000 </r>
       <r>     3.2017     0.0000   504.0000 </r>
       <r>     3.3533     0.0000   504.0000 </r>
       <r>     3.5049     0.0000   504.0000 </r>
       <r>     3.6564     0.0000   504.0000 </r>
       <r>     3.8080     0.0000   504.0000 </r>
       <r>     3.9596     0.0000   504.0000 </r>
       <r>     4.1112     0.0000   504.0000 </r>
       <r>     4.2628     0.0000   504.0000 </r>
       <r>     4.4144     0.3999   504.0606 </r>
       <r>     4.5660    21.1368   507.2647 </r>
       <r>     4.7175    22.8607   510.7300 </r>
       <r>     4.8691    40.6951   516.8988 </r>
       <r>     5.0207    32.8592   521.8798 </r>
       <r>     5.1723    26.6743   525.9232 </r>
       <r>     5.3239    35.2924   531.2731 </r>
       <r>     5.4755    75.4936   542.7168 </r>
       <r>     5.6271    42.0174   549.0860 </r>
       <r>     5.7786    77.7005   560.8643 </r>
       <r>     5.9302    99.5328   575.9521 </r>
       <r>     6.0818    95.8427   590.4805 </r>
       <r>     6.2334    74.6279   601.7930 </r>
       <r>     6.3850    50.7138   609.4805 </r>
       <r>     6.5366    40.8966   615.6798 </r>
       <r>     6.6882    22.1905   619.0436 </r>
       <r>     6.8397    20.5358   622.1565 </r>
       <r>     6.9913    30.0267   626.7082 </r>
       <r>     7.1429    12.1972   628.5571 </r>
       <r>     7.2945    19.4434   631.5044 </r>
       <r>     7.4461    16.6920   634.0347 </r>
       <r>     7.5977    19.5026   636.9910 </r>
       <r>     7.7493     5.4550   637.8179 </r>
       <r>     7.9008    14.7321   640.0511 </r>
       <r>     8.0524    32.2188   644.9350 </r>
       <r>     8.2040    25.0746   648.7359 </r>
       <r>     8.3556    22.2187   652.1040 </r>
       <r>     8.5072    17.3971   654.7411 </r>
       <r>     8.6588    33.1430   659.7651 </r>
       <r>     8.8104    26.3150   663.7541 </r>
       <r>     8.9619    24.4367   667.4584 </r>
       <r>     9.1135    37.4378   673.1334 </r>
       <r>     9.2651    33.5066   678.2125 </r>
       <r>     9.4167    47.6897   685.4416 </r>
       <r>     9.5683    37.4646   691.1207 </r>
       <r>     9.7199    39.3891   697.0915 </r>
       <r>     9.8715    55.5249   705.5083 </r>
       <r>    10.0230    72.1748   716.4490 </r>
       <r>    10.1746    67.8522   726.7344 </r>
       <r>    10.3262    82.5292   739.2447 </r>
       <r>    10.4778    56.3982   747.7938 </r>
       <r>    10.6294    54.0902   755.9931 </r>
       <r>    10.7810    57.5546   764.7176 </r>
       <r>    10.9326    21.6309   767.9965 </r>
       <r>    11.0841     0.0231   768.0000 </r>
       <r>    11.2357     0.0000   768.0000 </r>
       <r>    11.3873     0.0000   768.0000 </r>
       <r>    11.5389     0.0000   768.0000 </r>
       <r>    11.6905     0.0000   768.0000 </r>
       <r>    11.8421     0.0000   768.0000 </r>
       <r>    11.9937     0.0000   768.0000 </r>
       <r>    12.1452     0.0000   768.0000 </r>
       <r>    12.2968     0.0000   768.0000 </r>
       <r>    12.4484     0.0000   768.0000 </r>
       <r>    12.6000     0.0000   768.0000 </r>
       <r>    12.7516     0.0000   768.0000 </r>
       <r>    12.9032     0.0000   768.0000 </r>
      </set>
     </set>
    </array>
   </total>
  </dos>
 </calculation>
 <structure name="finalpos" >
  <crystal>
   <varray name="basis" >
    <v>      11.19217918       0.00000000       0.00000000 </v>
    <v>       0.00000000      11.19217918      -0.00000000 </v>
    <v>       0.00000000      -0.00000000      15.97940245 </v>
   </varray>
   <i name="volume">   2001.65784573 </i>
   <varray name="rec_basis" >
    <v>       0.08934810       0.00000000       0.00000000 </v>
    <v>       0.00000000       0.08934810       0.00000000 </v>
    <v>       0.00000000       0.00000000       0.06258056 </v>
   </varray>
  </crystal>
  <varray name="positions" >
   <v>      -0.00000000       0.25484838       0.12500000 </v>
   <v>      -0.00000000       0.25054392       0.62500000 </v>
   <v>      -0.00000000       0.74515162       0.12500000 </v>
   <v>      -0.00000000       0.74945608       0.62500000 </v>
   <v>       0.50000000       0.24515162       0.12500000 </v>
   <v>       0.50000000       0.24945608       0.62500000 </v>
   <v>       0.50000000       0.75484838       0.12500000 </v>
   <v>       0.50000000       0.75054392       0.62500000 </v>
   <v>       0.00089178       0.25007014       0.37303236 </v>
   <v>      -0.00089178       0.25007014       0.87696764 </v>
   <v>      -0.00089178       0.74992986       0.37303236 </v>
   <v>       0.00089178       0.74992986       0.87696764 </v>
   <v>       0.49910822       0.24992986       0.37303236 </v>
   <v>       0.50089178       0.24992986       0.87696764 </v>
   <v>       0.50089178       0.75007014       0.37303236 </v>
   <v>       0.49910822       0.75007014       0.87696764 </v>
   <v>       0.25484838      -0.00000000       0.12500000 </v>
   <v>       0.25054392      -0.00000000       0.62500000 </v>
   <v>       0.24515162       0.50000000       0.12500000 </v>
   <v>       0.24945608       0.50000000       0.62500000 </v>
   <v>       0.74515162      -0.00000000       0.12500000 </v>
   <v>       0.74945608      -0.00000000       0.62500000 </v>
   <v>       0.75484838       0.50000000       0.12500000 </v>
   <v>       0.75054392       0.50000000       0.62500000 </v>
   <v>       0.25007014      -0.00089178       0.37303236 </v>
   <v>       0.25007014       0.00089178       0.87696764 </v>
   <v>       0.24992986       0.50089178       0.37303236 </v>
   <v>       0.24992986       0.49910822       0.87696764 </v>
   <v>       0.74992986       0.00089178       0.37303236 </v>
   <v>       0.74992986      -0.00089178       0.87696764 </v>
   <v>       0.75007014       0.49910822       0.37303236 </v>
   <v>       0.75007014       0.50089178       0.87696764 </v>
   <v>      -0.00000000      -0.00000000       0.50078668 </v>
   <v>      -0.00000000       0.50000000      -0.00067349 </v>
   <v>      -0.00000000       0.50000000       0.49973795 </v>
   <v>       0.50000000      -0.00000000      -0.00067349 </v>
   <v>       0.50000000      -0.00000000       0.49973795 </v>
   <v>       0.50000000       0.50000000       0.50078668 </v>
   <v>       0.25000000       0.25000000       0.00194140 </v>
   <v>       0.25000000       0.25000000       0.49966597 </v>
   <v>       0.25000000       0.75000000       0.00194140 </v>
   <v>       0.25000000       0.75000000       0.49966597 </v>
   <v>       0.75000000       0.25000000       0.00194140 </v>
   <v>       0.75000000       0.25000000       0.49966597 </v>
   <v>       0.75000000       0.75000000       0.00194140 </v>
   <v>       0.75000000       0.75000000       0.49966597 </v>
   <v>       0.25000000       0.25000000       0.24805860 </v>
   <v>       0.25000000       0.25000000       0.75033403 </v>
   <v>       0.25000000       0.75000000       0.24805860 </v>
   <v>       0.25000000       0.75000000       0.75033403 </v>
   <v>       0.75000000       0.25000000       0.24805860 </v>
   <v>       0.75000000       0.25000000       0.75033403 </v>
   <v>       0.75000000       0.75000000       0.24805860 </v>
   <v>       0.75000000       0.75000000       0.75033403 </v>
   <v>      -0.00000000      -0.00000000       0.74921332 </v>
   <v>      -0.00000000       0.50000000       0.25067349 </v>
   <v>      -0.00000000       0.50000000       0.75026205 </v>
   <v>       0.50000000      -0.00000000       0.25067349 </v>
   <v>       0.50000000      -0.00000000       0.75026205 </v>
   <v>       0.50000000       0.50000000       0.74921332 </v>
   <v>      -0.00000000      -0.00000000      -0.01014518 </v>
   <v>      -0.00000000      -0.00000000       0.26014518 </v>
   <v>       0.50000000       0.50000000       0.26014518 </v>
   <v>       0.50000000       0.50000000      -0.01014518 </v>
   <v>      -0.00000000      -0.00000000       0.62500000 </v>
   <v>      -0.00000000       0.50000000       0.12500000 </v>
   <v>      -0.00000000       0.50000000       0.62500000 </v>
   <v>       0.50000000      -0.00000000       0.12500000 </v>
   <v>       0.50000000      -0.00000000       0.62500000 </v>
   <v>       0.50000000       0.50000000       0.62500000 </v>
   <v>      -0.00000000      -0.00000000       0.37773962 </v>
   <v>      -0.00000000      -0.00000000       0.87226038 </v>
   <v>      -0.00000000       0.50000000       0.37517612 </v>
   <v>      -0.00000000       0.50000000       0.87482388 </v>
   <v>       0.50000000      -0.00000000       0.37517612 </v>
   <v>       0.50000000      -0.00000000       0.87482388 </v>
   <v>       0.50000000       0.50000000       0.37773962 </v>
   <v>       0.50000000       0.50000000       0.87226038 </v>
   <v>       0.25000000       0.25000000       0.37348370 </v>
   <v>       0.25000000       0.25000000       0.87651630 </v>
   <v>       0.25000000       0.75000000       0.37348370 </v>
   <v>       0.25000000       0.75000000       0.87651630 </v>
   <v>       0.75000000       0.25000000       0.37348370 </v>
   <v>       0.75000000       0.25000000       0.87651630 </v>
   <v>       0.75000000       0.75000000       0.37348370 </v>
   <v>       0.75000000       0.75000000       0.87651630 </v>
   <v>       0.25000000       0.25000000       0.12500000 </v>
   <v>       0.25000000       0.25000000       0.62500000 </v>
   <v>       0.25000000       0.75000000       0.12500000 </v>
   <v>       0.25000000       0.75000000       0.62500000 </v>
   <v>       0.75000000       0.25000000       0.12500000 </v>
   <v>       0.75000000       0.25000000       0.62500000 </v>
   <v>       0.75000000       0.75000000       0.12500000 </v>
   <v>       0.75000000       0.75000000       0.62500000 </v>
   <v>       0.11080236       0.13601858       0.24187665 </v>
   <v>       0.36253979       0.11185026       0.25026085 </v>
   <v>       0.61185026       0.13746021       0.25026085 </v>
   <v>       0.86398142       0.11080236       0.24187665 </v>
   <v>       0.13746021       0.38814974       0.25026085 </v>
   <v>       0.38919764       0.36398142       0.24187665 </v>
   <v>       0.63601858       0.38919764       0.24187665 </v>
   <v>       0.88814974       0.36253979       0.25026085 </v>
   <v>       0.11185026       0.63746021       0.25026085 </v>
   <v>       0.36398142       0.61080236       0.24187665 </v>
   <v>       0.61080236       0.63601858       0.24187665 </v>
   <v>       0.86253979       0.61185026       0.25026085 </v>
   <v>       0.13601858       0.88919764       0.24187665 </v>
   <v>       0.38814974       0.86253979       0.25026085 </v>
   <v>       0.63746021       0.88814974       0.25026085 </v>
   <v>       0.88919764       0.86398142       0.24187665 </v>
   <v>       0.14193007       0.10849249       0.49982448 </v>
   <v>       0.39169794       0.14176474       0.49947027 </v>
   <v>       0.64176474       0.10830206       0.49947027 </v>
   <v>       0.89150751       0.14193007       0.49982448 </v>
   <v>       0.10830206       0.35823526       0.49947027 </v>
   <v>       0.35806993       0.39150751       0.49982448 </v>
   <v>       0.60849249       0.35806993       0.49982448 </v>
   <v>       0.85823526       0.39169794       0.49947027 </v>
   <v>       0.14176474       0.60830206       0.49947027 </v>
   <v>       0.39150751       0.64193007       0.49982448 </v>
   <v>       0.64193007       0.60849249       0.49982448 </v>
   <v>       0.89169794       0.64176474       0.49947027 </v>
   <v>       0.10849249       0.85806993       0.49982448 </v>
   <v>       0.35823526       0.89169794       0.49947027 </v>
   <v>       0.60830206       0.85823526       0.49947027 </v>
   <v>       0.85806993       0.89150751       0.49982448 </v>
   <v>       0.10849249       0.14193007       0.75017552 </v>
   <v>       0.35823526       0.10830206       0.75052973 </v>
   <v>       0.60830206       0.14176474       0.75052973 </v>
   <v>       0.85806993       0.10849249       0.75017552 </v>
   <v>       0.14176474       0.39169794       0.75052973 </v>
   <v>       0.39150751       0.35806993       0.75017552 </v>
   <v>       0.64193007       0.39150751       0.75017552 </v>
   <v>       0.89169794       0.35823526       0.75052973 </v>
   <v>       0.10830206       0.64176474       0.75052973 </v>
   <v>       0.35806993       0.60849249       0.75017552 </v>
   <v>       0.60849249       0.64193007       0.75017552 </v>
   <v>       0.85823526       0.60830206       0.75052973 </v>
   <v>       0.14193007       0.89150751       0.75017552 </v>
   <v>       0.39169794       0.85823526       0.75052973 </v>
   <v>       0.64176474       0.89169794       0.75052973 </v>
   <v>       0.89150751       0.85806993       0.75017552 </v>
   <v>       0.13601858       0.11080236       0.00812335 </v>
   <v>       0.38814974       0.13746021      -0.00026085 </v>
   <v>       0.63746021       0.11185026      -0.00026085 </v>
   <v>       0.88919764       0.13601858       0.00812335 </v>
   <v>       0.11185026       0.36253979      -0.00026085 </v>
   <v>       0.36398142       0.38919764       0.00812335 </v>
   <v>       0.61080236       0.36398142       0.00812335 </v>
   <v>       0.86253979       0.38814974      -0.00026085 </v>
   <v>       0.13746021       0.61185026      -0.00026085 </v>
   <v>       0.38919764       0.63601858       0.00812335 </v>
   <v>       0.63601858       0.61080236       0.00812335 </v>
   <v>       0.88814974       0.63746021      -0.00026085 </v>
   <v>       0.11080236       0.86398142       0.00812335 </v>
   <v>       0.36253979       0.88814974      -0.00026085 </v>
   <v>       0.61185026       0.86253979      -0.00026085 </v>
   <v>       0.86398142       0.88919764       0.00812335 </v>
  </varray>
 </structure>
</modeling>
