<?xml version="1.0" encoding="ISO-8859-1"?>
<modeling>
 <generator>
  <i name="program" type="string">vasp </i>
  <i name="version" type="string">5.4.1  </i>
  <i name="subversion" type="string">05Feb16 (build Jan 25 2017 20:16:33) complex                          parallel </i>
  <i name="platform" type="string">BWXE6 </i>
  <i name="date" type="string">2019 06 22 </i>
  <i name="time" type="string">01:19:53 </i>
 </generator>
 <incar>
  <i type="string" name="SYSTEM"> STF</i>
  <i type="string" name="PREC">normal</i>
  <i type="string" name="ALGO"> Fast</i>
  <i type="int" name="ISPIN">     2</i>
  <i type="int" name="NELM">    40</i>
  <i type="int" name="NELMIN">     8</i>
  <i type="int" name="IBRION">     2</i>
  <i name="EDIFF">      0.00010000</i>
  <i name="EDIFFG">     -0.03000000</i>
  <i type="int" name="NSW">    30</i>
  <i type="int" name="ISIF">     3</i>
  <i name="ENCUT">    520.00000000</i>
  <i type="int" name="NBANDS">   768</i>
  <v name="MAGMOM">      0.60000000      0.60000000      0.60000000      0.60000000      0.60000000      0.60000000      0.60000000      0.60000000      0.60000000      0.60000000      0.60000000      0.60000000      0.60000000      0.60000000      0.60000000      0.60000000      0.60000000      0.60000000      0.60000000      0.60000000
      0.60000000      0.60000000      0.60000000      0.60000000      0.60000000      0.60000000      0.60000000      0.60000000      0.60000000      0.60000000      0.60000000      0.60000000      0.60000000      0.60000000      0.60000000      0.60000000      0.60000000      0.60000000      0.60000000      0.60000000
      0.60000000      0.60000000      0.60000000      0.60000000      0.60000000      0.60000000      0.60000000      0.60000000      0.60000000      0.60000000      0.60000000      0.60000000      0.60000000      0.60000000      0.60000000      0.60000000      5.00000000      5.00000000      5.00000000      5.00000000
      5.00000000      5.00000000      5.00000000      5.00000000      0.60000000      0.60000000      0.60000000      0.60000000      0.60000000      0.60000000      0.60000000      0.60000000      0.60000000      0.60000000      0.60000000      0.60000000      0.60000000      0.60000000      0.60000000      0.60000000
      0.60000000      0.60000000      0.60000000      0.60000000      0.60000000      0.60000000      0.60000000      0.60000000      0.60000000      0.60000000      0.60000000      0.60000000      0.60000000      0.60000000      0.60000000      0.60000000      0.60000000      0.60000000      0.60000000      0.60000000
      0.60000000      0.60000000      0.60000000      0.60000000      0.60000000      0.60000000      0.60000000      0.60000000      0.60000000      0.60000000      0.60000000      0.60000000      0.60000000      0.60000000      0.60000000      0.60000000      0.60000000      0.60000000      0.60000000      0.60000000
      0.60000000      0.60000000      0.60000000      0.60000000      0.60000000      0.60000000      0.60000000      0.60000000      0.60000000      0.60000000      0.60000000      0.60000000      0.60000000      0.60000000      0.60000000      0.60000000      0.60000000      0.60000000      0.60000000      0.60000000
      0.60000000      0.60000000      0.60000000      0.60000000      0.60000000      0.60000000      0.60000000      0.60000000      0.60000000      0.60000000      0.60000000      0.60000000      0.60000000      0.60000000      0.60000000      0.60000000</v>
  <i type="string" name="LREAL"> Auto</i>
  <i type="int" name="ISMEAR">     0</i>
  <i name="SIGMA">      0.05000000</i>
  <i type="int" name="LMAXMIX">     4</i>
  <v type="int" name="KPOINT_BSE">    -1     0     0     0</v>
  <i type="int" name="NELM">    40</i>
  <i type="logical" name="LDAU"> T  </i>
  <v type="int" name="LDAUTYPE">     2</v>
  <v type="int" name="LDAUL">     0     2     2     0</v>
  <v name="LDAUU">      0.00000000      3.00000000      5.00000000      0.00000000</v>
  <v name="LDAUJ">      0.00000000      0.00000000      0.00000000      0.00000000</v>
  <i type="int" name="LDAUPRINT">     1</i>
 </incar>
 <kpoints>
  <generation param="Monkhorst-Pack">
   <v type="int" name="divisions">       2        2        2 </v>
   <v name="usershift">      0.00000000       0.00000000       0.00000000 </v>
   <v name="genvec1">      0.50000000       0.00000000      -0.00000000 </v>
   <v name="genvec2">     -0.00000000       0.50000000       0.00000000 </v>
   <v name="genvec3">     -0.00000000       0.00000000       0.50000000 </v>
   <v name="shift">      0.50000000       0.50000000       0.50000000 </v>
  </generation>
  <varray name="kpointlist" >
   <v>       0.25000000       0.25000000       0.25000000 </v>
   <v>      -0.25000000       0.25000000       0.25000000 </v>
   <v>       0.25000000      -0.25000000       0.25000000 </v>
   <v>      -0.25000000      -0.25000000       0.25000000 </v>
  </varray>
  <varray name="weights" >
   <v>       0.25000000 </v>
   <v>       0.25000000 </v>
   <v>       0.25000000 </v>
   <v>       0.25000000 </v>
  </varray>
 </kpoints>
 <parameters>
  <separator name="general" >
   <i type="string" name="SYSTEM">STF</i>
   <i type="logical" name="LCOMPAT"> F  </i>
  </separator>
  <separator name="electronic" >
   <i type="string" name="PREC">normal</i>
   <i name="ENMAX">    520.00000000</i>
   <i name="ENAUG">    605.39200000</i>
   <i name="EDIFF">      0.00010000</i>
   <i type="int" name="IALGO">    68</i>
   <i type="int" name="IWAVPR">    11</i>
   <i type="int" name="NBANDS">   768</i>
   <i name="NELECT">   1032.00000000</i>
   <i type="int" name="TURBO">     0</i>
   <i type="int" name="IRESTART">     0</i>
   <i type="int" name="NREBOOT">     0</i>
   <i type="int" name="NMIN">     0</i>
   <i name="EREF">      0.00000000</i>
   <separator name="electronic smearing" >
    <i type="int" name="ISMEAR">     0</i>
    <i name="SIGMA">      0.05000000</i>
    <i name="KSPACING">      0.50000000</i>
    <i type="logical" name="KGAMMA"> T  </i>
   </separator>
   <separator name="electronic projectors" >
    <i type="logical" name="LREAL"> T  </i>
    <v name="ROPT">     -0.00050000     -0.00050000     -0.00050000     -0.00050000</v>
    <i type="int" name="LMAXPAW">  -100</i>
    <i type="int" name="LMAXMIX">     4</i>
    <i type="logical" name="NLSPLINE"> F  </i>
   </separator>
   <separator name="electronic startup" >
    <i type="int" name="ISTART">     1</i>
    <i type="int" name="ICHARG">     0</i>
    <i type="int" name="INIWAV">     1</i>
   </separator>
   <separator name="electronic spin" >
    <i type="int" name="ISPIN">     2</i>
    <i type="logical" name="LNONCOLLINEAR"> F  </i>
    <v name="MAGMOM">      0.60000000      0.60000000      0.60000000      0.60000000      0.60000000      0.60000000      0.60000000      0.60000000      0.60000000      0.60000000      0.60000000      0.60000000      0.60000000      0.60000000      0.60000000      0.60000000      0.60000000      0.60000000      0.60000000      0.60000000
      0.60000000      0.60000000      0.60000000      0.60000000      0.60000000      0.60000000      0.60000000      0.60000000      0.60000000      0.60000000      0.60000000      0.60000000      0.60000000      0.60000000      0.60000000      0.60000000      0.60000000      0.60000000      0.60000000      0.60000000
      0.60000000      0.60000000      0.60000000      0.60000000      0.60000000      0.60000000      0.60000000      0.60000000      0.60000000      0.60000000      0.60000000      0.60000000      0.60000000      0.60000000      0.60000000      0.60000000      5.00000000      5.00000000      5.00000000      5.00000000
      5.00000000      5.00000000      5.00000000      5.00000000      0.60000000      0.60000000      0.60000000      0.60000000      0.60000000      0.60000000      0.60000000      0.60000000      0.60000000      0.60000000      0.60000000      0.60000000      0.60000000      0.60000000      0.60000000      0.60000000
      0.60000000      0.60000000      0.60000000      0.60000000      0.60000000      0.60000000      0.60000000      0.60000000      0.60000000      0.60000000      0.60000000      0.60000000      0.60000000      0.60000000      0.60000000      0.60000000      0.60000000      0.60000000      0.60000000      0.60000000
      0.60000000      0.60000000      0.60000000      0.60000000      0.60000000      0.60000000      0.60000000      0.60000000      0.60000000      0.60000000      0.60000000      0.60000000      0.60000000      0.60000000      0.60000000      0.60000000      0.60000000      0.60000000      0.60000000      0.60000000
      0.60000000      0.60000000      0.60000000      0.60000000      0.60000000      0.60000000      0.60000000      0.60000000      0.60000000      0.60000000      0.60000000      0.60000000      0.60000000      0.60000000      0.60000000      0.60000000      0.60000000      0.60000000      0.60000000      0.60000000
      0.60000000      0.60000000      0.60000000      0.60000000      0.60000000      0.60000000      0.60000000      0.60000000      0.60000000      0.60000000      0.60000000      0.60000000      0.60000000      0.60000000      0.60000000      0.60000000</v>
    <i name="NUPDOWN">     -1.00000000</i>
    <i type="logical" name="LSORBIT"> F  </i>
    <v name="SAXIS">      0.00000000      0.00000000      1.00000000</v>
    <i type="logical" name="LSPIRAL"> F  </i>
    <v name="QSPIRAL">      0.00000000      0.00000000      0.00000000</v>
    <i type="logical" name="LZEROZ"> F  </i>
   </separator>
   <separator name="electronic exchange-correlation" >
    <i type="logical" name="LASPH"> F  </i>
    <i type="logical" name="LMETAGGA"> F  </i>
   </separator>
   <separator name="electronic convergence" >
    <i type="int" name="NELM">    40</i>
    <i type="int" name="NELMDL">     0</i>
    <i type="int" name="NELMIN">     8</i>
    <i name="ENINI">    520.00000000</i>
    <separator name="electronic convergence detail" >
     <i type="logical" name="LDIAG"> T  </i>
     <i type="logical" name="LSUBROT"> F  </i>
     <i name="WEIMIN">      0.00100000</i>
     <i name="EBREAK">      0.00000003</i>
     <i name="DEPER">      0.30000000</i>
     <i type="int" name="NRMM">     4</i>
     <i name="TIME">      0.40000000</i>
    </separator>
   </separator>
   <separator name="electronic mixer" >
    <i name="AMIX">      0.40000000</i>
    <i name="BMIX">      1.00000000</i>
    <i name="AMIN">      0.10000000</i>
    <i name="AMIX_MAG">      1.60000000</i>
    <i name="BMIX_MAG">      1.00000000</i>
    <separator name="electronic mixer details" >
     <i type="int" name="IMIX">     4</i>
     <i type="logical" name="MIXFIRST"> F  </i>
     <i type="int" name="MAXMIX">   -45</i>
     <i name="WC">    100.00000000</i>
     <i type="int" name="INIMIX">     1</i>
     <i type="int" name="MIXPRE">     1</i>
     <i type="int" name="MREMOVE">     5</i>
    </separator>
   </separator>
   <separator name="electronic dipolcorrection" >
    <i type="logical" name="LDIPOL"> F  </i>
    <i type="logical" name="LMONO"> F  </i>
    <i type="int" name="IDIPOL">     0</i>
    <i name="EPSILON">      1.00000000</i>
    <v name="DIPOL">   -100.00000000   -100.00000000   -100.00000000</v>
    <i name="EFIELD">      0.00000000</i>
   </separator>
  </separator>
  <separator name="grids" >
   <i type="int" name="NGX">    64</i>
   <i type="int" name="NGY">    64</i>
   <i type="int" name="NGZ">    90</i>
   <i type="int" name="NGXF">   128</i>
   <i type="int" name="NGYF">   128</i>
   <i type="int" name="NGZF">   180</i>
   <i type="logical" name="ADDGRID"> F  </i>
  </separator>
  <separator name="ionic" >
   <i type="int" name="NSW">    30</i>
   <i type="int" name="IBRION">     2</i>
   <i type="int" name="ISIF">     3</i>
   <i name="PSTRESS">      0.00000000</i>
   <i name="EDIFFG">     -0.03000000</i>
   <i type="int" name="NFREE">     1</i>
   <i name="POTIM">      0.50000000</i>
   <i name="SMASS">     -3.00000000</i>
   <i name="SCALEE">      1.00000000</i>
  </separator>
  <separator name="ionic md" >
   <i name="TEBEG">      0.00010000</i>
   <i name="TEEND">      0.00010000</i>
   <i type="int" name="NBLOCK">     1</i>
   <i type="int" name="KBLOCK">    30</i>
   <i type="int" name="NPACO">   256</i>
   <i name="APACO">     16.00000000</i>
  </separator>
  <separator name="symmetry" >
   <i type="int" name="ISYM">     2</i>
   <i name="SYMPREC">      0.00001000</i>
  </separator>
  <separator name="dos" >
   <i type="logical" name="LORBIT"> F  </i>
   <v name="RWIGS">     -1.00000000     -1.00000000     -1.00000000     -1.00000000</v>
   <i type="int" name="NEDOS">   301</i>
   <i name="EMIN">     10.00000000</i>
   <i name="EMAX">    -10.00000000</i>
   <i name="EFERMI">      0.00000000</i>
  </separator>
  <separator name="writing" >
   <i type="int" name="NWRITE">     2</i>
   <i type="logical" name="LWAVE"> T  </i>
   <i type="logical" name="LCHARG"> T  </i>
   <i type="logical" name="LPARD"> F  </i>
   <i type="logical" name="LVTOT"> F  </i>
   <i type="logical" name="LVHAR"> F  </i>
   <i type="logical" name="LELF"> F  </i>
   <i type="logical" name="LOPTICS"> F  </i>
   <v name="STM">      0.00000000      0.00000000      0.00000000      0.00000000      0.00000000      0.00000000      0.00000000</v>
  </separator>
  <separator name="performance" >
   <i type="int" name="NPAR">     2</i>
   <i type="int" name="NSIM">     4</i>
   <i type="int" name="NBLK">    -1</i>
   <i type="logical" name="LPLANE"> T  </i>
   <i type="logical" name="LSCALAPACK"> T  </i>
   <i type="logical" name="LSCAAWARE"> F  </i>
   <i type="logical" name="LSCALU"> F  </i>
   <i type="logical" name="LASYNC"> F  </i>
   <i type="logical" name="LORBITALREAL"> F  </i>
  </separator>
  <separator name="miscellaneous" >
   <i type="int" name="IDIOT">     3</i>
   <i type="logical" name="LMUSIC"> F  </i>
   <v name="POMASS">     87.62000000     47.88000000     55.84700000     16.00000000</v>
   <v name="DARWINR">      0.00000000      0.00000000      0.00000000      0.00000000</v>
   <v name="DARWINV">      1.00000000      1.00000000      1.00000000      1.00000000</v>
   <i type="logical" name="LCORR"> T  </i>
  </separator>
  <i type="logical" name="GGA_COMPAT"> T  </i>
  <i type="logical" name="LBERRY"> F  </i>
  <i type="int" name="ICORELEVEL">     0</i>
  <i type="logical" name="LDAU"> T  </i>
  <v type="int" name="LDAUTYPE">     2</v>
  <v type="int" name="LDAUL">     0</v>
  <v name="LDAUU">      0.00000000</v>
  <v name="LDAUJ">      0.00000000</v>
  <i type="int" name="LDAUPRINT">     1</i>
  <i type="int" name="I_CONSTRAINED_M">     0</i>
  <separator name="electronic exchange-correlation" >
   <i type="string" name="GGA">--</i>
   <i type="int" name="VOSKOWN">     0</i>
   <i type="logical" name="LHFCALC"> F  </i>
   <i type="string" name="PRECFOCK"></i>
   <i type="logical" name="LSYMGRAD"> F  </i>
   <i type="logical" name="LHFONE"> F  </i>
   <i type="logical" name="LRHFCALC"> F  </i>
   <i type="logical" name="LTHOMAS"> F  </i>
   <i type="logical" name="LMODELHF"> F  </i>
   <i name="ENCUT4O">     -1.00000000</i>
   <i type="int" name="EXXOEP">     0</i>
   <i type="int" name="FOURORBIT">     0</i>
   <i name="AEXX">      0.00000000</i>
   <i name="HFALPHA">      0.00000000</i>
   <i name="MCALPHA">      0.00000000</i>
   <i name="ALDAX">      1.00000000</i>
   <i name="AGGAX">      1.00000000</i>
   <i name="ALDAC">      1.00000000</i>
   <i name="AGGAC">      1.00000000</i>
   <i type="int" name="NKREDX">     1</i>
   <i type="int" name="NKREDY">     1</i>
   <i type="int" name="NKREDZ">     1</i>
   <i type="logical" name="SHIFTRED"> F  </i>
   <i type="logical" name="ODDONLY"> F  </i>
   <i type="logical" name="EVENONLY"> F  </i>
   <i type="int" name="LMAXFOCK">     0</i>
   <i type="int" name="NMAXFOCKAE">     0</i>
   <i type="logical" name="LFOCKAEDFT"> F  </i>
   <i name="HFSCREEN">      0.00000000</i>
   <i name="HFSCREENC">      0.00000000</i>
   <i type="int" name="NBANDSGWLOW">     0</i>
  </separator>
  <separator name="vdW DFT" >
   <i type="logical" name="LUSE_VDW"> F  </i>
   <i name="Zab_VDW">     -0.84910000</i>
   <i name="PARAM1">      0.12340000</i>
   <i name="PARAM2">      1.00000000</i>
   <i name="PARAM3">      0.00000000</i>
  </separator>
  <separator name="model GW" >
   <i type="int" name="MODEL_GW">     0</i>
   <i name="MODEL_EPS0">      7.70705010</i>
   <i name="MODEL_ALPHA">      1.00000000</i>
  </separator>
  <separator name="linear response parameters" >
   <i type="logical" name="LEPSILON"> F  </i>
   <i type="logical" name="LRPA"> F  </i>
   <i type="logical" name="LNABLA"> F  </i>
   <i type="logical" name="LVEL"> F  </i>
   <i type="int" name="KINTER">     0</i>
   <i name="CSHIFT">      0.10000000</i>
   <i name="OMEGAMAX">     -1.00000000</i>
   <i name="DEG_THRESHOLD">      0.00200000</i>
  </separator>
  <separator name="orbital magnetization" >
   <i type="logical" name="NUCIND"> F  </i>
   <v name="MAGPOS">      0.00000000      0.00000000      0.00000000</v>
   <i type="logical" name="LNICSALL"> T  </i>
   <i type="logical" name="ORBITALMAG"> F  </i>
   <i type="logical" name="LMAGBLOCH"> F  </i>
   <i type="logical" name="LCHIMAG"> F  </i>
   <i type="logical" name="LGAUGE"> T  </i>
   <i type="int" name="MAGATOM">     0</i>
   <v name="MAGDIPOL">      0.00000000      0.00000000      0.00000000</v>
   <v name="AVECCONST">      0.00000000      0.00000000      0.00000000</v>
  </separator>
  <separator name="response functions" >
   <i type="logical" name="LADDER"> F  </i>
   <i type="logical" name="LFXC"> F  </i>
   <i type="logical" name="LHARTREE"> T  </i>
   <i type="int" name="IBSE">     0</i>
   <v type="int" name="KPOINT">    -1     0     0     0</v>
   <i type="logical" name="LTCTE"> F  </i>
   <i type="logical" name="LTETE"> F  </i>
   <i type="logical" name="LTRIPLET"> F  </i>
   <i type="logical" name="LFXCEPS"> F  </i>
   <i type="logical" name="LFXHEG"> F  </i>
   <i type="int" name="NATURALO">     0</i>
   <i type="logical" name="L2ORDER"> F  </i>
   <i type="logical" name="LUSEW"> F  </i>
   <i name="ENCUTGW">     -2.00000000</i>
   <i name="ENCUTGWSOFT">     -2.00000000</i>
   <i name="ENCUTLF">     -1.00000000</i>
   <i type="int" name="LMAXMP2">    -1</i>
   <i name="SCISSOR">      0.00000000</i>
   <i type="int" name="NOMEGA">     0</i>
   <i type="int" name="NOMEGAR">     0</i>
   <i type="int" name="NBANDSGW">    -1</i>
   <i type="int" name="NBANDSO">    -1</i>
   <i type="int" name="NBANDSV">    -1</i>
   <i type="int" name="NELM">    40</i>
   <i type="int" name="NELMHF">     1</i>
   <i type="int" name="DIM">     3</i>
   <i type="int" name="ANTIRES">     0</i>
   <i name="OMEGAMAX">    -30.00000000</i>
   <i name="OMEGAMIN">    -30.00000000</i>
   <i name="OMEGATL">   -200.00000000</i>
   <i type="int" name="OMEGAGRID">     0</i>
   <i name="CSHIFT">     -0.10000000</i>
   <i type="logical" name="SELFENERGY"> F  </i>
   <i type="logical" name="LSPECTRAL"> F  </i>
   <i type="logical" name="LSPECTRALGW"> F  </i>
   <i type="logical" name="LSINGLES"> F  </i>
   <i type="logical" name="LFERMIGW"> F  </i>
   <i type="logical" name="ODDONLYGW"> F  </i>
   <i type="logical" name="EVENONLYGW"> F  </i>
   <i type="int" name="NKREDLFX">     1</i>
   <i type="int" name="NKREDLFY">     1</i>
   <i type="int" name="NKREDLFZ">     1</i>
   <i type="int" name="MAXMEM">  1800</i>
   <i type="int" name="TELESCOPE">     0</i>
   <i type="int" name="TAUPAR">     1</i>
   <i type="int" name="OMEGAPAR">    -1</i>
   <i name="LAMBDA">      1.00000000</i>
  </separator>
  <separator name="External order field" >
   <i name="OFIELD_KAPPA">      0.00000000</i>
   <v name="OFIELD_K">      0.00000000      0.00000000      0.00000000</v>
   <i name="OFIELD_Q6_NEAR">      0.00000000</i>
   <i name="OFIELD_Q6_FAR">      0.00000000</i>
   <i name="OFIELD_A">      0.00000000</i>
  </separator>
 </parameters>
 <atominfo>
  <atoms>     156 </atoms>
  <types>       4 </types>
  <array name="atoms" >
   <dimension dim="1">ion</dimension>
   <field type="string">element</field>
   <field type="int">atomtype</field>
   <set>
    <rc><c>Sr</c><c>   1</c></rc>
    <rc><c>Sr</c><c>   1</c></rc>
    <rc><c>Sr</c><c>   1</c></rc>
    <rc><c>Sr</c><c>   1</c></rc>
    <rc><c>Sr</c><c>   1</c></rc>
    <rc><c>Sr</c><c>   1</c></rc>
    <rc><c>Sr</c><c>   1</c></rc>
    <rc><c>Sr</c><c>   1</c></rc>
    <rc><c>Sr</c><c>   1</c></rc>
    <rc><c>Sr</c><c>   1</c></rc>
    <rc><c>Sr</c><c>   1</c></rc>
    <rc><c>Sr</c><c>   1</c></rc>
    <rc><c>Sr</c><c>   1</c></rc>
    <rc><c>Sr</c><c>   1</c></rc>
    <rc><c>Sr</c><c>   1</c></rc>
    <rc><c>Sr</c><c>   1</c></rc>
    <rc><c>Sr</c><c>   1</c></rc>
    <rc><c>Sr</c><c>   1</c></rc>
    <rc><c>Sr</c><c>   1</c></rc>
    <rc><c>Sr</c><c>   1</c></rc>
    <rc><c>Sr</c><c>   1</c></rc>
    <rc><c>Sr</c><c>   1</c></rc>
    <rc><c>Sr</c><c>   1</c></rc>
    <rc><c>Sr</c><c>   1</c></rc>
    <rc><c>Sr</c><c>   1</c></rc>
    <rc><c>Sr</c><c>   1</c></rc>
    <rc><c>Sr</c><c>   1</c></rc>
    <rc><c>Sr</c><c>   1</c></rc>
    <rc><c>Sr</c><c>   1</c></rc>
    <rc><c>Sr</c><c>   1</c></rc>
    <rc><c>Sr</c><c>   1</c></rc>
    <rc><c>Sr</c><c>   1</c></rc>
    <rc><c>Ti</c><c>   2</c></rc>
    <rc><c>Ti</c><c>   2</c></rc>
    <rc><c>Ti</c><c>   2</c></rc>
    <rc><c>Ti</c><c>   2</c></rc>
    <rc><c>Ti</c><c>   2</c></rc>
    <rc><c>Ti</c><c>   2</c></rc>
    <rc><c>Ti</c><c>   2</c></rc>
    <rc><c>Ti</c><c>   2</c></rc>
    <rc><c>Ti</c><c>   2</c></rc>
    <rc><c>Ti</c><c>   2</c></rc>
    <rc><c>Ti</c><c>   2</c></rc>
    <rc><c>Ti</c><c>   2</c></rc>
    <rc><c>Ti</c><c>   2</c></rc>
    <rc><c>Ti</c><c>   2</c></rc>
    <rc><c>Ti</c><c>   2</c></rc>
    <rc><c>Ti</c><c>   2</c></rc>
    <rc><c>Ti</c><c>   2</c></rc>
    <rc><c>Ti</c><c>   2</c></rc>
    <rc><c>Ti</c><c>   2</c></rc>
    <rc><c>Ti</c><c>   2</c></rc>
    <rc><c>Ti</c><c>   2</c></rc>
    <rc><c>Ti</c><c>   2</c></rc>
    <rc><c>Ti</c><c>   2</c></rc>
    <rc><c>Ti</c><c>   2</c></rc>
    <rc><c>Fe</c><c>   3</c></rc>
    <rc><c>Fe</c><c>   3</c></rc>
    <rc><c>Fe</c><c>   3</c></rc>
    <rc><c>Fe</c><c>   3</c></rc>
    <rc><c>Fe</c><c>   3</c></rc>
    <rc><c>Fe</c><c>   3</c></rc>
    <rc><c>Fe</c><c>   3</c></rc>
    <rc><c>Fe</c><c>   3</c></rc>
    <rc><c>O </c><c>   4</c></rc>
    <rc><c>O </c><c>   4</c></rc>
    <rc><c>O </c><c>   4</c></rc>
    <rc><c>O </c><c>   4</c></rc>
    <rc><c>O </c><c>   4</c></rc>
    <rc><c>O </c><c>   4</c></rc>
    <rc><c>O </c><c>   4</c></rc>
    <rc><c>O </c><c>   4</c></rc>
    <rc><c>O </c><c>   4</c></rc>
    <rc><c>O </c><c>   4</c></rc>
    <rc><c>O </c><c>   4</c></rc>
    <rc><c>O </c><c>   4</c></rc>
    <rc><c>O </c><c>   4</c></rc>
    <rc><c>O </c><c>   4</c></rc>
    <rc><c>O </c><c>   4</c></rc>
    <rc><c>O </c><c>   4</c></rc>
    <rc><c>O </c><c>   4</c></rc>
    <rc><c>O </c><c>   4</c></rc>
    <rc><c>O </c><c>   4</c></rc>
    <rc><c>O </c><c>   4</c></rc>
    <rc><c>O </c><c>   4</c></rc>
    <rc><c>O </c><c>   4</c></rc>
    <rc><c>O </c><c>   4</c></rc>
    <rc><c>O </c><c>   4</c></rc>
    <rc><c>O </c><c>   4</c></rc>
    <rc><c>O </c><c>   4</c></rc>
    <rc><c>O </c><c>   4</c></rc>
    <rc><c>O </c><c>   4</c></rc>
    <rc><c>O </c><c>   4</c></rc>
    <rc><c>O </c><c>   4</c></rc>
    <rc><c>O </c><c>   4</c></rc>
    <rc><c>O </c><c>   4</c></rc>
    <rc><c>O </c><c>   4</c></rc>
    <rc><c>O </c><c>   4</c></rc>
    <rc><c>O </c><c>   4</c></rc>
    <rc><c>O </c><c>   4</c></rc>
    <rc><c>O </c><c>   4</c></rc>
    <rc><c>O </c><c>   4</c></rc>
    <rc><c>O </c><c>   4</c></rc>
    <rc><c>O </c><c>   4</c></rc>
    <rc><c>O </c><c>   4</c></rc>
    <rc><c>O </c><c>   4</c></rc>
    <rc><c>O </c><c>   4</c></rc>
    <rc><c>O </c><c>   4</c></rc>
    <rc><c>O </c><c>   4</c></rc>
    <rc><c>O </c><c>   4</c></rc>
    <rc><c>O </c><c>   4</c></rc>
    <rc><c>O </c><c>   4</c></rc>
    <rc><c>O </c><c>   4</c></rc>
    <rc><c>O </c><c>   4</c></rc>
    <rc><c>O </c><c>   4</c></rc>
    <rc><c>O </c><c>   4</c></rc>
    <rc><c>O </c><c>   4</c></rc>
    <rc><c>O </c><c>   4</c></rc>
    <rc><c>O </c><c>   4</c></rc>
    <rc><c>O </c><c>   4</c></rc>
    <rc><c>O </c><c>   4</c></rc>
    <rc><c>O </c><c>   4</c></rc>
    <rc><c>O </c><c>   4</c></rc>
    <rc><c>O </c><c>   4</c></rc>
    <rc><c>O </c><c>   4</c></rc>
    <rc><c>O </c><c>   4</c></rc>
    <rc><c>O </c><c>   4</c></rc>
    <rc><c>O </c><c>   4</c></rc>
    <rc><c>O </c><c>   4</c></rc>
    <rc><c>O </c><c>   4</c></rc>
    <rc><c>O </c><c>   4</c></rc>
    <rc><c>O </c><c>   4</c></rc>
    <rc><c>O </c><c>   4</c></rc>
    <rc><c>O </c><c>   4</c></rc>
    <rc><c>O </c><c>   4</c></rc>
    <rc><c>O </c><c>   4</c></rc>
    <rc><c>O </c><c>   4</c></rc>
    <rc><c>O </c><c>   4</c></rc>
    <rc><c>O </c><c>   4</c></rc>
    <rc><c>O </c><c>   4</c></rc>
    <rc><c>O </c><c>   4</c></rc>
    <rc><c>O </c><c>   4</c></rc>
    <rc><c>O </c><c>   4</c></rc>
    <rc><c>O </c><c>   4</c></rc>
    <rc><c>O </c><c>   4</c></rc>
    <rc><c>O </c><c>   4</c></rc>
    <rc><c>O </c><c>   4</c></rc>
    <rc><c>O </c><c>   4</c></rc>
    <rc><c>O </c><c>   4</c></rc>
    <rc><c>O </c><c>   4</c></rc>
    <rc><c>O </c><c>   4</c></rc>
    <rc><c>O </c><c>   4</c></rc>
    <rc><c>O </c><c>   4</c></rc>
    <rc><c>O </c><c>   4</c></rc>
    <rc><c>O </c><c>   4</c></rc>
    <rc><c>O </c><c>   4</c></rc>
   </set>
  </array>
  <array name="atomtypes" >
   <dimension dim="1">type</dimension>
   <field type="int">atomspertype</field>
   <field type="string">element</field>
   <field>mass</field>
   <field>valence</field>
   <field type="string">pseudopotential</field>
   <set>
    <rc><c>  32</c><c>Sr</c><c>     87.62000000</c><c>     10.00000000</c><c>  PAW_PBE Sr_sv 07Sep2000               </c></rc>
    <rc><c>  24</c><c>Ti</c><c>     47.88000000</c><c>      4.00000000</c><c>  PAW_PBE Ti 08Apr2002                  </c></rc>
    <rc><c>   8</c><c>Fe</c><c>     55.84700000</c><c>      8.00000000</c><c>  PAW_PBE Fe 06Sep2000                  </c></rc>
    <rc><c>  92</c><c>O </c><c>     16.00000000</c><c>      6.00000000</c><c>  PAW_PBE O 08Apr2002                   </c></rc>
   </set>
  </array>
 </atominfo>
 <structure name="initialpos" >
  <crystal>
   <varray name="basis" >
    <v>      11.21412268       0.00243215      -0.00687190 </v>
    <v>       0.00243289      11.21185405      -0.00694301 </v>
    <v>      -0.00980909      -0.00990556      15.93746129 </v>
   </varray>
   <i name="volume">   2003.83302599 </i>
   <varray name="rec_basis" >
    <v>       0.08917331      -0.00001932       0.00005487 </v>
    <v>      -0.00001931       0.08919135       0.00005542 </v>
    <v>       0.00003844       0.00003885       0.06274530 </v>
   </varray>
  </crystal>
  <varray name="positions" >
   <v>       0.99752562       0.24549946       0.12643468 </v>
   <v>       0.00624211       0.24783566       0.61904556 </v>
   <v>       0.99664496       0.75447262       0.12622444 </v>
   <v>       0.00199760       0.75323190       0.61836104 </v>
   <v>       0.49956160       0.24971525       0.12188734 </v>
   <v>       0.49580852       0.24947363       0.62448139 </v>
   <v>       0.50197477       0.75169851       0.12290647 </v>
   <v>       0.50010630       0.75152059       0.62327345 </v>
   <v>       0.00534546       0.25324386       0.37869133 </v>
   <v>       0.99777290       0.23651483       0.87614520 </v>
   <v>       0.99349111       0.74750894       0.37896457 </v>
   <v>       0.00267136       0.76054433       0.87560891 </v>
   <v>       0.49237106       0.25148711       0.37828577 </v>
   <v>       0.50213673       0.24809238       0.87391576 </v>
   <v>       0.50712443       0.75026756       0.37776917 </v>
   <v>       0.49852281       0.75130933       0.87527577 </v>
   <v>       0.24739467       0.00289001       0.12102043 </v>
   <v>       0.25307038       0.00172402       0.62535383 </v>
   <v>       0.25415979       0.49947188       0.12663124 </v>
   <v>       0.24964689       0.49937964       0.62096526 </v>
   <v>       0.74909451       0.99923020       0.12094620 </v>
   <v>       0.74856937       0.99982974       0.62460528 </v>
   <v>       0.74518187       0.49993736       0.12433827 </v>
   <v>       0.74939082       0.50134671       0.62057181 </v>
   <v>       0.25140118       0.00873310       0.37729330 </v>
   <v>       0.25074815       0.99806765       0.87641074 </v>
   <v>       0.24614873       0.49441202       0.38091426 </v>
   <v>       0.25676941       0.50006450       0.87188119 </v>
   <v>       0.74856160       0.99332664       0.37894777 </v>
   <v>       0.74904234       0.00149497       0.87375287 </v>
   <v>       0.75291072       0.50744312       0.37695612 </v>
   <v>       0.74258700       0.49690468       0.87746066 </v>
   <v>       0.99991439       0.00029739       0.00037079 </v>
   <v>       0.00009798       0.00015492       0.49848109 </v>
   <v>       0.99277844       0.51047149       0.99949477 </v>
   <v>       0.50045479       0.99965971       0.99740565 </v>
   <v>       0.49973927       0.00029626       0.50038890 </v>
   <v>       0.49784791       0.49950484       0.99995225 </v>
   <v>       0.50000847       0.49991123       0.49935785 </v>
   <v>       0.24981227       0.25067253       0.50121619 </v>
   <v>       0.74567254       0.75288088       0.99879524 </v>
   <v>       0.75150784       0.74821079       0.50154286 </v>
   <v>       0.24838468       0.25156405       0.24737752 </v>
   <v>       0.24886302       0.24868451       0.75261278 </v>
   <v>       0.25014079       0.75080747       0.23887158 </v>
   <v>       0.25648561       0.75544390       0.75106403 </v>
   <v>       0.74884765       0.24997049       0.23887228 </v>
   <v>       0.75000730       0.75044886       0.24894365 </v>
   <v>       0.74813966       0.75058761       0.75016977 </v>
   <v>       0.99980971       0.00029329       0.25300174 </v>
   <v>       0.99937054       0.99992199       0.74846622 </v>
   <v>       0.00127441       0.50018677       0.25248192 </v>
   <v>       0.00693943       0.51238863       0.74905751 </v>
   <v>       0.50030321       0.00119957       0.25105675 </v>
   <v>       0.49977130       0.50011277       0.25274189 </v>
   <v>       0.50147121       0.50003274       0.74927461 </v>
   <v>       0.99731978       0.49857871       0.49890148 </v>
   <v>       0.26117812       0.24317763       0.99931221 </v>
   <v>       0.25250548       0.74876963       0.99611753 </v>
   <v>       0.24980406       0.74986905       0.50995752 </v>
   <v>       0.75159698       0.24917151       0.99403227 </v>
   <v>       0.75306075       0.25249289       0.51429471 </v>
   <v>       0.73661809       0.24079593       0.75061877 </v>
   <v>       0.49915243       0.99832599       0.75005156 </v>
   <v>       0.11065087       0.13889346       0.25026552 </v>
   <v>       0.10925093       0.13875676       0.74869013 </v>
   <v>       0.11501356       0.64371434       0.25816885 </v>
   <v>       0.10516381       0.64354174       0.74945848 </v>
   <v>       0.61420997       0.14331949       0.26086672 </v>
   <v>       0.60448176       0.14016594       0.74719504 </v>
   <v>       0.61202269       0.63821335       0.24975326 </v>
   <v>       0.60593135       0.64327831       0.74979922 </v>
   <v>       0.38884951       0.36141850       0.24735941 </v>
   <v>       0.38602138       0.36225372       0.75174951 </v>
   <v>       0.38666889       0.85928576       0.25724690 </v>
   <v>       0.39219084       0.85761719       0.75000545 </v>
   <v>       0.88656844       0.35841846       0.25499996 </v>
   <v>       0.88954163       0.86102021       0.25079193 </v>
   <v>       0.89365877       0.85442881       0.74885893 </v>
   <v>       0.36032674       0.11263407       0.24351197 </v>
   <v>       0.35542587       0.11239920       0.75624930 </v>
   <v>       0.35863068       0.61504577       0.26040340 </v>
   <v>       0.35627384       0.60891081       0.74844085 </v>
   <v>       0.85791311       0.11456906       0.25758516 </v>
   <v>       0.86428241       0.11195823       0.75105027 </v>
   <v>       0.86285836       0.61081547       0.24296001 </v>
   <v>       0.85357509       0.59466995       0.75541260 </v>
   <v>       0.13940915       0.38971455       0.25557223 </v>
   <v>       0.12619485       0.38466676       0.74429849 </v>
   <v>       0.14264431       0.88663438       0.25851192 </v>
   <v>       0.14191185       0.89194981       0.75063275 </v>
   <v>       0.64249814       0.38629855       0.25955540 </v>
   <v>       0.64020186       0.39428470       0.74847439 </v>
   <v>       0.63917915       0.88869669       0.25134607 </v>
   <v>       0.64526177       0.88939076       0.74871910 </v>
   <v>       0.35733937       0.39167037       0.00142205 </v>
   <v>       0.36415922       0.38543498       0.49971389 </v>
   <v>       0.36190869       0.89067652       0.00355434 </v>
   <v>       0.36375875       0.88272590       0.48876362 </v>
   <v>       0.88115185       0.37898966       0.00831340 </v>
   <v>       0.86107503       0.37869355       0.48102011 </v>
   <v>       0.86112626       0.88644406       0.00037095 </v>
   <v>       0.86517771       0.88367258       0.50037617 </v>
   <v>       0.13027238       0.12283028       0.99987329 </v>
   <v>       0.13533152       0.11514114       0.50123928 </v>
   <v>       0.14378816       0.59284278       0.99503310 </v>
   <v>       0.13654232       0.61663730       0.49618197 </v>
   <v>       0.63790594       0.11171471       0.99538523 </v>
   <v>       0.63857885       0.11701332       0.49871477 </v>
   <v>       0.64255999       0.61060679       0.00136334 </v>
   <v>       0.63432967       0.61528669       0.49941293 </v>
   <v>       0.11660548       0.36387581       0.50010156 </v>
   <v>       0.11053739       0.86158902       0.00251275 </v>
   <v>       0.11661392       0.86406434       0.48967607 </v>
   <v>       0.61364870       0.36463357       0.99934588 </v>
   <v>       0.61410463       0.36270818       0.49698995 </v>
   <v>       0.61089747       0.85938620       0.00093310 </v>
   <v>       0.61638521       0.86478491       0.49903655 </v>
   <v>       0.39067698       0.13824240       0.00144773 </v>
   <v>       0.38552026       0.13592414       0.49936894 </v>
   <v>       0.39413532       0.64028593       0.00191519 </v>
   <v>       0.38371708       0.63668254       0.49093064 </v>
   <v>       0.88528752       0.13171708       0.00202063 </v>
   <v>       0.88404604       0.13401161       0.49271705 </v>
   <v>       0.89154085       0.64054623       0.00010990 </v>
   <v>       0.88293194       0.63520660       0.50099597 </v>
   <v>       0.00062336       0.99873446       0.12840855 </v>
   <v>       0.00040314       0.99723997       0.62299413 </v>
   <v>       0.01574166       0.49300815       0.12383692 </v>
   <v>       0.98396585       0.48889862       0.62833538 </v>
   <v>       0.50721218       0.00150998       0.12752441 </v>
   <v>       0.49445001       0.99744460       0.62254814 </v>
   <v>       0.50233602       0.49997682       0.12816953 </v>
   <v>       0.49618202       0.50178454       0.62343282 </v>
   <v>       0.99918705       0.00112124       0.37437280 </v>
   <v>       0.00053701       0.99728242       0.87506990 </v>
   <v>       0.99851872       0.50568949       0.37219412 </v>
   <v>       0.99832900       0.47761878       0.87479531 </v>
   <v>       0.50008648       0.00430631       0.37382938 </v>
   <v>       0.49986938       0.99599847       0.87590454 </v>
   <v>       0.50052238       0.49772892       0.37464251 </v>
   <v>       0.49933794       0.50176545       0.87492278 </v>
   <v>       0.25280340       0.24745777       0.37414178 </v>
   <v>       0.23500074       0.26367250       0.87811683 </v>
   <v>       0.24925699       0.75039745       0.87391182 </v>
   <v>       0.76566421       0.26427428       0.86980766 </v>
   <v>       0.75207819       0.74751494       0.37418688 </v>
   <v>       0.75076055       0.75027982       0.87557462 </v>
   <v>       0.23419056       0.26272985       0.12208746 </v>
   <v>       0.25356534       0.24872996       0.62562503 </v>
   <v>       0.24803737       0.74644028       0.12432093 </v>
   <v>       0.24897145       0.75344816       0.62756814 </v>
   <v>       0.74420201       0.24812029       0.12456475 </v>
   <v>       0.77525591       0.26772127       0.63265873 </v>
   <v>       0.75018718       0.75193581       0.12434327 </v>
   <v>       0.75140493       0.74660920       0.62573330 </v>
  </varray>
 </structure>
 <calculation>
  <scstep>
   <time name="dav">  598.21  598.32</time>
   <time name="total">  605.33  605.67</time>
   <energy>
    <i name="alphaZ">   5631.88458892 </i>
    <i name="ewald"> -61453.82979793 </i>
    <i name="hartreedc"> -16088.44961237 </i>
    <i name="XCdc">   2963.06964597 </i>
    <i name="pawpsdc"> 112144.10282195 </i>
    <i name="pawaedc">-111044.13945660 </i>
    <i name="eentropy">     -0.00000000 </i>
    <i name="bandstr">  -7055.88100051 </i>
    <i name="atom">  73783.44779670 </i>
    <i name="e_fr_energy">  -1119.79501388 </i>
    <i name="e_wo_entrp">  -1119.79501388 </i>
    <i name="e_0_energy">  -1119.79501388 </i>
   </energy>
  </scstep>
  <scstep>
   <time name="diag">   64.80   64.86</time>
   <time name="diis">   62.74   62.74</time>
   <time name="orth">   33.39   33.39</time>
   <time name="total">  168.18  168.27</time>
   <energy>
    <i name="e_fr_energy">  -1119.79501291 </i>
    <i name="e_wo_entrp">  -1119.79501291 </i>
    <i name="e_0_energy">  -1119.79501291 </i>
   </energy>
  </scstep>
  <scstep>
   <time name="diag">   64.86   64.90</time>
   <time name="diis">   60.62   60.61</time>
   <time name="orth">   33.40   33.40</time>
   <time name="total">  166.11  166.15</time>
   <energy>
    <i name="e_fr_energy">  -1119.79501319 </i>
    <i name="e_wo_entrp">  -1119.79501319 </i>
    <i name="e_0_energy">  -1119.79501319 </i>
   </energy>
  </scstep>
  <scstep>
   <time name="diag">   64.95   64.96</time>
   <time name="diis">   51.40   51.42</time>
   <time name="orth">   33.44   33.44</time>
   <time name="total">  156.97  157.09</time>
   <energy>
    <i name="e_fr_energy">  -1119.79501367 </i>
    <i name="e_wo_entrp">  -1119.79501367 </i>
    <i name="e_0_energy">  -1119.79501367 </i>
   </energy>
  </scstep>
  <scstep>
   <time name="diag">   64.82   64.83</time>
   <time name="diis">   50.94   50.96</time>
   <time name="orth">   33.32   33.32</time>
   <time name="total">  156.37  156.54</time>
   <energy>
    <i name="e_fr_energy">  -1119.79501390 </i>
    <i name="e_wo_entrp">  -1119.79501390 </i>
    <i name="e_0_energy">  -1119.79501390 </i>
   </energy>
  </scstep>
  <scstep>
   <time name="diag">   64.96   64.97</time>
   <time name="diis">   47.59   47.58</time>
   <time name="orth">   33.31   33.31</time>
   <time name="total">  153.11  153.19</time>
   <energy>
    <i name="e_fr_energy">  -1119.79501411 </i>
    <i name="e_wo_entrp">  -1119.79501411 </i>
    <i name="e_0_energy">  -1119.79501411 </i>
   </energy>
  </scstep>
  <scstep>
   <time name="diag">   64.70   64.80</time>
   <time name="diis">   47.05   47.09</time>
   <time name="orth">   33.38   33.38</time>
   <time name="total">  152.27  152.56</time>
   <energy>
    <i name="e_fr_energy">  -1119.79501418 </i>
    <i name="e_wo_entrp">  -1119.79501418 </i>
    <i name="e_0_energy">  -1119.79501418 </i>
   </energy>
  </scstep>
  <scstep>
   <time name="diag">   64.83   64.82</time>
   <time name="diis">   46.20   46.22</time>
   <time name="orth">   33.41   33.41</time>
   <time name="total">  145.49  145.61</time>
   <energy>
    <i name="alphaZ">   5631.88458892 </i>
    <i name="ewald"> -61453.82979793 </i>
    <i name="hartreedc"> -16088.43524244 </i>
    <i name="XCdc">   2963.06916069 </i>
    <i name="pawpsdc"> 112142.86409111 </i>
    <i name="pawaedc">-111042.89635967 </i>
    <i name="eentropy">     -0.00000000 </i>
    <i name="bandstr">  -7055.89925163 </i>
    <i name="atom">  73783.44779670 </i>
    <i name="e_fr_energy">  -1119.79501426 </i>
    <i name="e_wo_entrp">  -1119.79501426 </i>
    <i name="e_0_energy">  -1119.79501426 </i>
   </energy>
  </scstep>
  <structure>
   <crystal>
    <varray name="basis" >
     <v>      11.21412268       0.00243215      -0.00687190 </v>
     <v>       0.00243289      11.21185405      -0.00694301 </v>
     <v>      -0.00980909      -0.00990556      15.93746129 </v>
    </varray>
    <i name="volume">   2003.83302599 </i>
    <varray name="rec_basis" >
     <v>       0.08917331      -0.00001932       0.00005487 </v>
     <v>      -0.00001931       0.08919135       0.00005542 </v>
     <v>       0.00003844       0.00003885       0.06274530 </v>
    </varray>
   </crystal>
   <varray name="positions" >
    <v>       0.99752562       0.24549946       0.12643468 </v>
    <v>       0.00624211       0.24783566       0.61904556 </v>
    <v>       0.99664496       0.75447262       0.12622444 </v>
    <v>       0.00199760       0.75323190       0.61836104 </v>
    <v>       0.49956160       0.24971525       0.12188734 </v>
    <v>       0.49580852       0.24947363       0.62448139 </v>
    <v>       0.50197477       0.75169851       0.12290647 </v>
    <v>       0.50010630       0.75152059       0.62327345 </v>
    <v>       0.00534546       0.25324386       0.37869133 </v>
    <v>       0.99777290       0.23651483       0.87614520 </v>
    <v>       0.99349111       0.74750894       0.37896457 </v>
    <v>       0.00267136       0.76054433       0.87560891 </v>
    <v>       0.49237106       0.25148711       0.37828577 </v>
    <v>       0.50213673       0.24809238       0.87391576 </v>
    <v>       0.50712443       0.75026756       0.37776917 </v>
    <v>       0.49852281       0.75130933       0.87527577 </v>
    <v>       0.24739467       0.00289001       0.12102043 </v>
    <v>       0.25307038       0.00172402       0.62535383 </v>
    <v>       0.25415979       0.49947188       0.12663124 </v>
    <v>       0.24964689       0.49937964       0.62096526 </v>
    <v>       0.74909451       0.99923020       0.12094620 </v>
    <v>       0.74856937       0.99982974       0.62460528 </v>
    <v>       0.74518187       0.49993736       0.12433827 </v>
    <v>       0.74939082       0.50134671       0.62057181 </v>
    <v>       0.25140118       0.00873310       0.37729330 </v>
    <v>       0.25074815       0.99806765       0.87641074 </v>
    <v>       0.24614873       0.49441202       0.38091426 </v>
    <v>       0.25676941       0.50006450       0.87188119 </v>
    <v>       0.74856160       0.99332664       0.37894777 </v>
    <v>       0.74904234       0.00149497       0.87375287 </v>
    <v>       0.75291072       0.50744312       0.37695612 </v>
    <v>       0.74258700       0.49690468       0.87746066 </v>
    <v>       0.99991439       0.00029739       0.00037079 </v>
    <v>       0.00009798       0.00015492       0.49848109 </v>
    <v>       0.99277844       0.51047149       0.99949477 </v>
    <v>       0.50045479       0.99965971       0.99740565 </v>
    <v>       0.49973927       0.00029626       0.50038890 </v>
    <v>       0.49784791       0.49950484       0.99995225 </v>
    <v>       0.50000847       0.49991123       0.49935785 </v>
    <v>       0.24981227       0.25067253       0.50121619 </v>
    <v>       0.74567254       0.75288088       0.99879524 </v>
    <v>       0.75150784       0.74821079       0.50154286 </v>
    <v>       0.24838468       0.25156405       0.24737752 </v>
    <v>       0.24886302       0.24868451       0.75261278 </v>
    <v>       0.25014079       0.75080747       0.23887158 </v>
    <v>       0.25648561       0.75544390       0.75106403 </v>
    <v>       0.74884765       0.24997049       0.23887228 </v>
    <v>       0.75000730       0.75044886       0.24894365 </v>
    <v>       0.74813966       0.75058761       0.75016977 </v>
    <v>       0.99980971       0.00029329       0.25300174 </v>
    <v>       0.99937054       0.99992199       0.74846622 </v>
    <v>       0.00127441       0.50018677       0.25248192 </v>
    <v>       0.00693943       0.51238863       0.74905751 </v>
    <v>       0.50030321       0.00119957       0.25105675 </v>
    <v>       0.49977130       0.50011277       0.25274189 </v>
    <v>       0.50147121       0.50003274       0.74927461 </v>
    <v>       0.99731978       0.49857871       0.49890148 </v>
    <v>       0.26117812       0.24317763       0.99931221 </v>
    <v>       0.25250548       0.74876963       0.99611753 </v>
    <v>       0.24980406       0.74986905       0.50995752 </v>
    <v>       0.75159698       0.24917151       0.99403227 </v>
    <v>       0.75306075       0.25249289       0.51429471 </v>
    <v>       0.73661809       0.24079593       0.75061877 </v>
    <v>       0.49915243       0.99832599       0.75005156 </v>
    <v>       0.11065087       0.13889346       0.25026552 </v>
    <v>       0.10925093       0.13875676       0.74869013 </v>
    <v>       0.11501356       0.64371434       0.25816885 </v>
    <v>       0.10516381       0.64354174       0.74945848 </v>
    <v>       0.61420997       0.14331949       0.26086672 </v>
    <v>       0.60448176       0.14016594       0.74719504 </v>
    <v>       0.61202269       0.63821335       0.24975326 </v>
    <v>       0.60593135       0.64327831       0.74979922 </v>
    <v>       0.38884951       0.36141850       0.24735941 </v>
    <v>       0.38602138       0.36225372       0.75174951 </v>
    <v>       0.38666889       0.85928576       0.25724690 </v>
    <v>       0.39219084       0.85761719       0.75000545 </v>
    <v>       0.88656844       0.35841846       0.25499996 </v>
    <v>       0.88954163       0.86102021       0.25079193 </v>
    <v>       0.89365877       0.85442881       0.74885893 </v>
    <v>       0.36032674       0.11263407       0.24351197 </v>
    <v>       0.35542587       0.11239920       0.75624930 </v>
    <v>       0.35863068       0.61504577       0.26040340 </v>
    <v>       0.35627384       0.60891081       0.74844085 </v>
    <v>       0.85791311       0.11456906       0.25758516 </v>
    <v>       0.86428241       0.11195823       0.75105027 </v>
    <v>       0.86285836       0.61081547       0.24296001 </v>
    <v>       0.85357509       0.59466995       0.75541260 </v>
    <v>       0.13940915       0.38971455       0.25557223 </v>
    <v>       0.12619485       0.38466676       0.74429849 </v>
    <v>       0.14264431       0.88663438       0.25851192 </v>
    <v>       0.14191185       0.89194981       0.75063275 </v>
    <v>       0.64249814       0.38629855       0.25955540 </v>
    <v>       0.64020186       0.39428470       0.74847439 </v>
    <v>       0.63917915       0.88869669       0.25134607 </v>
    <v>       0.64526177       0.88939076       0.74871910 </v>
    <v>       0.35733937       0.39167037       0.00142205 </v>
    <v>       0.36415922       0.38543498       0.49971389 </v>
    <v>       0.36190869       0.89067652       0.00355434 </v>
    <v>       0.36375875       0.88272590       0.48876362 </v>
    <v>       0.88115185       0.37898966       0.00831340 </v>
    <v>       0.86107503       0.37869355       0.48102011 </v>
    <v>       0.86112626       0.88644406       0.00037095 </v>
    <v>       0.86517771       0.88367258       0.50037617 </v>
    <v>       0.13027238       0.12283028       0.99987329 </v>
    <v>       0.13533152       0.11514114       0.50123928 </v>
    <v>       0.14378816       0.59284278       0.99503310 </v>
    <v>       0.13654232       0.61663730       0.49618197 </v>
    <v>       0.63790594       0.11171471       0.99538523 </v>
    <v>       0.63857885       0.11701332       0.49871477 </v>
    <v>       0.64255999       0.61060679       0.00136334 </v>
    <v>       0.63432967       0.61528669       0.49941293 </v>
    <v>       0.11660548       0.36387581       0.50010156 </v>
    <v>       0.11053739       0.86158902       0.00251275 </v>
    <v>       0.11661392       0.86406434       0.48967607 </v>
    <v>       0.61364870       0.36463357       0.99934588 </v>
    <v>       0.61410463       0.36270818       0.49698995 </v>
    <v>       0.61089747       0.85938620       0.00093310 </v>
    <v>       0.61638521       0.86478491       0.49903655 </v>
    <v>       0.39067698       0.13824240       0.00144773 </v>
    <v>       0.38552026       0.13592414       0.49936894 </v>
    <v>       0.39413532       0.64028593       0.00191519 </v>
    <v>       0.38371708       0.63668254       0.49093064 </v>
    <v>       0.88528752       0.13171708       0.00202063 </v>
    <v>       0.88404604       0.13401161       0.49271705 </v>
    <v>       0.89154085       0.64054623       0.00010990 </v>
    <v>       0.88293194       0.63520660       0.50099597 </v>
    <v>       0.00062336       0.99873446       0.12840855 </v>
    <v>       0.00040314       0.99723997       0.62299413 </v>
    <v>       0.01574166       0.49300815       0.12383692 </v>
    <v>       0.98396585       0.48889862       0.62833538 </v>
    <v>       0.50721218       0.00150998       0.12752441 </v>
    <v>       0.49445001       0.99744460       0.62254814 </v>
    <v>       0.50233602       0.49997682       0.12816953 </v>
    <v>       0.49618202       0.50178454       0.62343282 </v>
    <v>       0.99918705       0.00112124       0.37437280 </v>
    <v>       0.00053701       0.99728242       0.87506990 </v>
    <v>       0.99851872       0.50568949       0.37219412 </v>
    <v>       0.99832900       0.47761878       0.87479531 </v>
    <v>       0.50008648       0.00430631       0.37382938 </v>
    <v>       0.49986938       0.99599847       0.87590454 </v>
    <v>       0.50052238       0.49772892       0.37464251 </v>
    <v>       0.49933794       0.50176545       0.87492278 </v>
    <v>       0.25280340       0.24745777       0.37414178 </v>
    <v>       0.23500074       0.26367250       0.87811683 </v>
    <v>       0.24925699       0.75039745       0.87391182 </v>
    <v>       0.76566421       0.26427428       0.86980766 </v>
    <v>       0.75207819       0.74751494       0.37418688 </v>
    <v>       0.75076055       0.75027982       0.87557462 </v>
    <v>       0.23419056       0.26272985       0.12208746 </v>
    <v>       0.25356534       0.24872996       0.62562503 </v>
    <v>       0.24803737       0.74644028       0.12432093 </v>
    <v>       0.24897145       0.75344816       0.62756814 </v>
    <v>       0.74420201       0.24812029       0.12456475 </v>
    <v>       0.77525591       0.26772127       0.63265873 </v>
    <v>       0.75018718       0.75193581       0.12434327 </v>
    <v>       0.75140493       0.74660920       0.62573330 </v>
   </varray>
  </structure>
  <varray name="forces" >
   <v>      -0.00399562      -0.00023221      -0.01225412 </v>
   <v>      -0.00651148      -0.00171328       0.01624477 </v>
   <v>       0.00748355       0.00487670       0.00013821 </v>
   <v>      -0.00735667      -0.00959536      -0.00166283 </v>
   <v>       0.02135095       0.01698667       0.00009124 </v>
   <v>      -0.00720317       0.00039977       0.01036421 </v>
   <v>      -0.00743269      -0.01758736      -0.00413083 </v>
   <v>      -0.00952538      -0.00673081       0.01908338 </v>
   <v>      -0.00513863       0.01229081      -0.00361129 </v>
   <v>      -0.01661717       0.01526134      -0.00209018 </v>
   <v>       0.01277833      -0.01864769       0.01207378 </v>
   <v>       0.01610849       0.00344059       0.00066521 </v>
   <v>       0.01311644       0.00374598      -0.00066487 </v>
   <v>       0.00923114      -0.01671272      -0.00457377 </v>
   <v>      -0.01467276       0.00941975       0.00665293 </v>
   <v>      -0.01637151      -0.01309548      -0.02235256 </v>
   <v>       0.00836320      -0.00577957      -0.00631328 </v>
   <v>      -0.00920396      -0.01091696       0.02204965 </v>
   <v>      -0.00889550       0.01563249      -0.00351494 </v>
   <v>       0.00950984       0.00418579       0.01914185 </v>
   <v>       0.00510676       0.00303655      -0.00936857 </v>
   <v>      -0.00691187      -0.00938216       0.01851356 </v>
   <v>       0.01257023       0.00308640      -0.00514722 </v>
   <v>       0.01001812      -0.00164663       0.01751112 </v>
   <v>       0.00702244      -0.01375270      -0.00270544 </v>
   <v>      -0.00603101      -0.01922481      -0.00874452 </v>
   <v>      -0.01723086       0.01318101      -0.01158486 </v>
   <v>       0.00137049       0.01438137      -0.00780970 </v>
   <v>      -0.00464397       0.02115470       0.00147531 </v>
   <v>      -0.00367227      -0.00157514       0.00370807 </v>
   <v>       0.00808207      -0.00564173       0.00688788 </v>
   <v>      -0.00792549      -0.01801873       0.00699510 </v>
   <v>      -0.00224870      -0.01252725       0.00592832 </v>
   <v>      -0.00142746      -0.02931912       0.00191942 </v>
   <v>      -0.03431346       0.03437919       0.00130651 </v>
   <v>       0.00843580       0.05739389      -0.03496975 </v>
   <v>       0.00811240      -0.01072935      -0.02219978 </v>
   <v>       0.01748242      -0.02909213      -0.00337788 </v>
   <v>      -0.01275949       0.00025927       0.01594167 </v>
   <v>      -0.01778090       0.02415678      -0.00143731 </v>
   <v>       0.02174341      -0.01144709       0.01873835 </v>
   <v>       0.00539609       0.00366156       0.01354834 </v>
   <v>       0.01293590       0.00636205       0.00498941 </v>
   <v>       0.00845447      -0.03698239       0.01468329 </v>
   <v>      -0.00404013      -0.00829719       0.01234586 </v>
   <v>       0.01677939      -0.02309109       0.01635044 </v>
   <v>       0.00558184       0.00487831       0.07486048 </v>
   <v>      -0.00280988       0.00862360      -0.00696178 </v>
   <v>      -0.01167380       0.00560295      -0.01171138 </v>
   <v>       0.01020040       0.00399100      -0.00096222 </v>
   <v>       0.01435311       0.00778263      -0.03140614 </v>
   <v>       0.01006727      -0.01032490       0.00438637 </v>
   <v>       0.02038002      -0.02209760       0.01271465 </v>
   <v>      -0.01599315       0.00629111       0.03888414 </v>
   <v>      -0.00557855      -0.01844165       0.01394251 </v>
   <v>      -0.02602661       0.01666778      -0.04103369 </v>
   <v>      -0.00283828      -0.00451373      -0.01523350 </v>
   <v>      -0.01615252      -0.00063613      -0.00563259 </v>
   <v>      -0.03679084      -0.00689941      -0.00372105 </v>
   <v>      -0.00218516       0.01232367      -0.03783719 </v>
   <v>       0.01152639       0.01244550      -0.01050590 </v>
   <v>      -0.00557029      -0.00614594      -0.00394810 </v>
   <v>       0.00680878      -0.00876477      -0.02035138 </v>
   <v>       0.00444430       0.03893833      -0.01253696 </v>
   <v>      -0.00009771      -0.00493642      -0.00922267 </v>
   <v>      -0.01907446      -0.01513178       0.00116760 </v>
   <v>       0.00895255       0.01875772       0.02689025 </v>
   <v>       0.02117882       0.03691769       0.00319835 </v>
   <v>       0.01019845       0.00881726       0.00772618 </v>
   <v>       0.00214198       0.01100820       0.00323956 </v>
   <v>       0.01690355       0.01651524      -0.00636489 </v>
   <v>       0.02252665      -0.02829432      -0.00438926 </v>
   <v>       0.00862708       0.00862496      -0.00053703 </v>
   <v>      -0.00701985      -0.00074773       0.00102001 </v>
   <v>      -0.00030484       0.00504635      -0.00598233 </v>
   <v>       0.02052289       0.00022804       0.00584430 </v>
   <v>      -0.00368970      -0.02014812       0.00426128 </v>
   <v>      -0.01139176       0.00256757      -0.00260272 </v>
   <v>      -0.01016149      -0.00367433      -0.00772449 </v>
   <v>       0.00835914       0.00930805      -0.01545194 </v>
   <v>      -0.02236649       0.01510253      -0.00544030 </v>
   <v>       0.00187176       0.01820592       0.00556562 </v>
   <v>      -0.00055663       0.00515919       0.00823425 </v>
   <v>      -0.00313525       0.01081466       0.00709369 </v>
   <v>       0.00298570      -0.00978965       0.00423513 </v>
   <v>       0.01894105       0.00978299       0.00691818 </v>
   <v>       0.01503919      -0.00774835      -0.01993426 </v>
   <v>      -0.00567832       0.01153156      -0.03449237 </v>
   <v>      -0.02478400      -0.00118053       0.00736069 </v>
   <v>       0.01395320       0.01490070       0.00167798 </v>
   <v>      -0.01544309      -0.00567303       0.00854816 </v>
   <v>       0.02664705       0.00188474      -0.00362186 </v>
   <v>       0.00005101      -0.01596170       0.01232321 </v>
   <v>       0.00854562      -0.00278035      -0.02022645 </v>
   <v>       0.00581159      -0.01383420       0.00935086 </v>
   <v>       0.00462225       0.00829855      -0.00030204 </v>
   <v>      -0.02061452      -0.03982177       0.00373327 </v>
   <v>       0.02315429       0.02092630       0.00254731 </v>
   <v>       0.02684781       0.01884517      -0.00526826 </v>
   <v>       0.01350450      -0.02705481      -0.01133522 </v>
   <v>       0.01069004       0.00013457      -0.00584977 </v>
   <v>       0.01196169      -0.00756189       0.00747539 </v>
   <v>      -0.00195423      -0.01237231      -0.00714109 </v>
   <v>      -0.00189763       0.00672626       0.01173675 </v>
   <v>       0.02092179       0.02615833       0.00070464 </v>
   <v>       0.00342754      -0.00016662       0.01103103 </v>
   <v>      -0.02536100       0.00133449      -0.00869174 </v>
   <v>      -0.03101966      -0.03212103      -0.01047694 </v>
   <v>      -0.01894472       0.00433159      -0.00351409 </v>
   <v>      -0.02932218       0.00982052      -0.00289289 </v>
   <v>      -0.00702629       0.02906772       0.00072226 </v>
   <v>       0.00717535      -0.00997665      -0.00925165 </v>
   <v>       0.01250783       0.00447043       0.00561932 </v>
   <v>      -0.00834742       0.00852650      -0.01755791 </v>
   <v>       0.00468852       0.01762193       0.00042876 </v>
   <v>       0.00482900       0.00795056       0.01141302 </v>
   <v>      -0.01298906       0.02275000       0.00633628 </v>
   <v>       0.00643015       0.02735090       0.00467745 </v>
   <v>       0.02574874      -0.03199097      -0.00584948 </v>
   <v>      -0.02126410      -0.01004814       0.01231270 </v>
   <v>      -0.02263782      -0.01146916       0.00167997 </v>
   <v>      -0.01229762      -0.01171032      -0.02253820 </v>
   <v>       0.00319948      -0.02086335       0.00848066 </v>
   <v>       0.00112686       0.00086310       0.01655017 </v>
   <v>       0.01002521      -0.01106956       0.01787069 </v>
   <v>      -0.01971603      -0.01739497      -0.01611229 </v>
   <v>      -0.00216853      -0.00220971       0.00569257 </v>
   <v>       0.00555835      -0.01579870       0.01711780 </v>
   <v>       0.00989143       0.01539243       0.01579037 </v>
   <v>      -0.00174645      -0.00189822       0.00034630 </v>
   <v>      -0.00366063       0.01202423      -0.02498748 </v>
   <v>      -0.01145031      -0.01936004      -0.02264417 </v>
   <v>       0.00073668      -0.00110245       0.00368831 </v>
   <v>       0.00054691       0.01001340       0.01043014 </v>
   <v>       0.00248606       0.00304723      -0.01489555 </v>
   <v>      -0.00677213      -0.02415090       0.01385018 </v>
   <v>      -0.00417220      -0.02056017      -0.02149364 </v>
   <v>      -0.00601211       0.00711753      -0.03097187 </v>
   <v>      -0.00229460      -0.00087571      -0.00076120 </v>
   <v>      -0.00177099      -0.00656296       0.08202331 </v>
   <v>       0.00568466      -0.01388487      -0.02055815 </v>
   <v>      -0.00212438      -0.00388880       0.01899060 </v>
   <v>      -0.00420986       0.00478249       0.00833258 </v>
   <v>       0.00518683       0.00340271       0.00244759 </v>
   <v>       0.00028373      -0.00705035       0.01294792 </v>
   <v>      -0.00178928       0.01508829      -0.01584123 </v>
   <v>       0.00924336       0.01485008      -0.02502733 </v>
   <v>       0.00098147      -0.00622063       0.00260463 </v>
   <v>       0.01040874      -0.01167222      -0.01890362 </v>
   <v>      -0.00288145       0.00520885      -0.00924336 </v>
   <v>      -0.00408817       0.00480695      -0.02227955 </v>
   <v>       0.00986600      -0.00948882       0.02406255 </v>
   <v>      -0.00816132      -0.00240161      -0.06201371 </v>
   <v>       0.00035961       0.00902202       0.02200664 </v>
   <v>      -0.01716209      -0.00206941       0.01653662 </v>
   <v>       0.00492349       0.02233666       0.00576944 </v>
  </varray>
  <varray name="stress" >
   <v>       0.29538226       0.05408488      -0.05818813 </v>
   <v>       0.05408517       0.08705525       0.00602485 </v>
   <v>      -0.05818789       0.00602514       0.37785239 </v>
  </varray>
  <energy>
   <i name="e_fr_energy">  -1119.79501426 </i>
   <i name="e_wo_entrp">  -1119.79501426 </i>
   <i name="e_0_energy">     -0.00000000 </i>
  </energy>
  <time name="totalsc"> 1968.57 1971.66</time>
 </calculation>
 <calculation>
  <scstep>
   <time name="dav">  570.15  570.19</time>
   <time name="total">  577.25  577.37</time>
   <energy>
    <i name="alphaZ">   5630.22882271 </i>
    <i name="ewald"> -61449.39422585 </i>
    <i name="hartreedc"> -16085.37742621 </i>
    <i name="XCdc">   2962.67571512 </i>
    <i name="pawpsdc"> 112142.80734137 </i>
    <i name="pawaedc">-111042.83973606 </i>
    <i name="eentropy">     -0.00000000 </i>
    <i name="bandstr">  -7061.34327637 </i>
    <i name="atom">  73783.44779670 </i>
    <i name="e_fr_energy">  -1119.79498859 </i>
    <i name="e_wo_entrp">  -1119.79498859 </i>
    <i name="e_0_energy">  -1119.79498859 </i>
   </energy>
  </scstep>
  <scstep>
   <time name="diag">   64.87   64.87</time>
   <time name="diis">  104.48  104.48</time>
   <time name="orth">   33.41   33.41</time>
   <time name="total">  210.02  210.05</time>
   <energy>
    <i name="e_fr_energy">  -1119.79733802 </i>
    <i name="e_wo_entrp">  -1119.79733802 </i>
    <i name="e_0_energy">  -1119.79733802 </i>
   </energy>
  </scstep>
  <scstep>
   <time name="diag">   64.85   64.84</time>
   <time name="diis">  108.49  108.51</time>
   <time name="orth">   33.42   33.42</time>
   <time name="total">  214.02  214.09</time>
   <energy>
    <i name="e_fr_energy">  -1119.79725431 </i>
    <i name="e_wo_entrp">  -1119.79725431 </i>
    <i name="e_0_energy">  -1119.79725431 </i>
   </energy>
  </scstep>
  <scstep>
   <time name="diag">   64.82   64.84</time>
   <time name="diis">   98.69   98.72</time>
   <time name="orth">   33.42   33.42</time>
   <time name="total">  204.18  204.49</time>
   <energy>
    <i name="e_fr_energy">  -1119.79704748 </i>
    <i name="e_wo_entrp">  -1119.79704748 </i>
    <i name="e_0_energy">  -1119.79704748 </i>
   </energy>
  </scstep>
  <scstep>
   <time name="diag">   64.88   64.88</time>
   <time name="diis">   73.28   73.30</time>
   <time name="orth">   33.41   33.41</time>
   <time name="total">  178.83  178.90</time>
   <energy>
    <i name="e_fr_energy">  -1119.79700204 </i>
    <i name="e_wo_entrp">  -1119.79700204 </i>
    <i name="e_0_energy">  -1119.79700204 </i>
   </energy>
  </scstep>
  <scstep>
   <time name="diag">   64.91   64.92</time>
   <time name="diis">   64.34   64.35</time>
   <time name="orth">   33.40   33.43</time>
   <time name="total">  169.91  170.05</time>
   <energy>
    <i name="e_fr_energy">  -1119.79700220 </i>
    <i name="e_wo_entrp">  -1119.79700220 </i>
    <i name="e_0_energy">  -1119.79700220 </i>
   </energy>
  </scstep>
  <scstep>
   <time name="diag">   64.84   64.85</time>
   <time name="diis">   63.33   63.34</time>
   <time name="orth">   33.30   33.33</time>
   <time name="total">  168.63  168.79</time>
   <energy>
    <i name="e_fr_energy">  -1119.79700060 </i>
    <i name="e_wo_entrp">  -1119.79700060 </i>
    <i name="e_0_energy">  -1119.79700060 </i>
   </energy>
  </scstep>
  <scstep>
   <time name="diag">   64.87   64.89</time>
   <time name="diis">   62.63   62.67</time>
   <time name="orth">   33.31   33.32</time>
   <time name="total">  161.85  162.08</time>
   <energy>
    <i name="alphaZ">   5630.22882271 </i>
    <i name="ewald"> -61449.39422585 </i>
    <i name="hartreedc"> -16089.39442955 </i>
    <i name="XCdc">   2962.95668384 </i>
    <i name="pawpsdc"> 112074.02496895 </i>
    <i name="pawaedc">-110974.01051927 </i>
    <i name="eentropy">     -0.00000000 </i>
    <i name="bandstr">  -7057.65609637 </i>
    <i name="atom">  73783.44779670 </i>
    <i name="e_fr_energy">  -1119.79699884 </i>
    <i name="e_wo_entrp">  -1119.79699884 </i>
    <i name="e_0_energy">  -1119.79699884 </i>
   </energy>
  </scstep>
  <structure>
   <crystal>
    <varray name="basis" >
     <v>      11.21540406       0.00266680      -0.00712528 </v>
     <v>       0.00266786      11.21223159      -0.00691795 </v>
     <v>      -0.01016910      -0.00986896      15.93979065 </v>
    </varray>
    <i name="volume">   2004.42232336 </i>
    <varray name="rec_basis" >
     <v>       0.08916312      -0.00002118       0.00005687 </v>
     <v>      -0.00002117       0.08918835       0.00005521 </v>
     <v>       0.00003985       0.00003870       0.06273613 </v>
    </varray>
   </crystal>
   <varray name="positions" >
    <v>       0.99750840       0.24549843       0.12639758 </v>
    <v>       0.00621414       0.24782834       0.61909472 </v>
    <v>       0.99667715       0.75449359       0.12622488 </v>
    <v>       0.00196596       0.75319062       0.61835597 </v>
    <v>       0.49965344       0.24978832       0.12188769 </v>
    <v>       0.49577756       0.24947539       0.62451275 </v>
    <v>       0.50194280       0.75162283       0.12289392 </v>
    <v>       0.50006538       0.75149169       0.62333118 </v>
    <v>       0.00532333       0.25329674       0.37868041 </v>
    <v>       0.99770140       0.23658051       0.87613887 </v>
    <v>       0.99354613       0.74742872       0.37900111 </v>
    <v>       0.00274066       0.76055913       0.87561096 </v>
    <v>       0.49242748       0.25150321       0.37828378 </v>
    <v>       0.50217645       0.24802044       0.87390190 </v>
    <v>       0.50706132       0.75030812       0.37778930 </v>
    <v>       0.49845233       0.75125294       0.87520806 </v>
    <v>       0.24743064       0.00286512       0.12100132 </v>
    <v>       0.25303085       0.00167711       0.62542054 </v>
    <v>       0.25412150       0.49953914       0.12662061 </v>
    <v>       0.24968785       0.49939769       0.62102323 </v>
    <v>       0.74911645       0.99924324       0.12091786 </v>
    <v>       0.74853969       0.99978943       0.62466129 </v>
    <v>       0.74523593       0.49995062       0.12432272 </v>
    <v>       0.74943396       0.50133966       0.62062483 </v>
    <v>       0.25143140       0.00867391       0.37728509 </v>
    <v>       0.25072220       0.99798491       0.87638423 </v>
    <v>       0.24607456       0.49446872       0.38087919 </v>
    <v>       0.25677527       0.50012635       0.87185758 </v>
    <v>       0.74854160       0.99341767       0.37895227 </v>
    <v>       0.74902655       0.00148821       0.87376408 </v>
    <v>       0.75294551       0.50741886       0.37697697 </v>
    <v>       0.74255294       0.49682717       0.87748178 </v>
    <v>       0.99990474       0.00024351       0.00038871 </v>
    <v>       0.00009187       0.00002877       0.49848685 </v>
    <v>       0.99263080       0.51061945       0.99949872 </v>
    <v>       0.50049093       0.99990657       0.99729992 </v>
    <v>       0.49977412       0.00025003       0.50032170 </v>
    <v>       0.49792314       0.49937963       0.99994201 </v>
    <v>       0.49995363       0.49991240       0.49940608 </v>
    <v>       0.24973575       0.25077648       0.50121185 </v>
    <v>       0.74576614       0.75283165       0.99885198 </v>
    <v>       0.75153108       0.74822657       0.50158389 </v>
    <v>       0.24844033       0.25159142       0.24739266 </v>
    <v>       0.24889947       0.24852541       0.75265717 </v>
    <v>       0.25012345       0.75077180       0.23890892 </v>
    <v>       0.25655786       0.75534457       0.75111351 </v>
    <v>       0.74887186       0.24999168       0.23909891 </v>
    <v>       0.74999518       0.75048595       0.24892258 </v>
    <v>       0.74808941       0.75061170       0.75013431 </v>
    <v>       0.99985359       0.00031045       0.25299885 </v>
    <v>       0.99943220       0.99995538       0.74837120 </v>
    <v>       0.00131774       0.50014235       0.25249519 </v>
    <v>       0.00702716       0.51229356       0.74909600 </v>
    <v>       0.50023451       0.00122676       0.25117444 </v>
    <v>       0.49974736       0.50003346       0.25278405 </v>
    <v>       0.50135912       0.50010438       0.74915038 </v>
    <v>       0.99730753       0.49855925       0.49885535 </v>
    <v>       0.26110862       0.24317490       0.99929513 </v>
    <v>       0.25234721       0.74873997       0.99610619 </v>
    <v>       0.24979455       0.74992198       0.50984301 </v>
    <v>       0.75164653       0.24922503       0.99400052 </v>
    <v>       0.75303678       0.25246644       0.51428274 </v>
    <v>       0.73664733       0.24075816       0.75055716 </v>
    <v>       0.49917148       0.99849350       0.75001370 </v>
    <v>       0.11065043       0.13887219       0.25023759 </v>
    <v>       0.10916889       0.13869167       0.74869360 </v>
    <v>       0.11505213       0.64379511       0.25825030 </v>
    <v>       0.10525490       0.64370058       0.74946827 </v>
    <v>       0.61425385       0.14335744       0.26089014 </v>
    <v>       0.60449097       0.14021332       0.74720487 </v>
    <v>       0.61209537       0.63828438       0.24973406 </v>
    <v>       0.60602827       0.64315653       0.74978592 </v>
    <v>       0.38888662       0.36145560       0.24735782 </v>
    <v>       0.38599118       0.36225051       0.75175259 </v>
    <v>       0.38666756       0.85930746       0.25722880 </v>
    <v>       0.39227915       0.85761817       0.75002318 </v>
    <v>       0.88655260       0.35833178       0.25501282 </v>
    <v>       0.88949261       0.86103126       0.25078404 </v>
    <v>       0.89361504       0.85441299       0.74883552 </v>
    <v>       0.36036265       0.11267408       0.24346523 </v>
    <v>       0.35532962       0.11246419       0.75623282 </v>
    <v>       0.35863873       0.61512412       0.26042028 </v>
    <v>       0.35627146       0.60893304       0.74846578 </v>
    <v>       0.85789963       0.11461562       0.25760665 </v>
    <v>       0.86429528       0.11191611       0.75106308 </v>
    <v>       0.86293985       0.61085756       0.24298100 </v>
    <v>       0.85363975       0.59463654       0.75535227 </v>
    <v>       0.13938462       0.38976408       0.25546783 </v>
    <v>       0.12608825       0.38466173       0.74432072 </v>
    <v>       0.14270432       0.88669849       0.25851705 </v>
    <v>       0.14184544       0.89192544       0.75065859 </v>
    <v>       0.64261276       0.38630663       0.25954449 </v>
    <v>       0.64020213       0.39421606       0.74851167 </v>
    <v>       0.63921586       0.88868467       0.25128486 </v>
    <v>       0.64528680       0.88933125       0.74874739 </v>
    <v>       0.35735924       0.39170608       0.00142116 </v>
    <v>       0.36407058       0.38526367       0.49972507 </v>
    <v>       0.36200828       0.89076655       0.00356213 </v>
    <v>       0.36387422       0.88280695       0.48874776 </v>
    <v>       0.88120994       0.37887320       0.00827906 </v>
    <v>       0.86112100       0.37869410       0.48100243 </v>
    <v>       0.86117774       0.88641153       0.00039358 </v>
    <v>       0.86516929       0.88361932       0.50035453 </v>
    <v>       0.13026425       0.12285925       0.99990883 </v>
    <v>       0.13542151       0.11525367       0.50124150 </v>
    <v>       0.14380293       0.59284209       0.99506650 </v>
    <v>       0.13643319       0.61664304       0.49615561 </v>
    <v>       0.63777250       0.11157650       0.99535340 </v>
    <v>       0.63849734       0.11703197       0.49870411 </v>
    <v>       0.64243383       0.61064906       0.00135455 </v>
    <v>       0.63429942       0.61541177       0.49941516 </v>
    <v>       0.11663633       0.36383285       0.50007355 </v>
    <v>       0.11059120       0.86160826       0.00252979 </v>
    <v>       0.11657796       0.86410099       0.48962293 </v>
    <v>       0.61366885       0.36470939       0.99934722 </v>
    <v>       0.61412543       0.36274241       0.49702452 </v>
    <v>       0.61084159       0.85948412       0.00095230 </v>
    <v>       0.61641286       0.86490260       0.49905078 </v>
    <v>       0.39078776       0.13810471       0.00143001 </v>
    <v>       0.38542883       0.13588096       0.49940616 </v>
    <v>       0.39403795       0.64023661       0.00192021 </v>
    <v>       0.38366413       0.63663210       0.49086238 </v>
    <v>       0.88530133       0.13162732       0.00204626 </v>
    <v>       0.88405093       0.13401536       0.49276715 </v>
    <v>       0.89158403       0.64049864       0.00016399 </v>
    <v>       0.88284710       0.63513173       0.50094713 </v>
    <v>       0.00061405       0.99872497       0.12842577 </v>
    <v>       0.00042711       0.99717204       0.62304593 </v>
    <v>       0.01578424       0.49307441       0.12388477 </v>
    <v>       0.98395834       0.48889046       0.62833642 </v>
    <v>       0.50719636       0.00156166       0.12744879 </v>
    <v>       0.49440071       0.99736125       0.62247954 </v>
    <v>       0.50233920       0.49997209       0.12818069 </v>
    <v>       0.49618439       0.50182765       0.62346441 </v>
    <v>       0.99919770       0.00113431       0.37432773 </v>
    <v>       0.00050794       0.99717855       0.87511177 </v>
    <v>       0.99850073       0.50560097       0.37212902 </v>
    <v>       0.99830305       0.47764933       0.87470156 </v>
    <v>       0.50007661       0.00430254       0.37382707 </v>
    <v>       0.49986198       0.99597045       0.87615281 </v>
    <v>       0.50054679       0.49766912       0.37458027 </v>
    <v>       0.49932886       0.50174877       0.87498025 </v>
    <v>       0.25278531       0.24747838       0.37416700 </v>
    <v>       0.23502305       0.26368714       0.87812425 </v>
    <v>       0.24925825       0.75036715       0.87395100 </v>
    <v>       0.76565645       0.26433916       0.86975974 </v>
    <v>       0.75211788       0.74757876       0.37411117 </v>
    <v>       0.75076478       0.75025306       0.87558250 </v>
    <v>       0.23423530       0.26267957       0.12203023 </v>
    <v>       0.25355292       0.24875236       0.62559706 </v>
    <v>       0.24801972       0.74646091       0.12425350 </v>
    <v>       0.24901397       0.75340738       0.62764098 </v>
    <v>       0.74416674       0.24810980       0.12437701 </v>
    <v>       0.77525750       0.26776015       0.63272536 </v>
    <v>       0.75011340       0.75192697       0.12439329 </v>
    <v>       0.75142611       0.74670532       0.62575082 </v>
   </varray>
  </structure>
  <varray name="forces" >
   <v>      -0.00809730      -0.00251913      -0.01360201 </v>
   <v>      -0.00303921       0.00109150       0.01142538 </v>
   <v>       0.00905283       0.00845738       0.01026899 </v>
   <v>      -0.00501427      -0.01539467       0.01409774 </v>
   <v>       0.02316038       0.00515874      -0.00247646 </v>
   <v>      -0.01223851      -0.00547617       0.00152587 </v>
   <v>      -0.00770016      -0.00126139      -0.02169292 </v>
   <v>      -0.00541054       0.00694682       0.01475945 </v>
   <v>      -0.00006038       0.00246226      -0.00205874 </v>
   <v>      -0.01419413       0.00779595       0.00328680 </v>
   <v>      -0.00092061      -0.01629805      -0.00194647 </v>
   <v>       0.00987369       0.00962455      -0.00978303 </v>
   <v>       0.00047559       0.00124669       0.00792871 </v>
   <v>       0.01001079      -0.00087403       0.00379712 </v>
   <v>      -0.00074360       0.00446045      -0.00651760 </v>
   <v>      -0.00566409      -0.00796959       0.01189630 </v>
   <v>       0.02075289      -0.01025205      -0.01517128 </v>
   <v>      -0.00260333      -0.00646694       0.00912879 </v>
   <v>      -0.00247907       0.01646692      -0.01375588 </v>
   <v>      -0.00423330      -0.00139175       0.01683719 </v>
   <v>      -0.00999151       0.00796346      -0.01026290 </v>
   <v>      -0.00599749      -0.01193148       0.01365727 </v>
   <v>       0.00484537      -0.00195138       0.00427076 </v>
   <v>       0.01686184      -0.00024749       0.02111756 </v>
   <v>       0.00213620       0.00044888      -0.00110683 </v>
   <v>      -0.00441663      -0.02524843       0.01099159 </v>
   <v>      -0.01498680       0.00662778      -0.01084336 </v>
   <v>       0.00740421       0.00641653       0.00972599 </v>
   <v>       0.00050242       0.00879145      -0.00623706 </v>
   <v>       0.00087072      -0.01014830       0.01297706 </v>
   <v>       0.00410285       0.00916093       0.00022203 </v>
   <v>      -0.01143575      -0.00757379      -0.00407375 </v>
   <v>       0.00902058      -0.00138588      -0.00404900 </v>
   <v>       0.00650052       0.02138766      -0.01481586 </v>
   <v>       0.02788938      -0.03906161       0.00756381 </v>
   <v>       0.00782677      -0.03177020       0.04564336 </v>
   <v>      -0.00868776       0.01527026       0.00168445 </v>
   <v>      -0.00729424       0.01290766      -0.00587954 </v>
   <v>      -0.00164151      -0.00074236      -0.01919310 </v>
   <v>      -0.00895447      -0.01650598       0.00528425 </v>
   <v>      -0.06196647       0.03852299       0.00181312 </v>
   <v>      -0.00382789       0.00088012      -0.01244285 </v>
   <v>      -0.00108445      -0.01142752      -0.01064095 </v>
   <v>      -0.01879978       0.02441985      -0.00028869 </v>
   <v>      -0.00130314       0.00743054      -0.03572770 </v>
   <v>      -0.01756314       0.01576090       0.02275533 </v>
   <v>      -0.00266871       0.00103439      -0.14683684 </v>
   <v>      -0.00852207       0.00892359       0.00015690 </v>
   <v>       0.02250319      -0.00330945       0.03715035 </v>
   <v>       0.00365232      -0.00763652      -0.01132921 </v>
   <v>       0.00175140      -0.02031897       0.00934709 </v>
   <v>      -0.01561400       0.01053556      -0.01790673 </v>
   <v>       0.02125747       0.02751499       0.00498092 </v>
   <v>      -0.00283338      -0.01301812      -0.05417127 </v>
   <v>       0.00914777       0.01279770      -0.01908013 </v>
   <v>       0.01312215      -0.02443955       0.02684289 </v>
   <v>      -0.00226490      -0.01017372      -0.00217612 </v>
   <v>       0.01743331      -0.01729908       0.00396849 </v>
   <v>       0.00708262       0.00683410       0.01341020 </v>
   <v>      -0.00108752       0.00877020       0.01030165 </v>
   <v>       0.00049199      -0.01069705       0.00981345 </v>
   <v>       0.00301870      -0.00389401       0.01046396 </v>
   <v>       0.01394329       0.00555868      -0.00007209 </v>
   <v>       0.00654934       0.00663214       0.00530768 </v>
   <v>       0.00984972       0.00878503      -0.00559339 </v>
   <v>      -0.00179086       0.00247349      -0.00074590 </v>
   <v>       0.00602940       0.00796796       0.03099278 </v>
   <v>       0.00161798      -0.00708551       0.00032021 </v>
[...]
       <r>   -16.2870     0.0000    32.0000 </r>
       <r>   -16.1346     0.0000    32.0000 </r>
       <r>   -15.9822     0.0000    32.0000 </r>
       <r>   -15.8298     0.0000    32.0000 </r>
       <r>   -15.6774     0.0000    32.0000 </r>
       <r>   -15.5250     0.0000    32.0000 </r>
       <r>   -15.3726     0.0000    32.0000 </r>
       <r>   -15.2202     0.3488    32.0532 </r>
       <r>   -15.0678    12.9993    34.0343 </r>
       <r>   -14.9154    42.6461    40.5337 </r>
       <r>   -14.7630    45.7676    47.5088 </r>
       <r>   -14.6106    38.3247    53.3496 </r>
       <r>   -14.4582    30.6543    58.0214 </r>
       <r>   -14.3058    37.4954    63.7359 </r>
       <r>   -14.1534    65.4858    73.7161 </r>
       <r>   -14.0009   115.7285    91.3535 </r>
       <r>   -13.8485   105.2442   107.3931 </r>
       <r>   -13.6961    65.9091   117.4379 </r>
       <r>   -13.5437    30.4154   122.0733 </r>
       <r>   -13.3913    10.4326   123.6632 </r>
       <r>   -13.2389     2.2098   124.0000 </r>
       <r>   -13.0865     0.0000   124.0000 </r>
       <r>   -12.9341     0.0000   124.0000 </r>
       <r>   -12.7817     0.1380   124.0210 </r>
       <r>   -12.6293    32.5588   128.9831 </r>
       <r>   -12.4769   112.8674   146.1845 </r>
       <r>   -12.3245   148.9190   168.8802 </r>
       <r>   -12.1721   133.4680   189.2212 </r>
       <r>   -12.0197   113.8091   206.5661 </r>
       <r>   -11.8673    75.1715   218.0224 </r>
       <r>   -11.7149    12.8969   219.9880 </r>
       <r>   -11.5625     0.0789   220.0000 </r>
       <r>   -11.4101     0.0000   220.0000 </r>
       <r>   -11.2577     0.0000   220.0000 </r>
       <r>   -11.1053     0.0000   220.0000 </r>
       <r>   -10.9529     0.0000   220.0000 </r>
       <r>   -10.8005     0.0000   220.0000 </r>
       <r>   -10.6481     0.0000   220.0000 </r>
       <r>   -10.4957     0.0000   220.0000 </r>
       <r>   -10.3433     0.0000   220.0000 </r>
       <r>   -10.1909     0.0000   220.0000 </r>
       <r>   -10.0385     0.0000   220.0000 </r>
       <r>    -9.8861     0.0000   220.0000 </r>
       <r>    -9.7337     0.0000   220.0000 </r>
       <r>    -9.5813     0.0000   220.0000 </r>
       <r>    -9.4288     0.0000   220.0000 </r>
       <r>    -9.2764     0.0000   220.0000 </r>
       <r>    -9.1240     0.0000   220.0000 </r>
       <r>    -8.9716     0.0000   220.0000 </r>
       <r>    -8.8192     0.0000   220.0000 </r>
       <r>    -8.6668     0.0000   220.0000 </r>
       <r>    -8.5144     0.0000   220.0000 </r>
       <r>    -8.3620     0.0000   220.0000 </r>
       <r>    -8.2096     0.0000   220.0000 </r>
       <r>    -8.0572     0.0000   220.0000 </r>
       <r>    -7.9048     0.0000   220.0000 </r>
       <r>    -7.7524     0.0000   220.0000 </r>
       <r>    -7.6000     0.0000   220.0000 </r>
       <r>    -7.4476     0.0000   220.0000 </r>
       <r>    -7.2952     0.0000   220.0000 </r>
       <r>    -7.1428     0.0000   220.0000 </r>
       <r>    -6.9904     0.0000   220.0000 </r>
       <r>    -6.8380     0.0000   220.0000 </r>
       <r>    -6.6856     0.0000   220.0000 </r>
       <r>    -6.5332     0.0000   220.0000 </r>
       <r>    -6.3808     0.0000   220.0000 </r>
       <r>    -6.2284     0.0000   220.0000 </r>
       <r>    -6.0760     0.0000   220.0000 </r>
       <r>    -5.9236     0.0000   220.0000 </r>
       <r>    -5.7712     0.0000   220.0000 </r>
       <r>    -5.6188     0.0000   220.0000 </r>
       <r>    -5.4664     0.0000   220.0000 </r>
       <r>    -5.3140     0.0000   220.0000 </r>
       <r>    -5.1616     0.0000   220.0000 </r>
       <r>    -5.0092     0.0000   220.0000 </r>
       <r>    -4.8568     0.0000   220.0000 </r>
       <r>    -4.7043     0.0000   220.0000 </r>
       <r>    -4.5519     0.0000   220.0000 </r>
       <r>    -4.3995     0.0000   220.0000 </r>
       <r>    -4.2471     0.0000   220.0000 </r>
       <r>    -4.0947     0.0000   220.0000 </r>
       <r>    -3.9423     0.0000   220.0000 </r>
       <r>    -3.7899     0.0000   220.0000 </r>
       <r>    -3.6375     0.0000   220.0000 </r>
       <r>    -3.4851     0.0000   220.0000 </r>
       <r>    -3.3327     0.0000   220.0000 </r>
       <r>    -3.1803     0.0000   220.0000 </r>
       <r>    -3.0279     0.0000   220.0000 </r>
       <r>    -2.8755     0.0000   220.0000 </r>
       <r>    -2.7231     0.0000   220.0000 </r>
       <r>    -2.5707     0.0000   220.0000 </r>
       <r>    -2.4183     0.3578   220.0545 </r>
       <r>    -2.2659     8.3783   221.3314 </r>
       <r>    -2.1135    22.8213   224.8095 </r>
       <r>    -1.9611    25.5169   228.6983 </r>
       <r>    -1.8087    37.2568   234.3764 </r>
       <r>    -1.6563    48.6074   241.7843 </r>
       <r>    -1.5039    53.6631   249.9627 </r>
       <r>    -1.3515    59.0076   258.9557 </r>
       <r>    -1.1991    64.4951   268.7850 </r>
       <r>    -1.0467    70.1014   279.4686 </r>
       <r>    -0.8943    79.0268   291.5126 </r>
       <r>    -0.7419    83.0589   304.1710 </r>
       <r>    -0.5895    96.4104   318.8643 </r>
       <r>    -0.4371   108.6721   335.4263 </r>
       <r>    -0.2847    80.5474   347.7020 </r>
       <r>    -0.1322    58.6094   356.6343 </r>
       <r>     0.0202    51.2809   364.4496 </r>
       <r>     0.1726    42.2821   370.8936 </r>
       <r>     0.3250    50.9104   378.6525 </r>
       <r>     0.4774    51.6717   386.5274 </r>
       <r>     0.6298    53.4711   394.6766 </r>
       <r>     0.7822    52.2938   402.6463 </r>
       <r>     0.9346    46.7220   409.7669 </r>
       <r>     1.0870    60.6260   419.0065 </r>
       <r>     1.2394    75.1850   430.4649 </r>
       <r>     1.3918    88.0442   443.8832 </r>
       <r>     1.5442    89.0648   457.4569 </r>
       <r>     1.6966    70.8543   468.2554 </r>
       <r>     1.8490    70.0387   478.9295 </r>
       <r>     2.0014    46.8283   486.0663 </r>
       <r>     2.1538    45.4470   492.9926 </r>
       <r>     2.3062    13.7693   495.0910 </r>
       <r>     2.4586     5.9550   495.9986 </r>
       <r>     2.6110     0.0092   496.0000 </r>
       <r>     2.7634     0.0000   496.0000 </r>
       <r>     2.9158     0.0000   496.0000 </r>
       <r>     3.0682     0.0000   496.0000 </r>
       <r>     3.2206     0.0000   496.0000 </r>
       <r>     3.3730     0.0000   496.0000 </r>
       <r>     3.5254     0.0000   496.0000 </r>
       <r>     3.6778     0.0000   496.0000 </r>
       <r>     3.8302     0.0000   496.0000 </r>
       <r>     3.9826     0.0000   496.0000 </r>
       <r>     4.1350     0.0000   496.0000 </r>
       <r>     4.2874     0.0000   496.0000 </r>
       <r>     4.4399     0.1664   496.0254 </r>
       <r>     4.5923    21.2804   499.2686 </r>
       <r>     4.7447    44.7138   506.0831 </r>
       <r>     4.8971    31.1786   510.8348 </r>
       <r>     5.0495    39.2226   516.8125 </r>
       <r>     5.2019    44.9918   523.6694 </r>
       <r>     5.3543    57.3600   532.4112 </r>
       <r>     5.5067    67.9035   542.7599 </r>
       <r>     5.6591    60.7912   552.0247 </r>
       <r>     5.8115    72.0057   562.9986 </r>
       <r>     5.9639    85.3113   576.0003 </r>
       <r>     6.1163    96.5903   590.7210 </r>
       <r>     6.2687    71.7960   601.6630 </r>
       <r>     6.4211    57.7084   610.4579 </r>
       <r>     6.5735    37.1825   616.1247 </r>
       <r>     6.7259    13.3633   618.1613 </r>
       <r>     6.8783    13.5288   620.2231 </r>
       <r>     7.0307    22.6579   623.6763 </r>
       <r>     7.1831    13.3418   625.7096 </r>
       <r>     7.3355    16.6636   628.2492 </r>
       <r>     7.4879    15.5370   630.6171 </r>
       <r>     7.6403    10.5028   632.2177 </r>
       <r>     7.7927    15.6676   634.6055 </r>
       <r>     7.9451    22.8973   638.0951 </r>
       <r>     8.0975    25.1597   641.9296 </r>
       <r>     8.2499    23.7082   645.5428 </r>
       <r>     8.4023    25.0081   649.3541 </r>
       <r>     8.5547    24.2845   653.0551 </r>
       <r>     8.7071    26.6296   657.1136 </r>
       <r>     8.8595    29.6134   661.6267 </r>
       <r>     9.0119    35.9006   667.0981 </r>
       <r>     9.1644    35.1161   672.4499 </r>
       <r>     9.3168    40.3788   678.6038 </r>
       <r>     9.4692    40.4439   684.7676 </r>
       <r>     9.6216    44.8933   691.6094 </r>
       <r>     9.7740    45.8736   698.6007 </r>
       <r>     9.9264    64.5190   708.4336 </r>
       <r>    10.0788    69.7543   719.0644 </r>
       <r>    10.2312    63.5122   728.7439 </r>
       <r>    10.3836    64.9393   738.6409 </r>
       <r>    10.5360    57.4484   747.3962 </r>
       <r>    10.6884    56.1874   755.9593 </r>
       <r>    10.8408    55.5401   764.4238 </r>
       <r>    10.9932    23.4429   767.9966 </r>
       <r>    11.1456     0.0223   768.0000 </r>
       <r>    11.2980     0.0000   768.0000 </r>
       <r>    11.4504     0.0000   768.0000 </r>
       <r>    11.6028     0.0000   768.0000 </r>
       <r>    11.7552     0.0000   768.0000 </r>
       <r>    11.9076     0.0000   768.0000 </r>
       <r>    12.0600     0.0000   768.0000 </r>
       <r>    12.2124     0.0000   768.0000 </r>
       <r>    12.3648     0.0000   768.0000 </r>
       <r>    12.5172     0.0000   768.0000 </r>
       <r>    12.6696     0.0000   768.0000 </r>
       <r>    12.8220     0.0000   768.0000 </r>
       <r>    12.9744     0.0000   768.0000 </r>
      </set>
     </set>
    </array>
   </total>
  </dos>
 </calculation>
 <structure name="finalpos" >
  <crystal>
   <varray name="basis" >
    <v>      11.21636595       0.00179668      -0.00754168 </v>
    <v>       0.00179880      11.21245834      -0.00650290 </v>
    <v>      -0.01076331      -0.00928004      15.93662652 </v>
   </varray>
   <i name="volume">   2004.23689516 </i>
   <varray name="rec_basis" >
    <v>       0.08915548      -0.00001427       0.00006021 </v>
    <v>      -0.00001425       0.08918654       0.00005192 </v>
    <v>       0.00004219       0.00003639       0.06274859 </v>
   </varray>
  </crystal>
  <varray name="positions" >
   <v>       0.99759022       0.24539552       0.12618228 </v>
   <v>       0.00609925       0.24779257       0.61926269 </v>
   <v>       0.99674453       0.75469265       0.12636964 </v>
   <v>       0.00174204       0.75273741       0.61834673 </v>
   <v>       0.50012802       0.25011971       0.12192727 </v>
   <v>       0.49528911       0.24941638       0.62451999 </v>
   <v>       0.50175734       0.75129076       0.12261751 </v>
   <v>       0.49994199       0.75156685       0.62360279 </v>
   <v>       0.00523350       0.25340212       0.37858535 </v>
   <v>       0.99730985       0.23688661       0.87614839 </v>
   <v>       0.99357502       0.74693417       0.37912379 </v>
   <v>       0.00289502       0.76064597       0.87553972 </v>
   <v>       0.49251343       0.25160805       0.37845807 </v>
   <v>       0.50237673       0.24789640       0.87388128 </v>
   <v>       0.50690168       0.75044343       0.37782256 </v>
   <v>       0.49828650       0.75097316       0.87516087 </v>
   <v>       0.24787276       0.00274315       0.12082551 </v>
   <v>       0.25289667       0.00153211       0.62561814 </v>
   <v>       0.25407740       0.49979903       0.12639849 </v>
   <v>       0.24976715       0.49950482       0.62123907 </v>
   <v>       0.74911421       0.99937116       0.12077829 </v>
   <v>       0.74839227       0.99922915       0.62484011 </v>
   <v>       0.74541340       0.50021091       0.12438504 </v>
   <v>       0.74970934       0.50139393       0.62098303 </v>
   <v>       0.25149693       0.00870111       0.37728479 </v>
   <v>       0.25069890       0.99742235       0.87647947 </v>
   <v>       0.24565644       0.49469132       0.38068016 </v>
   <v>       0.25699130       0.50030513       0.87205481 </v>
   <v>       0.74853440       0.99387500       0.37888246 </v>
   <v>       0.74906732       0.00118549       0.87393430 </v>
   <v>       0.75308879       0.50757332       0.37710299 </v>
   <v>       0.74226553       0.49665278       0.87738504 </v>
   <v>       0.00003211       0.00018459       0.00036835 </v>
   <v>       0.00016503       0.00004669       0.49836781 </v>
   <v>       0.99258125       0.51063428       0.99951134 </v>
   <v>       0.50054432       0.99992478       0.99736050 </v>
   <v>       0.49961929       0.00031867       0.50030472 </v>
   <v>       0.49783954       0.49929246       0.99990754 </v>
   <v>       0.49991931       0.49992672       0.49934672 </v>
   <v>       0.24955100       0.25085928       0.50122189 </v>
   <v>       0.74568512       0.75284331       0.99897109 </v>
   <v>       0.75147927       0.74841250       0.50156875 </v>
   <v>       0.24849738       0.25162306       0.24718999 </v>
   <v>       0.24867342       0.24852574       0.75275825 </v>
   <v>       0.25012090       0.75088853       0.23896527 </v>
   <v>       0.25669136       0.75544812       0.75112105 </v>
   <v>       0.74893372       0.24999547       0.23893744 </v>
   <v>       0.74987987       0.75080082       0.24898658 </v>
   <v>       0.74816926       0.75053308       0.75023059 </v>
   <v>       0.00004487       0.00032386       0.25296355 </v>
   <v>       0.99937855       0.99979158       0.74832251 </v>
   <v>       0.00122260       0.50008261       0.25241763 </v>
   <v>       0.00722301       0.51242191       0.74910109 </v>
   <v>       0.50019996       0.00134009       0.25107127 </v>
   <v>       0.49992215       0.50000910       0.25280379 </v>
   <v>       0.50132787       0.49992254       0.74906930 </v>
   <v>       0.99723223       0.49833772       0.49881127 </v>
   <v>       0.26118521       0.24307115       0.99926630 </v>
   <v>       0.25216747       0.74872606       0.99624093 </v>
   <v>       0.24970179       0.74995588       0.50971161 </v>
   <v>       0.75180486       0.24910060       0.99393173 </v>
   <v>       0.75301663       0.25246161       0.51439402 </v>
   <v>       0.73673637       0.24061848       0.75051417 </v>
   <v>       0.49912982       0.99865641       0.75006918 </v>
   <v>       0.11080706       0.13898304       0.25008009 </v>
   <v>       0.10891610       0.13848463       0.74874932 </v>
   <v>       0.11531118       0.64408557       0.25893848 </v>
   <v>       0.10549710       0.64369308       0.74943982 </v>
   <v>       0.61442924       0.14359485       0.26126558 </v>
   <v>       0.60438273       0.14026607       0.74716336 </v>
   <v>       0.61227828       0.63829835       0.24976044 </v>
   <v>       0.60662714       0.64246908       0.74956316 </v>
   <v>       0.38904098       0.36156133       0.24737915 </v>
   <v>       0.38559749       0.36234430       0.75168383 </v>
   <v>       0.38670770       0.85950901       0.25717046 </v>
   <v>       0.39240899       0.85762615       0.75028727 </v>
   <v>       0.88681324       0.35825362       0.25501022 </v>
   <v>       0.88947095       0.86133586       0.25065838 </v>
   <v>       0.89344408       0.85431093       0.74871584 </v>
   <v>       0.36068149       0.11300939       0.24333911 </v>
   <v>       0.35514237       0.11229453       0.75619574 </v>
   <v>       0.35894666       0.61544469       0.26049527 </v>
   <v>       0.35648080       0.60905026       0.74866208 </v>
   <v>       0.85807054       0.11484011       0.25778872 </v>
   <v>       0.86417312       0.11164528       0.75112013 </v>
   <v>       0.86342756       0.61119099       0.24308274 </v>
   <v>       0.85389586       0.59460770       0.75503182 </v>
   <v>       0.13958580       0.38997789       0.25481218 </v>
   <v>       0.12560465       0.38423807       0.74446447 </v>
   <v>       0.14305168       0.88710644       0.25851285 </v>
   <v>       0.14187162       0.89161286       0.75090833 </v>
   <v>       0.64315274       0.38667231       0.25949972 </v>
   <v>       0.63972547       0.39376115       0.74860926 </v>
   <v>       0.63921277       0.88897149       0.25099166 </v>
   <v>       0.64508065       0.88910433       0.74899860 </v>
   <v>       0.35746203       0.39157026       0.00138137 </v>
   <v>       0.36417184       0.38509119       0.49990761 </v>
   <v>       0.36210922       0.89064162       0.00365958 </v>
   <v>       0.36404481       0.88251141       0.48847971 </v>
   <v>       0.88193466       0.37822811       0.00801858 </v>
   <v>       0.86113239       0.37831918       0.48089752 </v>
   <v>       0.86153957       0.88592700       0.00067077 </v>
   <v>       0.86545122       0.88347706       0.50028138 </v>
   <v>       0.13003454       0.12291911       0.00002052 </v>
   <v>       0.13527124       0.11527248       0.50134483 </v>
   <v>       0.14358425       0.59279064       0.99511807 </v>
   <v>       0.13576851       0.61707836       0.49592052 </v>
   <v>       0.63790303       0.11181685       0.99506904 </v>
   <v>       0.63813460       0.11752724       0.49862849 </v>
   <v>       0.64186124       0.61104337       0.00134964 </v>
   <v>       0.63369751       0.61601914       0.49947107 </v>
   <v>       0.11651986       0.36389623       0.49993330 </v>
   <v>       0.11094720       0.86171128       0.00261058 </v>
   <v>       0.11686481       0.86417634       0.48931131 </v>
   <v>       0.61422762       0.36497824       0.99924878 </v>
   <v>       0.61427554       0.36320894       0.49739263 </v>
   <v>       0.61102738       0.85979048       0.00093979 </v>
   <v>       0.61680052       0.86545097       0.49904771 </v>
   <v>       0.39079186       0.13818433       0.00128468 </v>
   <v>       0.38501042       0.13554340       0.49953149 </v>
   <v>       0.39335105       0.63975221       0.00193429 </v>
   <v>       0.38304002       0.63633939       0.49036319 </v>
   <v>       0.88502892       0.13122217       0.00202517 </v>
   <v>       0.88402743       0.13385306       0.49312156 </v>
   <v>       0.89125810       0.64042366       0.00051482 </v>
   <v>       0.88223374       0.63466880       0.50069298 </v>
   <v>       0.00059372       0.99865897       0.12844135 </v>
   <v>       0.00069083       0.99661572       0.62307684 </v>
   <v>       0.01571730       0.49350429       0.12385423 </v>
   <v>       0.98415988       0.48885742       0.62824136 </v>
   <v>       0.50724395       0.00210956       0.12745026 </v>
   <v>       0.49408147       0.99686367       0.62251374 </v>
   <v>       0.50247829       0.49982723       0.12817665 </v>
   <v>       0.49580793       0.50216163       0.62348686 </v>
   <v>       0.99928382       0.00136137       0.37433059 </v>
   <v>       0.00042903       0.99662538       0.87517616 </v>
   <v>       0.99846190       0.50488992       0.37209101 </v>
   <v>       0.99806140       0.47814491       0.87462905 </v>
   <v>       0.49999703       0.00432288       0.37378716 </v>
   <v>       0.49973855       0.99604347       0.87606260 </v>
   <v>       0.50076631       0.49715099       0.37463241 </v>
   <v>       0.49926193       0.50164526       0.87494477 </v>
   <v>       0.25264984       0.24771859       0.37406461 </v>
   <v>       0.23501152       0.26370772       0.87810942 </v>
   <v>       0.24930259       0.75021033       0.87403392 </v>
   <v>       0.76573394       0.26458409       0.86957846 </v>
   <v>       0.75223706       0.74799634       0.37408060 </v>
   <v>       0.75092130       0.74997424       0.87560410 </v>
   <v>       0.23463732       0.26241675       0.12189913 </v>
   <v>       0.25325317       0.24895594       0.62571942 </v>
   <v>       0.24767859       0.74649168       0.12434560 </v>
   <v>       0.24953715       0.75326343       0.62754056 </v>
   <v>       0.74403347       0.24802339       0.12439692 </v>
   <v>       0.77542426       0.26803049       0.63280791 </v>
   <v>       0.74978878       0.75171231       0.12440600 </v>
   <v>       0.75157389       0.74728595       0.62574239 </v>
  </varray>
 </structure>
</modeling>
