       N       E                     dE             d eps       ncg     rms          rms(c)
DAV:   1    -0.115342239660E+04   -0.11534E+04   -0.38145E-02  6432   0.445E-01    0.197E-02
RMM:   2    -0.115342239655E+04    0.47934E-07   -0.11853E-05  3312   0.609E-03    0.323E-02
RMM:   3    -0.115342239674E+04   -0.18653E-06   -0.35963E-06  2698   0.387E-03    0.328E-03
RMM:   4    -0.115342239683E+04   -0.91066E-07   -0.85220E-07  1434   0.198E-03    0.222E-03
RMM:   5    -0.115342239690E+04   -0.68510E-07   -0.47285E-07  1225   0.188E-03    0.244E-03
RMM:   6    -0.115342239689E+04    0.73196E-08   -0.13512E-07   821   0.166E-03    0.108E-03
RMM:   7    -0.115342239689E+04    0.26048E-08   -0.98681E-08   753   0.168E-03    0.395E-04
RMM:   8    -0.115342239689E+04    0.29104E-09   -0.15677E-08   605   0.163E-03
   1 F= -.11534224E+04 E0= -.11534224E+04  d E =-.115342E+04  mag=    20.0000
       N       E                     dE             d eps       ncg     rms          rms(c)
DAV:   1    -0.115342248017E+04   -0.83284E-04   -0.13743E-01  6208   0.433E-01    0.136E-01
RMM:   2    -0.115342269988E+04   -0.21971E-03   -0.42667E-03  6148   0.863E-02    0.128E-01
RMM:   3    -0.115342266541E+04    0.34471E-04   -0.16227E-04  3878   0.252E-02    0.820E-02
RMM:   4    -0.115342262297E+04    0.42436E-04   -0.10228E-04  3602   0.131E-02    0.448E-02
RMM:   5    -0.115342261445E+04    0.85243E-05   -0.48125E-05  3473   0.964E-03    0.543E-02
RMM:   6    -0.115342261519E+04   -0.73841E-06   -0.16832E-05  3083   0.636E-03    0.128E-02
RMM:   7    -0.115342261545E+04   -0.26138E-06   -0.58238E-06  2689   0.350E-03    0.126E-02
RMM:   8    -0.115342261569E+04   -0.24126E-06   -0.32204E-06  2493   0.310E-03
   2 F= -.11534226E+04 E0= -.11534226E+04  d E =-.218801E-03  mag=    20.0000
       N       E                     dE             d eps       ncg     rms          rms(c)
DAV:   1    -0.115342268267E+04   -0.67218E-04   -0.14875E-02  6432   0.143E-01    0.450E-02
RMM:   2    -0.115342270411E+04   -0.21438E-04   -0.43990E-04  5101   0.281E-02    0.422E-02
RMM:   3    -0.115342270170E+04    0.24025E-05   -0.22501E-05  3250   0.885E-03    0.258E-02
RMM:   4    -0.115342269693E+04    0.47717E-05   -0.11071E-05  3040   0.443E-03    0.141E-02
RMM:   5    -0.115342269605E+04    0.88602E-06   -0.44682E-06  2528   0.315E-03    0.132E-02
RMM:   6    -0.115342269606E+04   -0.14683E-07   -0.94371E-07  1727   0.218E-03    0.333E-03
RMM:   7    -0.115342269602E+04    0.38621E-07   -0.21713E-08   695   0.167E-03    0.212E-03
RMM:   8    -0.115342269599E+04    0.32829E-07   -0.84570E-08   620   0.169E-03
   3 F= -.11534227E+04 E0= -.11534227E+04  d E =-.299099E-03  mag=    20.0000
