       N       E                     dE             d eps       ncg     rms          rms(c)
DAV:   1    -0.105691324527E+04   -0.10569E+04   -0.78751E-03 13448   0.210E-01    0.296E-02
RMM:   2    -0.105691324406E+04    0.12180E-05   -0.19343E-05  6506   0.725E-03    0.514E-02
RMM:   3    -0.105691324418E+04   -0.12385E-06   -0.51673E-06  5733   0.428E-03    0.414E-03
RMM:   4    -0.105691324415E+04    0.26077E-07   -0.69780E-07  2105   0.173E-03    0.238E-03
RMM:   5    -0.105691324417E+04   -0.13213E-07   -0.46244E-07  2189   0.190E-03    0.210E-03
RMM:   6    -0.105691324417E+04   -0.47294E-08   -0.13270E-07  1762   0.166E-03    0.123E-03
RMM:   7    -0.105691324418E+04   -0.11569E-07   -0.12640E-07  1523   0.170E-03    0.545E-04
RMM:   8    -0.105691324419E+04   -0.24447E-08   -0.38398E-08  1276   0.165E-03
   1 F= -.10569132E+04 E0= -.10569132E+04  d E =-.105691E+04  mag=    80.0000
       N       E                     dE             d eps       ncg     rms          rms(c)
DAV:   1    -0.105691297637E+04    0.26781E-03   -0.21226E-01 12640   0.536E-01    0.225E-01
RMM:   2    -0.105691371778E+04   -0.74141E-03   -0.64950E-03 12317   0.113E-01    0.164E-01
RMM:   3    -0.105691376210E+04   -0.44319E-04   -0.33249E-04  9559   0.332E-02    0.952E-02
RMM:   4    -0.105691372786E+04    0.34239E-04   -0.72559E-05  7333   0.126E-02    0.587E-02
RMM:   5    -0.105691371047E+04    0.17391E-04   -0.72201E-05  7222   0.103E-02    0.201E-02
RMM:   6    -0.105691371133E+04   -0.85408E-06   -0.13061E-05  6615   0.614E-03    0.115E-02
RMM:   7    -0.105691371154E+04   -0.21297E-06   -0.54315E-06  5637   0.316E-03    0.104E-02
RMM:   8    -0.105691371157E+04   -0.24913E-07   -0.23671E-06  4461   0.292E-03
   2 F= -.10569137E+04 E0= -.10569137E+04  d E =-.467379E-03  mag=    80.0000
       N       E                     dE             d eps       ncg     rms          rms(c)
DAV:   1    -0.105691371320E+04   -0.16585E-05   -0.84151E-03 13000   0.107E-01    0.450E-02
RMM:   2    -0.105691374014E+04   -0.26944E-04   -0.22847E-04  7956   0.226E-02    0.370E-02
RMM:   3    -0.105691374422E+04   -0.40734E-05   -0.23580E-05  6317   0.960E-03    0.207E-02
RMM:   4    -0.105691374348E+04    0.74109E-06   -0.57677E-06  5482   0.392E-03    0.153E-02
RMM:   5    -0.105691374265E+04    0.82090E-06   -0.35856E-06  4832   0.311E-03    0.755E-03
RMM:   6    -0.105691374263E+04    0.28434E-07   -0.31433E-07  2023   0.188E-03    0.324E-03
RMM:   7    -0.105691374263E+04   -0.93132E-09   -0.72047E-09  1200   0.174E-03    0.211E-03
RMM:   8    -0.105691374264E+04   -0.14406E-07   -0.87303E-08  1201   0.179E-03
   3 F= -.10569137E+04 E0= -.10569137E+04  d E =-.498455E-03  mag=    80.0000
       N       E                     dE             d eps       ncg     rms          rms(c)
DAV:   1    -0.105691356320E+04    0.17943E-03   -0.19952E-01 12560   0.525E-01    0.168E-01
RMM:   2    -0.105691419332E+04   -0.63012E-03   -0.52960E-03 12378   0.101E-01    0.105E-01
RMM:   3    -0.105691422994E+04   -0.36616E-04   -0.25439E-04  8570   0.307E-02    0.622E-02
RMM:   4    -0.105691421781E+04    0.12131E-04   -0.56604E-05  7033   0.120E-02    0.365E-02
RMM:   5    -0.105691421313E+04    0.46808E-05   -0.36362E-05  6871   0.808E-03    0.194E-02
RMM:   6    -0.105691421417E+04   -0.10434E-05   -0.10583E-05  6210   0.551E-03    0.154E-02
RMM:   7    -0.105691421470E+04   -0.53253E-06   -0.42677E-06  4915   0.310E-03    0.462E-03
RMM:   8    -0.105691421493E+04   -0.22740E-06   -0.20662E-06  3910   0.271E-03
   4 F= -.10569142E+04 E0= -.10569142E+04  d E =-.472288E-03  mag=    80.0000
