<?xml version="1.0" encoding="ISO-8859-1"?>
<modeling>
 <generator>
  <i name="program" type="string">vasp </i>
  <i name="version" type="string">5.4.1  </i>
  <i name="subversion" type="string">05Feb16 (build Jan 25 2017 20:16:33) complex                          parallel </i>
  <i name="platform" type="string">BWXE6 </i>
  <i name="date" type="string">2019 07 09 </i>
  <i name="time" type="string">13:58:33 </i>
 </generator>
 <incar>
  <i type="string" name="SYSTEM"> STF</i>
  <i type="string" name="PREC">normal</i>
  <i type="string" name="ALGO"> Fast</i>
  <i type="int" name="ISPIN">     2</i>
  <i type="int" name="NELM">    40</i>
  <i type="int" name="NELMIN">     8</i>
  <i type="int" name="IBRION">     2</i>
  <i name="EDIFF">      0.00010000</i>
  <i name="EDIFFG">     -0.03000000</i>
  <i type="int" name="NSW">    30</i>
  <i type="int" name="ISIF">     3</i>
  <i name="ENCUT">    520.00000000</i>
  <i type="int" name="NBANDS">   768</i>
  <v name="MAGMOM">      0.60000000      0.60000000      0.60000000      0.60000000      0.60000000      0.60000000      0.60000000      0.60000000      0.60000000      0.60000000      0.60000000      0.60000000      0.60000000      0.60000000      0.60000000      0.60000000      0.60000000      0.60000000      0.60000000      0.60000000
      0.60000000      0.60000000      0.60000000      0.60000000      0.60000000      0.60000000      0.60000000      0.60000000      0.60000000      0.60000000      0.60000000      0.60000000      0.60000000      0.60000000      0.60000000      0.60000000      0.60000000      0.60000000      0.60000000      0.60000000
      0.60000000      0.60000000      0.60000000      0.60000000      0.60000000      0.60000000      0.60000000      0.60000000      5.00000000      5.00000000      5.00000000      5.00000000      5.00000000      5.00000000      5.00000000      5.00000000      5.00000000      5.00000000      5.00000000      5.00000000
      5.00000000      5.00000000      5.00000000      5.00000000      0.60000000      0.60000000      0.60000000      0.60000000      0.60000000      0.60000000      0.60000000      0.60000000      0.60000000      0.60000000      0.60000000      0.60000000      0.60000000      0.60000000      0.60000000      0.60000000
      0.60000000      0.60000000      0.60000000      0.60000000      0.60000000      0.60000000      0.60000000      0.60000000      0.60000000      0.60000000      0.60000000      0.60000000      0.60000000      0.60000000      0.60000000      0.60000000      0.60000000      0.60000000      0.60000000      0.60000000
      0.60000000      0.60000000      0.60000000      0.60000000      0.60000000      0.60000000      0.60000000      0.60000000      0.60000000      0.60000000      0.60000000      0.60000000      0.60000000      0.60000000      0.60000000      0.60000000      0.60000000      0.60000000      0.60000000      0.60000000
      0.60000000      0.60000000      0.60000000      0.60000000      0.60000000      0.60000000      0.60000000      0.60000000      0.60000000      0.60000000      0.60000000      0.60000000      0.60000000      0.60000000      0.60000000      0.60000000      0.60000000      0.60000000      0.60000000      0.60000000
      0.60000000      0.60000000      0.60000000      0.60000000      0.60000000      0.60000000      0.60000000      0.60000000      0.60000000      0.60000000      0.60000000      0.60000000</v>
  <i type="string" name="LREAL"> Auto</i>
  <i type="int" name="ISMEAR">     0</i>
  <i name="SIGMA">      0.05000000</i>
  <i type="int" name="LMAXMIX">     4</i>
  <v type="int" name="KPOINT_BSE">    -1     0     0     0</v>
  <i type="int" name="NELM">    40</i>
  <i type="logical" name="LDAU"> T  </i>
  <v type="int" name="LDAUTYPE">     2</v>
  <v type="int" name="LDAUL">     0     2     2     0</v>
  <v name="LDAUU">      0.00000000      3.00000000      5.00000000      0.00000000</v>
  <v name="LDAUJ">      0.00000000      0.00000000      0.00000000      0.00000000</v>
  <i type="int" name="LDAUPRINT">     1</i>
 </incar>
 <kpoints>
  <generation param="Monkhorst-Pack">
   <v type="int" name="divisions">       2        2        2 </v>
   <v name="usershift">      0.00000000       0.00000000       0.00000000 </v>
   <v name="genvec1">      0.50000000      -0.00000000       0.00000000 </v>
   <v name="genvec2">     -0.00000000       0.50000000       0.00000000 </v>
   <v name="genvec3">     -0.00000000       0.00000000       0.50000000 </v>
   <v name="shift">      0.50000000       0.50000000       0.50000000 </v>
  </generation>
  <varray name="kpointlist" >
   <v>       0.25000000       0.25000000       0.25000000 </v>
   <v>      -0.25000000       0.25000000       0.25000000 </v>
   <v>       0.25000000      -0.25000000       0.25000000 </v>
   <v>      -0.25000000      -0.25000000       0.25000000 </v>
  </varray>
  <varray name="weights" >
   <v>       0.25000000 </v>
   <v>       0.25000000 </v>
   <v>       0.25000000 </v>
   <v>       0.25000000 </v>
  </varray>
 </kpoints>
 <parameters>
  <separator name="general" >
   <i type="string" name="SYSTEM">STF</i>
   <i type="logical" name="LCOMPAT"> F  </i>
  </separator>
  <separator name="electronic" >
   <i type="string" name="PREC">normal</i>
   <i name="ENMAX">    520.00000000</i>
   <i name="ENAUG">    605.39200000</i>
   <i name="EDIFF">      0.00010000</i>
   <i type="int" name="IALGO">    68</i>
   <i type="int" name="IWAVPR">    11</i>
   <i type="int" name="NBANDS">   768</i>
   <i name="NELECT">   1040.00000000</i>
   <i type="int" name="TURBO">     0</i>
   <i type="int" name="IRESTART">     0</i>
   <i type="int" name="NREBOOT">     0</i>
   <i type="int" name="NMIN">     0</i>
   <i name="EREF">      0.00000000</i>
   <separator name="electronic smearing" >
    <i type="int" name="ISMEAR">     0</i>
    <i name="SIGMA">      0.05000000</i>
    <i name="KSPACING">      0.50000000</i>
    <i type="logical" name="KGAMMA"> T  </i>
   </separator>
   <separator name="electronic projectors" >
    <i type="logical" name="LREAL"> T  </i>
    <v name="ROPT">     -0.00050000     -0.00050000     -0.00050000     -0.00050000</v>
    <i type="int" name="LMAXPAW">  -100</i>
    <i type="int" name="LMAXMIX">     4</i>
    <i type="logical" name="NLSPLINE"> F  </i>
   </separator>
   <separator name="electronic startup" >
    <i type="int" name="ISTART">     1</i>
    <i type="int" name="ICHARG">     0</i>
    <i type="int" name="INIWAV">     1</i>
   </separator>
   <separator name="electronic spin" >
    <i type="int" name="ISPIN">     2</i>
    <i type="logical" name="LNONCOLLINEAR"> F  </i>
    <v name="MAGMOM">      0.60000000      0.60000000      0.60000000      0.60000000      0.60000000      0.60000000      0.60000000      0.60000000      0.60000000      0.60000000      0.60000000      0.60000000      0.60000000      0.60000000      0.60000000      0.60000000      0.60000000      0.60000000      0.60000000      0.60000000
      0.60000000      0.60000000      0.60000000      0.60000000      0.60000000      0.60000000      0.60000000      0.60000000      0.60000000      0.60000000      0.60000000      0.60000000      0.60000000      0.60000000      0.60000000      0.60000000      0.60000000      0.60000000      0.60000000      0.60000000
      0.60000000      0.60000000      0.60000000      0.60000000      0.60000000      0.60000000      0.60000000      0.60000000      5.00000000      5.00000000      5.00000000      5.00000000      5.00000000      5.00000000      5.00000000      5.00000000      5.00000000      5.00000000      5.00000000      5.00000000
      5.00000000      5.00000000      5.00000000      5.00000000      0.60000000      0.60000000      0.60000000      0.60000000      0.60000000      0.60000000      0.60000000      0.60000000      0.60000000      0.60000000      0.60000000      0.60000000      0.60000000      0.60000000      0.60000000      0.60000000
      0.60000000      0.60000000      0.60000000      0.60000000      0.60000000      0.60000000      0.60000000      0.60000000      0.60000000      0.60000000      0.60000000      0.60000000      0.60000000      0.60000000      0.60000000      0.60000000      0.60000000      0.60000000      0.60000000      0.60000000
      0.60000000      0.60000000      0.60000000      0.60000000      0.60000000      0.60000000      0.60000000      0.60000000      0.60000000      0.60000000      0.60000000      0.60000000      0.60000000      0.60000000      0.60000000      0.60000000      0.60000000      0.60000000      0.60000000      0.60000000
      0.60000000      0.60000000      0.60000000      0.60000000      0.60000000      0.60000000      0.60000000      0.60000000      0.60000000      0.60000000      0.60000000      0.60000000      0.60000000      0.60000000      0.60000000      0.60000000      0.60000000      0.60000000      0.60000000      0.60000000
      0.60000000      0.60000000      0.60000000      0.60000000      0.60000000      0.60000000      0.60000000      0.60000000      0.60000000      0.60000000      0.60000000      0.60000000</v>
    <i name="NUPDOWN">     -1.00000000</i>
    <i type="logical" name="LSORBIT"> F  </i>
    <v name="SAXIS">      0.00000000      0.00000000      1.00000000</v>
    <i type="logical" name="LSPIRAL"> F  </i>
    <v name="QSPIRAL">      0.00000000      0.00000000      0.00000000</v>
    <i type="logical" name="LZEROZ"> F  </i>
   </separator>
   <separator name="electronic exchange-correlation" >
    <i type="logical" name="LASPH"> F  </i>
    <i type="logical" name="LMETAGGA"> F  </i>
   </separator>
   <separator name="electronic convergence" >
    <i type="int" name="NELM">    40</i>
    <i type="int" name="NELMDL">     0</i>
    <i type="int" name="NELMIN">     8</i>
    <i name="ENINI">    520.00000000</i>
    <separator name="electronic convergence detail" >
     <i type="logical" name="LDIAG"> T  </i>
     <i type="logical" name="LSUBROT"> F  </i>
     <i name="WEIMIN">      0.00100000</i>
     <i name="EBREAK">      0.00000003</i>
     <i name="DEPER">      0.30000000</i>
     <i type="int" name="NRMM">     4</i>
     <i name="TIME">      0.40000000</i>
    </separator>
   </separator>
   <separator name="electronic mixer" >
    <i name="AMIX">      0.40000000</i>
    <i name="BMIX">      1.00000000</i>
    <i name="AMIN">      0.10000000</i>
    <i name="AMIX_MAG">      1.60000000</i>
    <i name="BMIX_MAG">      1.00000000</i>
    <separator name="electronic mixer details" >
     <i type="int" name="IMIX">     4</i>
     <i type="logical" name="MIXFIRST"> F  </i>
     <i type="int" name="MAXMIX">   -45</i>
     <i name="WC">    100.00000000</i>
     <i type="int" name="INIMIX">     1</i>
     <i type="int" name="MIXPRE">     1</i>
     <i type="int" name="MREMOVE">     5</i>
    </separator>
   </separator>
   <separator name="electronic dipolcorrection" >
    <i type="logical" name="LDIPOL"> F  </i>
    <i type="logical" name="LMONO"> F  </i>
    <i type="int" name="IDIPOL">     0</i>
    <i name="EPSILON">      1.00000000</i>
    <v name="DIPOL">   -100.00000000   -100.00000000   -100.00000000</v>
    <i name="EFIELD">      0.00000000</i>
   </separator>
  </separator>
  <separator name="grids" >
   <i type="int" name="NGX">    64</i>
   <i type="int" name="NGY">    64</i>
   <i type="int" name="NGZ">    90</i>
   <i type="int" name="NGXF">   128</i>
   <i type="int" name="NGYF">   128</i>
   <i type="int" name="NGZF">   180</i>
   <i type="logical" name="ADDGRID"> F  </i>
  </separator>
  <separator name="ionic" >
   <i type="int" name="NSW">    30</i>
   <i type="int" name="IBRION">     2</i>
   <i type="int" name="ISIF">     3</i>
   <i name="PSTRESS">      0.00000000</i>
   <i name="EDIFFG">     -0.03000000</i>
   <i type="int" name="NFREE">     1</i>
   <i name="POTIM">      0.50000000</i>
   <i name="SMASS">     -3.00000000</i>
   <i name="SCALEE">      1.00000000</i>
  </separator>
  <separator name="ionic md" >
   <i name="TEBEG">      0.00010000</i>
   <i name="TEEND">      0.00010000</i>
   <i type="int" name="NBLOCK">     1</i>
   <i type="int" name="KBLOCK">    30</i>
   <i type="int" name="NPACO">   256</i>
   <i name="APACO">     16.00000000</i>
  </separator>
  <separator name="symmetry" >
   <i type="int" name="ISYM">     2</i>
   <i name="SYMPREC">      0.00001000</i>
  </separator>
  <separator name="dos" >
   <i type="logical" name="LORBIT"> F  </i>
   <v name="RWIGS">     -1.00000000     -1.00000000     -1.00000000     -1.00000000</v>
   <i type="int" name="NEDOS">   301</i>
   <i name="EMIN">     10.00000000</i>
   <i name="EMAX">    -10.00000000</i>
   <i name="EFERMI">      0.00000000</i>
  </separator>
  <separator name="writing" >
   <i type="int" name="NWRITE">     2</i>
   <i type="logical" name="LWAVE"> T  </i>
   <i type="logical" name="LCHARG"> T  </i>
   <i type="logical" name="LPARD"> F  </i>
   <i type="logical" name="LVTOT"> F  </i>
   <i type="logical" name="LVHAR"> F  </i>
   <i type="logical" name="LELF"> F  </i>
   <i type="logical" name="LOPTICS"> F  </i>
   <v name="STM">      0.00000000      0.00000000      0.00000000      0.00000000      0.00000000      0.00000000      0.00000000</v>
  </separator>
  <separator name="performance" >
   <i type="int" name="NPAR">     2</i>
   <i type="int" name="NSIM">     4</i>
   <i type="int" name="NBLK">    -1</i>
   <i type="logical" name="LPLANE"> T  </i>
   <i type="logical" name="LSCALAPACK"> T  </i>
   <i type="logical" name="LSCAAWARE"> F  </i>
   <i type="logical" name="LSCALU"> F  </i>
   <i type="logical" name="LASYNC"> F  </i>
   <i type="logical" name="LORBITALREAL"> F  </i>
  </separator>
  <separator name="miscellaneous" >
   <i type="int" name="IDIOT">     3</i>
   <i type="logical" name="LMUSIC"> F  </i>
   <v name="POMASS">     87.62000000     47.88000000     55.84700000     16.00000000</v>
   <v name="DARWINR">      0.00000000      0.00000000      0.00000000      0.00000000</v>
   <v name="DARWINV">      1.00000000      1.00000000      1.00000000      1.00000000</v>
   <i type="logical" name="LCORR"> T  </i>
  </separator>
  <i type="logical" name="GGA_COMPAT"> T  </i>
  <i type="logical" name="LBERRY"> F  </i>
  <i type="int" name="ICORELEVEL">     0</i>
  <i type="logical" name="LDAU"> T  </i>
  <v type="int" name="LDAUTYPE">     2</v>
  <v type="int" name="LDAUL">     0</v>
  <v name="LDAUU">      0.00000000</v>
  <v name="LDAUJ">      0.00000000</v>
  <i type="int" name="LDAUPRINT">     1</i>
  <i type="int" name="I_CONSTRAINED_M">     0</i>
  <separator name="electronic exchange-correlation" >
   <i type="string" name="GGA">--</i>
   <i type="int" name="VOSKOWN">     0</i>
   <i type="logical" name="LHFCALC"> F  </i>
   <i type="string" name="PRECFOCK"></i>
   <i type="logical" name="LSYMGRAD"> F  </i>
   <i type="logical" name="LHFONE"> F  </i>
   <i type="logical" name="LRHFCALC"> F  </i>
   <i type="logical" name="LTHOMAS"> F  </i>
   <i type="logical" name="LMODELHF"> F  </i>
   <i name="ENCUT4O">     -1.00000000</i>
   <i type="int" name="EXXOEP">     0</i>
   <i type="int" name="FOURORBIT">     0</i>
   <i name="AEXX">      0.00000000</i>
   <i name="HFALPHA">      0.00000000</i>
   <i name="MCALPHA">      0.00000000</i>
   <i name="ALDAX">      1.00000000</i>
   <i name="AGGAX">      1.00000000</i>
   <i name="ALDAC">      1.00000000</i>
   <i name="AGGAC">      1.00000000</i>
   <i type="int" name="NKREDX">     1</i>
   <i type="int" name="NKREDY">     1</i>
   <i type="int" name="NKREDZ">     1</i>
   <i type="logical" name="SHIFTRED"> F  </i>
   <i type="logical" name="ODDONLY"> F  </i>
   <i type="logical" name="EVENONLY"> F  </i>
   <i type="int" name="LMAXFOCK">     0</i>
   <i type="int" name="NMAXFOCKAE">     0</i>
   <i type="logical" name="LFOCKAEDFT"> F  </i>
   <i name="HFSCREEN">      0.00000000</i>
   <i name="HFSCREENC">      0.00000000</i>
   <i type="int" name="NBANDSGWLOW">     0</i>
  </separator>
  <separator name="vdW DFT" >
   <i type="logical" name="LUSE_VDW"> F  </i>
   <i name="Zab_VDW">     -0.84910000</i>
   <i name="PARAM1">      0.12340000</i>
   <i name="PARAM2">      1.00000000</i>
   <i name="PARAM3">      0.00000000</i>
  </separator>
  <separator name="model GW" >
   <i type="int" name="MODEL_GW">     0</i>
   <i name="MODEL_EPS0">      7.91000284</i>
   <i name="MODEL_ALPHA">      1.00000000</i>
  </separator>
  <separator name="linear response parameters" >
   <i type="logical" name="LEPSILON"> F  </i>
   <i type="logical" name="LRPA"> F  </i>
   <i type="logical" name="LNABLA"> F  </i>
   <i type="logical" name="LVEL"> F  </i>
   <i type="int" name="KINTER">     0</i>
   <i name="CSHIFT">      0.10000000</i>
   <i name="OMEGAMAX">     -1.00000000</i>
   <i name="DEG_THRESHOLD">      0.00200000</i>
  </separator>
  <separator name="orbital magnetization" >
   <i type="logical" name="NUCIND"> F  </i>
   <v name="MAGPOS">      0.00000000      0.00000000      0.00000000</v>
   <i type="logical" name="LNICSALL"> T  </i>
   <i type="logical" name="ORBITALMAG"> F  </i>
   <i type="logical" name="LMAGBLOCH"> F  </i>
   <i type="logical" name="LCHIMAG"> F  </i>
   <i type="logical" name="LGAUGE"> T  </i>
   <i type="int" name="MAGATOM">     0</i>
   <v name="MAGDIPOL">      0.00000000      0.00000000      0.00000000</v>
   <v name="AVECCONST">      0.00000000      0.00000000      0.00000000</v>
  </separator>
  <separator name="response functions" >
   <i type="logical" name="LADDER"> F  </i>
   <i type="logical" name="LFXC"> F  </i>
   <i type="logical" name="LHARTREE"> T  </i>
   <i type="int" name="IBSE">     0</i>
   <v type="int" name="KPOINT">    -1     0     0     0</v>
   <i type="logical" name="LTCTE"> F  </i>
   <i type="logical" name="LTETE"> F  </i>
   <i type="logical" name="LTRIPLET"> F  </i>
   <i type="logical" name="LFXCEPS"> F  </i>
   <i type="logical" name="LFXHEG"> F  </i>
   <i type="int" name="NATURALO">     0</i>
   <i type="logical" name="L2ORDER"> F  </i>
   <i type="logical" name="LUSEW"> F  </i>
   <i name="ENCUTGW">     -2.00000000</i>
   <i name="ENCUTGWSOFT">     -2.00000000</i>
   <i name="ENCUTLF">     -1.00000000</i>
   <i type="int" name="LMAXMP2">    -1</i>
   <i name="SCISSOR">      0.00000000</i>
   <i type="int" name="NOMEGA">     0</i>
   <i type="int" name="NOMEGAR">     0</i>
   <i type="int" name="NBANDSGW">    -1</i>
   <i type="int" name="NBANDSO">    -1</i>
   <i type="int" name="NBANDSV">    -1</i>
   <i type="int" name="NELM">    40</i>
   <i type="int" name="NELMHF">     1</i>
   <i type="int" name="DIM">     3</i>
   <i type="int" name="ANTIRES">     0</i>
   <i name="OMEGAMAX">    -30.00000000</i>
   <i name="OMEGAMIN">    -30.00000000</i>
   <i name="OMEGATL">   -200.00000000</i>
   <i type="int" name="OMEGAGRID">     0</i>
   <i name="CSHIFT">     -0.10000000</i>
   <i type="logical" name="SELFENERGY"> F  </i>
   <i type="logical" name="LSPECTRAL"> F  </i>
   <i type="logical" name="LSPECTRALGW"> F  </i>
   <i type="logical" name="LSINGLES"> F  </i>
   <i type="logical" name="LFERMIGW"> F  </i>
   <i type="logical" name="ODDONLYGW"> F  </i>
   <i type="logical" name="EVENONLYGW"> F  </i>
   <i type="int" name="NKREDLFX">     1</i>
   <i type="int" name="NKREDLFY">     1</i>
   <i type="int" name="NKREDLFZ">     1</i>
   <i type="int" name="MAXMEM">  1800</i>
   <i type="int" name="TELESCOPE">     0</i>
   <i type="int" name="TAUPAR">     1</i>
   <i type="int" name="OMEGAPAR">    -1</i>
   <i name="LAMBDA">      1.00000000</i>
  </separator>
  <separator name="External order field" >
   <i name="OFIELD_KAPPA">      0.00000000</i>
   <v name="OFIELD_K">      0.00000000      0.00000000      0.00000000</v>
   <i name="OFIELD_Q6_NEAR">      0.00000000</i>
   <i name="OFIELD_Q6_FAR">      0.00000000</i>
   <i name="OFIELD_A">      0.00000000</i>
  </separator>
 </parameters>
 <atominfo>
  <atoms>     152 </atoms>
  <types>       4 </types>
  <array name="atoms" >
   <dimension dim="1">ion</dimension>
   <field type="string">element</field>
   <field type="int">atomtype</field>
   <set>
    <rc><c>Sr</c><c>   1</c></rc>
    <rc><c>Sr</c><c>   1</c></rc>
    <rc><c>Sr</c><c>   1</c></rc>
    <rc><c>Sr</c><c>   1</c></rc>
    <rc><c>Sr</c><c>   1</c></rc>
    <rc><c>Sr</c><c>   1</c></rc>
    <rc><c>Sr</c><c>   1</c></rc>
    <rc><c>Sr</c><c>   1</c></rc>
    <rc><c>Sr</c><c>   1</c></rc>
    <rc><c>Sr</c><c>   1</c></rc>
    <rc><c>Sr</c><c>   1</c></rc>
    <rc><c>Sr</c><c>   1</c></rc>
    <rc><c>Sr</c><c>   1</c></rc>
    <rc><c>Sr</c><c>   1</c></rc>
    <rc><c>Sr</c><c>   1</c></rc>
    <rc><c>Sr</c><c>   1</c></rc>
    <rc><c>Sr</c><c>   1</c></rc>
    <rc><c>Sr</c><c>   1</c></rc>
    <rc><c>Sr</c><c>   1</c></rc>
    <rc><c>Sr</c><c>   1</c></rc>
    <rc><c>Sr</c><c>   1</c></rc>
    <rc><c>Sr</c><c>   1</c></rc>
    <rc><c>Sr</c><c>   1</c></rc>
    <rc><c>Sr</c><c>   1</c></rc>
    <rc><c>Sr</c><c>   1</c></rc>
    <rc><c>Sr</c><c>   1</c></rc>
    <rc><c>Sr</c><c>   1</c></rc>
    <rc><c>Sr</c><c>   1</c></rc>
    <rc><c>Sr</c><c>   1</c></rc>
    <rc><c>Sr</c><c>   1</c></rc>
    <rc><c>Sr</c><c>   1</c></rc>
    <rc><c>Sr</c><c>   1</c></rc>
    <rc><c>Ti</c><c>   2</c></rc>
    <rc><c>Ti</c><c>   2</c></rc>
    <rc><c>Ti</c><c>   2</c></rc>
    <rc><c>Ti</c><c>   2</c></rc>
    <rc><c>Ti</c><c>   2</c></rc>
    <rc><c>Ti</c><c>   2</c></rc>
    <rc><c>Ti</c><c>   2</c></rc>
    <rc><c>Ti</c><c>   2</c></rc>
    <rc><c>Ti</c><c>   2</c></rc>
    <rc><c>Ti</c><c>   2</c></rc>
    <rc><c>Ti</c><c>   2</c></rc>
    <rc><c>Ti</c><c>   2</c></rc>
    <rc><c>Ti</c><c>   2</c></rc>
    <rc><c>Ti</c><c>   2</c></rc>
    <rc><c>Ti</c><c>   2</c></rc>
    <rc><c>Ti</c><c>   2</c></rc>
    <rc><c>Fe</c><c>   3</c></rc>
    <rc><c>Fe</c><c>   3</c></rc>
    <rc><c>Fe</c><c>   3</c></rc>
    <rc><c>Fe</c><c>   3</c></rc>
    <rc><c>Fe</c><c>   3</c></rc>
    <rc><c>Fe</c><c>   3</c></rc>
    <rc><c>Fe</c><c>   3</c></rc>
    <rc><c>Fe</c><c>   3</c></rc>
    <rc><c>Fe</c><c>   3</c></rc>
    <rc><c>Fe</c><c>   3</c></rc>
    <rc><c>Fe</c><c>   3</c></rc>
    <rc><c>Fe</c><c>   3</c></rc>
    <rc><c>Fe</c><c>   3</c></rc>
    <rc><c>Fe</c><c>   3</c></rc>
    <rc><c>Fe</c><c>   3</c></rc>
    <rc><c>Fe</c><c>   3</c></rc>
    <rc><c>O </c><c>   4</c></rc>
    <rc><c>O </c><c>   4</c></rc>
    <rc><c>O </c><c>   4</c></rc>
    <rc><c>O </c><c>   4</c></rc>
    <rc><c>O </c><c>   4</c></rc>
    <rc><c>O </c><c>   4</c></rc>
    <rc><c>O </c><c>   4</c></rc>
    <rc><c>O </c><c>   4</c></rc>
    <rc><c>O </c><c>   4</c></rc>
    <rc><c>O </c><c>   4</c></rc>
    <rc><c>O </c><c>   4</c></rc>
    <rc><c>O </c><c>   4</c></rc>
    <rc><c>O </c><c>   4</c></rc>
    <rc><c>O </c><c>   4</c></rc>
    <rc><c>O </c><c>   4</c></rc>
    <rc><c>O </c><c>   4</c></rc>
    <rc><c>O </c><c>   4</c></rc>
    <rc><c>O </c><c>   4</c></rc>
    <rc><c>O </c><c>   4</c></rc>
    <rc><c>O </c><c>   4</c></rc>
    <rc><c>O </c><c>   4</c></rc>
    <rc><c>O </c><c>   4</c></rc>
    <rc><c>O </c><c>   4</c></rc>
    <rc><c>O </c><c>   4</c></rc>
    <rc><c>O </c><c>   4</c></rc>
    <rc><c>O </c><c>   4</c></rc>
    <rc><c>O </c><c>   4</c></rc>
    <rc><c>O </c><c>   4</c></rc>
    <rc><c>O </c><c>   4</c></rc>
    <rc><c>O </c><c>   4</c></rc>
    <rc><c>O </c><c>   4</c></rc>
    <rc><c>O </c><c>   4</c></rc>
    <rc><c>O </c><c>   4</c></rc>
    <rc><c>O </c><c>   4</c></rc>
    <rc><c>O </c><c>   4</c></rc>
    <rc><c>O </c><c>   4</c></rc>
    <rc><c>O </c><c>   4</c></rc>
    <rc><c>O </c><c>   4</c></rc>
    <rc><c>O </c><c>   4</c></rc>
    <rc><c>O </c><c>   4</c></rc>
    <rc><c>O </c><c>   4</c></rc>
    <rc><c>O </c><c>   4</c></rc>
    <rc><c>O </c><c>   4</c></rc>
    <rc><c>O </c><c>   4</c></rc>
    <rc><c>O </c><c>   4</c></rc>
    <rc><c>O </c><c>   4</c></rc>
    <rc><c>O </c><c>   4</c></rc>
    <rc><c>O </c><c>   4</c></rc>
    <rc><c>O </c><c>   4</c></rc>
    <rc><c>O </c><c>   4</c></rc>
    <rc><c>O </c><c>   4</c></rc>
    <rc><c>O </c><c>   4</c></rc>
    <rc><c>O </c><c>   4</c></rc>
    <rc><c>O </c><c>   4</c></rc>
    <rc><c>O </c><c>   4</c></rc>
    <rc><c>O </c><c>   4</c></rc>
    <rc><c>O </c><c>   4</c></rc>
    <rc><c>O </c><c>   4</c></rc>
    <rc><c>O </c><c>   4</c></rc>
    <rc><c>O </c><c>   4</c></rc>
    <rc><c>O </c><c>   4</c></rc>
    <rc><c>O </c><c>   4</c></rc>
    <rc><c>O </c><c>   4</c></rc>
    <rc><c>O </c><c>   4</c></rc>
    <rc><c>O </c><c>   4</c></rc>
    <rc><c>O </c><c>   4</c></rc>
    <rc><c>O </c><c>   4</c></rc>
    <rc><c>O </c><c>   4</c></rc>
    <rc><c>O </c><c>   4</c></rc>
    <rc><c>O </c><c>   4</c></rc>
    <rc><c>O </c><c>   4</c></rc>
    <rc><c>O </c><c>   4</c></rc>
    <rc><c>O </c><c>   4</c></rc>
    <rc><c>O </c><c>   4</c></rc>
    <rc><c>O </c><c>   4</c></rc>
    <rc><c>O </c><c>   4</c></rc>
    <rc><c>O </c><c>   4</c></rc>
    <rc><c>O </c><c>   4</c></rc>
    <rc><c>O </c><c>   4</c></rc>
    <rc><c>O </c><c>   4</c></rc>
    <rc><c>O </c><c>   4</c></rc>
    <rc><c>O </c><c>   4</c></rc>
    <rc><c>O </c><c>   4</c></rc>
    <rc><c>O </c><c>   4</c></rc>
    <rc><c>O </c><c>   4</c></rc>
    <rc><c>O </c><c>   4</c></rc>
    <rc><c>O </c><c>   4</c></rc>
    <rc><c>O </c><c>   4</c></rc>
   </set>
  </array>
  <array name="atomtypes" >
   <dimension dim="1">type</dimension>
   <field type="int">atomspertype</field>
   <field type="string">element</field>
   <field>mass</field>
   <field>valence</field>
   <field type="string">pseudopotential</field>
   <set>
    <rc><c>  32</c><c>Sr</c><c>     87.62000000</c><c>     10.00000000</c><c>  PAW_PBE Sr_sv 07Sep2000               </c></rc>
    <rc><c>  16</c><c>Ti</c><c>     47.88000000</c><c>      4.00000000</c><c>  PAW_PBE Ti 08Apr2002                  </c></rc>
    <rc><c>  16</c><c>Fe</c><c>     55.84700000</c><c>      8.00000000</c><c>  PAW_PBE Fe 06Sep2000                  </c></rc>
    <rc><c>  88</c><c>O </c><c>     16.00000000</c><c>      6.00000000</c><c>  PAW_PBE O 08Apr2002                   </c></rc>
   </set>
  </array>
 </atominfo>
 <structure name="initialpos" >
  <crystal>
   <varray name="basis" >
    <v>      11.20321569       0.00099278      -0.00230679 </v>
    <v>       0.00104072      11.20113555      -0.00405609 </v>
    <v>      -0.00301318      -0.00570903      15.96850666 </v>
   </varray>
   <i name="volume">   2003.86738617 </i>
   <varray name="rec_basis" >
    <v>       0.08926009      -0.00000829       0.00001684 </v>
    <v>      -0.00000790       0.08927667       0.00003192 </v>
    <v>       0.00001289       0.00002268       0.06262327 </v>
   </varray>
  </crystal>
  <varray name="positions" >
   <v>       0.99323262       0.23963330       0.13329480 </v>
   <v>       0.00771769       0.24792593       0.62124713 </v>
   <v>       0.99948091       0.75797345       0.13260140 </v>
   <v>       0.00830168       0.75192655       0.61877374 </v>
   <v>       0.50071775       0.24966880       0.13298805 </v>
   <v>       0.50103672       0.24142377       0.61905332 </v>
   <v>       0.50173076       0.75658920       0.13728330 </v>
   <v>       0.48843115       0.75537422       0.61637345 </v>
   <v>       0.00032708       0.24644972       0.37402651 </v>
   <v>       0.99221938       0.24321312       0.86903315 </v>
   <v>       0.00278014       0.75581515       0.37746072 </v>
   <v>       0.99775369       0.75691673       0.86554489 </v>
   <v>       0.49827376       0.25222479       0.37198161 </v>
   <v>       0.51432210       0.23490316       0.86785584 </v>
   <v>       0.49589387       0.75187668       0.37397595 </v>
   <v>       0.49832970       0.75738276       0.87867527 </v>
   <v>       0.24967158       0.98958846       0.13324510 </v>
   <v>       0.24991341       0.99094054       0.61728026 </v>
   <v>       0.26233275       0.50723744       0.13858192 </v>
   <v>       0.24295423       0.51038765       0.61353045 </v>
   <v>       0.74747604       0.00027827       0.13198369 </v>
   <v>       0.75135202       0.99687823       0.62143624 </v>
   <v>       0.74475244       0.50007167       0.13384254 </v>
   <v>       0.75944083       0.49744479       0.61881269 </v>
   <v>       0.24967307       0.99825891       0.37376172 </v>
   <v>       0.25036688       0.98614834       0.86912721 </v>
   <v>       0.25561530       0.50412633       0.37721634 </v>
   <v>       0.23588265       0.50901673       0.87168195 </v>
   <v>       0.74940253       0.00047534       0.37117298 </v>
   <v>       0.75213931       0.99757477       0.87248206 </v>
   <v>       0.74635723       0.50193775       0.37396553 </v>
   <v>       0.75437860       0.50180449       0.86887023 </v>
   <v>       0.50212697       0.99778542       0.00046540 </v>
   <v>       0.49967606       0.00229817       0.49864158 </v>
   <v>       0.75066570       0.24940313       0.00153440 </v>
   <v>       0.50019640       0.50111657       0.50485470 </v>
   <v>       0.99899182       0.49977993       0.50014179 </v>
   <v>       0.99618247       0.99557214       0.00128417 </v>
   <v>       0.99745311       0.00167128       0.74656308 </v>
   <v>       0.75051779       0.74998017       0.24990271 </v>
   <v>       0.24765659       0.25381978       0.24561279 </v>
   <v>       0.75046273       0.75404255       0.00242029 </v>
   <v>       0.24911796       0.74960177       0.25330415 </v>
   <v>       0.50302826       0.99450555       0.74595088 </v>
   <v>       0.24871745       0.74211542       0.99894393 </v>
   <v>       0.74893761       0.25240143       0.24981906 </v>
   <v>       0.99972575       0.00207350       0.50094718 </v>
   <v>       0.00164243       0.49745027       0.74248025 </v>
   <v>       0.50192307       0.50052480       0.25567875 </v>
   <v>       0.99956905       0.00046895       0.25028297 </v>
   <v>       0.74845720       0.74904777       0.76146410 </v>
   <v>       0.23883376       0.75934862       0.74789903 </v>
   <v>       0.25187847       0.21756268       0.00121523 </v>
   <v>       0.24991624       0.25163777       0.48706755 </v>
   <v>       0.75040641       0.25135098       0.49211536 </v>
   <v>       0.24987535       0.75023336       0.49698810 </v>
   <v>       0.49919213       0.00343433       0.25093134 </v>
   <v>       0.75534953       0.24791244       0.75715733 </v>
   <v>       0.98755349       0.51397778       0.98716164 </v>
   <v>       0.74968492       0.75014088       0.49096549 </v>
   <v>       0.24661116       0.25537082       0.77662166 </v>
   <v>       0.99866766       0.49976434       0.25980921 </v>
   <v>       0.51761817       0.51087061       0.01057958 </v>
   <v>       0.51678471       0.48483758       0.73948160 </v>
   <v>       0.12193782       0.13367979       0.75951721 </v>
   <v>       0.60334203       0.62086857       0.77609559 </v>
   <v>       0.12427378       0.62475531       0.75360708 </v>
   <v>       0.61862911       0.13512153       0.25058479 </v>
   <v>       0.73713905       0.24980450       0.12082688 </v>
   <v>       0.62047491       0.63171537       0.25224270 </v>
   <v>       0.62727076       0.12377702       0.74410025 </v>
   <v>       0.38007071       0.36999457       0.25161842 </v>
   <v>       0.39477251       0.40079234       0.79394236 </v>
   <v>       0.38088441       0.86445275       0.75385278 </v>
   <v>       0.88100896       0.37167536       0.23580505 </v>
   <v>       0.88730364       0.36260999       0.73450429 </v>
   <v>       0.87954505       0.86880780       0.25092229 </v>
   <v>       0.87761705       0.86479386       0.73460011 </v>
   <v>       0.36542816       0.12397132       0.24077303 </v>
   <v>       0.37035621       0.13906003       0.75396934 </v>
   <v>       0.37076547       0.62113091       0.25873258 </v>
   <v>       0.11799234       0.62835101       0.24175563 </v>
   <v>       0.86745668       0.12199796       0.24666935 </v>
   <v>       0.87236156       0.61733772       0.23688297 </v>
   <v>       0.86080743       0.61588860       0.74416194 </v>
   <v>       0.12565658       0.38411665       0.23790937 </v>
   <v>       0.14610147       0.37841138       0.73153173 </v>
   <v>       0.13092912       0.87984296       0.24587131 </v>
   <v>       0.12693966       0.88259299       0.75282201 </v>
   <v>       0.63313792       0.38230124       0.25010725 </v>
   <v>       0.87253001       0.37357907       0.51478196 </v>
   <v>       0.63148324       0.88171576       0.25123136 </v>
   <v>       0.62884553       0.86741370       0.73179166 </v>
   <v>       0.86876201       0.12060075       0.74225506 </v>
   <v>       0.37125220       0.37542288       0.51065355 </v>
   <v>       0.36133642       0.88103456       0.99459256 </v>
   <v>       0.37312235       0.87992487       0.49684931 </v>
   <v>       0.88571929       0.38809398       0.02021933 </v>
   <v>       0.12015909       0.13351685       0.24384579 </v>
   <v>       0.85415441       0.89566741       0.00548643 </v>
   <v>       0.63909323       0.36840615       0.72676721 </v>
   <v>       0.14458961       0.09131623       0.99744055 </v>
   <v>       0.13042876       0.12637899       0.50725848 </v>
   <v>       0.13893170       0.57813722       0.01280271 </v>
   <v>       0.12556603       0.62080608       0.49398511 </v>
   <v>       0.37954190       0.87108109       0.25065654 </v>
   <v>       0.62932864       0.12722309       0.51329283 </v>
   <v>       0.62969643       0.62679024       0.51970233 </v>
   <v>       0.40020167       0.14382567       0.99029853 </v>
   <v>       0.12439418       0.37195339       0.50875355 </v>
   <v>       0.10640300       0.84264788       0.99647285 </v>
   <v>       0.12141651       0.87418940       0.50201152 </v>
   <v>       0.62568278       0.37301643       0.52093225 </v>
   <v>       0.99578007       0.48526310       0.86980487 </v>
   <v>       0.62405291       0.87367402       0.50734639 </v>
   <v>       0.25140826       0.73786029       0.87360168 </v>
   <v>       0.37456183       0.13177558       0.50608994 </v>
   <v>       0.38373111       0.60522640       0.98007553 </v>
   <v>       0.37891906       0.62778907       0.48986950 </v>
   <v>       0.89352998       0.14333253       0.99851715 </v>
   <v>       0.87476575       0.12946593       0.51197753 </v>
   <v>       0.89239403       0.64782492       0.00289937 </v>
   <v>       0.00053715       0.99746266       0.12181869 </v>
   <v>       0.01201133       0.00472072       0.62692560 </v>
   <v>       0.24043058       0.75449936       0.37261181 </v>
   <v>       0.00556217       0.51232947       0.62420714 </v>
   <v>       0.50065869       0.00196195       0.12023591 </v>
   <v>       0.48592909       0.00204487       0.62626472 </v>
   <v>       0.49715712       0.49872581       0.12520061 </v>
   <v>       0.46899851       0.52016796       0.63121910 </v>
   <v>       0.87507798       0.62901638       0.50893825 </v>
   <v>       0.98717646       0.99259654       0.87360058 </v>
   <v>       0.98828559       0.49083249       0.37809490 </v>
   <v>       0.50245343       0.01116633       0.37762398 </v>
   <v>       0.50874429       0.99484780       0.87068265 </v>
   <v>       0.51321913       0.49077896       0.38331154 </v>
   <v>       0.60806953       0.85943883       0.99959915 </v>
   <v>       0.60335573       0.36533405       0.98610770 </v>
   <v>       0.24361959       0.25500844       0.36899361 </v>
   <v>       0.76156075       0.76530620       0.87733404 </v>
   <v>       0.25669521       0.74093864       0.62768149 </v>
   <v>       0.75484524       0.25691110       0.37384273 </v>
   <v>       0.76025866       0.26496545       0.87596007 </v>
   <v>       0.75431955       0.74358374       0.37355102 </v>
   <v>       0.64572970       0.11069489       0.99267525 </v>
   <v>       0.24941568       0.27722952       0.11035839 </v>
   <v>       0.64468221       0.61343017       0.98686186 </v>
   <v>       0.26293303       0.74307074       0.12015670 </v>
   <v>       0.21709554       0.28875757       0.89647000 </v>
   <v>       0.99714342       0.00583270       0.37836910 </v>
   <v>       0.74153907       0.74956340       0.12367408 </v>
   <v>       0.87183287       0.87541032       0.51151424 </v>
  </varray>
 </structure>
 <calculation>
  <scstep>
   <time name="dav">  304.04  304.05</time>
   <time name="total">  307.77  307.87</time>
   <energy>
    <i name="alphaZ">   5620.25090593 </i>
    <i name="ewald"> -62156.13325881 </i>
    <i name="hartreedc"> -17450.04751329 </i>
    <i name="XCdc">   3185.91533010 </i>
    <i name="pawpsdc"> 114093.99883527 </i>
    <i name="pawaedc">-113298.54886026 </i>
    <i name="eentropy">     -0.00000000 </i>
    <i name="bandstr">  -7102.52481059 </i>
    <i name="atom">  76050.17612637 </i>
    <i name="e_fr_energy">  -1056.91324527 </i>
    <i name="e_wo_entrp">  -1056.91324527 </i>
    <i name="e_0_energy">  -1056.91324527 </i>
   </energy>
  </scstep>
  <scstep>
   <time name="diag">   33.23   33.24</time>
   <time name="diis">   29.91   29.90</time>
   <time name="orth">   18.88   18.88</time>
   <time name="total">   85.72   85.73</time>
   <energy>
    <i name="e_fr_energy">  -1056.91324406 </i>
    <i name="e_wo_entrp">  -1056.91324406 </i>
    <i name="e_0_energy">  -1056.91324406 </i>
   </energy>
  </scstep>
  <scstep>
   <time name="diag">   33.26   33.26</time>
   <time name="diis">   27.99   28.00</time>
   <time name="orth">   18.83   18.83</time>
   <time name="total">   83.80   83.89</time>
   <energy>
    <i name="e_fr_energy">  -1056.91324418 </i>
    <i name="e_wo_entrp">  -1056.91324418 </i>
    <i name="e_0_energy">  -1056.91324418 </i>
   </energy>
  </scstep>
  <scstep>
   <time name="diag">   33.23   33.26</time>
   <time name="diis">   22.56   22.56</time>
   <time name="orth">   18.83   18.83</time>
   <time name="total">   78.33   78.48</time>
   <energy>
    <i name="e_fr_energy">  -1056.91324415 </i>
    <i name="e_wo_entrp">  -1056.91324415 </i>
    <i name="e_0_energy">  -1056.91324415 </i>
   </energy>
  </scstep>
  <scstep>
   <time name="diag">   33.23   33.23</time>
   <time name="diis">   22.59   22.59</time>
   <time name="orth">   18.87   18.86</time>
   <time name="total">   78.39   78.46</time>
   <energy>
    <i name="e_fr_energy">  -1056.91324417 </i>
    <i name="e_wo_entrp">  -1056.91324417 </i>
    <i name="e_0_energy">  -1056.91324417 </i>
   </energy>
  </scstep>
  <scstep>
   <time name="diag">   33.22   33.22</time>
   <time name="diis">   21.98   21.99</time>
   <time name="orth">   18.83   18.83</time>
   <time name="total">   77.76   77.85</time>
   <energy>
    <i name="e_fr_energy">  -1056.91324417 </i>
    <i name="e_wo_entrp">  -1056.91324417 </i>
    <i name="e_0_energy">  -1056.91324417 </i>
   </energy>
  </scstep>
  <scstep>
   <time name="diag">   33.23   33.23</time>
   <time name="diis">   21.66   21.67</time>
   <time name="orth">   18.87   18.86</time>
   <time name="total">   77.48   77.54</time>
   <energy>
    <i name="e_fr_energy">  -1056.91324418 </i>
    <i name="e_wo_entrp">  -1056.91324418 </i>
    <i name="e_0_energy">  -1056.91324418 </i>
   </energy>
  </scstep>
  <scstep>
   <time name="diag">   33.23   33.23</time>
   <time name="diis">   21.41   21.41</time>
   <time name="orth">   18.86   18.86</time>
   <time name="total">   74.08   74.21</time>
   <energy>
    <i name="alphaZ">   5620.25090593 </i>
    <i name="ewald"> -62156.13325881 </i>
    <i name="hartreedc"> -17450.02742766 </i>
    <i name="XCdc">   3185.91545616 </i>
    <i name="pawpsdc"> 114093.78374660 </i>
    <i name="pawaedc">-113298.32665589 </i>
    <i name="eentropy">     -0.00000000 </i>
    <i name="bandstr">  -7102.55213689 </i>
    <i name="atom">  76050.17612637 </i>
    <i name="e_fr_energy">  -1056.91324419 </i>
    <i name="e_wo_entrp">  -1056.91324419 </i>
    <i name="e_0_energy">  -1056.91324419 </i>
   </energy>
  </scstep>
  <structure>
   <crystal>
    <varray name="basis" >
     <v>      11.20321569       0.00099278      -0.00230679 </v>
     <v>       0.00104072      11.20113555      -0.00405609 </v>
     <v>      -0.00301318      -0.00570903      15.96850666 </v>
    </varray>
    <i name="volume">   2003.86738617 </i>
    <varray name="rec_basis" >
     <v>       0.08926009      -0.00000829       0.00001684 </v>
     <v>      -0.00000790       0.08927667       0.00003192 </v>
     <v>       0.00001289       0.00002268       0.06262327 </v>
    </varray>
   </crystal>
   <varray name="positions" >
    <v>       0.99323262       0.23963330       0.13329480 </v>
    <v>       0.00771769       0.24792593       0.62124713 </v>
    <v>       0.99948091       0.75797345       0.13260140 </v>
    <v>       0.00830168       0.75192655       0.61877374 </v>
    <v>       0.50071775       0.24966880       0.13298805 </v>
    <v>       0.50103672       0.24142377       0.61905332 </v>
    <v>       0.50173076       0.75658920       0.13728330 </v>
    <v>       0.48843115       0.75537422       0.61637345 </v>
    <v>       0.00032708       0.24644972       0.37402651 </v>
    <v>       0.99221938       0.24321312       0.86903315 </v>
    <v>       0.00278014       0.75581515       0.37746072 </v>
    <v>       0.99775369       0.75691673       0.86554489 </v>
    <v>       0.49827376       0.25222479       0.37198161 </v>
    <v>       0.51432210       0.23490316       0.86785584 </v>
    <v>       0.49589387       0.75187668       0.37397595 </v>
    <v>       0.49832970       0.75738276       0.87867527 </v>
    <v>       0.24967158       0.98958846       0.13324510 </v>
    <v>       0.24991341       0.99094054       0.61728026 </v>
    <v>       0.26233275       0.50723744       0.13858192 </v>
    <v>       0.24295423       0.51038765       0.61353045 </v>
    <v>       0.74747604       0.00027827       0.13198369 </v>
    <v>       0.75135202       0.99687823       0.62143624 </v>
    <v>       0.74475244       0.50007167       0.13384254 </v>
    <v>       0.75944083       0.49744479       0.61881269 </v>
    <v>       0.24967307       0.99825891       0.37376172 </v>
    <v>       0.25036688       0.98614834       0.86912721 </v>
    <v>       0.25561530       0.50412633       0.37721634 </v>
    <v>       0.23588265       0.50901673       0.87168195 </v>
    <v>       0.74940253       0.00047534       0.37117298 </v>
    <v>       0.75213931       0.99757477       0.87248206 </v>
    <v>       0.74635723       0.50193775       0.37396553 </v>
    <v>       0.75437860       0.50180449       0.86887023 </v>
    <v>       0.50212697       0.99778542       0.00046540 </v>
    <v>       0.49967606       0.00229817       0.49864158 </v>
    <v>       0.75066570       0.24940313       0.00153440 </v>
    <v>       0.50019640       0.50111657       0.50485470 </v>
    <v>       0.99899182       0.49977993       0.50014179 </v>
    <v>       0.99618247       0.99557214       0.00128417 </v>
    <v>       0.99745311       0.00167128       0.74656308 </v>
    <v>       0.75051779       0.74998017       0.24990271 </v>
    <v>       0.24765659       0.25381978       0.24561279 </v>
    <v>       0.75046273       0.75404255       0.00242029 </v>
    <v>       0.24911796       0.74960177       0.25330415 </v>
    <v>       0.50302826       0.99450555       0.74595088 </v>
    <v>       0.24871745       0.74211542       0.99894393 </v>
    <v>       0.74893761       0.25240143       0.24981906 </v>
    <v>       0.99972575       0.00207350       0.50094718 </v>
    <v>       0.00164243       0.49745027       0.74248025 </v>
    <v>       0.50192307       0.50052480       0.25567875 </v>
    <v>       0.99956905       0.00046895       0.25028297 </v>
    <v>       0.74845720       0.74904777       0.76146410 </v>
    <v>       0.23883376       0.75934862       0.74789903 </v>
    <v>       0.25187847       0.21756268       0.00121523 </v>
    <v>       0.24991624       0.25163777       0.48706755 </v>
    <v>       0.75040641       0.25135098       0.49211536 </v>
    <v>       0.24987535       0.75023336       0.49698810 </v>
    <v>       0.49919213       0.00343433       0.25093134 </v>
    <v>       0.75534953       0.24791244       0.75715733 </v>
    <v>       0.98755349       0.51397778       0.98716164 </v>
    <v>       0.74968492       0.75014088       0.49096549 </v>
    <v>       0.24661116       0.25537082       0.77662166 </v>
    <v>       0.99866766       0.49976434       0.25980921 </v>
    <v>       0.51761817       0.51087061       0.01057958 </v>
    <v>       0.51678471       0.48483758       0.73948160 </v>
    <v>       0.12193782       0.13367979       0.75951721 </v>
    <v>       0.60334203       0.62086857       0.77609559 </v>
    <v>       0.12427378       0.62475531       0.75360708 </v>
    <v>       0.61862911       0.13512153       0.25058479 </v>
    <v>       0.73713905       0.24980450       0.12082688 </v>
    <v>       0.62047491       0.63171537       0.25224270 </v>
    <v>       0.62727076       0.12377702       0.74410025 </v>
    <v>       0.38007071       0.36999457       0.25161842 </v>
    <v>       0.39477251       0.40079234       0.79394236 </v>
    <v>       0.38088441       0.86445275       0.75385278 </v>
    <v>       0.88100896       0.37167536       0.23580505 </v>
    <v>       0.88730364       0.36260999       0.73450429 </v>
    <v>       0.87954505       0.86880780       0.25092229 </v>
    <v>       0.87761705       0.86479386       0.73460011 </v>
    <v>       0.36542816       0.12397132       0.24077303 </v>
    <v>       0.37035621       0.13906003       0.75396934 </v>
    <v>       0.37076547       0.62113091       0.25873258 </v>
    <v>       0.11799234       0.62835101       0.24175563 </v>
    <v>       0.86745668       0.12199796       0.24666935 </v>
    <v>       0.87236156       0.61733772       0.23688297 </v>
    <v>       0.86080743       0.61588860       0.74416194 </v>
    <v>       0.12565658       0.38411665       0.23790937 </v>
    <v>       0.14610147       0.37841138       0.73153173 </v>
    <v>       0.13092912       0.87984296       0.24587131 </v>
    <v>       0.12693966       0.88259299       0.75282201 </v>
    <v>       0.63313792       0.38230124       0.25010725 </v>
    <v>       0.87253001       0.37357907       0.51478196 </v>
    <v>       0.63148324       0.88171576       0.25123136 </v>
    <v>       0.62884553       0.86741370       0.73179166 </v>
    <v>       0.86876201       0.12060075       0.74225506 </v>
    <v>       0.37125220       0.37542288       0.51065355 </v>
    <v>       0.36133642       0.88103456       0.99459256 </v>
    <v>       0.37312235       0.87992487       0.49684931 </v>
    <v>       0.88571929       0.38809398       0.02021933 </v>
    <v>       0.12015909       0.13351685       0.24384579 </v>
    <v>       0.85415441       0.89566741       0.00548643 </v>
    <v>       0.63909323       0.36840615       0.72676721 </v>
    <v>       0.14458961       0.09131623       0.99744055 </v>
    <v>       0.13042876       0.12637899       0.50725848 </v>
    <v>       0.13893170       0.57813722       0.01280271 </v>
    <v>       0.12556603       0.62080608       0.49398511 </v>
    <v>       0.37954190       0.87108109       0.25065654 </v>
    <v>       0.62932864       0.12722309       0.51329283 </v>
    <v>       0.62969643       0.62679024       0.51970233 </v>
    <v>       0.40020167       0.14382567       0.99029853 </v>
    <v>       0.12439418       0.37195339       0.50875355 </v>
    <v>       0.10640300       0.84264788       0.99647285 </v>
    <v>       0.12141651       0.87418940       0.50201152 </v>
    <v>       0.62568278       0.37301643       0.52093225 </v>
    <v>       0.99578007       0.48526310       0.86980487 </v>
    <v>       0.62405291       0.87367402       0.50734639 </v>
    <v>       0.25140826       0.73786029       0.87360168 </v>
    <v>       0.37456183       0.13177558       0.50608994 </v>
    <v>       0.38373111       0.60522640       0.98007553 </v>
    <v>       0.37891906       0.62778907       0.48986950 </v>
    <v>       0.89352998       0.14333253       0.99851715 </v>
    <v>       0.87476575       0.12946593       0.51197753 </v>
    <v>       0.89239403       0.64782492       0.00289937 </v>
    <v>       0.00053715       0.99746266       0.12181869 </v>
    <v>       0.01201133       0.00472072       0.62692560 </v>
    <v>       0.24043058       0.75449936       0.37261181 </v>
    <v>       0.00556217       0.51232947       0.62420714 </v>
    <v>       0.50065869       0.00196195       0.12023591 </v>
    <v>       0.48592909       0.00204487       0.62626472 </v>
    <v>       0.49715712       0.49872581       0.12520061 </v>
    <v>       0.46899851       0.52016796       0.63121910 </v>
    <v>       0.87507798       0.62901638       0.50893825 </v>
    <v>       0.98717646       0.99259654       0.87360058 </v>
    <v>       0.98828559       0.49083249       0.37809490 </v>
    <v>       0.50245343       0.01116633       0.37762398 </v>
    <v>       0.50874429       0.99484780       0.87068265 </v>
    <v>       0.51321913       0.49077896       0.38331154 </v>
    <v>       0.60806953       0.85943883       0.99959915 </v>
    <v>       0.60335573       0.36533405       0.98610770 </v>
    <v>       0.24361959       0.25500844       0.36899361 </v>
    <v>       0.76156075       0.76530620       0.87733404 </v>
    <v>       0.25669521       0.74093864       0.62768149 </v>
    <v>       0.75484524       0.25691110       0.37384273 </v>
    <v>       0.76025866       0.26496545       0.87596007 </v>
    <v>       0.75431955       0.74358374       0.37355102 </v>
    <v>       0.64572970       0.11069489       0.99267525 </v>
    <v>       0.24941568       0.27722952       0.11035839 </v>
    <v>       0.64468221       0.61343017       0.98686186 </v>
    <v>       0.26293303       0.74307074       0.12015670 </v>
    <v>       0.21709554       0.28875757       0.89647000 </v>
    <v>       0.99714342       0.00583270       0.37836910 </v>
    <v>       0.74153907       0.74956340       0.12367408 </v>
    <v>       0.87183287       0.87541032       0.51151424 </v>
   </varray>
  </structure>
  <varray name="forces" >
   <v>      -0.00460942       0.00435052      -0.00332961 </v>
   <v>      -0.00579744       0.00363801       0.00138156 </v>
   <v>      -0.00103302      -0.00486120      -0.00139985 </v>
   <v>      -0.00367185      -0.00418482      -0.00411349 </v>
   <v>      -0.00009453       0.00271389       0.00480203 </v>
   <v>       0.00140958      -0.00098887      -0.00320984 </v>
   <v>      -0.00544116       0.00032675      -0.00617035 </v>
   <v>       0.00252914      -0.00097865      -0.00530735 </v>
   <v>      -0.00054710       0.00010518       0.00448319 </v>
   <v>       0.00373206       0.00461827       0.00440785 </v>
   <v>      -0.00149241      -0.00271554      -0.00028057 </v>
   <v>      -0.00512591      -0.00239590      -0.00059823 </v>
   <v>      -0.00269939      -0.00608327       0.00065889 </v>
   <v>      -0.00153482      -0.00345471      -0.00646321 </v>
   <v>       0.00078596       0.00381639      -0.00118798 </v>
   <v>       0.00075066       0.00541829      -0.00014185 </v>
   <v>       0.00415808       0.00438339      -0.01540272 </v>
   <v>       0.00240706      -0.00403962       0.00083447 </v>
   <v>       0.00337531       0.00322461       0.00399050 </v>
   <v>      -0.00965403       0.00255840       0.00579295 </v>
   <v>      -0.00177939       0.00855127      -0.00534158 </v>
   <v>      -0.00103167      -0.00178167       0.00420764 </v>
   <v>      -0.00458515      -0.00934350      -0.00181251 </v>
   <v>      -0.00450573      -0.00224354       0.00463068 </v>
   <v>       0.00072468       0.00221579       0.00942444 </v>
   <v>       0.00271651      -0.00143032      -0.00408425 </v>
   <v>      -0.00769496      -0.00499782      -0.00151086 </v>
   <v>       0.00068058      -0.00131179      -0.00147930 </v>
   <v>      -0.00424863       0.00306301       0.00509253 </v>
   <v>      -0.00932567       0.00250309      -0.00324985 </v>
   <v>      -0.00027114       0.00450650       0.00430193 </v>
   <v>       0.01044381      -0.00705257      -0.00164528 </v>
   <v>      -0.00507245       0.00931632      -0.00197598 </v>
   <v>       0.00056099       0.00532460       0.00335703 </v>
   <v>       0.00773471       0.01025462      -0.00508504 </v>
   <v>       0.01386252      -0.00056069       0.00816513 </v>
   <v>       0.00086500      -0.00089611       0.01531474 </v>
   <v>       0.00813139       0.01706708      -0.00392792 </v>
   <v>       0.00628035      -0.00738892       0.00427373 </v>
   <v>      -0.00166814      -0.00091055       0.05613656 </v>
   <v>       0.01001950       0.00171621       0.00193190 </v>
   <v>      -0.00552256       0.00237354      -0.01336901 </v>
   <v>       0.01075969      -0.00579737       0.01296470 </v>
   <v>       0.00057926       0.00092181       0.00020852 </v>
   <v>       0.01743347      -0.01545945      -0.01687536 </v>
   <v>      -0.00808563       0.00078648      -0.00205607 </v>
   <v>      -0.00177931      -0.00193598      -0.01206594 </v>
   <v>       0.00044561       0.01947590      -0.00688176 </v>
   <v>       0.00215090      -0.00746253       0.00847171 </v>
   <v>      -0.00024541      -0.00081624      -0.00181190 </v>
   <v>      -0.00039828      -0.00135113      -0.00689709 </v>
   <v>       0.00991907       0.01004117       0.01291293 </v>
   <v>       0.00496965       0.00086485      -0.01989692 </v>
   <v>      -0.00343398      -0.00661012      -0.00578517 </v>
   <v>      -0.00379761       0.00078557      -0.00500344 </v>
   <v>      -0.00453008      -0.00113270       0.00572891 </v>
   <v>       0.00359780       0.00422923       0.00061144 </v>
   <v>       0.00847774      -0.00599105       0.00054706 </v>
   <v>       0.00954007      -0.01130299      -0.01553959 </v>
   <v>       0.00627382      -0.00294804      -0.00166987 </v>
   <v>       0.00426360      -0.01604695      -0.00049193 </v>
   <v>       0.00358339       0.00427610      -0.00013310 </v>
   <v>      -0.01536372       0.00090299       0.00908311 </v>
   <v>       0.01320185       0.00336673      -0.00951148 </v>
   <v>       0.00163135      -0.00103733      -0.00480956 </v>
   <v>       0.01922526       0.00803896      -0.00881240 </v>
   <v>      -0.00300715       0.00435305       0.00414252 </v>
   <v>       0.00170508      -0.00455222       0.00764555 </v>
   <v>       0.00496573       0.00595550       0.01529219 </v>
   <v>       0.01138163       0.00597315      -0.00062937 </v>
   <v>       0.00388563       0.00972728       0.00045590 </v>
   <v>      -0.01655210       0.01165413       0.00227581 </v>
   <v>       0.00345008       0.01023618      -0.00630195 </v>
   <v>       0.00507587      -0.00159914      -0.00824955 </v>
   <v>      -0.00841914       0.00044966       0.00103555 </v>
   <v>      -0.00573385      -0.01052232      -0.00499617 </v>
   <v>       0.00309047       0.00454306      -0.01262095 </v>
   <v>      -0.00449398       0.00653895       0.00511954 </v>
   <v>       0.00220317       0.00028958       0.00024527 </v>
   <v>      -0.00511658      -0.00001133      -0.00549607 </v>
   <v>      -0.00979062       0.01074154       0.00765376 </v>
   <v>      -0.00217475      -0.00421565      -0.00077995 </v>
   <v>       0.00882721      -0.00309605      -0.00651893 </v>
   <v>       0.00172035       0.00110763       0.00272755 </v>
   <v>       0.00298472      -0.00329756       0.00499289 </v>
   <v>      -0.00392277      -0.00344414      -0.01870313 </v>
   <v>      -0.00549094      -0.00069858      -0.00057270 </v>
   <v>      -0.00930063       0.00473213      -0.00338883 </v>
   <v>      -0.01543058       0.00646350      -0.00118134 </v>
   <v>       0.01182141      -0.01097420       0.00004958 </v>
   <v>       0.00250038      -0.01094317       0.00846007 </v>
   <v>      -0.00531410      -0.00475382      -0.01400826 </v>
   <v>       0.00352456      -0.00149612       0.00086797 </v>
   <v>      -0.00140982      -0.00573212      -0.00607847 </v>
   <v>      -0.00599118      -0.00868731       0.00286511 </v>
   <v>      -0.00187926       0.00866822       0.00581410 </v>
   <v>       0.00059202      -0.00392065       0.00553081 </v>
   <v>      -0.01382408      -0.00373103       0.00020412 </v>
   <v>      -0.00532766      -0.00279478       0.00766598 </v>
   <v>      -0.00934321      -0.01015502       0.00687103 </v>
   <v>      -0.00599621       0.01239646       0.00419796 </v>
   <v>      -0.00633760       0.01192524      -0.00404415 </v>
   <v>      -0.00208663       0.00531983      -0.00402556 </v>
   <v>      -0.00654840       0.00769253      -0.00629823 </v>
   <v>       0.00016976       0.00328111       0.00420949 </v>
   <v>      -0.00791272      -0.00444635      -0.00205204 </v>
   <v>       0.00406718       0.00904065      -0.01003202 </v>
   <v>      -0.00421577      -0.01027196      -0.00785266 </v>
   <v>      -0.00745972      -0.00282294      -0.00446940 </v>
   <v>       0.00661950      -0.00382212       0.00755900 </v>
   <v>       0.00073391      -0.00178843      -0.00409013 </v>
   <v>       0.00803096      -0.00460089       0.00232888 </v>
   <v>      -0.00428792       0.00085204      -0.00251186 </v>
   <v>       0.00658776       0.00487054       0.00667945 </v>
   <v>       0.00765642       0.00411519       0.00151521 </v>
   <v>      -0.00091875       0.00857823       0.00750206 </v>
   <v>      -0.01428124       0.00029891       0.00059480 </v>
   <v>       0.01642732       0.00744917       0.00215773 </v>
   <v>       0.00199292      -0.01318029       0.00952745 </v>
   <v>      -0.00367705      -0.00011418       0.00054256 </v>
   <v>      -0.00857612      -0.00031449       0.00050011 </v>
   <v>       0.00432067       0.00105671      -0.00391591 </v>
   <v>       0.00218295       0.00703242      -0.00295727 </v>
   <v>      -0.00073581       0.01045308       0.00074595 </v>
   <v>       0.00322702       0.00658547      -0.00625648 </v>
   <v>      -0.00068932      -0.00538921      -0.00503121 </v>
   <v>       0.00028525      -0.00016284       0.00781736 </v>
   <v>      -0.00462885       0.00444679       0.00257941 </v>
   <v>      -0.00838842       0.00310769      -0.00286219 </v>
   <v>       0.00602349      -0.00367996      -0.00455433 </v>
   <v>       0.00565480      -0.01061975      -0.00736239 </v>
   <v>       0.00039196      -0.00033428       0.00565747 </v>
   <v>      -0.00038808      -0.00927041       0.00671238 </v>
   <v>      -0.00947648      -0.00902570      -0.00269861 </v>
   <v>       0.00195947      -0.00502798      -0.00016966 </v>
   <v>      -0.00431876      -0.00381382      -0.02053452 </v>
   <v>       0.01475522      -0.01026115       0.01235873 </v>
   <v>      -0.00650368       0.00120493      -0.00389118 </v>
   <v>       0.00043969       0.00304207       0.00088128 </v>
   <v>      -0.00968528      -0.00065966       0.01219263 </v>
   <v>      -0.00089824      -0.00177725      -0.00616399 </v>
   <v>       0.00155225       0.01004570      -0.00320399 </v>
   <v>      -0.00560340       0.00178540       0.00603148 </v>
   <v>       0.00009566       0.00687825      -0.02863671 </v>
   <v>      -0.00033848      -0.00225133       0.00204051 </v>
   <v>       0.00273284      -0.00361672      -0.00451748 </v>
   <v>       0.00922355      -0.00350540       0.00084025 </v>
   <v>       0.00225746      -0.00162883       0.03112087 </v>
   <v>       0.01115188      -0.00973261       0.01570314 </v>
   <v>      -0.00374766      -0.00544577       0.00541453 </v>
   <v>      -0.00357272      -0.00451123       0.00455482 </v>
   <v>       0.00534768      -0.00641476       0.00138889 </v>
  </varray>
  <varray name="stress" >
   <v>       0.00811910      -0.02414705      -0.01471584 </v>
   <v>      -0.02414668       0.03115466      -0.03538688 </v>
   <v>      -0.01471554      -0.03538672       0.02767776 </v>
  </varray>
  <energy>
   <i name="e_fr_energy">  -1056.91324419 </i>
   <i name="e_wo_entrp">  -1056.91324419 </i>
   <i name="e_0_energy">     -0.00000000 </i>
  </energy>
  <time name="totalsc"> 1016.12 1018.28</time>
 </calculation>
 <calculation>
  <scstep>
   <time name="dav">  289.01  289.02</time>
   <time name="total">  292.76  292.82</time>
   <energy>
    <i name="alphaZ">   5620.10154097 </i>
    <i name="ewald"> -62155.57103592 </i>
    <i name="hartreedc"> -17449.90797570 </i>
    <i name="XCdc">   3185.87893285 </i>
    <i name="pawpsdc"> 114093.77887962 </i>
    <i name="pawaedc">-113298.32173339 </i>
    <i name="eentropy">     -0.00000000 </i>
    <i name="bandstr">  -7103.04771117 </i>
    <i name="atom">  76050.17612637 </i>
    <i name="e_fr_energy">  -1056.91297637 </i>
    <i name="e_wo_entrp">  -1056.91297637 </i>
    <i name="e_0_energy">  -1056.91297637 </i>
   </energy>
  </scstep>
  <scstep>
   <time name="diag">   33.27   33.27</time>
   <time name="diis">   51.75   51.76</time>
   <time name="orth">   18.91   18.91</time>
   <time name="total">  107.69  107.78</time>
   <energy>
    <i name="e_fr_energy">  -1056.91371778 </i>
    <i name="e_wo_entrp">  -1056.91371778 </i>
    <i name="e_0_energy">  -1056.91371778 </i>
   </energy>
  </scstep>
  <scstep>
   <time name="diag">   33.23   33.23</time>
   <time name="diis">   41.23   41.24</time>
   <time name="orth">   18.92   18.92</time>
   <time name="total">   97.16   97.24</time>
   <energy>
    <i name="e_fr_energy">  -1056.91376210 </i>
    <i name="e_wo_entrp">  -1056.91376210 </i>
    <i name="e_0_energy">  -1056.91376210 </i>
   </energy>
  </scstep>
  <scstep>
   <time name="diag">   33.24   33.23</time>
   <time name="diis">   32.50   32.50</time>
   <time name="orth">   18.86   18.86</time>
   <time name="total">   88.37   88.42</time>
   <energy>
    <i name="e_fr_energy">  -1056.91372786 </i>
    <i name="e_wo_entrp">  -1056.91372786 </i>
    <i name="e_0_energy">  -1056.91372786 </i>
   </energy>
  </scstep>
  <scstep>
   <time name="diag">   33.21   33.24</time>
   <time name="diis">   32.08   32.08</time>
   <time name="orth">   18.85   18.85</time>
   <time name="total">   87.91   88.03</time>
   <energy>
    <i name="e_fr_energy">  -1056.91371047 </i>
    <i name="e_wo_entrp">  -1056.91371047 </i>
    <i name="e_0_energy">  -1056.91371047 </i>
   </energy>
  </scstep>
  <scstep>
   <time name="diag">   33.22   33.23</time>
   <time name="diis">   30.86   30.88</time>
   <time name="orth">   18.88   18.88</time>
   <time name="total">   86.73   86.89</time>
   <energy>
    <i name="e_fr_energy">  -1056.91371133 </i>
    <i name="e_wo_entrp">  -1056.91371133 </i>
    <i name="e_0_energy">  -1056.91371133 </i>
   </energy>
  </scstep>
  <scstep>
   <time name="diag">   33.27   33.28</time>
   <time name="diis">   29.27   29.29</time>
   <time name="orth">   18.90   18.91</time>
   <time name="total">   85.23   85.35</time>
   <energy>
    <i name="e_fr_energy">  -1056.91371154 </i>
    <i name="e_wo_entrp">  -1056.91371154 </i>
    <i name="e_0_energy">  -1056.91371154 </i>
   </energy>
  </scstep>
  <scstep>
   <time name="diag">   33.23   33.25</time>
   <time name="diis">   27.56   27.56</time>
   <time name="orth">   18.87   18.87</time>
   <time name="total">   80.24   80.35</time>
   <energy>
    <i name="alphaZ">   5620.10154097 </i>
    <i name="ewald"> -62155.57103592 </i>
    <i name="hartreedc"> -17450.30328429 </i>
    <i name="XCdc">   3185.90454884 </i>
    <i name="pawpsdc"> 114082.41319730 </i>
    <i name="pawaedc">-113286.95252154 </i>
    <i name="eentropy">     -0.00000000 </i>
    <i name="bandstr">  -7102.68228329 </i>
    <i name="atom">  76050.17612637 </i>
    <i name="e_fr_energy">  -1056.91371157 </i>
    <i name="e_wo_entrp">  -1056.91371157 </i>
    <i name="e_0_energy">  -1056.91371157 </i>
   </energy>
  </scstep>
  <structure>
   <crystal>
    <varray name="basis" >
     <v>      11.20325180       0.00088544      -0.00237228 </v>
     <v>       0.00093338      11.20127412      -0.00421349 </v>
     <v>      -0.00310642      -0.00593338      15.96868220 </v>
    </varray>
    <i name="volume">   2003.92064278 </i>
    <varray name="rec_basis" >
     <v>       0.08925980      -0.00000743       0.00001736 </v>
     <v>      -0.00000705       0.08927557       0.00003317 </v>
     <v>       0.00001326       0.00002356       0.06262259 </v>
    </varray>
   </crystal>
   <varray name="positions" >
    <v>       0.99321277       0.23965203       0.13328474 </v>
    <v>       0.00769273       0.24794161       0.62125131 </v>
    <v>       0.99947646       0.75795251       0.13259716 </v>
    <v>       0.00828587       0.75190852       0.61876130 </v>
    <v>       0.50071735       0.24968050       0.13300256 </v>
    <v>       0.50104279       0.24141951       0.61904363 </v>
    <v>       0.50170732       0.75659060       0.13726466 </v>
    <v>       0.48844204       0.75537000       0.61635741 </v>
    <v>       0.00032473       0.24645018       0.37404005 </v>
    <v>       0.99223545       0.24323302       0.86904648 </v>
    <v>       0.00277371       0.75580345       0.37745987 </v>
    <v>       0.99773161       0.75690642       0.86554308 </v>
    <v>       0.49826214       0.25219859       0.37198360 </v>
    <v>       0.51431549       0.23488827       0.86783631 </v>
    <v>       0.49589725       0.75189312       0.37397237 </v>
    <v>       0.49833293       0.75740610       0.87867484 </v>
    <v>       0.24968947       0.98960731       0.13319857 </v>
    <v>       0.24992378       0.99092315       0.61728278 </v>
    <v>       0.26234728       0.50725133       0.13859398 </v>
    <v>       0.24291267       0.51039868       0.61354795 </v>
    <v>       0.74746837       0.00031509       0.13196756 </v>
    <v>       0.75134758       0.99687057       0.62144895 </v>
    <v>       0.74473270       0.50003143       0.13383705 </v>
    <v>       0.75942144       0.49743513       0.61882667 </v>
    <v>       0.24967620       0.99826847       0.37379020 </v>
    <v>       0.25037858       0.98614217       0.86911487 </v>
    <v>       0.25558216       0.50410480       0.37721177 </v>
    <v>       0.23588558       0.50901107       0.87167748 </v>
    <v>       0.74938424       0.00048855       0.37118837 </v>
    <v>       0.75209915       0.99758555       0.87247224 </v>
    <v>       0.74635606       0.50195717       0.37397853 </v>
    <v>       0.75442358       0.50177411       0.86886526 </v>
    <v>       0.50210512       0.99782555       0.00045944 </v>
    <v>       0.49967848       0.00232111       0.49865173 </v>
    <v>       0.75069900       0.24944729       0.00151905 </v>
    <v>       0.50025610       0.50111416       0.50487938 </v>
    <v>       0.99899556       0.49977609       0.50018806 </v>
    <v>       0.99621748       0.99564564       0.00127233 </v>
    <v>       0.99748016       0.00163946       0.74657599 </v>
    <v>       0.75051066       0.74997633       0.25007230 </v>
    <v>       0.24769974       0.25382717       0.24561863 </v>
    <v>       0.75043893       0.75405276       0.00237990 </v>
    <v>       0.24916430       0.74957681       0.25334332 </v>
    <v>       0.50303075       0.99450952       0.74595151 </v>
    <v>       0.24879251       0.74204880       0.99889294 </v>
    <v>       0.74890279       0.25240482       0.24981285 </v>
    <v>       0.99971808       0.00206514       0.50091073 </v>
    <v>       0.00164434       0.49753414       0.74245949 </v>
    <v>       0.50193234       0.50049267       0.25570434 </v>
    <v>       0.99956799       0.00046543       0.25027750 </v>
    <v>       0.74845548       0.74904194       0.76144326 </v>
    <v>       0.23887648       0.75939189       0.74793806 </v>
    <v>       0.25189985       0.21756637       0.00115513 </v>
    <v>       0.24990145       0.25160929       0.48705006 </v>
    <v>       0.75039005       0.25135436       0.49210024 </v>
    <v>       0.24985585       0.75022849       0.49700541 </v>
    <v>       0.49920762       0.00345255       0.25093319 </v>
    <v>       0.75538604       0.24788664       0.75715898 </v>
    <v>       0.98759456       0.51392908       0.98711469 </v>
    <v>       0.74971194       0.75012817       0.49096044 </v>
    <v>       0.24662953       0.25530171       0.77662016 </v>
    <v>       0.99868309       0.49978276       0.25980882 </v>
    <v>       0.51755202       0.51087452       0.01060701 </v>
    <v>       0.51684155       0.48485206       0.73945288 </v>
    <v>       0.12194484       0.13367531       0.75950268 </v>
    <v>       0.60342481       0.62090318       0.77606898 </v>
    <v>       0.12426084       0.62477407       0.75361960 </v>
    <v>       0.61863646       0.13510194       0.25060788 </v>
    <v>       0.73716044       0.24983017       0.12087309 </v>
    <v>       0.62052392       0.63174110       0.25224081 </v>
    <v>       0.62728748       0.12381891       0.74410164 </v>
    <v>       0.37999943       0.37004477       0.25162530 </v>
    <v>       0.39478736       0.40083641       0.79392334 </v>
    <v>       0.38090626       0.86444585       0.75382786 </v>
    <v>       0.88097271       0.37167730       0.23580818 </v>
    <v>       0.88727895       0.36256467       0.73448918 </v>
    <v>       0.87955835       0.86882734       0.25088416 </v>
    <v>       0.87759770       0.86482203       0.73461559 </v>
    <v>       0.36543764       0.12397257       0.24077377 </v>
    <v>       0.37033417       0.13905998       0.75395273 </v>
    <v>       0.37072331       0.62117719       0.25875571 </v>
    <v>       0.11798298       0.62833285       0.24175327 </v>
    <v>       0.86749469       0.12198461       0.24664965 </v>
    <v>       0.87236897       0.61734250       0.23689121 </v>
    <v>       0.86082029       0.61587440       0.74417703 </v>
    <v>       0.12563968       0.38410179       0.23785286 </v>
    <v>       0.14607782       0.37840837       0.73152999 </v>
    <v>       0.13088906       0.87986334       0.24586107 </v>
    <v>       0.12687321       0.88262083       0.75281844 </v>
    <v>       0.63318883       0.38225397       0.25010739 </v>
    <v>       0.87254078       0.37353195       0.51480751 </v>
    <v>       0.63146035       0.88169527       0.25118904 </v>
    <v>       0.62886071       0.86740726       0.73179429 </v>
    <v>       0.86875594       0.12057605       0.74223669 </v>
    <v>       0.37122641       0.37538547       0.51066219 </v>
    <v>       0.36132833       0.88107190       0.99461014 </v>
    <v>       0.37312491       0.87990799       0.49686602 </v>
    <v>       0.88565977       0.38807792       0.02021994 </v>
    <v>       0.12013615       0.13350483       0.24386895 </v>
    <v>       0.85411418       0.89562369       0.00550717 </v>
    <v>       0.63906741       0.36845955       0.72677990 </v>
    <v>       0.14456231       0.09136759       0.99742834 </v>
    <v>       0.13041977       0.12640190       0.50724632 </v>
    <v>       0.13890350       0.57817035       0.01278368 </v>
    <v>       0.12556676       0.62082022       0.49399783 </v>
    <v>       0.37950783       0.87106194       0.25065033 </v>
    <v>       0.62934614       0.12726201       0.51326253 </v>
    <v>       0.62967828       0.62674599       0.51967859 </v>
    <v>       0.40016954       0.14381351       0.99028502 </v>
    <v>       0.12442269       0.37193694       0.50877639 </v>
    <v>       0.10640616       0.84264017       0.99646049 </v>
    <v>       0.12145110       0.87416959       0.50201856 </v>
    <v>       0.62566432       0.37302009       0.52092466 </v>
    <v>       0.99580844       0.48528408       0.86982506 </v>
    <v>       0.62408587       0.87369174       0.50735098 </v>
    <v>       0.25140431       0.73789725       0.87362436 </v>
    <v>       0.37450033       0.13177687       0.50609173 </v>
    <v>       0.38380185       0.60525848       0.98008207 </v>
    <v>       0.37892766       0.62773232       0.48989827 </v>
    <v>       0.89351415       0.14333204       0.99851878 </v>
    <v>       0.87472882       0.12946457       0.51197903 </v>
    <v>       0.89241263       0.64782946       0.00288755 </v>
    <v>       0.00054655       0.99749294       0.12180977 </v>
    <v>       0.01200816       0.00476574       0.62692787 </v>
    <v>       0.24044447       0.75452771       0.37259292 </v>
    <v>       0.00555920       0.51230625       0.62419194 </v>
    <v>       0.50065993       0.00196126       0.12025953 </v>
    <v>       0.48590915       0.00206403       0.62627251 </v>
    <v>       0.49712100       0.49873919       0.12519196 </v>
    <v>       0.46902444       0.52015210       0.63120534 </v>
    <v>       0.87510233       0.62897063       0.50891599 </v>
    <v>       0.98717815       0.99259511       0.87361768 </v>
    <v>       0.98828393       0.49079258       0.37811517 </v>
    <v>       0.50241263       0.01112746       0.37761581 </v>
    <v>       0.50875273       0.99482614       0.87068213 </v>
    <v>       0.51320052       0.49076251       0.38324949 </v>
    <v>       0.60813308       0.85939465       0.99963648 </v>
    <v>       0.60332772       0.36533924       0.98609594 </v>
    <v>       0.24362148       0.25502154       0.36899627 </v>
    <v>       0.76151906       0.76530338       0.87737087 </v>
    <v>       0.25669134       0.74093097       0.62766287 </v>
    <v>       0.75485192       0.25695436       0.37383306 </v>
    <v>       0.76023454       0.26497315       0.87597829 </v>
    <v>       0.75431994       0.74361332       0.37346452 </v>
    <v>       0.64572825       0.11068519       0.99268141 </v>
    <v>       0.24942745       0.27721394       0.11034474 </v>
    <v>       0.64472193       0.61341507       0.98686440 </v>
    <v>       0.26294278       0.74306378       0.12025072 </v>
    <v>       0.21714358       0.28871567       0.89651744 </v>
    <v>       0.99712729       0.00580926       0.37838545 </v>
    <v>       0.74152369       0.74954398       0.12368784 </v>
    <v>       0.87185591       0.87538270       0.51151844 </v>
   </varray>
  </structure>
  <varray name="forces" >
   <v>      -0.00126562       0.00398180       0.00371963 </v>
   <v>      -0.00358769      -0.00236444       0.00308719 </v>
   <v>      -0.00718628      -0.00247901      -0.00132805 </v>
   <v>      -0.00107965       0.00088874      -0.00463290 </v>
   <v>      -0.00124061       0.00240837       0.00218040 </v>
   <v>      -0.00045708       0.00181082      -0.00382900 </v>
   <v>       0.00543173       0.00243119      -0.00317903 </v>
   <v>       0.00083540      -0.00174260      -0.00651194 </v>
   <v>      -0.00101338       0.00169534      -0.00011366 </v>
   <v>       0.00325949       0.00380548       0.00348320 </v>
   <v>       0.00537190      -0.00249116      -0.00712974 </v>
   <v>      -0.00911326      -0.00030470       0.00997661 </v>
   <v>      -0.00194280      -0.00401108       0.00131145 </v>
   <v>       0.00100878       0.00130553      -0.00338896 </v>
   <v>      -0.00488726       0.00355369      -0.00450783 </v>
   <v>       0.01010017       0.00367342       0.00411171 </v>
   <v>      -0.00228165      -0.00394679      -0.00775082 </v>
   <v>      -0.00114516      -0.00105846      -0.00307767 </v>
   <v>      -0.00075629       0.00326270       0.00433961 </v>
   <v>       0.00002404      -0.00135662       0.00109829 </v>
   <v>       0.00063722      -0.00301994      -0.00499280 </v>
   <v>       0.00370448       0.00089007       0.00507025 </v>
   <v>      -0.00068434       0.00240571      -0.00128760 </v>
   <v>      -0.00370771      -0.00526252       0.00457835 </v>
   <v>      -0.00094845      -0.00203141       0.00349673 </v>
   <v>      -0.00014322      -0.00023048       0.00246271 </v>
   <v>      -0.00604774      -0.00634860       0.00052946 </v>
   <v>       0.00108469      -0.00535179      -0.00129487 </v>
   <v>      -0.00259086       0.00799282      -0.00039560 </v>
   <v>      -0.00527555      -0.00095831       0.00390487 </v>
   <v>       0.00430895      -0.00231694      -0.00110143 </v>
   <v>       0.00569752      -0.00523020       0.00375009 </v>
   <v>       0.01118261      -0.00490816       0.01212336 </v>
   <v>      -0.00622711       0.00418020      -0.00945036 </v>
   <v>      -0.00415612       0.00072192       0.01023957 </v>
   <v>      -0.01947436      -0.01019919      -0.01660835 </v>
   <v>       0.00784350      -0.01283155      -0.00774967 </v>
   <v>      -0.01480717      -0.01356651       0.01069520 </v>
   <v>      -0.01291860       0.01244875       0.00080856 </v>
   <v>       0.00522061       0.00781073      -0.08980685 </v>
   <v>      -0.01372973      -0.00533938      -0.00564417 </v>
   <v>       0.00274491      -0.00129267       0.03045612 </v>
   <v>      -0.01218980       0.02002806      -0.01356846 </v>
   <v>       0.00890701       0.00307202       0.00058286 </v>
   <v>      -0.00311898       0.00083296       0.02775531 </v>
   <v>       0.01226343      -0.00545520      -0.00437631 </v>
   <v>       0.00294543       0.00480317      -0.00028255 </v>
   <v>       0.00130858      -0.01033555       0.00258495 </v>
   <v>       0.00424185       0.00418855       0.00572385 </v>
   <v>       0.00172694      -0.00304681      -0.00734940 </v>
   <v>      -0.00071335      -0.00081579       0.01528011 </v>
   <v>      -0.00430490       0.00718231      -0.00118999 </v>
   <v>       0.00218604       0.00259969       0.01396520 </v>
   <v>      -0.00327768       0.00126384      -0.00042842 </v>
   <v>       0.00324818       0.00102468      -0.00497604 </v>
   <v>       0.00011685      -0.00349378      -0.00280048 </v>
   <v>       0.00060678      -0.00671781      -0.00253102 </v>
   <v>       0.00318757      -0.00011939       0.00090550 </v>
   <v>      -0.00675783       0.00431821       0.00356802 </v>
   <v>       0.00601934      -0.00145359      -0.00633121 </v>
   <v>      -0.01132426       0.00153427       0.00161527 </v>
   <v>      -0.00105253       0.00063857       0.00111821 </v>
   <v>       0.01152747       0.00165820      -0.00039530 </v>
   <v>       0.00748798       0.00752249      -0.00133555 </v>
   <v>       0.00428103       0.00010403      -0.00055028 </v>
   <v>       0.01765990       0.00781802      -0.01188460 </v>
   <v>       0.00082252       0.00885826       0.00366852 </v>
   <v>      -0.00156803      -0.00500155       0.01016881 </v>
   <v>       0.00031532       0.00512635      -0.00491024 </v>
   <v>      -0.00379592      -0.00952601       0.00579006 </v>
   <v>      -0.00252107       0.00100638       0.00015112 </v>
   <v>      -0.00824531       0.01357597       0.00232954 </v>
   <v>       0.00389944       0.00993696      -0.00390794 </v>
   <v>      -0.00018234      -0.00431504      -0.00480525 </v>
   <v>      -0.00463961       0.00219180       0.00336113 </v>
   <v>       0.00005031       0.00045472      -0.00263464 </v>
   <v>      -0.00209013       0.00133659      -0.00255970 </v>
   <v>      -0.00584188       0.00017925       0.00220232 </v>
   <v>       0.00429664       0.00341948       0.00196247 </v>
   <v>       0.00306304      -0.00730552      -0.00305767 </v>
   <v>       0.00650118      -0.00403509       0.01013610 </v>
   <v>       0.00127722      -0.00446733       0.00636679 </v>
   <v>       0.00056359       0.00265246       0.00157860 </v>
   <v>       0.00139425      -0.00128628       0.00903608 </v>
   <v>       0.00714067      -0.00297039       0.00226398 </v>
   <v>      -0.00317408      -0.00346465      -0.01517780 </v>
   <v>      -0.00235279      -0.00264524       0.00495543 </v>
   <v>      -0.00309552      -0.00002162       0.00122793 </v>
[...]
       <r>   -17.1269     0.0000    32.0000 </r>
       <r>   -16.9730     0.0000    32.0000 </r>
       <r>   -16.8191     0.0000    32.0000 </r>
       <r>   -16.6653     0.0000    32.0000 </r>
       <r>   -16.5114     0.0000    32.0000 </r>
       <r>   -16.3576     0.0000    32.0000 </r>
       <r>   -16.2037     0.0000    32.0000 </r>
       <r>   -16.0498     0.0000    32.0000 </r>
       <r>   -15.8960     0.0000    32.0000 </r>
       <r>   -15.7421     0.0000    32.0000 </r>
       <r>   -15.5882     0.0000    32.0000 </r>
       <r>   -15.4344     0.0000    32.0000 </r>
       <r>   -15.2805     0.0000    32.0000 </r>
       <r>   -15.1266     2.5599    32.3939 </r>
       <r>   -14.9728    25.0780    36.2525 </r>
       <r>   -14.8189    45.3077    43.2238 </r>
       <r>   -14.6650    46.0354    50.3071 </r>
       <r>   -14.5112    35.0510    55.7002 </r>
       <r>   -14.3573    34.1159    60.9495 </r>
       <r>   -14.2034    52.2419    68.9877 </r>
       <r>   -14.0496    87.4365    82.4412 </r>
       <r>   -13.8957    93.3591    96.8060 </r>
       <r>   -13.7418    73.4604   108.1090 </r>
       <r>   -13.5880    60.7250   117.4525 </r>
       <r>   -13.4341    16.5073   119.9924 </r>
       <r>   -13.2802     0.0492   120.0000 </r>
       <r>   -13.1264     0.0000   120.0000 </r>
       <r>   -12.9725     0.0129   120.0020 </r>
       <r>   -12.8186     6.5744   121.0136 </r>
       <r>   -12.6648    49.9036   128.6920 </r>
       <r>   -12.5109   115.1671   146.4123 </r>
       <r>   -12.3570   125.4488   165.7145 </r>
       <r>   -12.2032   103.1197   181.5811 </r>
       <r>   -12.0493    96.9278   196.4950 </r>
       <r>   -11.8954    80.3207   208.8536 </r>
       <r>   -11.7416    37.8855   214.6829 </r>
       <r>   -11.5877     8.5361   215.9963 </r>
       <r>   -11.4339     0.0243   216.0000 </r>
       <r>   -11.2800     0.0000   216.0000 </r>
       <r>   -11.1261     0.0000   216.0000 </r>
       <r>   -10.9723     0.0000   216.0000 </r>
       <r>   -10.8184     0.0000   216.0000 </r>
       <r>   -10.6645     0.0000   216.0000 </r>
       <r>   -10.5107     0.0000   216.0000 </r>
       <r>   -10.3568     0.0000   216.0000 </r>
       <r>   -10.2029     0.0000   216.0000 </r>
       <r>   -10.0491     0.0000   216.0000 </r>
       <r>    -9.8952     0.0000   216.0000 </r>
       <r>    -9.7413     0.0000   216.0000 </r>
       <r>    -9.5875     0.0000   216.0000 </r>
       <r>    -9.4336     0.0000   216.0000 </r>
       <r>    -9.2797     0.0000   216.0000 </r>
       <r>    -9.1259     0.0000   216.0000 </r>
       <r>    -8.9720     0.0000   216.0000 </r>
       <r>    -8.8181     0.0000   216.0000 </r>
       <r>    -8.6643     0.0000   216.0000 </r>
       <r>    -8.5104     0.0000   216.0000 </r>
       <r>    -8.3565     0.0000   216.0000 </r>
       <r>    -8.2027     0.0000   216.0000 </r>
       <r>    -8.0488     0.0000   216.0000 </r>
       <r>    -7.8949     0.0000   216.0000 </r>
       <r>    -7.7411     0.0000   216.0000 </r>
       <r>    -7.5872     0.0000   216.0000 </r>
       <r>    -7.4333     0.0000   216.0000 </r>
       <r>    -7.2795     0.0000   216.0000 </r>
       <r>    -7.1256     0.0000   216.0000 </r>
       <r>    -6.9717     0.0000   216.0000 </r>
       <r>    -6.8179     0.0000   216.0000 </r>
       <r>    -6.6640     0.0000   216.0000 </r>
       <r>    -6.5101     0.0000   216.0000 </r>
       <r>    -6.3563     0.0000   216.0000 </r>
       <r>    -6.2024     0.0000   216.0000 </r>
       <r>    -6.0486     0.0000   216.0000 </r>
       <r>    -5.8947     0.0000   216.0000 </r>
       <r>    -5.7408     0.0000   216.0000 </r>
       <r>    -5.5870     0.0000   216.0000 </r>
       <r>    -5.4331     0.0000   216.0000 </r>
       <r>    -5.2792     0.0000   216.0000 </r>
       <r>    -5.1254     0.0000   216.0000 </r>
       <r>    -4.9715     0.0000   216.0000 </r>
       <r>    -4.8176     0.0000   216.0000 </r>
       <r>    -4.6638     0.0000   216.0000 </r>
       <r>    -4.5099     0.0000   216.0000 </r>
       <r>    -4.3560     0.0000   216.0000 </r>
       <r>    -4.2022     0.0000   216.0000 </r>
       <r>    -4.0483     0.0000   216.0000 </r>
       <r>    -3.8944     0.0000   216.0000 </r>
       <r>    -3.7406     0.0000   216.0000 </r>
       <r>    -3.5867     0.0000   216.0000 </r>
       <r>    -3.4328     0.0000   216.0000 </r>
       <r>    -3.2790     0.0000   216.0000 </r>
       <r>    -3.1251     0.0000   216.0000 </r>
       <r>    -2.9712     0.0000   216.0000 </r>
       <r>    -2.8174     0.0000   216.0000 </r>
       <r>    -2.6635     0.0000   216.0000 </r>
       <r>    -2.5096     0.0274   216.0042 </r>
       <r>    -2.3558     7.3744   217.1389 </r>
       <r>    -2.2019    15.5217   219.5272 </r>
       <r>    -2.0480    30.3299   224.1939 </r>
       <r>    -1.8942    29.1473   228.6787 </r>
       <r>    -1.7403    30.9495   233.4407 </r>
       <r>    -1.5864    29.0171   237.9055 </r>
       <r>    -1.4326    45.6459   244.9288 </r>
       <r>    -1.2787    46.8613   252.1391 </r>
       <r>    -1.1248    75.3577   263.7341 </r>
       <r>    -0.9710    79.0438   275.8962 </r>
       <r>    -0.8171    74.8978   287.4204 </r>
       <r>    -0.6633    85.4522   300.5686 </r>
       <r>    -0.5094    93.2479   314.9162 </r>
       <r>    -0.3555    91.6173   329.0130 </r>
       <r>    -0.2017    73.7907   340.3669 </r>
       <r>    -0.0478    54.7749   348.7948 </r>
       <r>     0.1061    50.6831   356.5932 </r>
       <r>     0.2599    46.7682   363.7893 </r>
       <r>     0.4138    56.1571   372.4299 </r>
       <r>     0.5677    62.4767   382.0429 </r>
       <r>     0.7215    58.6118   391.0613 </r>
       <r>     0.8754    52.1747   399.0892 </r>
       <r>     1.0293    54.3186   407.4469 </r>
       <r>     1.1831    60.9370   416.8231 </r>
       <r>     1.3370    69.9204   427.5814 </r>
       <r>     1.4909    74.8087   439.0919 </r>
       <r>     1.6447    73.2679   450.3653 </r>
       <r>     1.7986    73.0367   461.6032 </r>
       <r>     1.9525    49.0234   469.1462 </r>
       <r>     2.1063    40.4781   475.3744 </r>
       <r>     2.2602    17.0001   477.9901 </r>
       <r>     2.4141     5.4769   478.8328 </r>
       <r>     2.5679     7.5811   479.9993 </r>
       <r>     2.7218     0.0046   480.0000 </r>
       <r>     2.8757     0.0000   480.0000 </r>
       <r>     3.0295     0.0000   480.0000 </r>
       <r>     3.1834     0.0000   480.0000 </r>
       <r>     3.3373     0.0000   480.0000 </r>
       <r>     3.4911     0.0000   480.0000 </r>
       <r>     3.6450     0.0000   480.0000 </r>
       <r>     3.7989     0.0000   480.0000 </r>
       <r>     3.9527     0.0000   480.0000 </r>
       <r>     4.1066     0.0000   480.0000 </r>
       <r>     4.2605     0.2854   480.0439 </r>
       <r>     4.4143    14.0998   482.2134 </r>
       <r>     4.5682    36.7797   487.8725 </r>
       <r>     4.7220    47.9892   495.2564 </r>
       <r>     4.8759    61.3703   504.6992 </r>
       <r>     5.0298    51.2747   512.5886 </r>
       <r>     5.1836    61.5030   522.0518 </r>
       <r>     5.3375    76.5823   533.8352 </r>
       <r>     5.4914    76.0265   545.5331 </r>
       <r>     5.6452    72.3889   556.6712 </r>
       <r>     5.7991    64.4820   566.5928 </r>
       <r>     5.9530    61.2786   576.0215 </r>
       <r>     6.1068    78.4998   588.0999 </r>
       <r>     6.2607    83.2500   600.9092 </r>
       <r>     6.4146    49.6167   608.5435 </r>
       <r>     6.5684    10.7645   610.1998 </r>
       <r>     6.7223     7.4059   611.3393 </r>
       <r>     6.8762     5.9223   612.2505 </r>
       <r>     7.0300    13.6516   614.3511 </r>
       <r>     7.1839    18.7301   617.2330 </r>
       <r>     7.3378    18.4404   620.0703 </r>
       <r>     7.4916    17.2228   622.7203 </r>
       <r>     7.6455    13.1063   624.7369 </r>
       <r>     7.7994    16.4026   627.2607 </r>
       <r>     7.9532    23.6817   630.9045 </r>
       <r>     8.1071    26.1459   634.9275 </r>
       <r>     8.2610    28.6537   639.3363 </r>
       <r>     8.4148    25.9392   643.3275 </r>
       <r>     8.5687    22.9014   646.8512 </r>
       <r>     8.7226    32.0093   651.7763 </r>
       <r>     8.8764    36.1493   657.3385 </r>
       <r>     9.0303    33.7123   662.5256 </r>
       <r>     9.1842    33.3437   667.6561 </r>
       <r>     9.3380    39.5467   673.7409 </r>
       <r>     9.4919    39.5653   679.8287 </r>
       <r>     9.6458    49.8319   687.4961 </r>
       <r>     9.7996    55.4674   696.0306 </r>
       <r>     9.9535    58.5973   705.0468 </r>
       <r>    10.1073    59.8601   714.2572 </r>
       <r>    10.2612    55.5422   722.8032 </r>
       <r>    10.4151    55.1084   731.2825 </r>
       <r>    10.5689    57.9802   740.2037 </r>
       <r>    10.7228    52.3609   748.2602 </r>
       <r>    10.8767    49.2569   755.8392 </r>
       <r>    11.0305    57.3600   764.6649 </r>
       <r>    11.1844    21.6621   767.9980 </r>
       <r>    11.3383     0.0132   768.0000 </r>
       <r>    11.4921     0.0000   768.0000 </r>
       <r>    11.6460     0.0000   768.0000 </r>
       <r>    11.7999     0.0000   768.0000 </r>
       <r>    11.9537     0.0000   768.0000 </r>
       <r>    12.1076     0.0000   768.0000 </r>
       <r>    12.2615     0.0000   768.0000 </r>
       <r>    12.4153     0.0000   768.0000 </r>
       <r>    12.5692     0.0000   768.0000 </r>
       <r>    12.7231     0.0000   768.0000 </r>
       <r>    12.8769     0.0000   768.0000 </r>
       <r>    13.0308     0.0000   768.0000 </r>
       <r>    13.1847     0.0000   768.0000 </r>
      </set>
     </set>
    </array>
   </total>
  </dos>
 </calculation>
 <structure name="finalpos" >
  <crystal>
   <varray name="basis" >
    <v>      11.20317914       0.00076376      -0.00242637 </v>
    <v>       0.00081170      11.20123861      -0.00438781 </v>
    <v>      -0.00318342      -0.00618187      15.96860068 </v>
   </varray>
   <i name="volume">   2003.89103946 </i>
   <varray name="rec_basis" >
    <v>       0.08926038      -0.00000646       0.00001779 </v>
    <v>      -0.00000608       0.08927586       0.00003456 </v>
    <v>       0.00001356       0.00002453       0.06262291 </v>
   </varray>
  </crystal>
  <varray name="positions" >
   <v>       0.99319549       0.23967242       0.13328706 </v>
   <v>       0.00767077       0.24794122       0.62126111 </v>
   <v>       0.99945390       0.75793569       0.13259310 </v>
   <v>       0.00827352       0.75190163       0.61874675 </v>
   <v>       0.50071455       0.24969123       0.13301525 </v>
   <v>       0.50104517       0.24142151       0.61903213 </v>
   <v>       0.50170972       0.75659848       0.13724969 </v>
   <v>       0.48845045       0.75536379       0.61633665 </v>
   <v>       0.00032063       0.24645518       0.37404746 </v>
   <v>       0.99225343       0.24325525       0.86906074 </v>
   <v>       0.00278410       0.75579049       0.37744703 </v>
   <v>       0.99769631       0.75689995       0.86555995 </v>
   <v>       0.49825128       0.25217436       0.37198746 </v>
   <v>       0.51431344       0.23488369       0.86781873 </v>
   <v>       0.49588607       0.75191168       0.37396322 </v>
   <v>       0.49836037       0.75742852       0.87868116 </v>
   <v>       0.24969290       0.98960950       0.13315881 </v>
   <v>       0.24992739       0.99090873       0.61728095 </v>
   <v>       0.26235416       0.50726391       0.13860943 </v>
   <v>       0.24289256       0.51040249       0.61355932 </v>
   <v>       0.74746439       0.00032732       0.13195032 </v>
   <v>       0.75135466       0.99686922       0.62146503 </v>
   <v>       0.74472002       0.50001652       0.13383241 </v>
   <v>       0.75939972       0.49741603       0.61884458 </v>
   <v>       0.24967493       0.99826670       0.37381259 </v>
   <v>       0.25038447       0.98613861       0.86911230 </v>
   <v>       0.25554845       0.50407606       0.37721166 </v>
   <v>       0.23588996       0.50899497       0.87167372 </v>
   <v>       0.74936676       0.00051750       0.37119685 </v>
   <v>       0.75206272       0.99758916       0.87247460 </v>
   <v>       0.74636771       0.50196232       0.37398398 </v>
   <v>       0.75446255       0.50174329       0.86886866 </v>
   <v>       0.50212438       0.99783585       0.00047647 </v>
   <v>       0.49965797       0.00234880       0.49863987 </v>
   <v>       0.75069991       0.24946689       0.00153049 </v>
   <v>       0.50022391       0.50108375       0.50485439 </v>
   <v>       0.99901917       0.49973970       0.50019831 </v>
   <v>       0.99619028       0.99564871       0.00128078 </v>
   <v>       0.99748309       0.00162885       0.74658347 </v>
   <v>       0.75051745       0.74999769       0.24997012 </v>
   <v>       0.24769477       0.25381660       0.24561317 </v>
   <v>       0.75043315       0.75405514       0.00241732 </v>
   <v>       0.24915764       0.74962135       0.25334199 </v>
   <v>       0.50305656       0.99452051       0.74595314 </v>
   <v>       0.24883155       0.74200806       0.99891659 </v>
   <v>       0.74891743       0.25239179       0.24980132 </v>
   <v>       0.99972127       0.00207323       0.50089281 </v>
   <v>       0.00165131       0.49754080       0.74245327 </v>
   <v>       0.50194894       0.50048803       0.25572936 </v>
   <v>       0.99957153       0.00045551       0.25026060 </v>
   <v>       0.74845227       0.74903653       0.76146225 </v>
   <v>       0.23888383       0.75943314       0.74795658 </v>
   <v>       0.25191488       0.21757451       0.00114818 </v>
   <v>       0.24988398       0.25159742       0.48703994 </v>
   <v>       0.75038984       0.25135828       0.49208357 </v>
   <v>       0.24984456       0.75021710       0.49700879 </v>
   <v>       0.49921743       0.00344360       0.25092980 </v>
   <v>       0.75541656       0.24787266       0.75716247 </v>
   <v>       0.98759810       0.51391567       0.98709630 </v>
   <v>       0.74974372       0.75011754       0.49094547 </v>
   <v>       0.24660592       0.25526876       0.77662027 </v>
   <v>       0.99868805       0.49979433       0.25981121 </v>
   <v>       0.51754731       0.51088235       0.01062105 </v>
   <v>       0.51689360       0.48488094       0.73943478 </v>
   <v>       0.12196094       0.13367306       0.75949449 </v>
   <v>       0.60351750       0.62094385       0.77603154 </v>
   <v>       0.12425578       0.62480939       0.75363405 </v>
   <v>       0.61863533       0.13507855       0.25064072 </v>
   <v>       0.73717013       0.24985960       0.12088781 </v>
   <v>       0.62053916       0.63172832       0.25225269 </v>
   <v>       0.62728861       0.12384249       0.74410282 </v>
   <v>       0.37993797       0.37010953       0.25163365 </v>
   <v>       0.39480531       0.40088970       0.79390244 </v>
   <v>       0.38091636       0.86442972       0.75380569 </v>
   <v>       0.88093991       0.37168496       0.23581680 </v>
   <v>       0.88726514       0.36254244       0.73447648 </v>
   <v>       0.87955730       0.86884082       0.25086106 </v>
   <v>       0.87757078       0.86483690       0.73462717 </v>
   <v>       0.36545507       0.12398393       0.24077828 </v>
   <v>       0.37033244       0.13903751       0.75393870 </v>
   <v>       0.37072013       0.62119079       0.25878837 </v>
   <v>       0.11798378       0.62831130       0.24176606 </v>
   <v>       0.86752218       0.12198758       0.24664434 </v>
   <v>       0.87237523       0.61734142       0.23691429 </v>
   <v>       0.86084764       0.61585882       0.74418927 </v>
   <v>       0.12562096       0.38408536       0.23779347 </v>
   <v>       0.14605884       0.37839999       0.73153948 </v>
   <v>       0.13085897       0.87987500       0.24585845 </v>
   <v>       0.12685346       0.88260362       0.75281416 </v>
   <v>       0.63320203       0.38223602       0.25011160 </v>
   <v>       0.87254910       0.37349773       0.51484212 </v>
   <v>       0.63143538       0.88168241       0.25116488 </v>
   <v>       0.62886443       0.86741690       0.73179503 </v>
   <v>       0.86875151       0.12055008       0.74222651 </v>
   <v>       0.37121917       0.37535515       0.51067554 </v>
   <v>       0.36132374       0.88110360       0.99462045 </v>
   <v>       0.37314311       0.87989795       0.49688712 </v>
   <v>       0.88560858       0.38806481       0.02020445 </v>
   <v>       0.12014180       0.13350858       0.24389412 </v>
   <v>       0.85412513       0.89563578       0.00551464 </v>
   <v>       0.63906395       0.36848807       0.72679595 </v>
   <v>       0.14454010       0.09142393       0.99741034 </v>
   <v>       0.13039478       0.12640943       0.50723224 </v>
   <v>       0.13890387       0.57820741       0.01275653 </v>
   <v>       0.12556032       0.62083252       0.49401846 </v>
   <v>       0.37949220       0.87106412       0.25065597 </v>
   <v>       0.62934169       0.12728889       0.51323125 </v>
   <v>       0.62968932       0.62672189       0.51964798 </v>
   <v>       0.40015605       0.14378543       0.99026399 </v>
   <v>       0.12444165       0.37193217       0.50880115 </v>
   <v>       0.10644634       0.84262143       0.99644098 </v>
   <v>       0.12147065       0.87416447       0.50203230 </v>
   <v>       0.62564843       0.37302683       0.52091940 </v>
   <v>       0.99584979       0.48529194       0.86981304 </v>
   <v>       0.62413342       0.87369981       0.50735692 </v>
   <v>       0.25141571       0.73793113       0.87362834 </v>
   <v>       0.37446073       0.13175011       0.50609797 </v>
   <v>       0.38383832       0.60532836       0.98007829 </v>
   <v>       0.37893938       0.62768148       0.48992753 </v>
   <v>       0.89350017       0.14334059       0.99851559 </v>
   <v>       0.87469199       0.12944704       0.51197981 </v>
   <v>       0.89246501       0.64779252       0.00286099 </v>
   <v>       0.00056301       0.99753743       0.12178348 </v>
   <v>       0.01200491       0.00480890       0.62693069 </v>
   <v>       0.24045359       0.75456001       0.37262170 </v>
   <v>       0.00555734       0.51229805       0.62419264 </v>
   <v>       0.50065505       0.00197109       0.12026512 </v>
   <v>       0.48589458       0.00208852       0.62628225 </v>
   <v>       0.49707475       0.49874769       0.12520501 </v>
   <v>       0.46905862       0.52013932       0.63118705 </v>
   <v>       0.87509857       0.62894377       0.50889198 </v>
   <v>       0.98718293       0.99260165       0.87362351 </v>
   <v>       0.98828708       0.49074788       0.37815122 </v>
   <v>       0.50237347       0.01108820       0.37763230 </v>
   <v>       0.50875630       0.99480305       0.87067139 </v>
   <v>       0.51318050       0.49074811       0.38322004 </v>
   <v>       0.60813305       0.85940084       0.99966724 </v>
   <v>       0.60329072       0.36534228       0.98608592 </v>
   <v>       0.24362703       0.25503882       0.36899509 </v>
   <v>       0.76147320       0.76530084       0.87735194 </v>
   <v>       0.25668421       0.74092674       0.62767211 </v>
   <v>       0.75485708       0.25700278       0.37383705 </v>
   <v>       0.76021292       0.26497978       0.87598718 </v>
   <v>       0.75433096       0.74364950       0.37347448 </v>
   <v>       0.64572338       0.11069048       0.99268584 </v>
   <v>       0.24945076       0.27718852       0.11031660 </v>
   <v>       0.64472354       0.61335303       0.98686315 </v>
   <v>       0.26295471       0.74304649       0.12028691 </v>
   <v>       0.21719316       0.28869690       0.89652600 </v>
   <v>       0.99710859       0.00578340       0.37841397 </v>
   <v>       0.74150713       0.74952112       0.12370464 </v>
   <v>       0.87186917       0.87533013       0.51152294 </v>
  </varray>
 </structure>
</modeling>
