<?xml version="1.0" encoding="ISO-8859-1"?>
<modeling>
 <generator>
  <i name="program" type="string">vasp </i>
  <i name="version" type="string">5.4.1  </i>
  <i name="subversion" type="string">05Feb16 (build Jan 25 2017 20:16:33) complex                          parallel </i>
  <i name="platform" type="string">BWXE6 </i>
  <i name="date" type="string">2019 06 22 </i>
  <i name="time" type="string">04:16:00 </i>
 </generator>
 <incar>
  <i type="string" name="SYSTEM"> STF</i>
  <i type="string" name="PREC">normal</i>
  <i type="string" name="ALGO"> Fast</i>
  <i type="int" name="ISPIN">     2</i>
  <i type="int" name="NELM">    40</i>
  <i type="int" name="NELMIN">     8</i>
  <i type="int" name="IBRION">     2</i>
  <i name="EDIFF">      0.00010000</i>
  <i name="EDIFFG">     -0.03000000</i>
  <i type="int" name="NSW">    30</i>
  <i type="int" name="ISIF">     3</i>
  <i name="ENCUT">    520.00000000</i>
  <i type="int" name="NBANDS">   768</i>
  <v name="MAGMOM">      0.60000000      0.60000000      0.60000000      0.60000000      0.60000000      0.60000000      0.60000000      0.60000000      0.60000000      0.60000000      0.60000000      0.60000000      0.60000000      0.60000000      0.60000000      0.60000000      0.60000000      0.60000000      0.60000000      0.60000000
      0.60000000      0.60000000      0.60000000      0.60000000      0.60000000      0.60000000      0.60000000      0.60000000      0.60000000      0.60000000      0.60000000      0.60000000      0.60000000      0.60000000      0.60000000      0.60000000      0.60000000      0.60000000      0.60000000      0.60000000
      0.60000000      0.60000000      0.60000000      0.60000000      0.60000000      0.60000000      0.60000000      0.60000000      0.60000000      0.60000000      0.60000000      0.60000000      0.60000000      0.60000000      0.60000000      0.60000000      5.00000000      5.00000000      5.00000000      5.00000000
      5.00000000      5.00000000      5.00000000      5.00000000      0.60000000      0.60000000      0.60000000      0.60000000      0.60000000      0.60000000      0.60000000      0.60000000      0.60000000      0.60000000      0.60000000      0.60000000      0.60000000      0.60000000      0.60000000      0.60000000
      0.60000000      0.60000000      0.60000000      0.60000000      0.60000000      0.60000000      0.60000000      0.60000000      0.60000000      0.60000000      0.60000000      0.60000000      0.60000000      0.60000000      0.60000000      0.60000000      0.60000000      0.60000000      0.60000000      0.60000000
      0.60000000      0.60000000      0.60000000      0.60000000      0.60000000      0.60000000      0.60000000      0.60000000      0.60000000      0.60000000      0.60000000      0.60000000      0.60000000      0.60000000      0.60000000      0.60000000      0.60000000      0.60000000      0.60000000      0.60000000
      0.60000000      0.60000000      0.60000000      0.60000000      0.60000000      0.60000000      0.60000000      0.60000000      0.60000000      0.60000000      0.60000000      0.60000000      0.60000000      0.60000000      0.60000000      0.60000000      0.60000000      0.60000000      0.60000000      0.60000000
      0.60000000      0.60000000      0.60000000      0.60000000      0.60000000      0.60000000      0.60000000      0.60000000      0.60000000      0.60000000      0.60000000      0.60000000      0.60000000      0.60000000      0.60000000      0.60000000</v>
  <i type="string" name="LREAL"> Auto</i>
  <i type="int" name="ISMEAR">     0</i>
  <i name="SIGMA">      0.05000000</i>
  <i type="int" name="LMAXMIX">     4</i>
  <v type="int" name="KPOINT_BSE">    -1     0     0     0</v>
  <i type="int" name="NELM">    40</i>
  <i type="logical" name="LDAU"> T  </i>
  <v type="int" name="LDAUTYPE">     2</v>
  <v type="int" name="LDAUL">     0     2     2     0</v>
  <v name="LDAUU">      0.00000000      3.00000000      5.00000000      0.00000000</v>
  <v name="LDAUJ">      0.00000000      0.00000000      0.00000000      0.00000000</v>
  <i type="int" name="LDAUPRINT">     1</i>
 </incar>
 <kpoints>
  <generation param="Monkhorst-Pack">
   <v type="int" name="divisions">       2        2        2 </v>
   <v name="usershift">      0.00000000       0.00000000       0.00000000 </v>
   <v name="genvec1">      0.50000000       0.00000000       0.00000000 </v>
   <v name="genvec2">     -0.00000000       0.50000000      -0.00000000 </v>
   <v name="genvec3">      0.00000000      -0.00000000       0.50000000 </v>
   <v name="shift">      0.50000000       0.50000000       0.50000000 </v>
  </generation>
  <varray name="kpointlist" >
   <v>       0.25000000       0.25000000       0.25000000 </v>
   <v>      -0.25000000       0.25000000       0.25000000 </v>
   <v>       0.25000000      -0.25000000       0.25000000 </v>
   <v>      -0.25000000      -0.25000000       0.25000000 </v>
  </varray>
  <varray name="weights" >
   <v>       0.25000000 </v>
   <v>       0.25000000 </v>
   <v>       0.25000000 </v>
   <v>       0.25000000 </v>
  </varray>
 </kpoints>
 <parameters>
  <separator name="general" >
   <i type="string" name="SYSTEM">STF</i>
   <i type="logical" name="LCOMPAT"> F  </i>
  </separator>
  <separator name="electronic" >
   <i type="string" name="PREC">normal</i>
   <i name="ENMAX">    520.00000000</i>
   <i name="ENAUG">    605.39200000</i>
   <i name="EDIFF">      0.00010000</i>
   <i type="int" name="IALGO">    68</i>
   <i type="int" name="IWAVPR">    11</i>
   <i type="int" name="NBANDS">   768</i>
   <i name="NELECT">   1032.00000000</i>
   <i type="int" name="TURBO">     0</i>
   <i type="int" name="IRESTART">     0</i>
   <i type="int" name="NREBOOT">     0</i>
   <i type="int" name="NMIN">     0</i>
   <i name="EREF">      0.00000000</i>
   <separator name="electronic smearing" >
    <i type="int" name="ISMEAR">     0</i>
    <i name="SIGMA">      0.05000000</i>
    <i name="KSPACING">      0.50000000</i>
    <i type="logical" name="KGAMMA"> T  </i>
   </separator>
   <separator name="electronic projectors" >
    <i type="logical" name="LREAL"> T  </i>
    <v name="ROPT">     -0.00050000     -0.00050000     -0.00050000     -0.00050000</v>
    <i type="int" name="LMAXPAW">  -100</i>
    <i type="int" name="LMAXMIX">     4</i>
    <i type="logical" name="NLSPLINE"> F  </i>
   </separator>
   <separator name="electronic startup" >
    <i type="int" name="ISTART">     1</i>
    <i type="int" name="ICHARG">     0</i>
    <i type="int" name="INIWAV">     1</i>
   </separator>
   <separator name="electronic spin" >
    <i type="int" name="ISPIN">     2</i>
    <i type="logical" name="LNONCOLLINEAR"> F  </i>
    <v name="MAGMOM">      0.60000000      0.60000000      0.60000000      0.60000000      0.60000000      0.60000000      0.60000000      0.60000000      0.60000000      0.60000000      0.60000000      0.60000000      0.60000000      0.60000000      0.60000000      0.60000000      0.60000000      0.60000000      0.60000000      0.60000000
      0.60000000      0.60000000      0.60000000      0.60000000      0.60000000      0.60000000      0.60000000      0.60000000      0.60000000      0.60000000      0.60000000      0.60000000      0.60000000      0.60000000      0.60000000      0.60000000      0.60000000      0.60000000      0.60000000      0.60000000
      0.60000000      0.60000000      0.60000000      0.60000000      0.60000000      0.60000000      0.60000000      0.60000000      0.60000000      0.60000000      0.60000000      0.60000000      0.60000000      0.60000000      0.60000000      0.60000000      5.00000000      5.00000000      5.00000000      5.00000000
      5.00000000      5.00000000      5.00000000      5.00000000      0.60000000      0.60000000      0.60000000      0.60000000      0.60000000      0.60000000      0.60000000      0.60000000      0.60000000      0.60000000      0.60000000      0.60000000      0.60000000      0.60000000      0.60000000      0.60000000
      0.60000000      0.60000000      0.60000000      0.60000000      0.60000000      0.60000000      0.60000000      0.60000000      0.60000000      0.60000000      0.60000000      0.60000000      0.60000000      0.60000000      0.60000000      0.60000000      0.60000000      0.60000000      0.60000000      0.60000000
      0.60000000      0.60000000      0.60000000      0.60000000      0.60000000      0.60000000      0.60000000      0.60000000      0.60000000      0.60000000      0.60000000      0.60000000      0.60000000      0.60000000      0.60000000      0.60000000      0.60000000      0.60000000      0.60000000      0.60000000
      0.60000000      0.60000000      0.60000000      0.60000000      0.60000000      0.60000000      0.60000000      0.60000000      0.60000000      0.60000000      0.60000000      0.60000000      0.60000000      0.60000000      0.60000000      0.60000000      0.60000000      0.60000000      0.60000000      0.60000000
      0.60000000      0.60000000      0.60000000      0.60000000      0.60000000      0.60000000      0.60000000      0.60000000      0.60000000      0.60000000      0.60000000      0.60000000      0.60000000      0.60000000      0.60000000      0.60000000</v>
    <i name="NUPDOWN">     -1.00000000</i>
    <i type="logical" name="LSORBIT"> F  </i>
    <v name="SAXIS">      0.00000000      0.00000000      1.00000000</v>
    <i type="logical" name="LSPIRAL"> F  </i>
    <v name="QSPIRAL">      0.00000000      0.00000000      0.00000000</v>
    <i type="logical" name="LZEROZ"> F  </i>
   </separator>
   <separator name="electronic exchange-correlation" >
    <i type="logical" name="LASPH"> F  </i>
    <i type="logical" name="LMETAGGA"> F  </i>
   </separator>
   <separator name="electronic convergence" >
    <i type="int" name="NELM">    40</i>
    <i type="int" name="NELMDL">     0</i>
    <i type="int" name="NELMIN">     8</i>
    <i name="ENINI">    520.00000000</i>
    <separator name="electronic convergence detail" >
     <i type="logical" name="LDIAG"> T  </i>
     <i type="logical" name="LSUBROT"> F  </i>
     <i name="WEIMIN">      0.00100000</i>
     <i name="EBREAK">      0.00000003</i>
     <i name="DEPER">      0.30000000</i>
     <i type="int" name="NRMM">     4</i>
     <i name="TIME">      0.40000000</i>
    </separator>
   </separator>
   <separator name="electronic mixer" >
    <i name="AMIX">      0.40000000</i>
    <i name="BMIX">      1.00000000</i>
    <i name="AMIN">      0.10000000</i>
    <i name="AMIX_MAG">      1.60000000</i>
    <i name="BMIX_MAG">      1.00000000</i>
    <separator name="electronic mixer details" >
     <i type="int" name="IMIX">     4</i>
     <i type="logical" name="MIXFIRST"> F  </i>
     <i type="int" name="MAXMIX">   -45</i>
     <i name="WC">    100.00000000</i>
     <i type="int" name="INIMIX">     1</i>
     <i type="int" name="MIXPRE">     1</i>
     <i type="int" name="MREMOVE">     5</i>
    </separator>
   </separator>
   <separator name="electronic dipolcorrection" >
    <i type="logical" name="LDIPOL"> F  </i>
    <i type="logical" name="LMONO"> F  </i>
    <i type="int" name="IDIPOL">     0</i>
    <i name="EPSILON">      1.00000000</i>
    <v name="DIPOL">   -100.00000000   -100.00000000   -100.00000000</v>
    <i name="EFIELD">      0.00000000</i>
   </separator>
  </separator>
  <separator name="grids" >
   <i type="int" name="NGX">    64</i>
   <i type="int" name="NGY">    64</i>
   <i type="int" name="NGZ">    90</i>
   <i type="int" name="NGXF">   128</i>
   <i type="int" name="NGYF">   128</i>
   <i type="int" name="NGZF">   180</i>
   <i type="logical" name="ADDGRID"> F  </i>
  </separator>
  <separator name="ionic" >
   <i type="int" name="NSW">    30</i>
   <i type="int" name="IBRION">     2</i>
   <i type="int" name="ISIF">     3</i>
   <i name="PSTRESS">      0.00000000</i>
   <i name="EDIFFG">     -0.03000000</i>
   <i type="int" name="NFREE">     1</i>
   <i name="POTIM">      0.50000000</i>
   <i name="SMASS">     -3.00000000</i>
   <i name="SCALEE">      1.00000000</i>
  </separator>
  <separator name="ionic md" >
   <i name="TEBEG">      0.00010000</i>
   <i name="TEEND">      0.00010000</i>
   <i type="int" name="NBLOCK">     1</i>
   <i type="int" name="KBLOCK">    30</i>
   <i type="int" name="NPACO">   256</i>
   <i name="APACO">     16.00000000</i>
  </separator>
  <separator name="symmetry" >
   <i type="int" name="ISYM">     2</i>
   <i name="SYMPREC">      0.00001000</i>
  </separator>
  <separator name="dos" >
   <i type="logical" name="LORBIT"> F  </i>
   <v name="RWIGS">     -1.00000000     -1.00000000     -1.00000000     -1.00000000</v>
   <i type="int" name="NEDOS">   301</i>
   <i name="EMIN">     10.00000000</i>
   <i name="EMAX">    -10.00000000</i>
   <i name="EFERMI">      0.00000000</i>
  </separator>
  <separator name="writing" >
   <i type="int" name="NWRITE">     2</i>
   <i type="logical" name="LWAVE"> T  </i>
   <i type="logical" name="LCHARG"> T  </i>
   <i type="logical" name="LPARD"> F  </i>
   <i type="logical" name="LVTOT"> F  </i>
   <i type="logical" name="LVHAR"> F  </i>
   <i type="logical" name="LELF"> F  </i>
   <i type="logical" name="LOPTICS"> F  </i>
   <v name="STM">      0.00000000      0.00000000      0.00000000      0.00000000      0.00000000      0.00000000      0.00000000</v>
  </separator>
  <separator name="performance" >
   <i type="int" name="NPAR">     2</i>
   <i type="int" name="NSIM">     4</i>
   <i type="int" name="NBLK">    -1</i>
   <i type="logical" name="LPLANE"> T  </i>
   <i type="logical" name="LSCALAPACK"> T  </i>
   <i type="logical" name="LSCAAWARE"> F  </i>
   <i type="logical" name="LSCALU"> F  </i>
   <i type="logical" name="LASYNC"> F  </i>
   <i type="logical" name="LORBITALREAL"> F  </i>
  </separator>
  <separator name="miscellaneous" >
   <i type="int" name="IDIOT">     3</i>
   <i type="logical" name="LMUSIC"> F  </i>
   <v name="POMASS">     87.62000000     47.88000000     55.84700000     16.00000000</v>
   <v name="DARWINR">      0.00000000      0.00000000      0.00000000      0.00000000</v>
   <v name="DARWINV">      1.00000000      1.00000000      1.00000000      1.00000000</v>
   <i type="logical" name="LCORR"> T  </i>
  </separator>
  <i type="logical" name="GGA_COMPAT"> T  </i>
  <i type="logical" name="LBERRY"> F  </i>
  <i type="int" name="ICORELEVEL">     0</i>
  <i type="logical" name="LDAU"> T  </i>
  <v type="int" name="LDAUTYPE">     2</v>
  <v type="int" name="LDAUL">     0</v>
  <v name="LDAUU">      0.00000000</v>
  <v name="LDAUJ">      0.00000000</v>
  <i type="int" name="LDAUPRINT">     1</i>
  <i type="int" name="I_CONSTRAINED_M">     0</i>
  <separator name="electronic exchange-correlation" >
   <i type="string" name="GGA">--</i>
   <i type="int" name="VOSKOWN">     0</i>
   <i type="logical" name="LHFCALC"> F  </i>
   <i type="string" name="PRECFOCK"></i>
   <i type="logical" name="LSYMGRAD"> F  </i>
   <i type="logical" name="LHFONE"> F  </i>
   <i type="logical" name="LRHFCALC"> F  </i>
   <i type="logical" name="LTHOMAS"> F  </i>
   <i type="logical" name="LMODELHF"> F  </i>
   <i name="ENCUT4O">     -1.00000000</i>
   <i type="int" name="EXXOEP">     0</i>
   <i type="int" name="FOURORBIT">     0</i>
   <i name="AEXX">      0.00000000</i>
   <i name="HFALPHA">      0.00000000</i>
   <i name="MCALPHA">      0.00000000</i>
   <i name="ALDAX">      1.00000000</i>
   <i name="AGGAX">      1.00000000</i>
   <i name="ALDAC">      1.00000000</i>
   <i name="AGGAC">      1.00000000</i>
   <i type="int" name="NKREDX">     1</i>
   <i type="int" name="NKREDY">     1</i>
   <i type="int" name="NKREDZ">     1</i>
   <i type="logical" name="SHIFTRED"> F  </i>
   <i type="logical" name="ODDONLY"> F  </i>
   <i type="logical" name="EVENONLY"> F  </i>
   <i type="int" name="LMAXFOCK">     0</i>
   <i type="int" name="NMAXFOCKAE">     0</i>
   <i type="logical" name="LFOCKAEDFT"> F  </i>
   <i name="HFSCREEN">      0.00000000</i>
   <i name="HFSCREENC">      0.00000000</i>
   <i type="int" name="NBANDSGWLOW">     0</i>
  </separator>
  <separator name="vdW DFT" >
   <i type="logical" name="LUSE_VDW"> F  </i>
   <i name="Zab_VDW">     -0.84910000</i>
   <i name="PARAM1">      0.12340000</i>
   <i name="PARAM2">      1.00000000</i>
   <i name="PARAM3">      0.00000000</i>
  </separator>
  <separator name="model GW" >
   <i type="int" name="MODEL_GW">     0</i>
   <i name="MODEL_EPS0">      7.70667886</i>
   <i name="MODEL_ALPHA">      1.00000000</i>
  </separator>
  <separator name="linear response parameters" >
   <i type="logical" name="LEPSILON"> F  </i>
   <i type="logical" name="LRPA"> F  </i>
   <i type="logical" name="LNABLA"> F  </i>
   <i type="logical" name="LVEL"> F  </i>
   <i type="int" name="KINTER">     0</i>
   <i name="CSHIFT">      0.10000000</i>
   <i name="OMEGAMAX">     -1.00000000</i>
   <i name="DEG_THRESHOLD">      0.00200000</i>
  </separator>
  <separator name="orbital magnetization" >
   <i type="logical" name="NUCIND"> F  </i>
   <v name="MAGPOS">      0.00000000      0.00000000      0.00000000</v>
   <i type="logical" name="LNICSALL"> T  </i>
   <i type="logical" name="ORBITALMAG"> F  </i>
   <i type="logical" name="LMAGBLOCH"> F  </i>
   <i type="logical" name="LCHIMAG"> F  </i>
   <i type="logical" name="LGAUGE"> T  </i>
   <i type="int" name="MAGATOM">     0</i>
   <v name="MAGDIPOL">      0.00000000      0.00000000      0.00000000</v>
   <v name="AVECCONST">      0.00000000      0.00000000      0.00000000</v>
  </separator>
  <separator name="response functions" >
   <i type="logical" name="LADDER"> F  </i>
   <i type="logical" name="LFXC"> F  </i>
   <i type="logical" name="LHARTREE"> T  </i>
   <i type="int" name="IBSE">     0</i>
   <v type="int" name="KPOINT">    -1     0     0     0</v>
   <i type="logical" name="LTCTE"> F  </i>
   <i type="logical" name="LTETE"> F  </i>
   <i type="logical" name="LTRIPLET"> F  </i>
   <i type="logical" name="LFXCEPS"> F  </i>
   <i type="logical" name="LFXHEG"> F  </i>
   <i type="int" name="NATURALO">     0</i>
   <i type="logical" name="L2ORDER"> F  </i>
   <i type="logical" name="LUSEW"> F  </i>
   <i name="ENCUTGW">     -2.00000000</i>
   <i name="ENCUTGWSOFT">     -2.00000000</i>
   <i name="ENCUTLF">     -1.00000000</i>
   <i type="int" name="LMAXMP2">    -1</i>
   <i name="SCISSOR">      0.00000000</i>
   <i type="int" name="NOMEGA">     0</i>
   <i type="int" name="NOMEGAR">     0</i>
   <i type="int" name="NBANDSGW">    -1</i>
   <i type="int" name="NBANDSO">    -1</i>
   <i type="int" name="NBANDSV">    -1</i>
   <i type="int" name="NELM">    40</i>
   <i type="int" name="NELMHF">     1</i>
   <i type="int" name="DIM">     3</i>
   <i type="int" name="ANTIRES">     0</i>
   <i name="OMEGAMAX">    -30.00000000</i>
   <i name="OMEGAMIN">    -30.00000000</i>
   <i name="OMEGATL">   -200.00000000</i>
   <i type="int" name="OMEGAGRID">     0</i>
   <i name="CSHIFT">     -0.10000000</i>
   <i type="logical" name="SELFENERGY"> F  </i>
   <i type="logical" name="LSPECTRAL"> F  </i>
   <i type="logical" name="LSPECTRALGW"> F  </i>
   <i type="logical" name="LSINGLES"> F  </i>
   <i type="logical" name="LFERMIGW"> F  </i>
   <i type="logical" name="ODDONLYGW"> F  </i>
   <i type="logical" name="EVENONLYGW"> F  </i>
   <i type="int" name="NKREDLFX">     1</i>
   <i type="int" name="NKREDLFY">     1</i>
   <i type="int" name="NKREDLFZ">     1</i>
   <i type="int" name="MAXMEM">  1800</i>
   <i type="int" name="TELESCOPE">     0</i>
   <i type="int" name="TAUPAR">     1</i>
   <i type="int" name="OMEGAPAR">    -1</i>
   <i name="LAMBDA">      1.00000000</i>
  </separator>
  <separator name="External order field" >
   <i name="OFIELD_KAPPA">      0.00000000</i>
   <v name="OFIELD_K">      0.00000000      0.00000000      0.00000000</v>
   <i name="OFIELD_Q6_NEAR">      0.00000000</i>
   <i name="OFIELD_Q6_FAR">      0.00000000</i>
   <i name="OFIELD_A">      0.00000000</i>
  </separator>
 </parameters>
 <atominfo>
  <atoms>     156 </atoms>
  <types>       4 </types>
  <array name="atoms" >
   <dimension dim="1">ion</dimension>
   <field type="string">element</field>
   <field type="int">atomtype</field>
   <set>
    <rc><c>Sr</c><c>   1</c></rc>
    <rc><c>Sr</c><c>   1</c></rc>
    <rc><c>Sr</c><c>   1</c></rc>
    <rc><c>Sr</c><c>   1</c></rc>
    <rc><c>Sr</c><c>   1</c></rc>
    <rc><c>Sr</c><c>   1</c></rc>
    <rc><c>Sr</c><c>   1</c></rc>
    <rc><c>Sr</c><c>   1</c></rc>
    <rc><c>Sr</c><c>   1</c></rc>
    <rc><c>Sr</c><c>   1</c></rc>
    <rc><c>Sr</c><c>   1</c></rc>
    <rc><c>Sr</c><c>   1</c></rc>
    <rc><c>Sr</c><c>   1</c></rc>
    <rc><c>Sr</c><c>   1</c></rc>
    <rc><c>Sr</c><c>   1</c></rc>
    <rc><c>Sr</c><c>   1</c></rc>
    <rc><c>Sr</c><c>   1</c></rc>
    <rc><c>Sr</c><c>   1</c></rc>
    <rc><c>Sr</c><c>   1</c></rc>
    <rc><c>Sr</c><c>   1</c></rc>
    <rc><c>Sr</c><c>   1</c></rc>
    <rc><c>Sr</c><c>   1</c></rc>
    <rc><c>Sr</c><c>   1</c></rc>
    <rc><c>Sr</c><c>   1</c></rc>
    <rc><c>Sr</c><c>   1</c></rc>
    <rc><c>Sr</c><c>   1</c></rc>
    <rc><c>Sr</c><c>   1</c></rc>
    <rc><c>Sr</c><c>   1</c></rc>
    <rc><c>Sr</c><c>   1</c></rc>
    <rc><c>Sr</c><c>   1</c></rc>
    <rc><c>Sr</c><c>   1</c></rc>
    <rc><c>Sr</c><c>   1</c></rc>
    <rc><c>Ti</c><c>   2</c></rc>
    <rc><c>Ti</c><c>   2</c></rc>
    <rc><c>Ti</c><c>   2</c></rc>
    <rc><c>Ti</c><c>   2</c></rc>
    <rc><c>Ti</c><c>   2</c></rc>
    <rc><c>Ti</c><c>   2</c></rc>
    <rc><c>Ti</c><c>   2</c></rc>
    <rc><c>Ti</c><c>   2</c></rc>
    <rc><c>Ti</c><c>   2</c></rc>
    <rc><c>Ti</c><c>   2</c></rc>
    <rc><c>Ti</c><c>   2</c></rc>
    <rc><c>Ti</c><c>   2</c></rc>
    <rc><c>Ti</c><c>   2</c></rc>
    <rc><c>Ti</c><c>   2</c></rc>
    <rc><c>Ti</c><c>   2</c></rc>
    <rc><c>Ti</c><c>   2</c></rc>
    <rc><c>Ti</c><c>   2</c></rc>
    <rc><c>Ti</c><c>   2</c></rc>
    <rc><c>Ti</c><c>   2</c></rc>
    <rc><c>Ti</c><c>   2</c></rc>
    <rc><c>Ti</c><c>   2</c></rc>
    <rc><c>Ti</c><c>   2</c></rc>
    <rc><c>Ti</c><c>   2</c></rc>
    <rc><c>Ti</c><c>   2</c></rc>
    <rc><c>Fe</c><c>   3</c></rc>
    <rc><c>Fe</c><c>   3</c></rc>
    <rc><c>Fe</c><c>   3</c></rc>
    <rc><c>Fe</c><c>   3</c></rc>
    <rc><c>Fe</c><c>   3</c></rc>
    <rc><c>Fe</c><c>   3</c></rc>
    <rc><c>Fe</c><c>   3</c></rc>
    <rc><c>Fe</c><c>   3</c></rc>
    <rc><c>O </c><c>   4</c></rc>
    <rc><c>O </c><c>   4</c></rc>
    <rc><c>O </c><c>   4</c></rc>
    <rc><c>O </c><c>   4</c></rc>
    <rc><c>O </c><c>   4</c></rc>
    <rc><c>O </c><c>   4</c></rc>
    <rc><c>O </c><c>   4</c></rc>
    <rc><c>O </c><c>   4</c></rc>
    <rc><c>O </c><c>   4</c></rc>
    <rc><c>O </c><c>   4</c></rc>
    <rc><c>O </c><c>   4</c></rc>
    <rc><c>O </c><c>   4</c></rc>
    <rc><c>O </c><c>   4</c></rc>
    <rc><c>O </c><c>   4</c></rc>
    <rc><c>O </c><c>   4</c></rc>
    <rc><c>O </c><c>   4</c></rc>
    <rc><c>O </c><c>   4</c></rc>
    <rc><c>O </c><c>   4</c></rc>
    <rc><c>O </c><c>   4</c></rc>
    <rc><c>O </c><c>   4</c></rc>
    <rc><c>O </c><c>   4</c></rc>
    <rc><c>O </c><c>   4</c></rc>
    <rc><c>O </c><c>   4</c></rc>
    <rc><c>O </c><c>   4</c></rc>
    <rc><c>O </c><c>   4</c></rc>
    <rc><c>O </c><c>   4</c></rc>
    <rc><c>O </c><c>   4</c></rc>
    <rc><c>O </c><c>   4</c></rc>
    <rc><c>O </c><c>   4</c></rc>
    <rc><c>O </c><c>   4</c></rc>
    <rc><c>O </c><c>   4</c></rc>
    <rc><c>O </c><c>   4</c></rc>
    <rc><c>O </c><c>   4</c></rc>
    <rc><c>O </c><c>   4</c></rc>
    <rc><c>O </c><c>   4</c></rc>
    <rc><c>O </c><c>   4</c></rc>
    <rc><c>O </c><c>   4</c></rc>
    <rc><c>O </c><c>   4</c></rc>
    <rc><c>O </c><c>   4</c></rc>
    <rc><c>O </c><c>   4</c></rc>
    <rc><c>O </c><c>   4</c></rc>
    <rc><c>O </c><c>   4</c></rc>
    <rc><c>O </c><c>   4</c></rc>
    <rc><c>O </c><c>   4</c></rc>
    <rc><c>O </c><c>   4</c></rc>
    <rc><c>O </c><c>   4</c></rc>
    <rc><c>O </c><c>   4</c></rc>
    <rc><c>O </c><c>   4</c></rc>
    <rc><c>O </c><c>   4</c></rc>
    <rc><c>O </c><c>   4</c></rc>
    <rc><c>O </c><c>   4</c></rc>
    <rc><c>O </c><c>   4</c></rc>
    <rc><c>O </c><c>   4</c></rc>
    <rc><c>O </c><c>   4</c></rc>
    <rc><c>O </c><c>   4</c></rc>
    <rc><c>O </c><c>   4</c></rc>
    <rc><c>O </c><c>   4</c></rc>
    <rc><c>O </c><c>   4</c></rc>
    <rc><c>O </c><c>   4</c></rc>
    <rc><c>O </c><c>   4</c></rc>
    <rc><c>O </c><c>   4</c></rc>
    <rc><c>O </c><c>   4</c></rc>
    <rc><c>O </c><c>   4</c></rc>
    <rc><c>O </c><c>   4</c></rc>
    <rc><c>O </c><c>   4</c></rc>
    <rc><c>O </c><c>   4</c></rc>
    <rc><c>O </c><c>   4</c></rc>
    <rc><c>O </c><c>   4</c></rc>
    <rc><c>O </c><c>   4</c></rc>
    <rc><c>O </c><c>   4</c></rc>
    <rc><c>O </c><c>   4</c></rc>
    <rc><c>O </c><c>   4</c></rc>
    <rc><c>O </c><c>   4</c></rc>
    <rc><c>O </c><c>   4</c></rc>
    <rc><c>O </c><c>   4</c></rc>
    <rc><c>O </c><c>   4</c></rc>
    <rc><c>O </c><c>   4</c></rc>
    <rc><c>O </c><c>   4</c></rc>
    <rc><c>O </c><c>   4</c></rc>
    <rc><c>O </c><c>   4</c></rc>
    <rc><c>O </c><c>   4</c></rc>
    <rc><c>O </c><c>   4</c></rc>
    <rc><c>O </c><c>   4</c></rc>
    <rc><c>O </c><c>   4</c></rc>
    <rc><c>O </c><c>   4</c></rc>
    <rc><c>O </c><c>   4</c></rc>
    <rc><c>O </c><c>   4</c></rc>
    <rc><c>O </c><c>   4</c></rc>
    <rc><c>O </c><c>   4</c></rc>
    <rc><c>O </c><c>   4</c></rc>
    <rc><c>O </c><c>   4</c></rc>
    <rc><c>O </c><c>   4</c></rc>
   </set>
  </array>
  <array name="atomtypes" >
   <dimension dim="1">type</dimension>
   <field type="int">atomspertype</field>
   <field type="string">element</field>
   <field>mass</field>
   <field>valence</field>
   <field type="string">pseudopotential</field>
   <set>
    <rc><c>  32</c><c>Sr</c><c>     87.62000000</c><c>     10.00000000</c><c>  PAW_PBE Sr_sv 07Sep2000               </c></rc>
    <rc><c>  24</c><c>Ti</c><c>     47.88000000</c><c>      4.00000000</c><c>  PAW_PBE Ti 08Apr2002                  </c></rc>
    <rc><c>   8</c><c>Fe</c><c>     55.84700000</c><c>      8.00000000</c><c>  PAW_PBE Fe 06Sep2000                  </c></rc>
    <rc><c>  92</c><c>O </c><c>     16.00000000</c><c>      6.00000000</c><c>  PAW_PBE O 08Apr2002                   </c></rc>
   </set>
  </array>
 </atominfo>
 <structure name="initialpos" >
  <crystal>
   <varray name="basis" >
    <v>      11.19751750      -0.00701248      -0.00250996 </v>
    <v>      -0.00704275      11.19982585      -0.00090540 </v>
    <v>      -0.00359528      -0.00130525      15.97746175 </v>
   </varray>
   <i name="volume">   2003.73650359 </i>
   <varray name="rec_basis" >
    <v>       0.08930555       0.00005616       0.00002010 </v>
    <v>       0.00005592       0.08928714       0.00000731 </v>
    <v>       0.00001403       0.00000507       0.06258817 </v>
   </varray>
  </crystal>
  <varray name="positions" >
   <v>       0.99031363       0.25047686       0.12713909 </v>
   <v>       0.99758043       0.25079439       0.63192323 </v>
   <v>       0.99745393       0.75210638       0.12509244 </v>
   <v>       0.99936878       0.74896994       0.63284616 </v>
   <v>       0.50946023       0.24804441       0.12799714 </v>
   <v>       0.50488358       0.25028947       0.63010029 </v>
   <v>       0.50237423       0.75063179       0.12457013 </v>
   <v>       0.50378335       0.74823581       0.63259557 </v>
   <v>       0.99853938       0.24834599       0.36671715 </v>
   <v>       0.98873292       0.25397505       0.87600824 </v>
   <v>       0.99530379       0.75217651       0.36553267 </v>
   <v>       0.99850090       0.74922599       0.87620158 </v>
   <v>       0.50515421       0.25155845       0.36818996 </v>
   <v>       0.51027167       0.24623434       0.87415013 </v>
   <v>       0.50727584       0.74722436       0.36553512 </v>
   <v>       0.50124542       0.75188463       0.87632848 </v>
   <v>       0.24918741       0.99905628       0.12656667 </v>
   <v>       0.25138619       0.00117350       0.63597549 </v>
   <v>       0.24895659       0.50199002       0.12575145 </v>
   <v>       0.25444016       0.49667579       0.63788182 </v>
   <v>       0.75036806       0.00309462       0.12563616 </v>
   <v>       0.74985186       0.99998044       0.63188078 </v>
   <v>       0.75135643       0.49719992       0.12553060 </v>
   <v>       0.74759911       0.50053011       0.63256504 </v>
   <v>       0.24849066       0.00325555       0.36487446 </v>
   <v>       0.25148207       0.99213594       0.87660085 </v>
   <v>       0.25649810       0.49659651       0.36373303 </v>
   <v>       0.24616788       0.50963808       0.87656398 </v>
   <v>       0.75252731       0.99895579       0.36563682 </v>
   <v>       0.74894424       0.00138501       0.87701651 </v>
   <v>       0.74630604       0.50147706       0.36490517 </v>
   <v>       0.75207978       0.49912448       0.87663403 </v>
   <v>       0.99831425       0.00213070       0.99935723 </v>
   <v>       0.99836236       0.49887931       0.99787461 </v>
   <v>       0.98765863       0.49302899       0.50030301 </v>
   <v>       0.50126071       0.00132343       0.99756841 </v>
   <v>       0.50909942       0.00354911       0.50051518 </v>
   <v>       0.50068300       0.49632857       0.99885910 </v>
   <v>       0.50788424       0.50144094       0.49983622 </v>
   <v>       0.25035509       0.25034474       0.01031964 </v>
   <v>       0.25498683       0.26063539       0.49887922 </v>
   <v>       0.25020703       0.75032109       0.00104182 </v>
   <v>       0.25259370       0.75416287       0.49968911 </v>
   <v>       0.75315387       0.24918666       0.49858396 </v>
   <v>       0.75035464       0.75026998       0.00216849 </v>
   <v>       0.75133388       0.74979492       0.49964159 </v>
   <v>       0.24994937       0.75017143       0.24805373 </v>
   <v>       0.25009914       0.75004065       0.75186753 </v>
   <v>       0.75044443       0.24992969       0.75034585 </v>
   <v>       0.75079558       0.75034037       0.75050172 </v>
   <v>       0.99992041       0.00338277       0.25003879 </v>
   <v>       0.00146317       0.00168960       0.75035582 </v>
   <v>       0.00141496       0.49992179       0.24847956 </v>
   <v>       0.49954567       0.00037054       0.24831114 </v>
   <v>       0.50065743       0.49740588       0.24777180 </v>
   <v>       0.50013685       0.49931271       0.75208194 </v>
   <v>       0.98768294       0.99516638       0.50077511 </v>
   <v>       0.74979767       0.25009118       0.00221296 </v>
   <v>       0.24922544       0.24913859       0.25269695 </v>
   <v>       0.24826615       0.24815594       0.74280347 </v>
   <v>       0.75053809       0.25000897       0.24970318 </v>
   <v>       0.75045830       0.75019113       0.24786632 </v>
   <v>       0.99965728       0.50240675       0.75109184 </v>
   <v>       0.50174244       0.99734567       0.75092684 </v>
   <v>       0.11367054       0.13624414       0.24536906 </v>
   <v>       0.11989185       0.14226487       0.76522559 </v>
   <v>       0.11507450       0.63842239       0.24706423 </v>
   <v>       0.11806204       0.63524966       0.75143515 </v>
   <v>       0.61294199       0.13164337       0.25670121 </v>
   <v>       0.61427710       0.13493614       0.74442708 </v>
   <v>       0.61354217       0.63161059       0.24639792 </v>
   <v>       0.61438997       0.63322812       0.74960096 </v>
   <v>       0.38456332       0.36407407       0.25883125 </v>
   <v>       0.38019369       0.35756540       0.74887432 </v>
   <v>       0.38499775       0.86179386       0.24923526 </v>
   <v>       0.38223025       0.86433902       0.74896224 </v>
   <v>       0.88711596       0.36955413       0.25763016 </v>
   <v>       0.88542205       0.36679983       0.74388681 </v>
   <v>       0.88713071       0.86810300       0.25238849 </v>
   <v>       0.88704588       0.86800152       0.74268718 </v>
   <v>       0.36399220       0.11248736       0.25088440 </v>
   <v>       0.35419416       0.12440442       0.76355394 </v>
   <v>       0.36313312       0.61352154       0.25003355 </v>
   <v>       0.36493351       0.61336942       0.75012725 </v>
   <v>       0.86646271       0.11480569       0.25075616 </v>
   <v>       0.86683493       0.11566772       0.74804154 </v>
   <v>       0.86854125       0.61509922       0.25172097 </v>
   <v>       0.86574535       0.61731959       0.74540336 </v>
   <v>       0.13685988       0.38839375       0.25211789 </v>
   <v>       0.14643149       0.37699327       0.76126022 </v>
   <v>       0.13740920       0.88616986       0.25031094 </v>
   <v>       0.13554022       0.88594904       0.74928459 </v>
   <v>       0.63242291       0.38451959       0.25031640 </v>
   <v>       0.63285374       0.38428730       0.74862106 </v>
   <v>       0.63267790       0.88530014       0.25013139 </v>
   <v>       0.63654993       0.88358025       0.74720179 </v>
   <v>       0.35696850       0.38465121       0.98560130 </v>
   <v>       0.35785968       0.38877592       0.49997479 </v>
   <v>       0.36067689       0.88914866       0.00090951 </v>
   <v>       0.86274562       0.39037165       0.99916032 </v>
   <v>       0.84941595       0.40222087       0.50017793 </v>
   <v>       0.86007607       0.88984967       0.99976953 </v>
   <v>       0.85156002       0.89535249       0.50277132 </v>
   <v>       0.14180038       0.11441330       0.99009664 </v>
   <v>       0.13948740       0.61070005       0.00100544 </v>
   <v>       0.63677355       0.10991232       0.99931738 </v>
   <v>       0.64033907       0.10530739       0.50010918 </v>
   <v>       0.63858836       0.60953545       0.99998855 </v>
   <v>       0.64711126       0.60265262       0.50227773 </v>
   <v>       0.11518475       0.35870511       0.98952836 </v>
   <v>       0.10336154       0.35253003       0.50009709 </v>
   <v>       0.11127253       0.86108349       0.99885086 </v>
   <v>       0.13466380       0.88453004       0.50175710 </v>
   <v>       0.60839158       0.36161457       0.99917865 </v>
   <v>       0.60264015       0.35360294       0.50081533 </v>
   <v>       0.60968423       0.85957854       0.99989605 </v>
   <v>       0.59453451       0.85142318       0.50203332 </v>
   <v>       0.38434961       0.14098612       0.98889393 </v>
   <v>       0.36178159       0.11408051       0.50031968 </v>
   <v>       0.38896251       0.63808385       0.99921136 </v>
   <v>       0.38704869       0.64091625       0.50066593 </v>
   <v>       0.89103884       0.13787780       0.99906899 </v>
   <v>       0.89955777       0.15104500       0.50101275 </v>
   <v>       0.89046369       0.63994084       0.00042635 </v>
   <v>       0.90572052       0.65061877       0.50183917 </v>
   <v>       0.00335114       0.00051556       0.12304557 </v>
   <v>       0.01565965       0.01639924       0.62422643 </v>
   <v>       0.00244418       0.49373076       0.12458597 </v>
   <v>       0.02333590       0.50951368       0.61865070 </v>
   <v>       0.49704338       0.00481829       0.12414318 </v>
   <v>       0.48425150       0.99424864       0.62121427 </v>
   <v>       0.48958791       0.49122156       0.12317370 </v>
   <v>       0.49721408       0.49756180       0.62526449 </v>
   <v>       0.00882967       0.00853699       0.37850557 </v>
   <v>       0.99507205       0.99442917       0.87299258 </v>
   <v>       0.02062704       0.51516459       0.38232462 </v>
   <v>       0.99687272       0.50306933       0.87470728 </v>
   <v>       0.48628366       0.98763091       0.38013632 </v>
   <v>       0.50234088       0.99629731       0.87449721 </v>
   <v>       0.50212152       0.50286110       0.37704458 </v>
   <v>       0.50107137       0.49998336       0.87314117 </v>
   <v>       0.23549026       0.23655577       0.38112875 </v>
   <v>       0.24796201       0.74736164       0.37801811 </v>
   <v>       0.25096625       0.75023909       0.87534169 </v>
   <v>       0.74874847       0.25010200       0.37851058 </v>
   <v>       0.75029282       0.25035899       0.87185546 </v>
   <v>       0.74806187       0.74868715       0.37836253 </v>
   <v>       0.75297826       0.75083577       0.87365195 </v>
   <v>       0.25456236       0.25419465       0.12485477 </v>
   <v>       0.23527928       0.23584286       0.62088882 </v>
   <v>       0.25079564       0.75046920       0.12458020 </v>
   <v>       0.24824274       0.74626359       0.62194042 </v>
   <v>       0.75068174       0.25056322       0.12629742 </v>
   <v>       0.74851463       0.25029145       0.62259347 </v>
   <v>       0.75186349       0.75075542       0.12314233 </v>
   <v>       0.74733509       0.74837974       0.62374053 </v>
  </varray>
 </structure>
 <calculation>
  <scstep>
   <time name="dav">  613.57  613.61</time>
   <time name="total">  620.78  620.93</time>
   <energy>
    <i name="alphaZ">   5632.15588360 </i>
    <i name="ewald"> -61081.68648051 </i>
    <i name="hartreedc"> -16457.55051709 </i>
    <i name="XCdc">   2962.04258986 </i>
    <i name="pawpsdc"> 112551.06366361 </i>
    <i name="pawaedc">-111450.34286404 </i>
    <i name="eentropy">     -0.00000005 </i>
    <i name="bandstr">  -7056.66694961 </i>
    <i name="atom">  73783.44779670 </i>
    <i name="e_fr_energy">  -1117.53687753 </i>
    <i name="e_wo_entrp">  -1117.53687748 </i>
    <i name="e_0_energy">  -1117.53687751 </i>
   </energy>
  </scstep>
  <scstep>
   <time name="diag">   64.85   64.85</time>
   <time name="diis">   62.84   62.84</time>
   <time name="orth">   33.34   33.34</time>
   <time name="total">  168.32  168.37</time>
   <energy>
    <i name="e_fr_energy">  -1117.53688013 </i>
    <i name="e_wo_entrp">  -1117.53688009 </i>
    <i name="e_0_energy">  -1117.53688011 </i>
   </energy>
  </scstep>
  <scstep>
   <time name="diag">   64.88   64.88</time>
   <time name="diis">   60.76   60.76</time>
   <time name="orth">   33.44   33.44</time>
   <time name="total">  166.33  166.36</time>
   <energy>
    <i name="e_fr_energy">  -1117.53687610 </i>
    <i name="e_wo_entrp">  -1117.53687605 </i>
    <i name="e_0_energy">  -1117.53687608 </i>
   </energy>
  </scstep>
  <scstep>
   <time name="diag">   64.87   64.87</time>
   <time name="diis">   56.43   56.44</time>
   <time name="orth">   33.36   33.36</time>
   <time name="total">  161.94  162.01</time>
   <energy>
    <i name="e_fr_energy">  -1117.53687634 </i>
    <i name="e_wo_entrp">  -1117.53687629 </i>
    <i name="e_0_energy">  -1117.53687631 </i>
   </energy>
  </scstep>
  <scstep>
   <time name="diag">   64.84   64.85</time>
   <time name="diis">   55.13   55.13</time>
   <time name="orth">   33.41   33.42</time>
   <time name="total">  160.65  160.76</time>
   <energy>
    <i name="e_fr_energy">  -1117.53687658 </i>
    <i name="e_wo_entrp">  -1117.53687654 </i>
    <i name="e_0_energy">  -1117.53687656 </i>
   </energy>
  </scstep>
  <scstep>
   <time name="diag">   64.84   64.84</time>
   <time name="diis">   50.28   50.28</time>
   <time name="orth">   33.32   33.32</time>
   <time name="total">  155.74  155.84</time>
   <energy>
    <i name="e_fr_energy">  -1117.53687682 </i>
    <i name="e_wo_entrp">  -1117.53687677 </i>
    <i name="e_0_energy">  -1117.53687679 </i>
   </energy>
  </scstep>
  <scstep>
   <time name="diag">   64.90   64.90</time>
   <time name="diis">   49.78   49.77</time>
   <time name="orth">   33.31   33.32</time>
   <time name="total">  155.25  155.35</time>
   <energy>
    <i name="e_fr_energy">  -1117.53687695 </i>
    <i name="e_wo_entrp">  -1117.53687690 </i>
    <i name="e_0_energy">  -1117.53687693 </i>
   </energy>
  </scstep>
  <scstep>
   <time name="diag">   65.04   65.04</time>
   <time name="diis">   46.81   46.82</time>
   <time name="orth">   33.32   33.32</time>
   <time name="total">  146.24  146.30</time>
   <energy>
    <i name="alphaZ">   5632.15588360 </i>
    <i name="ewald"> -61081.68648051 </i>
    <i name="hartreedc"> -16457.55498039 </i>
    <i name="XCdc">   2962.04174404 </i>
    <i name="pawpsdc"> 112550.53674572 </i>
    <i name="pawaedc">-111449.81880314 </i>
    <i name="eentropy">     -0.00000005 </i>
    <i name="bandstr">  -7056.65878303 </i>
    <i name="atom">  73783.44779670 </i>
    <i name="e_fr_energy">  -1117.53687706 </i>
    <i name="e_wo_entrp">  -1117.53687701 </i>
    <i name="e_0_energy">  -1117.53687704 </i>
   </energy>
  </scstep>
  <structure>
   <crystal>
    <varray name="basis" >
     <v>      11.19751750      -0.00701248      -0.00250996 </v>
     <v>      -0.00704275      11.19982585      -0.00090540 </v>
     <v>      -0.00359528      -0.00130525      15.97746175 </v>
    </varray>
    <i name="volume">   2003.73650359 </i>
    <varray name="rec_basis" >
     <v>       0.08930555       0.00005616       0.00002010 </v>
     <v>       0.00005592       0.08928714       0.00000731 </v>
     <v>       0.00001403       0.00000507       0.06258817 </v>
    </varray>
   </crystal>
   <varray name="positions" >
    <v>       0.99031363       0.25047686       0.12713909 </v>
    <v>       0.99758043       0.25079439       0.63192323 </v>
    <v>       0.99745393       0.75210638       0.12509244 </v>
    <v>       0.99936878       0.74896994       0.63284616 </v>
    <v>       0.50946023       0.24804441       0.12799714 </v>
    <v>       0.50488358       0.25028947       0.63010029 </v>
    <v>       0.50237423       0.75063179       0.12457013 </v>
    <v>       0.50378335       0.74823581       0.63259557 </v>
    <v>       0.99853938       0.24834599       0.36671715 </v>
    <v>       0.98873292       0.25397505       0.87600824 </v>
    <v>       0.99530379       0.75217651       0.36553267 </v>
    <v>       0.99850090       0.74922599       0.87620158 </v>
    <v>       0.50515421       0.25155845       0.36818996 </v>
    <v>       0.51027167       0.24623434       0.87415013 </v>
    <v>       0.50727584       0.74722436       0.36553512 </v>
    <v>       0.50124542       0.75188463       0.87632848 </v>
    <v>       0.24918741       0.99905628       0.12656667 </v>
    <v>       0.25138619       0.00117350       0.63597549 </v>
    <v>       0.24895659       0.50199002       0.12575145 </v>
    <v>       0.25444016       0.49667579       0.63788182 </v>
    <v>       0.75036806       0.00309462       0.12563616 </v>
    <v>       0.74985186       0.99998044       0.63188078 </v>
    <v>       0.75135643       0.49719992       0.12553060 </v>
    <v>       0.74759911       0.50053011       0.63256504 </v>
    <v>       0.24849066       0.00325555       0.36487446 </v>
    <v>       0.25148207       0.99213594       0.87660085 </v>
    <v>       0.25649810       0.49659651       0.36373303 </v>
    <v>       0.24616788       0.50963808       0.87656398 </v>
    <v>       0.75252731       0.99895579       0.36563682 </v>
    <v>       0.74894424       0.00138501       0.87701651 </v>
    <v>       0.74630604       0.50147706       0.36490517 </v>
    <v>       0.75207978       0.49912448       0.87663403 </v>
    <v>       0.99831425       0.00213070       0.99935723 </v>
    <v>       0.99836236       0.49887931       0.99787461 </v>
    <v>       0.98765863       0.49302899       0.50030301 </v>
    <v>       0.50126071       0.00132343       0.99756841 </v>
    <v>       0.50909942       0.00354911       0.50051518 </v>
    <v>       0.50068300       0.49632857       0.99885910 </v>
    <v>       0.50788424       0.50144094       0.49983622 </v>
    <v>       0.25035509       0.25034474       0.01031964 </v>
    <v>       0.25498683       0.26063539       0.49887922 </v>
    <v>       0.25020703       0.75032109       0.00104182 </v>
    <v>       0.25259370       0.75416287       0.49968911 </v>
    <v>       0.75315387       0.24918666       0.49858396 </v>
    <v>       0.75035464       0.75026998       0.00216849 </v>
    <v>       0.75133388       0.74979492       0.49964159 </v>
    <v>       0.24994937       0.75017143       0.24805373 </v>
    <v>       0.25009914       0.75004065       0.75186753 </v>
    <v>       0.75044443       0.24992969       0.75034585 </v>
    <v>       0.75079558       0.75034037       0.75050172 </v>
    <v>       0.99992041       0.00338277       0.25003879 </v>
    <v>       0.00146317       0.00168960       0.75035582 </v>
    <v>       0.00141496       0.49992179       0.24847956 </v>
    <v>       0.49954567       0.00037054       0.24831114 </v>
    <v>       0.50065743       0.49740588       0.24777180 </v>
    <v>       0.50013685       0.49931271       0.75208194 </v>
    <v>       0.98768294       0.99516638       0.50077511 </v>
    <v>       0.74979767       0.25009118       0.00221296 </v>
    <v>       0.24922544       0.24913859       0.25269695 </v>
    <v>       0.24826615       0.24815594       0.74280347 </v>
    <v>       0.75053809       0.25000897       0.24970318 </v>
    <v>       0.75045830       0.75019113       0.24786632 </v>
    <v>       0.99965728       0.50240675       0.75109184 </v>
    <v>       0.50174244       0.99734567       0.75092684 </v>
    <v>       0.11367054       0.13624414       0.24536906 </v>
    <v>       0.11989185       0.14226487       0.76522559 </v>
    <v>       0.11507450       0.63842239       0.24706423 </v>
    <v>       0.11806204       0.63524966       0.75143515 </v>
    <v>       0.61294199       0.13164337       0.25670121 </v>
    <v>       0.61427710       0.13493614       0.74442708 </v>
    <v>       0.61354217       0.63161059       0.24639792 </v>
    <v>       0.61438997       0.63322812       0.74960096 </v>
    <v>       0.38456332       0.36407407       0.25883125 </v>
    <v>       0.38019369       0.35756540       0.74887432 </v>
    <v>       0.38499775       0.86179386       0.24923526 </v>
    <v>       0.38223025       0.86433902       0.74896224 </v>
    <v>       0.88711596       0.36955413       0.25763016 </v>
    <v>       0.88542205       0.36679983       0.74388681 </v>
    <v>       0.88713071       0.86810300       0.25238849 </v>
    <v>       0.88704588       0.86800152       0.74268718 </v>
    <v>       0.36399220       0.11248736       0.25088440 </v>
    <v>       0.35419416       0.12440442       0.76355394 </v>
    <v>       0.36313312       0.61352154       0.25003355 </v>
    <v>       0.36493351       0.61336942       0.75012725 </v>
    <v>       0.86646271       0.11480569       0.25075616 </v>
    <v>       0.86683493       0.11566772       0.74804154 </v>
    <v>       0.86854125       0.61509922       0.25172097 </v>
    <v>       0.86574535       0.61731959       0.74540336 </v>
    <v>       0.13685988       0.38839375       0.25211789 </v>
    <v>       0.14643149       0.37699327       0.76126022 </v>
    <v>       0.13740920       0.88616986       0.25031094 </v>
    <v>       0.13554022       0.88594904       0.74928459 </v>
    <v>       0.63242291       0.38451959       0.25031640 </v>
    <v>       0.63285374       0.38428730       0.74862106 </v>
    <v>       0.63267790       0.88530014       0.25013139 </v>
    <v>       0.63654993       0.88358025       0.74720179 </v>
    <v>       0.35696850       0.38465121       0.98560130 </v>
    <v>       0.35785968       0.38877592       0.49997479 </v>
    <v>       0.36067689       0.88914866       0.00090951 </v>
    <v>       0.86274562       0.39037165       0.99916032 </v>
    <v>       0.84941595       0.40222087       0.50017793 </v>
    <v>       0.86007607       0.88984967       0.99976953 </v>
    <v>       0.85156002       0.89535249       0.50277132 </v>
    <v>       0.14180038       0.11441330       0.99009664 </v>
    <v>       0.13948740       0.61070005       0.00100544 </v>
    <v>       0.63677355       0.10991232       0.99931738 </v>
    <v>       0.64033907       0.10530739       0.50010918 </v>
    <v>       0.63858836       0.60953545       0.99998855 </v>
    <v>       0.64711126       0.60265262       0.50227773 </v>
    <v>       0.11518475       0.35870511       0.98952836 </v>
    <v>       0.10336154       0.35253003       0.50009709 </v>
    <v>       0.11127253       0.86108349       0.99885086 </v>
    <v>       0.13466380       0.88453004       0.50175710 </v>
    <v>       0.60839158       0.36161457       0.99917865 </v>
    <v>       0.60264015       0.35360294       0.50081533 </v>
    <v>       0.60968423       0.85957854       0.99989605 </v>
    <v>       0.59453451       0.85142318       0.50203332 </v>
    <v>       0.38434961       0.14098612       0.98889393 </v>
    <v>       0.36178159       0.11408051       0.50031968 </v>
    <v>       0.38896251       0.63808385       0.99921136 </v>
    <v>       0.38704869       0.64091625       0.50066593 </v>
    <v>       0.89103884       0.13787780       0.99906899 </v>
    <v>       0.89955777       0.15104500       0.50101275 </v>
    <v>       0.89046369       0.63994084       0.00042635 </v>
    <v>       0.90572052       0.65061877       0.50183917 </v>
    <v>       0.00335114       0.00051556       0.12304557 </v>
    <v>       0.01565965       0.01639924       0.62422643 </v>
    <v>       0.00244418       0.49373076       0.12458597 </v>
    <v>       0.02333590       0.50951368       0.61865070 </v>
    <v>       0.49704338       0.00481829       0.12414318 </v>
    <v>       0.48425150       0.99424864       0.62121427 </v>
    <v>       0.48958791       0.49122156       0.12317370 </v>
    <v>       0.49721408       0.49756180       0.62526449 </v>
    <v>       0.00882967       0.00853699       0.37850557 </v>
    <v>       0.99507205       0.99442917       0.87299258 </v>
    <v>       0.02062704       0.51516459       0.38232462 </v>
    <v>       0.99687272       0.50306933       0.87470728 </v>
    <v>       0.48628366       0.98763091       0.38013632 </v>
    <v>       0.50234088       0.99629731       0.87449721 </v>
    <v>       0.50212152       0.50286110       0.37704458 </v>
    <v>       0.50107137       0.49998336       0.87314117 </v>
    <v>       0.23549026       0.23655577       0.38112875 </v>
    <v>       0.24796201       0.74736164       0.37801811 </v>
    <v>       0.25096625       0.75023909       0.87534169 </v>
    <v>       0.74874847       0.25010200       0.37851058 </v>
    <v>       0.75029282       0.25035899       0.87185546 </v>
    <v>       0.74806187       0.74868715       0.37836253 </v>
    <v>       0.75297826       0.75083577       0.87365195 </v>
    <v>       0.25456236       0.25419465       0.12485477 </v>
    <v>       0.23527928       0.23584286       0.62088882 </v>
    <v>       0.25079564       0.75046920       0.12458020 </v>
    <v>       0.24824274       0.74626359       0.62194042 </v>
    <v>       0.75068174       0.25056322       0.12629742 </v>
    <v>       0.74851463       0.25029145       0.62259347 </v>
    <v>       0.75186349       0.75075542       0.12314233 </v>
    <v>       0.74733509       0.74837974       0.62374053 </v>
   </varray>
  </structure>
  <varray name="forces" >
   <v>      -0.01379602       0.00139496      -0.00551108 </v>
   <v>      -0.00135166      -0.01206500      -0.01666861 </v>
   <v>      -0.00832458       0.00939760       0.00101453 </v>
   <v>      -0.02091729      -0.00647638      -0.01533877 </v>
   <v>       0.00531511      -0.00059043      -0.00148220 </v>
   <v>       0.00695528       0.00610618       0.00377526 </v>
   <v>       0.00454813      -0.01346051      -0.00162436 </v>
   <v>       0.02625774      -0.00119268      -0.02589319 </v>
   <v>       0.01062875      -0.01096082       0.02509881 </v>
   <v>      -0.01270836       0.00608967      -0.00740540 </v>
   <v>      -0.00435711      -0.02137829       0.02954185 </v>
   <v>       0.00535129       0.00365617      -0.00492660 </v>
   <v>      -0.00453043       0.00312618       0.01285883 </v>
   <v>       0.00801237      -0.01014781       0.02738410 </v>
   <v>       0.00838499       0.00810713       0.04170788 </v>
   <v>      -0.00166011      -0.00863181      -0.01379192 </v>
   <v>      -0.00283165      -0.01619215       0.00605164 </v>
   <v>       0.01556938      -0.00163310      -0.02391529 </v>
   <v>      -0.01118714       0.01388900       0.00696831 </v>
   <v>      -0.01736971       0.02497919      -0.01883058 </v>
   <v>      -0.00386794      -0.00787713      -0.00952869 </v>
   <v>       0.00264005      -0.01434821      -0.00264906 </v>
   <v>       0.00202880       0.00009929      -0.00414730 </v>
   <v>      -0.01342862       0.00870535      -0.02476786 </v>
   <v>      -0.00353293      -0.00221615       0.03575862 </v>
   <v>       0.00752652      -0.00482438      -0.00511174 </v>
   <v>       0.00262384       0.01003368       0.03637198 </v>
   <v>      -0.01014640       0.00599738      -0.00943986 </v>
   <v>      -0.00574333      -0.01007807       0.01576099 </v>
   <v>      -0.00361870       0.00612604      -0.01528267 </v>
   <v>      -0.00391112       0.00370502       0.03209462 </v>
   <v>       0.00461214      -0.00564280      -0.00830895 </v>
   <v>      -0.00091878      -0.00742751      -0.00420281 </v>
   <v>       0.00959390       0.00719652       0.00265872 </v>
   <v>       0.02858271       0.00073875      -0.03930099 </v>
   <v>      -0.00423667      -0.01463066       0.00673783 </v>
   <v>      -0.03642496       0.01645673      -0.03852001 </v>
   <v>      -0.00599268       0.02091744       0.01459815 </v>
   <v>      -0.03363146       0.04097912      -0.01443158 </v>
   <v>       0.00898476       0.00267097       0.06399111 </v>
   <v>       0.02886984       0.04096049      -0.01238872 </v>
   <v>       0.00246440      -0.00942567      -0.00471794 </v>
   <v>      -0.01172342       0.03131838      -0.00228668 </v>
   <v>      -0.01770895       0.01798199      -0.00878631 </v>
   <v>      -0.00907438      -0.00908739       0.03671629 </v>
   <v>      -0.03735990      -0.03613865       0.00503449 </v>
   <v>       0.00313736       0.00368009       0.04231825 </v>
   <v>      -0.00401431      -0.01184246      -0.02079676 </v>
   <v>      -0.00786927      -0.00345369       0.01434854 </v>
   <v>       0.01941390       0.02032909       0.00086750 </v>
   <v>       0.02964518      -0.01820674      -0.00374994 </v>
   <v>      -0.03401293      -0.03280122       0.02306999 </v>
   <v>       0.02203519       0.00532769       0.01359216 </v>
   <v>       0.00523548      -0.02527940       0.03249551 </v>
   <v>      -0.02478283      -0.00507283      -0.01378411 </v>
   <v>      -0.00280344       0.03352988      -0.02015721 </v>
   <v>       0.05801669      -0.03374826      -0.00729501 </v>
   <v>      -0.00424891      -0.00462362      -0.01620421 </v>
   <v>       0.00060861      -0.00328745      -0.00807423 </v>
   <v>       0.00556828       0.00084896      -0.01765572 </v>
   <v>      -0.00873128       0.00267110       0.00447681 </v>
   <v>      -0.00064929       0.01457930      -0.01398026 </v>
   <v>       0.01309949       0.00808843       0.00722676 </v>
   <v>      -0.00219091       0.00139523       0.00533947 </v>
   <v>       0.02185759      -0.00465853       0.00420364 </v>
   <v>       0.01236266      -0.02371386      -0.00183215 </v>
   <v>       0.02980687      -0.00025023      -0.00837195 </v>
   <v>       0.02904214      -0.02581325      -0.00225183 </v>
   <v>       0.01268227       0.01002915      -0.02882089 </v>
   <v>       0.00331039      -0.02896991       0.00308539 </v>
   <v>       0.00835890       0.01389264      -0.00463204 </v>
   <v>      -0.00905432      -0.00432320       0.00338709 </v>
   <v>      -0.02211962      -0.00789452      -0.00334088 </v>
   <v>      -0.00628020       0.01644775       0.01748966 </v>
   <v>      -0.03497606      -0.00597698      -0.00801658 </v>
   <v>      -0.01523194       0.02250983      -0.00537382 </v>
   <v>      -0.01962429      -0.01539605      -0.01144164 </v>
   <v>      -0.00018085       0.01991882      -0.00987454 </v>
   <v>      -0.02516921       0.00631685      -0.00784534 </v>
   <v>       0.00143951       0.02660969       0.01385726 </v>
   <v>       0.00736956       0.01964000      -0.00447883 </v>
   <v>       0.01983605       0.00909200      -0.00698787 </v>
   <v>       0.01232969       0.01043609      -0.03079815 </v>
   <v>       0.00869122       0.01936820       0.00875544 </v>
   <v>      -0.00616100       0.01242698      -0.01527003 </v>
   <v>       0.01713306       0.02163017       0.00590848 </v>
   <v>       0.00578265       0.00187435       0.00389303 </v>
   <v>      -0.00223572       0.01716917      -0.00534399 </v>
   <v>      -0.00686279      -0.02189074      -0.01847610 </v>
   <v>      -0.01455931      -0.01168459       0.00588626 </v>
   <v>      -0.02262969      -0.00998762      -0.02803611 </v>
   <v>      -0.00688571      -0.01119632       0.01423033 </v>
   <v>      -0.01588852      -0.01722114      -0.02127810 </v>
   <v>      -0.01786925      -0.01795413       0.00566533 </v>
   <v>       0.00644724       0.00427055      -0.00136267 </v>
   <v>       0.00495527      -0.00700239       0.00147286 </v>
   <v>       0.00020782      -0.00494346      -0.03546635 </v>
   <v>      -0.01981556      -0.02163851       0.00255136 </v>
   <v>      -0.01048778      -0.01511666       0.00710487 </v>
   <v>      -0.00648254      -0.00062519       0.00159542 </v>
   <v>      -0.01307835      -0.04172426       0.00694642 </v>
   <v>       0.00879919       0.01864614      -0.00460827 </v>
   <v>       0.01769426      -0.01598153      -0.00261906 </v>
   <v>       0.00910302      -0.00896301       0.00097924 </v>
   <v>       0.00067802       0.01789323       0.00611926 </v>
   <v>       0.00212444      -0.00049561       0.00139762 </v>
   <v>       0.01529319       0.03180569       0.00591175 </v>
   <v>      -0.01490453      -0.02130359       0.00279414 </v>
   <v>       0.00403943       0.03613208       0.00261991 </v>
   <v>       0.00226001      -0.01902737       0.01374900 </v>
   <v>       0.05626431      -0.03888723      -0.00038264 </v>
   <v>       0.00632658       0.00277451      -0.00018444 </v>
   <v>       0.03305940       0.04654689      -0.00719377 </v>
   <v>      -0.00577653       0.00565067       0.01025473 </v>
   <v>       0.00907047      -0.02156359       0.00548527 </v>
   <v>      -0.00433693       0.00560610      -0.00808451 </v>
   <v>      -0.00056393       0.00480962      -0.00386829 </v>
   <v>      -0.01904560       0.01330968      -0.00264672 </v>
   <v>      -0.02573990       0.02926845       0.00295532 </v>
   <v>      -0.01178416      -0.01528029      -0.00583213 </v>
   <v>       0.01357369      -0.01195326      -0.00344720 </v>
   <v>      -0.00673370      -0.00947153       0.00498903 </v>
   <v>      -0.01085567      -0.00516544       0.00036870 </v>
   <v>      -0.00551564      -0.00797575       0.00114562 </v>
   <v>       0.00108532      -0.01158575      -0.00327416 </v>
   <v>      -0.00350590       0.00363224      -0.00649885 </v>
   <v>      -0.00033738       0.02149518      -0.01804667 </v>
   <v>       0.00943360       0.00902721       0.00406641 </v>
   <v>       0.00128771      -0.01374108       0.01333325 </v>
   <v>      -0.01615581      -0.00672770       0.00106477 </v>
   <v>       0.01599230       0.00741591       0.01836572 </v>
   <v>      -0.00488468       0.00108450      -0.01514714 </v>
   <v>       0.00281365      -0.00369016       0.02871310 </v>
   <v>       0.00388533       0.01515523       0.00898383 </v>
   <v>       0.02381276       0.02660970       0.00503277 </v>
   <v>       0.00160359       0.00805382      -0.00219003 </v>
   <v>       0.02905827      -0.00575508       0.00609012 </v>
   <v>       0.00732663      -0.00219285      -0.00278859 </v>
   <v>      -0.01388597       0.00012131       0.00336879 </v>
   <v>       0.00914923      -0.00479463      -0.02961822 </v>
   <v>       0.00742467       0.00927183       0.01224395 </v>
   <v>      -0.00855404      -0.02043035      -0.03186937 </v>
   <v>      -0.02204514      -0.00211031      -0.04099961 </v>
   <v>       0.00589404       0.00617929      -0.01759370 </v>
   <v>       0.00695537      -0.00014319       0.02296750 </v>
   <v>      -0.01023781       0.00421081       0.00319840 </v>
   <v>       0.00244781       0.00386534      -0.00909635 </v>
   <v>      -0.00670920      -0.00552303      -0.00044209 </v>
   <v>       0.02237188       0.00700156      -0.04288591 </v>
   <v>      -0.01111533      -0.01509283       0.02283710 </v>
   <v>       0.00454977       0.00778101       0.03059829 </v>
   <v>      -0.01136792      -0.00628413       0.03954726 </v>
   <v>      -0.00118274      -0.00580513       0.02919582 </v>
   <v>       0.00809590      -0.00017690      -0.00486908 </v>
   <v>      -0.01342005      -0.00465221       0.00821851 </v>
   <v>       0.00511184      -0.01056693       0.01395625 </v>
  </varray>
  <varray name="stress" >
   <v>      -0.11952107       0.16462774      -0.05446193 </v>
   <v>       0.16462767       0.17317699      -0.04878466 </v>
   <v>      -0.05446243      -0.04878399      -0.22413577 </v>
  </varray>
  <energy>
   <i name="e_fr_energy">  -1117.53687706 </i>
   <i name="e_wo_entrp">  -1117.53687704 </i>
   <i name="e_0_energy">     -0.00000005 </i>
  </energy>
  <time name="totalsc"> 2002.31 2004.70</time>
 </calculation>
 <calculation>
  <scstep>
   <time name="dav">  566.52  566.57</time>
   <time name="total">  573.80  573.88</time>
   <energy>
    <i name="alphaZ">   5632.52731377 </i>
    <i name="ewald"> -61084.45932491 </i>
    <i name="hartreedc"> -16456.59696306 </i>
    <i name="XCdc">   2962.12221897 </i>
    <i name="pawpsdc"> 112550.53316670 </i>
    <i name="pawaedc">-111449.81533522 </i>
    <i name="eentropy">     -0.00000005 </i>
    <i name="bandstr">  -7055.29632087 </i>
    <i name="atom">  73783.44779670 </i>
    <i name="e_fr_energy">  -1117.53744797 </i>
    <i name="e_wo_entrp">  -1117.53744792 </i>
    <i name="e_0_energy">  -1117.53744794 </i>
   </energy>
  </scstep>
  <scstep>
   <time name="diag">   64.87   64.88</time>
   <time name="diis">  104.99  105.00</time>
   <time name="orth">   33.42   33.42</time>
   <time name="total">  210.58  210.60</time>
   <energy>
    <i name="e_fr_energy">  -1117.53997734 </i>
    <i name="e_wo_entrp">  -1117.53997730 </i>
    <i name="e_0_energy">  -1117.53997732 </i>
   </energy>
  </scstep>
  <scstep>
   <time name="diag">   64.87   64.88</time>
   <time name="diis">  108.76  108.77</time>
   <time name="orth">   33.48   33.48</time>
   <time name="total">  214.39  214.42</time>
   <energy>
    <i name="e_fr_energy">  -1117.53994069 </i>
    <i name="e_wo_entrp">  -1117.53994065 </i>
    <i name="e_0_energy">  -1117.53994067 </i>
   </energy>
  </scstep>
  <scstep>
   <time name="diag">   65.01   65.01</time>
   <time name="diis">   95.10   95.11</time>
   <time name="orth">   33.48   33.48</time>
   <time name="total">  200.88  200.96</time>
   <energy>
    <i name="e_fr_energy">  -1117.53972756 </i>
    <i name="e_wo_entrp">  -1117.53972751 </i>
    <i name="e_0_energy">  -1117.53972754 </i>
   </energy>
  </scstep>
  <scstep>
   <time name="diag">   65.02   65.02</time>
   <time name="diis">   72.98   72.98</time>
   <time name="orth">   33.50   33.50</time>
   <time name="total">  178.78  178.82</time>
   <energy>
    <i name="e_fr_energy">  -1117.53967353 </i>
    <i name="e_wo_entrp">  -1117.53967348 </i>
    <i name="e_0_energy">  -1117.53967351 </i>
   </energy>
  </scstep>
  <scstep>
   <time name="diag">   64.88   64.89</time>
   <time name="diis">   64.75   64.76</time>
   <time name="orth">   33.44   33.44</time>
   <time name="total">  170.35  170.42</time>
   <energy>
    <i name="e_fr_energy">  -1117.53967513 </i>
    <i name="e_wo_entrp">  -1117.53967509 </i>
    <i name="e_0_energy">  -1117.53967511 </i>
   </energy>
  </scstep>
  <scstep>
   <time name="diag">   65.01   65.01</time>
   <time name="diis">   63.95   63.96</time>
   <time name="orth">   33.32   33.33</time>
   <time name="total">  169.60  169.64</time>
   <energy>
    <i name="e_fr_energy">  -1117.53967666 </i>
    <i name="e_wo_entrp">  -1117.53967662 </i>
    <i name="e_0_energy">  -1117.53967664 </i>
   </energy>
  </scstep>
  <scstep>
   <time name="diag">   64.98   64.99</time>
   <time name="diis">   63.46   63.47</time>
   <time name="orth">   33.27   33.27</time>
   <time name="total">  162.77  162.88</time>
   <energy>
    <i name="alphaZ">   5632.52731377 </i>
    <i name="ewald"> -61084.45932491 </i>
    <i name="hartreedc"> -16456.00730625 </i>
    <i name="XCdc">   2962.05749337 </i>
    <i name="pawpsdc"> 112541.52611319 </i>
    <i name="pawaedc">-111440.82140916 </i>
    <i name="eentropy">     -0.00000005 </i>
    <i name="bandstr">  -7055.81035458 </i>
    <i name="atom">  73783.44779670 </i>
    <i name="e_fr_energy">  -1117.53967793 </i>
    <i name="e_wo_entrp">  -1117.53967788 </i>
    <i name="e_0_energy">  -1117.53967791 </i>
   </energy>
  </scstep>
  <structure>
   <crystal>
    <varray name="basis" >
     <v>      11.19699949      -0.00629995      -0.00274547 </v>
     <v>      -0.00632930      11.20057555      -0.00111649 </v>
     <v>      -0.00393174      -0.00160702      15.97607683 </v>
    </varray>
    <i name="volume">   2003.60436962 </i>
    <varray name="rec_basis" >
     <v>       0.08930967       0.00005047       0.00002198 </v>
     <v>       0.00005024       0.08928116       0.00000899 </v>
     <v>       0.00001535       0.00000625       0.06259359 </v>
    </varray>
   </crystal>
   <varray name="positions" >
    <v>       0.99025419       0.25048283       0.12712244 </v>
    <v>       0.99757456       0.25074241       0.63187289 </v>
    <v>       0.99741809       0.75214684       0.12509550 </v>
    <v>       0.99927863       0.74894198       0.63279983 </v>
    <v>       0.50948313       0.24804188       0.12799267 </v>
    <v>       0.50491357       0.25031579       0.63011170 </v>
    <v>       0.50239378       0.75057382       0.12456522 </v>
    <v>       0.50389645       0.74823074       0.63251741 </v>
    <v>       0.99858516       0.24829882       0.36679294 </v>
    <v>       0.98867818       0.25400124       0.87598587 </v>
    <v>       0.99528499       0.75208442       0.36562186 </v>
    <v>       0.99852396       0.74924176       0.87618671 </v>
    <v>       0.50513472       0.25157191       0.36822878 </v>
    <v>       0.51030619       0.24619066       0.87423281 </v>
    <v>       0.50731203       0.74725932       0.36566106 </v>
    <v>       0.50123823       0.75184744       0.87628683 </v>
    <v>       0.24917518       0.99898653       0.12658493 </v>
    <v>       0.25145324       0.00116650       0.63590329 </v>
    <v>       0.24890844       0.50204982       0.12577249 </v>
    <v>       0.25436538       0.49678334       0.63782496 </v>
    <v>       0.75035137       0.00306067       0.12560738 </v>
    <v>       0.74986320       0.99991864       0.63187278 </v>
    <v>       0.75136517       0.49720035       0.12551808 </v>
    <v>       0.74754125       0.50056756       0.63249024 </v>
    <v>       0.24847547       0.00324600       0.36498242 </v>
    <v>       0.25151448       0.99211518       0.87658542 </v>
    <v>       0.25650947       0.49663975       0.36384286 </v>
    <v>       0.24612418       0.50966388       0.87653548 </v>
    <v>       0.75250255       0.99891237       0.36568440 </v>
    <v>       0.74892865       0.00141138       0.87697037 </v>
    <v>       0.74628923       0.50149302       0.36500208 </v>
    <v>       0.75209962       0.49910019       0.87660894 </v>
    <v>       0.99831026       0.00209870       0.99934454 </v>
    <v>       0.99840371       0.49891033       0.99788264 </v>
    <v>       0.98778174       0.49303223       0.50018436 </v>
    <v>       0.50124243       0.00126040       0.99758875 </v>
    <v>       0.50894250       0.00361989       0.50039885 </v>
    <v>       0.50065725       0.49641866       0.99890318 </v>
    <v>       0.50773944       0.50161736       0.49979263 </v>
    <v>       0.25039387       0.25035629       0.01051286 </v>
    <v>       0.25511131       0.26081190       0.49884184 </v>
    <v>       0.25021762       0.75028049       0.00102757 </v>
    <v>       0.25254328       0.75429774       0.49968221 </v>
    <v>       0.75307761       0.24926406       0.49855743 </v>
    <v>       0.75031556       0.75023083       0.00227935 </v>
    <v>       0.75117283       0.74963915       0.49965676 </v>
    <v>       0.24996294       0.75018730       0.24818151 </v>
    <v>       0.25008179       0.74998962       0.75180473 </v>
    <v>       0.75041053       0.24991480       0.75038917 </v>
    <v>       0.75087927       0.75042799       0.75050436 </v>
    <v>       0.00004808       0.00330442       0.25002748 </v>
    <v>       0.00131657       0.00154823       0.75042545 </v>
    <v>       0.00150992       0.49994480       0.24852061 </v>
    <v>       0.49956819       0.00026167       0.24840925 </v>
    <v>       0.50055063       0.49738396       0.24773016 </v>
    <v>       0.50012484       0.49945712       0.75202108 </v>
    <v>       0.98793280       0.99502117       0.50075311 </v>
    <v>       0.74977934       0.25007124       0.00216403 </v>
    <v>       0.24922804       0.24912443       0.25267257 </v>
    <v>       0.24829012       0.24815960       0.74275017 </v>
    <v>       0.75050049       0.25002045       0.24971669 </v>
    <v>       0.75045553       0.75025393       0.24782411 </v>
    <v>       0.99971375       0.50244163       0.75111367 </v>
    <v>       0.50173301       0.99735167       0.75094297 </v>
    <v>       0.11376470       0.13622414       0.24538176 </v>
    <v>       0.11994504       0.14216276       0.76522006 </v>
    <v>       0.11520291       0.63842139       0.24703897 </v>
    <v>       0.11818709       0.63513855       0.75142836 </v>
    <v>       0.61299663       0.13168659       0.25661420 </v>
    <v>       0.61429128       0.13481136       0.74443639 </v>
    <v>       0.61357822       0.63167045       0.24638395 </v>
    <v>       0.61435095       0.63320947       0.74961118 </v>
    <v>       0.38446799       0.36404000       0.25882115 </v>
    <v>       0.38016669       0.35763624       0.74892713 </v>
    <v>       0.38484703       0.86176802       0.24921103 </v>
    <v>       0.38216468       0.86443594       0.74894601 </v>
    <v>       0.88703136       0.36948776       0.25759560 </v>
    <v>       0.88542131       0.36688563       0.74385700 </v>
    <v>       0.88702228       0.86813014       0.25236479 </v>
    <v>       0.88705216       0.86811615       0.74272903 </v>
    <v>       0.36402400       0.11257197       0.25087088 </v>
    <v>       0.35427964       0.12444364       0.76353286 </v>
    <v>       0.36318624       0.61356652       0.24994057 </v>
    <v>       0.36497102       0.61345288       0.75015370 </v>
    <v>       0.86643619       0.11485920       0.25071005 </v>
    <v>       0.86690881       0.11576093       0.74805940 </v>
    <v>       0.86856617       0.61510731       0.25173273 </v>
    <v>       0.86573576       0.61739354       0.74538723 </v>
    <v>       0.13683024       0.38829943       0.25206209 </v>
    <v>       0.14636874       0.37694291       0.76127798 </v>
    <v>       0.13731165       0.88612677       0.25022627 </v>
    <v>       0.13551053       0.88590080       0.74932755 </v>
    <v>       0.63235439       0.38444536       0.25025213 </v>
    <v>       0.63277671       0.38420992       0.74863815 </v>
    <v>       0.63270569       0.88531855       0.25012728 </v>
    <v>       0.63657126       0.88355010       0.74720624 </v>
    <v>       0.35696935       0.38462991       0.98549421 </v>
    <v>       0.35777425       0.38868266       0.49998247 </v>
    <v>       0.36063167       0.88908352       0.00093095 </v>
    <v>       0.86271769       0.39036894       0.99916513 </v>
    <v>       0.84935949       0.40204111       0.50019889 </v>
    <v>       0.86011403       0.88993001       0.99975563 </v>
    <v>       0.85163620       0.89528370       0.50276342 </v>
    <v>       0.14183957       0.11437472       0.99009960 </v>
    <v>       0.13949037       0.61077713       0.00102392 </v>
    <v>       0.63678270       0.10991019       0.99932160 </v>
    <v>       0.64040505       0.10544444       0.50012705 </v>
    <v>       0.63852409       0.60944364       0.99999697 </v>
    <v>       0.64712876       0.60280827       0.50228566 </v>
    <v>       0.11519445       0.35862316       0.98956987 </v>
    <v>       0.10360384       0.35236268       0.50009596 </v>
    <v>       0.11129980       0.86109546       0.99885031 </v>
    <v>       0.13480635       0.88473063       0.50173542 </v>
    <v>       0.60836672       0.36163890       0.99920961 </v>
    <v>       0.60267918       0.35351008       0.50083190 </v>
    <v>       0.60966556       0.85960267       0.99987163 </v>
    <v>       0.59453209       0.85144389       0.50202164 </v>
    <v>       0.38426758       0.14104340       0.98888593 </v>
    <v>       0.36167078       0.11420651       0.50032859 </v>
    <v>       0.38891170       0.63801800       0.99919374 </v>
    <v>       0.38710713       0.64086480       0.50065553 </v>
    <v>       0.89100981       0.13783698       0.99908405 </v>
    <v>       0.89951099       0.15102272       0.50101385 </v>
    <v>       0.89043991       0.63990647       0.00042981 </v>
    <v>       0.90572516       0.65056887       0.50182928 </v>
    <v>       0.00333604       0.00053119       0.12302595 </v>
    <v>       0.01565824       0.01649182       0.62417195 </v>
    <v>       0.00248485       0.49376967       0.12459825 </v>
    <v>       0.02334142       0.50945450       0.61869095 </v>
    <v>       0.49697376       0.00478927       0.12414638 </v>
    <v>       0.48432044       0.99428064       0.62126974 </v>
    <v>       0.48956686       0.49122622       0.12312796 </v>
    <v>       0.49722622       0.49754592       0.62535119 </v>
    <v>       0.00884646       0.00860229       0.37853271 </v>
    <v>       0.99517472       0.99454386       0.87300780 </v>
    <v>       0.02063396       0.51519929       0.38231801 </v>
    <v>       0.99699790       0.50304462       0.87472569 </v>
    <v>       0.48631522       0.98762148       0.38012790 </v>
    <v>       0.50228105       0.99629779       0.87450737 </v>
    <v>       0.50216090       0.50284046       0.37695515 </v>
    <v>       0.50110339       0.50002332       0.87317815 </v>
    <v>       0.23545332       0.23646773       0.38103251 </v>
    <v>       0.24786699       0.74735247       0.37789430 </v>
    <v>       0.25099164       0.75026572       0.87528857 </v>
    <v>       0.74877846       0.25010141       0.37857993 </v>
    <v>       0.75024873       0.25037710       0.87186511 </v>
    <v>       0.74807241       0.74870380       0.37833507 </v>
    <v>       0.75294934       0.75081196       0.87365061 </v>
    <v>       0.25465872       0.25422485       0.12472530 </v>
    <v>       0.23523138       0.23577783       0.62095777 </v>
    <v>       0.25081529       0.75050274       0.12467259 </v>
    <v>       0.24819378       0.74623651       0.62205982 </v>
    <v>       0.75067665       0.25053823       0.12638557 </v>
    <v>       0.74854950       0.25029071       0.62257878 </v>
    <v>       0.75180566       0.75073535       0.12316714 </v>
    <v>       0.74735709       0.74833424       0.62378267 </v>
   </varray>
  </structure>
  <varray name="forces" >
   <v>      -0.02139176      -0.00054929      -0.00513712 </v>
   <v>      -0.00608311      -0.01858269      -0.01124957 </v>
   <v>       0.00222041       0.00757025       0.00139860 </v>
   <v>      -0.02073744      -0.00644805      -0.00154693 </v>
   <v>       0.01179083      -0.00543003      -0.00346969 </v>
   <v>       0.01288284       0.00304913       0.01700186 </v>
   <v>      -0.00562983      -0.01220157      -0.00198347 </v>
   <v>       0.02715013       0.00887783      -0.00440285 </v>
   <v>      -0.00068326      -0.02014713       0.01418386 </v>
   <v>       0.00164337       0.00259966      -0.00710379 </v>
   <v>      -0.01914908      -0.00963554       0.01112136 </v>
   <v>       0.00850903       0.00164658       0.00169636 </v>
   <v>       0.00451812       0.00483340      -0.00023065 </v>
   <v>      -0.00577049       0.00304642       0.02460415 </v>
   <v>       0.01893702       0.00261085       0.02179586 </v>
   <v>      -0.00297319      -0.00806990      -0.01522326 </v>
   <v>      -0.00083444      -0.01891438      -0.00039195 </v>
   <v>       0.00443150       0.01269774       0.00180218 </v>
   <v>      -0.00979870       0.01899952       0.00051079 </v>
   <v>      -0.01615583       0.00699948       0.00527651 </v>
   <v>       0.00041128       0.00619396      -0.00558473 </v>
   <v>       0.00333681      -0.00007347      -0.01364146 </v>
   <v>       0.00326548      -0.01150375      -0.00114524 </v>
   <v>      -0.00520689      -0.00837440      -0.00732486 </v>
   <v>      -0.00786435       0.01438773       0.01287852 </v>
   <v>       0.00632023       0.00392174      -0.00700507 </v>
   <v>       0.00102807       0.00158475       0.00557312 </v>
   <v>      -0.00055336      -0.00722352      -0.00737643 </v>
   <v>       0.01170385      -0.00060446       0.01681798 </v>
   <v>      -0.00760871       0.00610212      -0.00878660 </v>
   <v>      -0.00591536      -0.00543747       0.00900285 </v>
   <v>      -0.00368671      -0.00306116      -0.00860835 </v>
   <v>       0.01856336       0.01204540       0.00041462 </v>
   <v>       0.01282493      -0.01558667       0.00327257 </v>
   <v>      -0.02820901      -0.03917584       0.03662144 </v>
   <v>      -0.02213886       0.00543176       0.00539443 </v>
   <v>       0.02303554       0.05548898       0.02813750 </v>
   <v>      -0.01967983      -0.01338752      -0.01990105 </v>
   <v>      -0.00371173      -0.01161272       0.00194412 </v>
   <v>       0.00261567       0.00264911      -0.07597921 </v>
   <v>      -0.03278218      -0.05310543       0.00776885 </v>
   <v>      -0.01304169       0.01193204       0.00719018 </v>
   <v>      -0.01387417       0.02816838       0.01344098 </v>
   <v>       0.00541385      -0.01283338       0.01619122 </v>
   <v>      -0.00569023      -0.00478464      -0.00291935 </v>
   <v>       0.01279142       0.03519792      -0.00979550 </v>
   <v>      -0.00137727      -0.00287792      -0.04104794 </v>
   <v>       0.01030432       0.01372450       0.01932327 </v>
   <v>      -0.00849393       0.00967426      -0.01414288 </v>
   <v>      -0.00663843      -0.00684810       0.02661864 </v>
   <v>      -0.01029567       0.01023408      -0.01461827 </v>
   <v>       0.02563251       0.02031352      -0.00132792 </v>
   <v>      -0.01364207      -0.01712559      -0.01806487 </v>
   <v>      -0.00904963       0.02140267      -0.02055032 </v>
   <v>       0.00466461      -0.00002036      -0.02510142 </v>
   <v>      -0.00020286      -0.01175297       0.04083044 </v>
   <v>      -0.00091163       0.00732979       0.00955667 </v>
   <v>      -0.00436655       0.00184454       0.00596148 </v>
   <v>      -0.00001296      -0.01166642      -0.00424981 </v>
   <v>      -0.00208593      -0.00553658       0.00577496 </v>
   <v>       0.00305616      -0.00450509       0.00241680 </v>
   <v>       0.00330164      -0.00232207       0.00213029 </v>
   <v>       0.00415985      -0.01165006       0.00356459 </v>
   <v>      -0.00971247       0.00402908       0.00557827 </v>
   <v>       0.01590719      -0.01423574      -0.00073298 </v>
   <v>       0.01628820      -0.01795633      -0.00352642 </v>
   <v>       0.00943954      -0.01938393       0.00409539 </v>
   <v>       0.01925499      -0.02034832      -0.00756094 </v>
[...]
       <r>   -16.3005     0.0000    32.0000 </r>
       <r>   -16.1478     0.0000    32.0000 </r>
       <r>   -15.9952     0.0000    32.0000 </r>
       <r>   -15.8425     0.0000    32.0000 </r>
       <r>   -15.6898     0.0000    32.0000 </r>
       <r>   -15.5372     0.0000    32.0000 </r>
       <r>   -15.3845     0.0001    32.0000 </r>
       <r>   -15.2318     4.0293    32.6152 </r>
       <r>   -15.0792    17.5099    35.2884 </r>
       <r>   -14.9265    31.9557    40.1670 </r>
       <r>   -14.7738    48.7498    47.6095 </r>
       <r>   -14.6211    44.2909    54.3713 </r>
       <r>   -14.4685    33.2436    59.4466 </r>
       <r>   -14.3158    41.7758    65.8244 </r>
       <r>   -14.1631    56.3011    74.4198 </r>
       <r>   -14.0105    96.4157    89.1394 </r>
       <r>   -13.8578   118.4723   107.2264 </r>
       <r>   -13.7051    75.3341   118.7275 </r>
       <r>   -13.5525    28.2444   123.0395 </r>
       <r>   -13.3998     6.2776   123.9979 </r>
       <r>   -13.2471     0.0137   124.0000 </r>
       <r>   -13.0945     0.0000   124.0000 </r>
       <r>   -12.9418     0.0000   124.0000 </r>
       <r>   -12.7891     0.0406   124.0062 </r>
       <r>   -12.6365    20.8544   127.1900 </r>
       <r>   -12.4838    89.4569   140.8472 </r>
       <r>   -12.3311   168.4420   166.5630 </r>
       <r>   -12.1785   128.6091   186.1975 </r>
       <r>   -12.0258   122.4583   204.8930 </r>
       <r>   -11.8731    85.7126   217.9786 </r>
       <r>   -11.7204    13.2387   219.9997 </r>
       <r>   -11.5678     0.0019   220.0000 </r>
       <r>   -11.4151     0.0000   220.0000 </r>
       <r>   -11.2624     0.0000   220.0000 </r>
       <r>   -11.1098     0.0000   220.0000 </r>
       <r>   -10.9571     0.0000   220.0000 </r>
       <r>   -10.8044     0.0000   220.0000 </r>
       <r>   -10.6518     0.0000   220.0000 </r>
       <r>   -10.4991     0.0000   220.0000 </r>
       <r>   -10.3464     0.0000   220.0000 </r>
       <r>   -10.1938     0.0000   220.0000 </r>
       <r>   -10.0411     0.0000   220.0000 </r>
       <r>    -9.8884     0.0000   220.0000 </r>
       <r>    -9.7358     0.0000   220.0000 </r>
       <r>    -9.5831     0.0000   220.0000 </r>
       <r>    -9.4304     0.0000   220.0000 </r>
       <r>    -9.2778     0.0000   220.0000 </r>
       <r>    -9.1251     0.0000   220.0000 </r>
       <r>    -8.9724     0.0000   220.0000 </r>
       <r>    -8.8198     0.0000   220.0000 </r>
       <r>    -8.6671     0.0000   220.0000 </r>
       <r>    -8.5144     0.0000   220.0000 </r>
       <r>    -8.3617     0.0000   220.0000 </r>
       <r>    -8.2091     0.0000   220.0000 </r>
       <r>    -8.0564     0.0000   220.0000 </r>
       <r>    -7.9037     0.0000   220.0000 </r>
       <r>    -7.7511     0.0000   220.0000 </r>
       <r>    -7.5984     0.0000   220.0000 </r>
       <r>    -7.4457     0.0000   220.0000 </r>
       <r>    -7.2931     0.0000   220.0000 </r>
       <r>    -7.1404     0.0000   220.0000 </r>
       <r>    -6.9877     0.0000   220.0000 </r>
       <r>    -6.8351     0.0000   220.0000 </r>
       <r>    -6.6824     0.0000   220.0000 </r>
       <r>    -6.5297     0.0000   220.0000 </r>
       <r>    -6.3771     0.0000   220.0000 </r>
       <r>    -6.2244     0.0000   220.0000 </r>
       <r>    -6.0717     0.0000   220.0000 </r>
       <r>    -5.9191     0.0000   220.0000 </r>
       <r>    -5.7664     0.0000   220.0000 </r>
       <r>    -5.6137     0.0000   220.0000 </r>
       <r>    -5.4611     0.0000   220.0000 </r>
       <r>    -5.3084     0.0000   220.0000 </r>
       <r>    -5.1557     0.0000   220.0000 </r>
       <r>    -5.0030     0.0000   220.0000 </r>
       <r>    -4.8504     0.0991   220.0151 </r>
       <r>    -4.6977    11.1975   221.7246 </r>
       <r>    -4.5450     9.5615   223.1844 </r>
       <r>    -4.3924     5.3423   224.0000 </r>
       <r>    -4.2397     0.0001   224.0000 </r>
       <r>    -4.0870     1.1048   224.1687 </r>
       <r>    -3.9344     5.4428   224.9996 </r>
       <r>    -3.7817     0.0026   225.0000 </r>
       <r>    -3.6290     0.0000   225.0000 </r>
       <r>    -3.4764     0.0000   225.0000 </r>
       <r>    -3.3237     0.0000   225.0000 </r>
       <r>    -3.1710     0.0000   225.0000 </r>
       <r>    -3.0184     0.0000   225.0000 </r>
       <r>    -2.8657     0.0000   225.0000 </r>
       <r>    -2.7130     0.0000   225.0000 </r>
       <r>    -2.5604     2.4928   225.3806 </r>
       <r>    -2.4077     4.0624   226.0008 </r>
       <r>    -2.2550     8.0212   227.2254 </r>
       <r>    -2.1024    20.7937   230.3999 </r>
       <r>    -1.9497    29.5028   234.9040 </r>
       <r>    -1.7970    31.5097   239.7146 </r>
       <r>    -1.6443    38.8202   245.6412 </r>
       <r>    -1.4917    53.9763   253.8816 </r>
       <r>    -1.3390    59.9314   263.0313 </r>
       <r>    -1.1863    73.2299   274.2112 </r>
       <r>    -1.0337    72.1750   285.2300 </r>
       <r>    -0.8810    74.7275   296.6385 </r>
       <r>    -0.7283    72.4290   307.6961 </r>
       <r>    -0.5757    98.7808   322.7768 </r>
       <r>    -0.4230   108.3697   339.3214 </r>
       <r>    -0.2703    80.8351   351.6623 </r>
       <r>    -0.1177    53.4713   359.8257 </r>
       <r>     0.0350    51.5155   367.6905 </r>
       <r>     0.1877    45.8916   374.6967 </r>
       <r>     0.3403    47.9630   382.0191 </r>
       <r>     0.4930    51.9965   389.9573 </r>
       <r>     0.6457    57.8860   398.7947 </r>
       <r>     0.7983    53.6784   406.9897 </r>
       <r>     0.9510    50.6463   414.7217 </r>
       <r>     1.1037    63.5441   424.4229 </r>
       <r>     1.2564    72.4933   435.4903 </r>
       <r>     1.4090    83.0717   448.1727 </r>
       <r>     1.5617    89.6269   461.8559 </r>
       <r>     1.7144    80.7881   474.1897 </r>
       <r>     1.8670    67.2023   484.4494 </r>
       <r>     2.0197    40.5389   490.6384 </r>
       <r>     2.1724    34.8805   495.9635 </r>
       <r>     2.3250    24.0617   499.6370 </r>
       <r>     2.4777     2.3780   500.0000 </r>
       <r>     2.6304     0.0000   500.0000 </r>
       <r>     2.7830     3.1302   500.4779 </r>
       <r>     2.9357     3.4198   501.0000 </r>
       <r>     3.0884     0.0001   501.0000 </r>
       <r>     3.2410     0.0000   501.0000 </r>
       <r>     3.3937     0.0000   501.0000 </r>
       <r>     3.5464     0.0000   501.0000 </r>
       <r>     3.6990     0.0000   501.0000 </r>
       <r>     3.8517     0.0000   501.0000 </r>
       <r>     4.0044     0.0000   501.0000 </r>
       <r>     4.1570     0.0001   501.0000 </r>
       <r>     4.3097     1.9359   501.2956 </r>
       <r>     4.4624     7.3771   502.4218 </r>
       <r>     4.6151    12.7872   504.3740 </r>
       <r>     4.7677    29.4866   508.8757 </r>
       <r>     4.9204    36.2497   514.4099 </r>
       <r>     5.0731    39.3234   520.4133 </r>
       <r>     5.2257    47.0520   527.5966 </r>
       <r>     5.3784    57.0916   536.3127 </r>
       <r>     5.5311    63.7647   546.0476 </r>
       <r>     5.6837    68.2040   556.4602 </r>
       <r>     5.8364    65.3373   566.4351 </r>
       <r>     5.9891    79.5337   578.5774 </r>
       <r>     6.1417    89.0887   592.1784 </r>
       <r>     6.2944    79.1670   604.2647 </r>
       <r>     6.4471    46.1804   611.3149 </r>
       <r>     6.5997    23.1116   614.8434 </r>
       <r>     6.7524    21.6006   618.1411 </r>
       <r>     6.9051    16.2635   620.6240 </r>
       <r>     7.0577    18.8234   623.4977 </r>
       <r>     7.2104    18.5545   626.3304 </r>
       <r>     7.3631    15.1277   628.6399 </r>
       <r>     7.5157    14.0346   630.7826 </r>
       <r>     7.6684    12.3444   632.6672 </r>
       <r>     7.8211    16.1870   635.1384 </r>
       <r>     7.9738    21.1021   638.3600 </r>
       <r>     8.1264    24.0835   642.0368 </r>
       <r>     8.2791    24.6514   645.8003 </r>
       <r>     8.4318    30.9764   650.5294 </r>
       <r>     8.5844    21.8795   653.8697 </r>
       <r>     8.7371    24.1733   657.5602 </r>
       <r>     8.8898    29.1560   662.0114 </r>
       <r>     9.0424    34.9321   667.3444 </r>
       <r>     9.1951    42.1193   673.7747 </r>
       <r>     9.3478    36.7845   679.3905 </r>
       <r>     9.5004    42.6078   685.8954 </r>
       <r>     9.6531    44.0291   692.6172 </r>
       <r>     9.8058    54.3864   700.9203 </r>
       <r>     9.9584    61.3047   710.2796 </r>
       <r>    10.1111    67.5175   720.5874 </r>
       <r>    10.2638    66.7304   730.7750 </r>
       <r>    10.4164    58.7810   739.7490 </r>
       <r>    10.5691    57.7046   748.5586 </r>
       <r>    10.7218    56.9413   757.2518 </r>
       <r>    10.8744    52.7095   765.2988 </r>
       <r>    11.0271    17.6844   767.9987 </r>
       <r>    11.1798     0.0086   768.0000 </r>
       <r>    11.3325     0.0000   768.0000 </r>
       <r>    11.4851     0.0000   768.0000 </r>
       <r>    11.6378     0.0000   768.0000 </r>
       <r>    11.7905     0.0000   768.0000 </r>
       <r>    11.9431     0.0000   768.0000 </r>
       <r>    12.0958     0.0000   768.0000 </r>
       <r>    12.2485     0.0000   768.0000 </r>
       <r>    12.4011     0.0000   768.0000 </r>
       <r>    12.5538     0.0000   768.0000 </r>
       <r>    12.7065     0.0000   768.0000 </r>
       <r>    12.8591     0.0000   768.0000 </r>
       <r>    13.0118     0.0000   768.0000 </r>
      </set>
     </set>
    </array>
   </total>
  </dos>
 </calculation>
 <structure name="finalpos" >
  <crystal>
   <varray name="basis" >
    <v>      11.19977821      -0.00531737      -0.00301062 </v>
    <v>      -0.00534637      11.20573737      -0.00211228 </v>
    <v>      -0.00431478      -0.00303017      15.96566644 </v>
   </varray>
   <i name="volume">   2003.71877844 </i>
   <varray name="rec_basis" >
    <v>       0.08928751       0.00004260       0.00002414 </v>
    <v>       0.00004237       0.08924002       0.00001695 </v>
    <v>       0.00001684       0.00001181       0.06263441 </v>
   </varray>
  </crystal>
  <varray name="positions" >
   <v>       0.98952027       0.25015918       0.12706077 </v>
   <v>       0.99744848       0.25103503       0.63185338 </v>
   <v>       0.99707677       0.75215369       0.12509190 </v>
   <v>       0.99768162       0.74790502       0.63357414 </v>
   <v>       0.50947688       0.24766797       0.12838468 </v>
   <v>       0.50496818       0.25034494       0.63079422 </v>
   <v>       0.50178383       0.75059751       0.12472841 </v>
   <v>       0.50527396       0.74850405       0.63230877 </v>
   <v>       0.99851485       0.24784563       0.36661512 </v>
   <v>       0.98879729       0.25391511       0.87596650 </v>
   <v>       0.99378175       0.75049440       0.36507212 </v>
   <v>       0.99859507       0.74924586       0.87638388 </v>
   <v>       0.50488455       0.25154327       0.36826342 </v>
   <v>       0.50986122       0.24646954       0.87478201 </v>
   <v>       0.50817542       0.74731897       0.36587560 </v>
   <v>       0.50077261       0.75168413       0.87581779 </v>
   <v>       0.24889774       0.99848635       0.12679763 </v>
   <v>       0.25138027       0.00166205       0.63563745 </v>
   <v>       0.24805164       0.50268264       0.12612721 </v>
   <v>       0.25425817       0.49758228       0.63790018 </v>
   <v>       0.75007843       0.00296463       0.12571620 </v>
   <v>       0.75123602       0.00005636       0.63153799 </v>
   <v>       0.75111956       0.49677933       0.12568267 </v>
   <v>       0.74753327       0.50068177       0.63248710 </v>
   <v>       0.24786778       0.00318841       0.36500409 </v>
   <v>       0.25174527       0.99255646       0.87614201 </v>
   <v>       0.25611003       0.49712575       0.36375896 </v>
   <v>       0.24551657       0.50982920       0.87604357 </v>
   <v>       0.75300952       0.99872928       0.36590613 </v>
   <v>       0.74851035       0.00170820       0.87657597 </v>
   <v>       0.74560998       0.50119667       0.36516903 </v>
   <v>       0.75197138       0.49911874       0.87668611 </v>
   <v>       0.99819547       0.00202976       0.99940024 </v>
   <v>       0.99806104       0.49873247       0.99826180 </v>
   <v>       0.98820384       0.49217616       0.50015329 </v>
   <v>       0.50086948       0.00085768       0.99765110 </v>
   <v>       0.50916366       0.00447819       0.50044047 </v>
   <v>       0.50025226       0.49632632       0.99880806 </v>
   <v>       0.50724124       0.50205839       0.49978677 </v>
   <v>       0.25081978       0.25052452       0.01050905 </v>
   <v>       0.25558095       0.26110971       0.49870551 </v>
   <v>       0.24991707       0.75031318       0.00100661 </v>
   <v>       0.25324254       0.75623834       0.49958252 </v>
   <v>       0.75269904       0.24937137       0.49864316 </v>
   <v>       0.74989212       0.75012352       0.00230858 </v>
   <v>       0.75171065       0.74977086       0.49973519 </v>
   <v>       0.24931137       0.74992444       0.24836028 </v>
   <v>       0.24972549       0.75010494       0.75138891 </v>
   <v>       0.75026105       0.25005027       0.75046313 </v>
   <v>       0.75080302       0.75030987       0.75065546 </v>
   <v>      -0.00025497       0.00291086       0.24996344 </v>
   <v>       0.00166908       0.00172567       0.75051694 </v>
   <v>       0.00111420       0.49951184       0.24855614 </v>
   <v>       0.49915216       0.00003360       0.24872804 </v>
   <v>       0.49999203       0.49734385       0.24759910 </v>
   <v>       0.50007163       0.49950431       0.75194891 </v>
   <v>       0.99010948       0.99600034       0.50064376 </v>
   <v>       0.74946806       0.24996074       0.00219738 </v>
   <v>       0.24928372       0.24895291       0.25261092 </v>
   <v>       0.24861345       0.24823184       0.74293989 </v>
   <v>       0.75014446       0.24974368       0.24983158 </v>
   <v>       0.75005761       0.75013796       0.24780265 </v>
   <v>       0.99996055       0.50201948       0.75125240 </v>
   <v>       0.50157691       0.99734520       0.75079800 </v>
   <v>       0.11568382       0.13404785       0.24419591 </v>
   <v>       0.12311117       0.13973210       0.76611866 </v>
   <v>       0.11632162       0.63627434       0.24611769 </v>
   <v>       0.12016082       0.63266247       0.75171449 </v>
   <v>       0.61413605       0.13002899       0.25642940 </v>
   <v>       0.61643665       0.13271737       0.74475395 </v>
   <v>       0.61438406       0.63052439       0.24575995 </v>
   <v>       0.61676481       0.63126069       0.74837452 </v>
   <v>       0.38296974       0.36556161       0.25999441 </v>
   <v>       0.37811865       0.36064232       0.74945279 </v>
   <v>       0.38246948       0.86326121       0.25025573 </v>
   <v>       0.38015034       0.86624312       0.74796206 </v>
   <v>       0.88523800       0.37056960       0.25797887 </v>
   <v>       0.88353916       0.36892859       0.74361925 </v>
   <v>       0.88523421       0.86927609       0.25274054 </v>
   <v>       0.88516376       0.87027275       0.74335473 </v>
   <v>       0.36579534       0.11405793       0.25116583 </v>
   <v>       0.35739291       0.12694121       0.76365084 </v>
   <v>       0.36432397       0.61501176       0.25017022 </v>
   <v>       0.36717364       0.61595137       0.75019498 </v>
   <v>       0.86771549       0.11606198       0.25113344 </v>
   <v>       0.86934840       0.11822704       0.74866449 </v>
   <v>       0.86957668       0.61624180       0.25266187 </v>
   <v>       0.86837867       0.61953532       0.74517507 </v>
   <v>       0.13514087       0.38641421       0.25149426 </v>
   <v>       0.14421452       0.37470224       0.76163052 </v>
   <v>       0.13528438       0.88428039       0.24976360 </v>
   <v>       0.13347988       0.88390750       0.74871237 </v>
   <v>       0.63047074       0.38306043       0.24937194 </v>
   <v>       0.63071937       0.38218736       0.74776580 </v>
   <v>       0.63106114       0.88377744       0.25061936 </v>
   <v>       0.63499642       0.88178508       0.74689953 </v>
   <v>       0.35722698       0.38360653       0.98262075 </v>
   <v>       0.35703919       0.39030101       0.49918417 </v>
   <v>       0.36049279       0.88848935       0.00080563 </v>
   <v>       0.86235032       0.39022067       0.99922087 </v>
   <v>       0.85000828       0.40117075       0.50018883 </v>
   <v>       0.85977434       0.88962912       0.99888828 </v>
   <v>       0.85625125       0.89290357       0.50276419 </v>
   <v>       0.14168119       0.11446000       0.99137193 </v>
   <v>       0.13883087       0.61104011       0.00131022 </v>
   <v>       0.63617725       0.10971581       0.99930155 </v>
   <v>       0.64025780       0.10605073       0.50001402 </v>
   <v>       0.63801646       0.60927786       0.00109107 </v>
   <v>       0.64675001       0.60361001       0.50269143 </v>
   <v>       0.11482280       0.35843732       0.99122251 </v>
   <v>       0.10357041       0.35147096       0.49996533 </v>
   <v>       0.11106977       0.86093717       0.99929139 </v>
   <v>       0.14386111       0.89406689       0.50152283 </v>
   <v>       0.60808835       0.36167360       0.99988558 </v>
   <v>       0.60251284       0.35420115       0.50135234 </v>
   <v>       0.60946295       0.85929807       0.99978582 </v>
   <v>       0.59666072       0.85268138       0.50218129 </v>
   <v>       0.38391545       0.14019177       0.98869220 </v>
   <v>       0.36463378       0.11743031       0.50018247 </v>
   <v>       0.38794517       0.63728917       0.99865265 </v>
   <v>       0.38783340       0.64270899       0.50007388 </v>
   <v>       0.89049290       0.13746799       0.99869244 </v>
   <v>       0.89889526       0.15006574       0.50070342 </v>
   <v>       0.88986834       0.63961162       0.00018788 </v>
   <v>       0.90593263       0.64913087       0.50180220 </v>
   <v>       0.00155874      -0.00025736       0.12303688 </v>
   <v>       0.01552538       0.01699729       0.62441790 </v>
   <v>       0.00092569       0.49403633       0.12474567 </v>
   <v>       0.02384497       0.50836368       0.61862353 </v>
   <v>       0.49618304       0.00333478       0.12427149 </v>
   <v>       0.48432253       0.99487069       0.62109575 </v>
   <v>       0.48710788       0.49061225       0.12299099 </v>
   <v>       0.49607991       0.49784179       0.62500615 </v>
   <v>       0.00942188       0.00877290       0.37823238 </v>
   <v>       0.99657394       0.99481161       0.87318332 </v>
   <v>       0.02140033       0.51458043       0.38222451 </v>
   <v>       0.99766007       0.50218566       0.87500036 </v>
   <v>       0.48596023       0.98717765       0.38039142 </v>
   <v>       0.50187301       0.99535282       0.87441571 </v>
   <v>       0.50316105       0.50331273       0.37694030 </v>
   <v>       0.50344470       0.50145551       0.87296701 </v>
   <v>       0.23456957       0.23561598       0.38099803 </v>
   <v>       0.24389443       0.74538073       0.37811165 </v>
   <v>       0.25052507       0.75087898       0.87505511 </v>
   <v>       0.74781331       0.25036346       0.37854245 </v>
   <v>       0.74969796       0.25106525       0.87201279 </v>
   <v>       0.74802888       0.74863855       0.37843583 </v>
   <v>       0.75186992       0.74940539       0.87362788 </v>
   <v>       0.25838080       0.25569137       0.12483902 </v>
   <v>       0.23548446       0.23585477       0.62095479 </v>
   <v>       0.25146712       0.75050115       0.12475051 </v>
   <v>       0.24563179       0.74452426       0.62155167 </v>
   <v>       0.75109495       0.24977323       0.12637242 </v>
   <v>       0.74891715       0.24956258       0.62264204 </v>
   <v>       0.75213156       0.75118321       0.12328417 </v>
   <v>       0.74865513       0.74867251       0.62373972 </v>
  </varray>
 </structure>
</modeling>
