<?xml version="1.0" encoding="ISO-8859-1"?>
<modeling>
 <generator>
  <i name="program" type="string">vasp </i>
  <i name="version" type="string">5.4.1  </i>
  <i name="subversion" type="string">05Feb16 (build Jan 25 2017 20:16:33) complex                          parallel </i>
  <i name="platform" type="string">BWXE6 </i>
  <i name="date" type="string">2019 07 18 </i>
  <i name="time" type="string">10:25:23 </i>
 </generator>
 <incar>
  <i type="string" name="SYSTEM"> STF</i>
  <i type="string" name="PREC">normal</i>
  <i type="string" name="ALGO"> Fast</i>
  <i type="int" name="ISPIN">     2</i>
  <i type="int" name="NELM">    40</i>
  <i type="int" name="NELMIN">     8</i>
  <i type="int" name="IBRION">     2</i>
  <i name="EDIFF">      0.00010000</i>
  <i name="EDIFFG">     -0.03000000</i>
  <i type="int" name="NSW">    30</i>
  <i type="int" name="ISIF">     3</i>
  <i name="ENCUT">    520.00000000</i>
  <i type="int" name="NBANDS">   768</i>
  <v name="MAGMOM">      0.60000000      0.60000000      0.60000000      0.60000000      0.60000000      0.60000000      0.60000000      0.60000000      0.60000000      0.60000000      0.60000000      0.60000000      0.60000000      0.60000000      0.60000000      0.60000000      0.60000000      0.60000000      0.60000000      0.60000000
      0.60000000      0.60000000      0.60000000      0.60000000      0.60000000      0.60000000      0.60000000      0.60000000      0.60000000      0.60000000      0.60000000      0.60000000      0.60000000      0.60000000      0.60000000      0.60000000      0.60000000      0.60000000      0.60000000      0.60000000
      0.60000000      0.60000000      0.60000000      0.60000000      0.60000000      0.60000000      0.60000000      0.60000000      5.00000000      5.00000000      5.00000000      5.00000000      5.00000000      5.00000000      5.00000000      5.00000000      5.00000000      5.00000000      5.00000000      5.00000000
      5.00000000      5.00000000      5.00000000      5.00000000      0.60000000      0.60000000      0.60000000      0.60000000      0.60000000      0.60000000      0.60000000      0.60000000      0.60000000      0.60000000      0.60000000      0.60000000      0.60000000      0.60000000      0.60000000      0.60000000
      0.60000000      0.60000000      0.60000000      0.60000000      0.60000000      0.60000000      0.60000000      0.60000000      0.60000000      0.60000000      0.60000000      0.60000000      0.60000000      0.60000000      0.60000000      0.60000000      0.60000000      0.60000000      0.60000000      0.60000000
      0.60000000      0.60000000      0.60000000      0.60000000      0.60000000      0.60000000      0.60000000      0.60000000      0.60000000      0.60000000      0.60000000      0.60000000      0.60000000      0.60000000      0.60000000      0.60000000      0.60000000      0.60000000      0.60000000      0.60000000
      0.60000000      0.60000000      0.60000000      0.60000000      0.60000000      0.60000000      0.60000000      0.60000000      0.60000000      0.60000000      0.60000000      0.60000000      0.60000000      0.60000000      0.60000000      0.60000000      0.60000000      0.60000000      0.60000000      0.60000000
      0.60000000      0.60000000      0.60000000      0.60000000      0.60000000      0.60000000      0.60000000      0.60000000      0.60000000      0.60000000      0.60000000      0.60000000</v>
  <i type="string" name="LREAL"> Auto</i>
  <i type="int" name="ISMEAR">     0</i>
  <i name="SIGMA">      0.05000000</i>
  <i type="int" name="LMAXMIX">     4</i>
  <v type="int" name="KPOINT_BSE">    -1     0     0     0</v>
  <i type="int" name="NELM">    40</i>
  <i type="logical" name="LDAU"> T  </i>
  <v type="int" name="LDAUTYPE">     2</v>
  <v type="int" name="LDAUL">     0     2     2     0</v>
  <v name="LDAUU">      0.00000000      3.00000000      5.00000000      0.00000000</v>
  <v name="LDAUJ">      0.00000000      0.00000000      0.00000000      0.00000000</v>
  <i type="int" name="LDAUPRINT">     1</i>
 </incar>
 <kpoints>
  <generation param="Monkhorst-Pack">
   <v type="int" name="divisions">       2        2        2 </v>
   <v name="usershift">      0.00000000       0.00000000       0.00000000 </v>
   <v name="genvec1">      0.50000000      -0.00000000       0.00000000 </v>
   <v name="genvec2">     -0.00000000       0.50000000       0.00000000 </v>
   <v name="genvec3">      0.00000000       0.00000000       0.50000000 </v>
   <v name="shift">      0.50000000       0.50000000       0.50000000 </v>
  </generation>
  <varray name="kpointlist" >
   <v>       0.25000000       0.25000000       0.25000000 </v>
   <v>      -0.25000000       0.25000000       0.25000000 </v>
   <v>       0.25000000      -0.25000000       0.25000000 </v>
   <v>      -0.25000000      -0.25000000       0.25000000 </v>
  </varray>
  <varray name="weights" >
   <v>       0.25000000 </v>
   <v>       0.25000000 </v>
   <v>       0.25000000 </v>
   <v>       0.25000000 </v>
  </varray>
 </kpoints>
 <parameters>
  <separator name="general" >
   <i type="string" name="SYSTEM">STF</i>
   <i type="logical" name="LCOMPAT"> F  </i>
  </separator>
  <separator name="electronic" >
   <i type="string" name="PREC">normal</i>
   <i name="ENMAX">    520.00000000</i>
   <i name="ENAUG">    605.39200000</i>
   <i name="EDIFF">      0.00010000</i>
   <i type="int" name="IALGO">    68</i>
   <i type="int" name="IWAVPR">    11</i>
   <i type="int" name="NBANDS">   768</i>
   <i name="NELECT">   1040.00000000</i>
   <i type="int" name="TURBO">     0</i>
   <i type="int" name="IRESTART">     0</i>
   <i type="int" name="NREBOOT">     0</i>
   <i type="int" name="NMIN">     0</i>
   <i name="EREF">      0.00000000</i>
   <separator name="electronic smearing" >
    <i type="int" name="ISMEAR">     0</i>
    <i name="SIGMA">      0.05000000</i>
    <i name="KSPACING">      0.50000000</i>
    <i type="logical" name="KGAMMA"> T  </i>
   </separator>
   <separator name="electronic projectors" >
    <i type="logical" name="LREAL"> T  </i>
    <v name="ROPT">     -0.00050000     -0.00050000     -0.00050000     -0.00050000</v>
    <i type="int" name="LMAXPAW">  -100</i>
    <i type="int" name="LMAXMIX">     4</i>
    <i type="logical" name="NLSPLINE"> F  </i>
   </separator>
   <separator name="electronic startup" >
    <i type="int" name="ISTART">     1</i>
    <i type="int" name="ICHARG">     0</i>
    <i type="int" name="INIWAV">     1</i>
   </separator>
   <separator name="electronic spin" >
    <i type="int" name="ISPIN">     2</i>
    <i type="logical" name="LNONCOLLINEAR"> F  </i>
    <v name="MAGMOM">      0.60000000      0.60000000      0.60000000      0.60000000      0.60000000      0.60000000      0.60000000      0.60000000      0.60000000      0.60000000      0.60000000      0.60000000      0.60000000      0.60000000      0.60000000      0.60000000      0.60000000      0.60000000      0.60000000      0.60000000
      0.60000000      0.60000000      0.60000000      0.60000000      0.60000000      0.60000000      0.60000000      0.60000000      0.60000000      0.60000000      0.60000000      0.60000000      0.60000000      0.60000000      0.60000000      0.60000000      0.60000000      0.60000000      0.60000000      0.60000000
      0.60000000      0.60000000      0.60000000      0.60000000      0.60000000      0.60000000      0.60000000      0.60000000      5.00000000      5.00000000      5.00000000      5.00000000      5.00000000      5.00000000      5.00000000      5.00000000      5.00000000      5.00000000      5.00000000      5.00000000
      5.00000000      5.00000000      5.00000000      5.00000000      0.60000000      0.60000000      0.60000000      0.60000000      0.60000000      0.60000000      0.60000000      0.60000000      0.60000000      0.60000000      0.60000000      0.60000000      0.60000000      0.60000000      0.60000000      0.60000000
      0.60000000      0.60000000      0.60000000      0.60000000      0.60000000      0.60000000      0.60000000      0.60000000      0.60000000      0.60000000      0.60000000      0.60000000      0.60000000      0.60000000      0.60000000      0.60000000      0.60000000      0.60000000      0.60000000      0.60000000
      0.60000000      0.60000000      0.60000000      0.60000000      0.60000000      0.60000000      0.60000000      0.60000000      0.60000000      0.60000000      0.60000000      0.60000000      0.60000000      0.60000000      0.60000000      0.60000000      0.60000000      0.60000000      0.60000000      0.60000000
      0.60000000      0.60000000      0.60000000      0.60000000      0.60000000      0.60000000      0.60000000      0.60000000      0.60000000      0.60000000      0.60000000      0.60000000      0.60000000      0.60000000      0.60000000      0.60000000      0.60000000      0.60000000      0.60000000      0.60000000
      0.60000000      0.60000000      0.60000000      0.60000000      0.60000000      0.60000000      0.60000000      0.60000000      0.60000000      0.60000000      0.60000000      0.60000000</v>
    <i name="NUPDOWN">     -1.00000000</i>
    <i type="logical" name="LSORBIT"> F  </i>
    <v name="SAXIS">      0.00000000      0.00000000      1.00000000</v>
    <i type="logical" name="LSPIRAL"> F  </i>
    <v name="QSPIRAL">      0.00000000      0.00000000      0.00000000</v>
    <i type="logical" name="LZEROZ"> F  </i>
   </separator>
   <separator name="electronic exchange-correlation" >
    <i type="logical" name="LASPH"> F  </i>
    <i type="logical" name="LMETAGGA"> F  </i>
   </separator>
   <separator name="electronic convergence" >
    <i type="int" name="NELM">    40</i>
    <i type="int" name="NELMDL">     0</i>
    <i type="int" name="NELMIN">     8</i>
    <i name="ENINI">    520.00000000</i>
    <separator name="electronic convergence detail" >
     <i type="logical" name="LDIAG"> T  </i>
     <i type="logical" name="LSUBROT"> F  </i>
     <i name="WEIMIN">      0.00100000</i>
     <i name="EBREAK">      0.00000003</i>
     <i name="DEPER">      0.30000000</i>
     <i type="int" name="NRMM">     4</i>
     <i name="TIME">      0.40000000</i>
    </separator>
   </separator>
   <separator name="electronic mixer" >
    <i name="AMIX">      0.40000000</i>
    <i name="BMIX">      1.00000000</i>
    <i name="AMIN">      0.10000000</i>
    <i name="AMIX_MAG">      1.60000000</i>
    <i name="BMIX_MAG">      1.00000000</i>
    <separator name="electronic mixer details" >
     <i type="int" name="IMIX">     4</i>
     <i type="logical" name="MIXFIRST"> F  </i>
     <i type="int" name="MAXMIX">   -45</i>
     <i name="WC">    100.00000000</i>
     <i type="int" name="INIMIX">     1</i>
     <i type="int" name="MIXPRE">     1</i>
     <i type="int" name="MREMOVE">     5</i>
    </separator>
   </separator>
   <separator name="electronic dipolcorrection" >
    <i type="logical" name="LDIPOL"> F  </i>
    <i type="logical" name="LMONO"> F  </i>
    <i type="int" name="IDIPOL">     0</i>
    <i name="EPSILON">      1.00000000</i>
    <v name="DIPOL">   -100.00000000   -100.00000000   -100.00000000</v>
    <i name="EFIELD">      0.00000000</i>
   </separator>
  </separator>
  <separator name="grids" >
   <i type="int" name="NGX">    64</i>
   <i type="int" name="NGY">    64</i>
   <i type="int" name="NGZ">    90</i>
   <i type="int" name="NGXF">   128</i>
   <i type="int" name="NGYF">   128</i>
   <i type="int" name="NGZF">   180</i>
   <i type="logical" name="ADDGRID"> F  </i>
  </separator>
  <separator name="ionic" >
   <i type="int" name="NSW">    30</i>
   <i type="int" name="IBRION">     2</i>
   <i type="int" name="ISIF">     3</i>
   <i name="PSTRESS">      0.00000000</i>
   <i name="EDIFFG">     -0.03000000</i>
   <i type="int" name="NFREE">     1</i>
   <i name="POTIM">      0.50000000</i>
   <i name="SMASS">     -3.00000000</i>
   <i name="SCALEE">      1.00000000</i>
  </separator>
  <separator name="ionic md" >
   <i name="TEBEG">      0.00010000</i>
   <i name="TEEND">      0.00010000</i>
   <i type="int" name="NBLOCK">     1</i>
   <i type="int" name="KBLOCK">    30</i>
   <i type="int" name="NPACO">   256</i>
   <i name="APACO">     16.00000000</i>
  </separator>
  <separator name="symmetry" >
   <i type="int" name="ISYM">     2</i>
   <i name="SYMPREC">      0.00001000</i>
  </separator>
  <separator name="dos" >
   <i type="logical" name="LORBIT"> F  </i>
   <v name="RWIGS">     -1.00000000     -1.00000000     -1.00000000     -1.00000000</v>
   <i type="int" name="NEDOS">   301</i>
   <i name="EMIN">     10.00000000</i>
   <i name="EMAX">    -10.00000000</i>
   <i name="EFERMI">      0.00000000</i>
  </separator>
  <separator name="writing" >
   <i type="int" name="NWRITE">     2</i>
   <i type="logical" name="LWAVE"> T  </i>
   <i type="logical" name="LCHARG"> T  </i>
   <i type="logical" name="LPARD"> F  </i>
   <i type="logical" name="LVTOT"> F  </i>
   <i type="logical" name="LVHAR"> F  </i>
   <i type="logical" name="LELF"> F  </i>
   <i type="logical" name="LOPTICS"> F  </i>
   <v name="STM">      0.00000000      0.00000000      0.00000000      0.00000000      0.00000000      0.00000000      0.00000000</v>
  </separator>
  <separator name="performance" >
   <i type="int" name="NPAR">     2</i>
   <i type="int" name="NSIM">     4</i>
   <i type="int" name="NBLK">    -1</i>
   <i type="logical" name="LPLANE"> T  </i>
   <i type="logical" name="LSCALAPACK"> T  </i>
   <i type="logical" name="LSCAAWARE"> F  </i>
   <i type="logical" name="LSCALU"> F  </i>
   <i type="logical" name="LASYNC"> F  </i>
   <i type="logical" name="LORBITALREAL"> F  </i>
  </separator>
  <separator name="miscellaneous" >
   <i type="int" name="IDIOT">     3</i>
   <i type="logical" name="LMUSIC"> F  </i>
   <v name="POMASS">     87.62000000     47.88000000     55.84700000     16.00000000</v>
   <v name="DARWINR">      0.00000000      0.00000000      0.00000000      0.00000000</v>
   <v name="DARWINV">      1.00000000      1.00000000      1.00000000      1.00000000</v>
   <i type="logical" name="LCORR"> T  </i>
  </separator>
  <i type="logical" name="GGA_COMPAT"> T  </i>
  <i type="logical" name="LBERRY"> F  </i>
  <i type="int" name="ICORELEVEL">     0</i>
  <i type="logical" name="LDAU"> T  </i>
  <v type="int" name="LDAUTYPE">     2</v>
  <v type="int" name="LDAUL">     0</v>
  <v name="LDAUU">      0.00000000</v>
  <v name="LDAUJ">      0.00000000</v>
  <i type="int" name="LDAUPRINT">     1</i>
  <i type="int" name="I_CONSTRAINED_M">     0</i>
  <separator name="electronic exchange-correlation" >
   <i type="string" name="GGA">--</i>
   <i type="int" name="VOSKOWN">     0</i>
   <i type="logical" name="LHFCALC"> F  </i>
   <i type="string" name="PRECFOCK"></i>
   <i type="logical" name="LSYMGRAD"> F  </i>
   <i type="logical" name="LHFONE"> F  </i>
   <i type="logical" name="LRHFCALC"> F  </i>
   <i type="logical" name="LTHOMAS"> F  </i>
   <i type="logical" name="LMODELHF"> F  </i>
   <i name="ENCUT4O">     -1.00000000</i>
   <i type="int" name="EXXOEP">     0</i>
   <i type="int" name="FOURORBIT">     0</i>
   <i name="AEXX">      0.00000000</i>
   <i name="HFALPHA">      0.00000000</i>
   <i name="MCALPHA">      0.00000000</i>
   <i name="ALDAX">      1.00000000</i>
   <i name="AGGAX">      1.00000000</i>
   <i name="ALDAC">      1.00000000</i>
   <i name="AGGAC">      1.00000000</i>
   <i type="int" name="NKREDX">     1</i>
   <i type="int" name="NKREDY">     1</i>
   <i type="int" name="NKREDZ">     1</i>
   <i type="logical" name="SHIFTRED"> F  </i>
   <i type="logical" name="ODDONLY"> F  </i>
   <i type="logical" name="EVENONLY"> F  </i>
   <i type="int" name="LMAXFOCK">     0</i>
   <i type="int" name="NMAXFOCKAE">     0</i>
   <i type="logical" name="LFOCKAEDFT"> F  </i>
   <i name="HFSCREEN">      0.00000000</i>
   <i name="HFSCREENC">      0.00000000</i>
   <i type="int" name="NBANDSGWLOW">     0</i>
  </separator>
  <separator name="vdW DFT" >
   <i type="logical" name="LUSE_VDW"> F  </i>
   <i name="Zab_VDW">     -0.84910000</i>
   <i name="PARAM1">      0.12340000</i>
   <i name="PARAM2">      1.00000000</i>
   <i name="PARAM3">      0.00000000</i>
  </separator>
  <separator name="model GW" >
   <i type="int" name="MODEL_GW">     0</i>
   <i name="MODEL_EPS0">      7.96424611</i>
   <i name="MODEL_ALPHA">      1.00000000</i>
  </separator>
  <separator name="linear response parameters" >
   <i type="logical" name="LEPSILON"> F  </i>
   <i type="logical" name="LRPA"> F  </i>
   <i type="logical" name="LNABLA"> F  </i>
   <i type="logical" name="LVEL"> F  </i>
   <i type="int" name="KINTER">     0</i>
   <i name="CSHIFT">      0.10000000</i>
   <i name="OMEGAMAX">     -1.00000000</i>
   <i name="DEG_THRESHOLD">      0.00200000</i>
  </separator>
  <separator name="orbital magnetization" >
   <i type="logical" name="NUCIND"> F  </i>
   <v name="MAGPOS">      0.00000000      0.00000000      0.00000000</v>
   <i type="logical" name="LNICSALL"> T  </i>
   <i type="logical" name="ORBITALMAG"> F  </i>
   <i type="logical" name="LMAGBLOCH"> F  </i>
   <i type="logical" name="LCHIMAG"> F  </i>
   <i type="logical" name="LGAUGE"> T  </i>
   <i type="int" name="MAGATOM">     0</i>
   <v name="MAGDIPOL">      0.00000000      0.00000000      0.00000000</v>
   <v name="AVECCONST">      0.00000000      0.00000000      0.00000000</v>
  </separator>
  <separator name="response functions" >
   <i type="logical" name="LADDER"> F  </i>
   <i type="logical" name="LFXC"> F  </i>
   <i type="logical" name="LHARTREE"> T  </i>
   <i type="int" name="IBSE">     0</i>
   <v type="int" name="KPOINT">    -1     0     0     0</v>
   <i type="logical" name="LTCTE"> F  </i>
   <i type="logical" name="LTETE"> F  </i>
   <i type="logical" name="LTRIPLET"> F  </i>
   <i type="logical" name="LFXCEPS"> F  </i>
   <i type="logical" name="LFXHEG"> F  </i>
   <i type="int" name="NATURALO">     0</i>
   <i type="logical" name="L2ORDER"> F  </i>
   <i type="logical" name="LUSEW"> F  </i>
   <i name="ENCUTGW">     -2.00000000</i>
   <i name="ENCUTGWSOFT">     -2.00000000</i>
   <i name="ENCUTLF">     -1.00000000</i>
   <i type="int" name="LMAXMP2">    -1</i>
   <i name="SCISSOR">      0.00000000</i>
   <i type="int" name="NOMEGA">     0</i>
   <i type="int" name="NOMEGAR">     0</i>
   <i type="int" name="NBANDSGW">    -1</i>
   <i type="int" name="NBANDSO">    -1</i>
   <i type="int" name="NBANDSV">    -1</i>
   <i type="int" name="NELM">    40</i>
   <i type="int" name="NELMHF">     1</i>
   <i type="int" name="DIM">     3</i>
   <i type="int" name="ANTIRES">     0</i>
   <i name="OMEGAMAX">    -30.00000000</i>
   <i name="OMEGAMIN">    -30.00000000</i>
   <i name="OMEGATL">   -200.00000000</i>
   <i type="int" name="OMEGAGRID">     0</i>
   <i name="CSHIFT">     -0.10000000</i>
   <i type="logical" name="SELFENERGY"> F  </i>
   <i type="logical" name="LSPECTRAL"> F  </i>
   <i type="logical" name="LSPECTRALGW"> F  </i>
   <i type="logical" name="LSINGLES"> F  </i>
   <i type="logical" name="LFERMIGW"> F  </i>
   <i type="logical" name="ODDONLYGW"> F  </i>
   <i type="logical" name="EVENONLYGW"> F  </i>
   <i type="int" name="NKREDLFX">     1</i>
   <i type="int" name="NKREDLFY">     1</i>
   <i type="int" name="NKREDLFZ">     1</i>
   <i type="int" name="MAXMEM">  1800</i>
   <i type="int" name="TELESCOPE">     0</i>
   <i type="int" name="TAUPAR">     1</i>
   <i type="int" name="OMEGAPAR">    -1</i>
   <i name="LAMBDA">      1.00000000</i>
  </separator>
  <separator name="External order field" >
   <i name="OFIELD_KAPPA">      0.00000000</i>
   <v name="OFIELD_K">      0.00000000      0.00000000      0.00000000</v>
   <i name="OFIELD_Q6_NEAR">      0.00000000</i>
   <i name="OFIELD_Q6_FAR">      0.00000000</i>
   <i name="OFIELD_A">      0.00000000</i>
  </separator>
 </parameters>
 <atominfo>
  <atoms>     152 </atoms>
  <types>       4 </types>
  <array name="atoms" >
   <dimension dim="1">ion</dimension>
   <field type="string">element</field>
   <field type="int">atomtype</field>
   <set>
    <rc><c>Sr</c><c>   1</c></rc>
    <rc><c>Sr</c><c>   1</c></rc>
    <rc><c>Sr</c><c>   1</c></rc>
    <rc><c>Sr</c><c>   1</c></rc>
    <rc><c>Sr</c><c>   1</c></rc>
    <rc><c>Sr</c><c>   1</c></rc>
    <rc><c>Sr</c><c>   1</c></rc>
    <rc><c>Sr</c><c>   1</c></rc>
    <rc><c>Sr</c><c>   1</c></rc>
    <rc><c>Sr</c><c>   1</c></rc>
    <rc><c>Sr</c><c>   1</c></rc>
    <rc><c>Sr</c><c>   1</c></rc>
    <rc><c>Sr</c><c>   1</c></rc>
    <rc><c>Sr</c><c>   1</c></rc>
    <rc><c>Sr</c><c>   1</c></rc>
    <rc><c>Sr</c><c>   1</c></rc>
    <rc><c>Sr</c><c>   1</c></rc>
    <rc><c>Sr</c><c>   1</c></rc>
    <rc><c>Sr</c><c>   1</c></rc>
    <rc><c>Sr</c><c>   1</c></rc>
    <rc><c>Sr</c><c>   1</c></rc>
    <rc><c>Sr</c><c>   1</c></rc>
    <rc><c>Sr</c><c>   1</c></rc>
    <rc><c>Sr</c><c>   1</c></rc>
    <rc><c>Sr</c><c>   1</c></rc>
    <rc><c>Sr</c><c>   1</c></rc>
    <rc><c>Sr</c><c>   1</c></rc>
    <rc><c>Sr</c><c>   1</c></rc>
    <rc><c>Sr</c><c>   1</c></rc>
    <rc><c>Sr</c><c>   1</c></rc>
    <rc><c>Sr</c><c>   1</c></rc>
    <rc><c>Sr</c><c>   1</c></rc>
    <rc><c>Ti</c><c>   2</c></rc>
    <rc><c>Ti</c><c>   2</c></rc>
    <rc><c>Ti</c><c>   2</c></rc>
    <rc><c>Ti</c><c>   2</c></rc>
    <rc><c>Ti</c><c>   2</c></rc>
    <rc><c>Ti</c><c>   2</c></rc>
    <rc><c>Ti</c><c>   2</c></rc>
    <rc><c>Ti</c><c>   2</c></rc>
    <rc><c>Ti</c><c>   2</c></rc>
    <rc><c>Ti</c><c>   2</c></rc>
    <rc><c>Ti</c><c>   2</c></rc>
    <rc><c>Ti</c><c>   2</c></rc>
    <rc><c>Ti</c><c>   2</c></rc>
    <rc><c>Ti</c><c>   2</c></rc>
    <rc><c>Ti</c><c>   2</c></rc>
    <rc><c>Ti</c><c>   2</c></rc>
    <rc><c>Fe</c><c>   3</c></rc>
    <rc><c>Fe</c><c>   3</c></rc>
    <rc><c>Fe</c><c>   3</c></rc>
    <rc><c>Fe</c><c>   3</c></rc>
    <rc><c>Fe</c><c>   3</c></rc>
    <rc><c>Fe</c><c>   3</c></rc>
    <rc><c>Fe</c><c>   3</c></rc>
    <rc><c>Fe</c><c>   3</c></rc>
    <rc><c>Fe</c><c>   3</c></rc>
    <rc><c>Fe</c><c>   3</c></rc>
    <rc><c>Fe</c><c>   3</c></rc>
    <rc><c>Fe</c><c>   3</c></rc>
    <rc><c>Fe</c><c>   3</c></rc>
    <rc><c>Fe</c><c>   3</c></rc>
    <rc><c>Fe</c><c>   3</c></rc>
    <rc><c>Fe</c><c>   3</c></rc>
    <rc><c>O </c><c>   4</c></rc>
    <rc><c>O </c><c>   4</c></rc>
    <rc><c>O </c><c>   4</c></rc>
    <rc><c>O </c><c>   4</c></rc>
    <rc><c>O </c><c>   4</c></rc>
    <rc><c>O </c><c>   4</c></rc>
    <rc><c>O </c><c>   4</c></rc>
    <rc><c>O </c><c>   4</c></rc>
    <rc><c>O </c><c>   4</c></rc>
    <rc><c>O </c><c>   4</c></rc>
    <rc><c>O </c><c>   4</c></rc>
    <rc><c>O </c><c>   4</c></rc>
    <rc><c>O </c><c>   4</c></rc>
    <rc><c>O </c><c>   4</c></rc>
    <rc><c>O </c><c>   4</c></rc>
    <rc><c>O </c><c>   4</c></rc>
    <rc><c>O </c><c>   4</c></rc>
    <rc><c>O </c><c>   4</c></rc>
    <rc><c>O </c><c>   4</c></rc>
    <rc><c>O </c><c>   4</c></rc>
    <rc><c>O </c><c>   4</c></rc>
    <rc><c>O </c><c>   4</c></rc>
    <rc><c>O </c><c>   4</c></rc>
    <rc><c>O </c><c>   4</c></rc>
    <rc><c>O </c><c>   4</c></rc>
    <rc><c>O </c><c>   4</c></rc>
    <rc><c>O </c><c>   4</c></rc>
    <rc><c>O </c><c>   4</c></rc>
    <rc><c>O </c><c>   4</c></rc>
    <rc><c>O </c><c>   4</c></rc>
    <rc><c>O </c><c>   4</c></rc>
    <rc><c>O </c><c>   4</c></rc>
    <rc><c>O </c><c>   4</c></rc>
    <rc><c>O </c><c>   4</c></rc>
    <rc><c>O </c><c>   4</c></rc>
    <rc><c>O </c><c>   4</c></rc>
    <rc><c>O </c><c>   4</c></rc>
    <rc><c>O </c><c>   4</c></rc>
    <rc><c>O </c><c>   4</c></rc>
    <rc><c>O </c><c>   4</c></rc>
    <rc><c>O </c><c>   4</c></rc>
    <rc><c>O </c><c>   4</c></rc>
    <rc><c>O </c><c>   4</c></rc>
    <rc><c>O </c><c>   4</c></rc>
    <rc><c>O </c><c>   4</c></rc>
    <rc><c>O </c><c>   4</c></rc>
    <rc><c>O </c><c>   4</c></rc>
    <rc><c>O </c><c>   4</c></rc>
    <rc><c>O </c><c>   4</c></rc>
    <rc><c>O </c><c>   4</c></rc>
    <rc><c>O </c><c>   4</c></rc>
    <rc><c>O </c><c>   4</c></rc>
    <rc><c>O </c><c>   4</c></rc>
    <rc><c>O </c><c>   4</c></rc>
    <rc><c>O </c><c>   4</c></rc>
    <rc><c>O </c><c>   4</c></rc>
    <rc><c>O </c><c>   4</c></rc>
    <rc><c>O </c><c>   4</c></rc>
    <rc><c>O </c><c>   4</c></rc>
    <rc><c>O </c><c>   4</c></rc>
    <rc><c>O </c><c>   4</c></rc>
    <rc><c>O </c><c>   4</c></rc>
    <rc><c>O </c><c>   4</c></rc>
    <rc><c>O </c><c>   4</c></rc>
    <rc><c>O </c><c>   4</c></rc>
    <rc><c>O </c><c>   4</c></rc>
    <rc><c>O </c><c>   4</c></rc>
    <rc><c>O </c><c>   4</c></rc>
    <rc><c>O </c><c>   4</c></rc>
    <rc><c>O </c><c>   4</c></rc>
    <rc><c>O </c><c>   4</c></rc>
    <rc><c>O </c><c>   4</c></rc>
    <rc><c>O </c><c>   4</c></rc>
    <rc><c>O </c><c>   4</c></rc>
    <rc><c>O </c><c>   4</c></rc>
    <rc><c>O </c><c>   4</c></rc>
    <rc><c>O </c><c>   4</c></rc>
    <rc><c>O </c><c>   4</c></rc>
    <rc><c>O </c><c>   4</c></rc>
    <rc><c>O </c><c>   4</c></rc>
    <rc><c>O </c><c>   4</c></rc>
    <rc><c>O </c><c>   4</c></rc>
    <rc><c>O </c><c>   4</c></rc>
    <rc><c>O </c><c>   4</c></rc>
    <rc><c>O </c><c>   4</c></rc>
    <rc><c>O </c><c>   4</c></rc>
    <rc><c>O </c><c>   4</c></rc>
    <rc><c>O </c><c>   4</c></rc>
   </set>
  </array>
  <array name="atomtypes" >
   <dimension dim="1">type</dimension>
   <field type="int">atomspertype</field>
   <field type="string">element</field>
   <field>mass</field>
   <field>valence</field>
   <field type="string">pseudopotential</field>
   <set>
    <rc><c>  32</c><c>Sr</c><c>     87.62000000</c><c>     10.00000000</c><c>  PAW_PBE Sr_sv 07Sep2000               </c></rc>
    <rc><c>  16</c><c>Ti</c><c>     47.88000000</c><c>      4.00000000</c><c>  PAW_PBE Ti 08Apr2002                  </c></rc>
    <rc><c>  16</c><c>Fe</c><c>     55.84700000</c><c>      8.00000000</c><c>  PAW_PBE Fe 06Sep2000                  </c></rc>
    <rc><c>  88</c><c>O </c><c>     16.00000000</c><c>      6.00000000</c><c>  PAW_PBE O 08Apr2002                   </c></rc>
   </set>
  </array>
 </atominfo>
 <structure name="initialpos" >
  <crystal>
   <varray name="basis" >
    <v>      11.29309081      -0.00469017       0.01448858 </v>
    <v>      -0.00472318      11.29735842      -0.00564754 </v>
    <v>       0.02061442      -0.00825292      15.81423531 </v>
   </varray>
   <i name="volume">   2017.60901488 </i>
   <varray name="rec_basis" >
    <v>       0.08854988       0.00003696      -0.00011541 </v>
    <v>       0.00003670       0.08851631       0.00004615 </v>
    <v>      -0.00008111       0.00003158       0.06323429 </v>
   </varray>
  </crystal>
  <varray name="positions" >
   <v>       0.00334652       0.25175605       0.11190134 </v>
   <v>       0.99966766       0.24919887       0.63685768 </v>
   <v>       0.00019223       0.75001600       0.11487642 </v>
   <v>       0.00188323       0.75023001       0.64551839 </v>
   <v>       0.49232264       0.24384826       0.11120101 </v>
   <v>       0.49975260       0.24816383       0.63632941 </v>
   <v>       0.50114453       0.75937190       0.11664842 </v>
   <v>       0.49767523       0.74992855       0.63421026 </v>
   <v>       0.00349528       0.25345576       0.37785535 </v>
   <v>       0.00122774       0.25090212       0.87262285 </v>
   <v>       0.99756135       0.75106568       0.36193352 </v>
   <v>       0.99927564       0.74917407       0.87731897 </v>
   <v>       0.50265066       0.24544116       0.38241342 </v>
   <v>       0.49830890       0.24602005       0.87257617 </v>
   <v>       0.50523738       0.75889166       0.37228790 </v>
   <v>       0.50017971       0.75347831       0.87351933 </v>
   <v>       0.24794908       0.99665023       0.11254822 </v>
   <v>       0.25248477       0.00283191       0.63383894 </v>
   <v>       0.24467083       0.50205727       0.11575974 </v>
   <v>       0.24849352       0.49719889       0.63755698 </v>
   <v>       0.74829716       0.99790137       0.11670703 </v>
   <v>       0.74773898       0.99901315       0.63518798 </v>
   <v>       0.75358036       0.50292923       0.11663049 </v>
   <v>       0.74885079       0.49687724       0.63223361 </v>
   <v>       0.26025086       0.00407441       0.36994032 </v>
   <v>       0.25028445       0.00010401       0.87399432 </v>
   <v>       0.24159317       0.51590338       0.38064790 </v>
   <v>       0.24565325       0.49874920       0.87332813 </v>
   <v>       0.75273300       0.99801254       0.37731105 </v>
   <v>       0.74888309       0.00002210       0.87368386 </v>
   <v>       0.74791151       0.49566488       0.37143059 </v>
   <v>       0.75136558       0.49874005       0.87341075 </v>
   <v>       0.49889675       0.50079240       0.75118491 </v>
   <v>       0.99790993       0.50083816       0.75224257 </v>
   <v>       0.24503294       0.75257776       0.24954815 </v>
   <v>       0.49968646       0.49966357       0.00041640 </v>
   <v>       0.24626768       0.24889059       0.99440487 </v>
   <v>       0.99960305       0.99900612       0.75345905 </v>
   <v>       0.74386727       0.24804126       0.50344383 </v>
   <v>       0.75532326       0.75321701       0.24795245 </v>
   <v>       0.49919118       0.99867945       0.75149940 </v>
   <v>       0.25029619       0.75079809       0.99764377 </v>
   <v>       0.49735075       0.48790787       0.49799315 </v>
   <v>       0.00215103       0.99552056       0.24897232 </v>
   <v>       0.49981620       0.00670894       0.50088545 </v>
   <v>       0.74980137       0.75068235       0.99830099 </v>
   <v>       0.74927283       0.24899814       0.99791389 </v>
   <v>       0.00365938       0.50333103       0.25038290 </v>
   <v>       0.75068882       0.24926501       0.75044748 </v>
   <v>       0.99562601       0.47182410       0.50090088 </v>
   <v>       0.24967634       0.74887031       0.75197473 </v>
   <v>       0.25727886       0.25210381       0.51039798 </v>
   <v>       0.23199446       0.24445784       0.24046134 </v>
   <v>       0.24977089       0.24937804       0.75123837 </v>
   <v>       0.74995727       0.74833766       0.75073625 </v>
   <v>       0.49898907       0.98524457       0.25151969 </v>
   <v>       0.99883757       0.49832613       0.99880613 </v>
   <v>       0.28018437       0.75308547       0.49799054 </v>
   <v>       0.77977879       0.24471101       0.25122743 </v>
   <v>       0.99882233       0.00160065       0.99954183 </v>
   <v>       0.49639376       0.52871529       0.24931860 </v>
   <v>       0.49978506       0.00028844       0.99889057 </v>
   <v>       0.00840108       0.03112674       0.49758371 </v>
   <v>       0.72017191       0.74182198       0.49783998 </v>
   <v>       0.11243121       0.13261538       0.26927018 </v>
   <v>       0.12066817       0.12358220       0.74023785 </v>
   <v>       0.11145672       0.63933113       0.24847789 </v>
   <v>       0.12267200       0.62499989       0.75674921 </v>
   <v>       0.87572041       0.87352764       0.75381727 </v>
   <v>       0.62402713       0.12380620       0.75454099 </v>
   <v>       0.64699633       0.89214399       0.25407485 </v>
   <v>       0.62290987       0.62573525       0.73338179 </v>
   <v>       0.49700917       0.47018966       0.13832076 </v>
   <v>       0.64089894       0.59431011       0.49397729 </v>
   <v>       0.37434160       0.12034724       0.75403648 </v>
   <v>       0.89597402       0.36502408       0.26093527 </v>
   <v>       0.87812508       0.37461513       0.73931989 </v>
   <v>       0.89512762       0.85649620       0.24442034 </v>
   <v>       0.35858886       0.89875516       0.49605657 </v>
   <v>       0.37286338       0.16895422       0.26937434 </v>
   <v>       0.62631411       0.87314223       0.73949130 </v>
   <v>       0.35514774       0.61583378       0.26014507 </v>
   <v>       0.37306787       0.62346482       0.74140001 </v>
   <v>       0.86107633       0.09975923       0.25467516 </v>
   <v>       0.87560894       0.12009655       0.73880082 </v>
   <v>       0.86321182       0.60788421       0.25050410 </v>
   <v>       0.87156431       0.62206243       0.75034073 </v>
   <v>       0.15077696       0.38797743       0.27232516 </v>
   <v>       0.12277053       0.37860863       0.74408279 </v>
   <v>       0.12609726       0.87601511       0.75493289 </v>
   <v>       0.77252857       0.75513268       0.38347747 </v>
   <v>       0.14035249       0.88994982       0.25581159 </v>
   <v>       0.75260354       0.75094033       0.12781009 </v>
   <v>       0.12920109       0.62281195       0.99919356 </v>
   <v>       0.37187342       0.37925014       0.99438610 </v>
   <v>       0.36041529       0.38414262       0.47662874 </v>
   <v>       0.37342930       0.87648588       0.00913856 </v>
   <v>       0.86759233       0.37526191       0.01365352 </v>
   <v>       0.85038064       0.38989295       0.49228210 </v>
   <v>       0.87185558       0.87592201       0.99915968 </v>
   <v>       0.12660761       0.12355674       0.00296906 </v>
   <v>       0.14906007       0.11929512       0.48096664 </v>
   <v>       0.37773646       0.37668357       0.75850060 </v>
   <v>       0.21744198       0.74866101       0.38782830 </v>
   <v>       0.62677081       0.12427975       0.99684058 </v>
   <v>       0.64564793       0.10442014       0.49887420 </v>
   <v>       0.37938823       0.62572258       0.01390643 </v>
   <v>       0.62035721       0.37317688       0.99522467 </v>
   <v>       0.12056856       0.37151394       0.99759799 </v>
   <v>       0.12068862       0.36348332       0.49171374 </v>
   <v>       0.37492129       0.87163531       0.73778499 </v>
   <v>       0.12421228       0.87170352       0.99698994 </v>
   <v>       0.62298259       0.87151235       0.00636646 </v>
   <v>       0.60294992       0.85940993       0.49975404 </v>
   <v>       0.37447293       0.12782912       0.99787277 </v>
   <v>       0.39110530       0.14101844       0.49367273 </v>
   <v>       0.98673155       0.96695477       0.38896571 </v>
   <v>       0.39518587       0.63138760       0.48362620 </v>
   <v>       0.87259693       0.12918597       0.01446558 </v>
   <v>       0.60506938       0.35202937       0.50361610 </v>
   <v>       0.87593625       0.62678809       0.00365948 </v>
   <v>       0.88619446       0.14495174       0.49360728 </v>
   <v>       0.01150946       0.00132677       0.12984151 </v>
   <v>       0.00666872       0.97453480       0.60853452 </v>
   <v>       0.01110707       0.49141956       0.13163446 </v>
   <v>       0.00265951       0.52469938       0.61257589 </v>
   <v>       0.62489165       0.37853223       0.75262939 </v>
   <v>       0.49952385       0.01032715       0.62253297 </v>
   <v>       0.62499588       0.62015350       0.01383744 </v>
   <v>       0.38273965       0.86344598       0.25922617 </v>
   <v>       0.99445038       0.01261050       0.87468050 </v>
   <v>       0.00280199       0.53408481       0.39014187 </v>
   <v>       0.98980962       0.49204217       0.87434978 </v>
   <v>       0.51172675       0.01021205       0.37053462 </v>
   <v>       0.49865988       0.98563512       0.87381437 </v>
   <v>       0.51871005       0.46374013       0.35610158 </v>
   <v>       0.50351515       0.51931347       0.87644790 </v>
   <v>       0.50325231       0.01781447       0.13580536 </v>
   <v>       0.24009260       0.24643417       0.87352448 </v>
   <v>       0.72159229       0.24954935       0.36235069 </v>
   <v>       0.26588897       0.74789331       0.87702478 </v>
   <v>       0.61756837       0.64390299       0.25455686 </v>
   <v>       0.76543885       0.25015844       0.87677640 </v>
   <v>       0.73764257       0.74225958       0.87641776 </v>
   <v>       0.24705863       0.25971395       0.12448607 </v>
   <v>       0.48507486       0.48873635       0.61859191 </v>
   <v>       0.24609900       0.75415690       0.12949845 </v>
   <v>       0.22112476       0.73679153       0.60649127 </v>
   <v>       0.71541843       0.25554253       0.14350470 </v>
   <v>       0.74632765       0.24891910       0.62251573 </v>
   <v>       0.26203988       0.25492633       0.62667974 </v>
   <v>       0.78916183       0.75337349       0.60245898 </v>
  </varray>
 </structure>
 <calculation>
  <scstep>
   <time name="dav">  299.73  299.75</time>
   <time name="total">  303.49  303.60</time>
   <energy>
    <i name="alphaZ">   5581.97223021 </i>
    <i name="ewald"> -61706.62057190 </i>
    <i name="hartreedc"> -17806.81060639 </i>
    <i name="XCdc">   3184.58642407 </i>
    <i name="pawpsdc"> 114574.03264209 </i>
    <i name="pawaedc">-113778.63583711 </i>
    <i name="eentropy">     -0.00000000 </i>
    <i name="bandstr">  -7155.90257802 </i>
    <i name="atom">  76050.17612637 </i>
    <i name="e_fr_energy">  -1057.20217068 </i>
    <i name="e_wo_entrp">  -1057.20217068 </i>
    <i name="e_0_energy">  -1057.20217068 </i>
   </energy>
  </scstep>
  <scstep>
   <time name="diag">   33.29   33.31</time>
   <time name="diis">   30.81   30.84</time>
   <time name="orth">   18.90   18.90</time>
   <time name="total">   86.77   86.84</time>
   <energy>
    <i name="e_fr_energy">  -1057.20216935 </i>
    <i name="e_wo_entrp">  -1057.20216935 </i>
    <i name="e_0_energy">  -1057.20216935 </i>
   </energy>
  </scstep>
  <scstep>
   <time name="diag">   33.29   33.31</time>
   <time name="diis">   29.38   29.39</time>
   <time name="orth">   18.87   18.86</time>
   <time name="total">   85.30   85.39</time>
   <energy>
    <i name="e_fr_energy">  -1057.20216943 </i>
    <i name="e_wo_entrp">  -1057.20216943 </i>
    <i name="e_0_energy">  -1057.20216943 </i>
   </energy>
  </scstep>
  <scstep>
   <time name="diag">   33.31   33.31</time>
   <time name="diis">   23.92   23.94</time>
   <time name="orth">   18.91   18.91</time>
   <time name="total">   79.89   80.00</time>
   <energy>
    <i name="e_fr_energy">  -1057.20216934 </i>
    <i name="e_wo_entrp">  -1057.20216934 </i>
    <i name="e_0_energy">  -1057.20216934 </i>
   </energy>
  </scstep>
  <scstep>
   <time name="diag">   33.35   33.37</time>
   <time name="diis">   23.76   23.78</time>
   <time name="orth">   18.86   18.87</time>
   <time name="total">   79.73   79.85</time>
   <energy>
    <i name="e_fr_energy">  -1057.20216938 </i>
    <i name="e_wo_entrp">  -1057.20216938 </i>
    <i name="e_0_energy">  -1057.20216938 </i>
   </energy>
  </scstep>
  <scstep>
   <time name="diag">   33.31   33.34</time>
   <time name="diis">   22.86   22.86</time>
   <time name="orth">   18.89   18.89</time>
   <time name="total">   78.82   78.90</time>
   <energy>
    <i name="e_fr_energy">  -1057.20216938 </i>
    <i name="e_wo_entrp">  -1057.20216938 </i>
    <i name="e_0_energy">  -1057.20216938 </i>
   </energy>
  </scstep>
  <scstep>
   <time name="diag">   33.23   33.26</time>
   <time name="diis">   22.28   22.28</time>
   <time name="orth">   18.83   18.84</time>
   <time name="total">   78.08   78.17</time>
   <energy>
    <i name="e_fr_energy">  -1057.20216938 </i>
    <i name="e_wo_entrp">  -1057.20216938 </i>
    <i name="e_0_energy">  -1057.20216938 </i>
   </energy>
  </scstep>
  <scstep>
   <time name="diag">   33.23   33.26</time>
   <time name="diis">   21.69   21.70</time>
   <time name="orth">   18.88   18.89</time>
   <time name="total">   74.37   74.50</time>
   <energy>
    <i name="alphaZ">   5581.97223021 </i>
    <i name="ewald"> -61706.62057190 </i>
    <i name="hartreedc"> -17806.83159424 </i>
    <i name="XCdc">   3184.58551277 </i>
    <i name="pawpsdc"> 114573.31804528 </i>
    <i name="pawaedc">-113777.92929232 </i>
    <i name="eentropy">     -0.00000000 </i>
    <i name="bandstr">  -7155.87262557 </i>
    <i name="atom">  76050.17612637 </i>
    <i name="e_fr_energy">  -1057.20216939 </i>
    <i name="e_wo_entrp">  -1057.20216939 </i>
    <i name="e_0_energy">  -1057.20216939 </i>
   </energy>
  </scstep>
  <structure>
   <crystal>
    <varray name="basis" >
     <v>      11.29309081      -0.00469017       0.01448858 </v>
     <v>      -0.00472318      11.29735842      -0.00564754 </v>
     <v>       0.02061442      -0.00825292      15.81423531 </v>
    </varray>
    <i name="volume">   2017.60901488 </i>
    <varray name="rec_basis" >
     <v>       0.08854988       0.00003696      -0.00011541 </v>
     <v>       0.00003670       0.08851631       0.00004615 </v>
     <v>      -0.00008111       0.00003158       0.06323429 </v>
    </varray>
   </crystal>
   <varray name="positions" >
    <v>       0.00334652       0.25175605       0.11190134 </v>
    <v>       0.99966766       0.24919887       0.63685768 </v>
    <v>       0.00019223       0.75001600       0.11487642 </v>
    <v>       0.00188323       0.75023001       0.64551839 </v>
    <v>       0.49232264       0.24384826       0.11120101 </v>
    <v>       0.49975260       0.24816383       0.63632941 </v>
    <v>       0.50114453       0.75937190       0.11664842 </v>
    <v>       0.49767523       0.74992855       0.63421026 </v>
    <v>       0.00349528       0.25345576       0.37785535 </v>
    <v>       0.00122774       0.25090212       0.87262285 </v>
    <v>       0.99756135       0.75106568       0.36193352 </v>
    <v>       0.99927564       0.74917407       0.87731897 </v>
    <v>       0.50265066       0.24544116       0.38241342 </v>
    <v>       0.49830890       0.24602005       0.87257617 </v>
    <v>       0.50523738       0.75889166       0.37228790 </v>
    <v>       0.50017971       0.75347831       0.87351933 </v>
    <v>       0.24794908       0.99665023       0.11254822 </v>
    <v>       0.25248477       0.00283191       0.63383894 </v>
    <v>       0.24467083       0.50205727       0.11575974 </v>
    <v>       0.24849352       0.49719889       0.63755698 </v>
    <v>       0.74829716       0.99790137       0.11670703 </v>
    <v>       0.74773898       0.99901315       0.63518798 </v>
    <v>       0.75358036       0.50292923       0.11663049 </v>
    <v>       0.74885079       0.49687724       0.63223361 </v>
    <v>       0.26025086       0.00407441       0.36994032 </v>
    <v>       0.25028445       0.00010401       0.87399432 </v>
    <v>       0.24159317       0.51590338       0.38064790 </v>
    <v>       0.24565325       0.49874920       0.87332813 </v>
    <v>       0.75273300       0.99801254       0.37731105 </v>
    <v>       0.74888309       0.00002210       0.87368386 </v>
    <v>       0.74791151       0.49566488       0.37143059 </v>
    <v>       0.75136558       0.49874005       0.87341075 </v>
    <v>       0.49889675       0.50079240       0.75118491 </v>
    <v>       0.99790993       0.50083816       0.75224257 </v>
    <v>       0.24503294       0.75257776       0.24954815 </v>
    <v>       0.49968646       0.49966357       0.00041640 </v>
    <v>       0.24626768       0.24889059       0.99440487 </v>
    <v>       0.99960305       0.99900612       0.75345905 </v>
    <v>       0.74386727       0.24804126       0.50344383 </v>
    <v>       0.75532326       0.75321701       0.24795245 </v>
    <v>       0.49919118       0.99867945       0.75149940 </v>
    <v>       0.25029619       0.75079809       0.99764377 </v>
    <v>       0.49735075       0.48790787       0.49799315 </v>
    <v>       0.00215103       0.99552056       0.24897232 </v>
    <v>       0.49981620       0.00670894       0.50088545 </v>
    <v>       0.74980137       0.75068235       0.99830099 </v>
    <v>       0.74927283       0.24899814       0.99791389 </v>
    <v>       0.00365938       0.50333103       0.25038290 </v>
    <v>       0.75068882       0.24926501       0.75044748 </v>
    <v>       0.99562601       0.47182410       0.50090088 </v>
    <v>       0.24967634       0.74887031       0.75197473 </v>
    <v>       0.25727886       0.25210381       0.51039798 </v>
    <v>       0.23199446       0.24445784       0.24046134 </v>
    <v>       0.24977089       0.24937804       0.75123837 </v>
    <v>       0.74995727       0.74833766       0.75073625 </v>
    <v>       0.49898907       0.98524457       0.25151969 </v>
    <v>       0.99883757       0.49832613       0.99880613 </v>
    <v>       0.28018437       0.75308547       0.49799054 </v>
    <v>       0.77977879       0.24471101       0.25122743 </v>
    <v>       0.99882233       0.00160065       0.99954183 </v>
    <v>       0.49639376       0.52871529       0.24931860 </v>
    <v>       0.49978506       0.00028844       0.99889057 </v>
    <v>       0.00840108       0.03112674       0.49758371 </v>
    <v>       0.72017191       0.74182198       0.49783998 </v>
    <v>       0.11243121       0.13261538       0.26927018 </v>
    <v>       0.12066817       0.12358220       0.74023785 </v>
    <v>       0.11145672       0.63933113       0.24847789 </v>
    <v>       0.12267200       0.62499989       0.75674921 </v>
    <v>       0.87572041       0.87352764       0.75381727 </v>
    <v>       0.62402713       0.12380620       0.75454099 </v>
    <v>       0.64699633       0.89214399       0.25407485 </v>
    <v>       0.62290987       0.62573525       0.73338179 </v>
    <v>       0.49700917       0.47018966       0.13832076 </v>
    <v>       0.64089894       0.59431011       0.49397729 </v>
    <v>       0.37434160       0.12034724       0.75403648 </v>
    <v>       0.89597402       0.36502408       0.26093527 </v>
    <v>       0.87812508       0.37461513       0.73931989 </v>
    <v>       0.89512762       0.85649620       0.24442034 </v>
    <v>       0.35858886       0.89875516       0.49605657 </v>
    <v>       0.37286338       0.16895422       0.26937434 </v>
    <v>       0.62631411       0.87314223       0.73949130 </v>
    <v>       0.35514774       0.61583378       0.26014507 </v>
    <v>       0.37306787       0.62346482       0.74140001 </v>
    <v>       0.86107633       0.09975923       0.25467516 </v>
    <v>       0.87560894       0.12009655       0.73880082 </v>
    <v>       0.86321182       0.60788421       0.25050410 </v>
    <v>       0.87156431       0.62206243       0.75034073 </v>
    <v>       0.15077696       0.38797743       0.27232516 </v>
    <v>       0.12277053       0.37860863       0.74408279 </v>
    <v>       0.12609726       0.87601511       0.75493289 </v>
    <v>       0.77252857       0.75513268       0.38347747 </v>
    <v>       0.14035249       0.88994982       0.25581159 </v>
    <v>       0.75260354       0.75094033       0.12781009 </v>
    <v>       0.12920109       0.62281195       0.99919356 </v>
    <v>       0.37187342       0.37925014       0.99438610 </v>
    <v>       0.36041529       0.38414262       0.47662874 </v>
    <v>       0.37342930       0.87648588       0.00913856 </v>
    <v>       0.86759233       0.37526191       0.01365352 </v>
    <v>       0.85038064       0.38989295       0.49228210 </v>
    <v>       0.87185558       0.87592201       0.99915968 </v>
    <v>       0.12660761       0.12355674       0.00296906 </v>
    <v>       0.14906007       0.11929512       0.48096664 </v>
    <v>       0.37773646       0.37668357       0.75850060 </v>
    <v>       0.21744198       0.74866101       0.38782830 </v>
    <v>       0.62677081       0.12427975       0.99684058 </v>
    <v>       0.64564793       0.10442014       0.49887420 </v>
    <v>       0.37938823       0.62572258       0.01390643 </v>
    <v>       0.62035721       0.37317688       0.99522467 </v>
    <v>       0.12056856       0.37151394       0.99759799 </v>
    <v>       0.12068862       0.36348332       0.49171374 </v>
    <v>       0.37492129       0.87163531       0.73778499 </v>
    <v>       0.12421228       0.87170352       0.99698994 </v>
    <v>       0.62298259       0.87151235       0.00636646 </v>
    <v>       0.60294992       0.85940993       0.49975404 </v>
    <v>       0.37447293       0.12782912       0.99787277 </v>
    <v>       0.39110530       0.14101844       0.49367273 </v>
    <v>       0.98673155       0.96695477       0.38896571 </v>
    <v>       0.39518587       0.63138760       0.48362620 </v>
    <v>       0.87259693       0.12918597       0.01446558 </v>
    <v>       0.60506938       0.35202937       0.50361610 </v>
    <v>       0.87593625       0.62678809       0.00365948 </v>
    <v>       0.88619446       0.14495174       0.49360728 </v>
    <v>       0.01150946       0.00132677       0.12984151 </v>
    <v>       0.00666872       0.97453480       0.60853452 </v>
    <v>       0.01110707       0.49141956       0.13163446 </v>
    <v>       0.00265951       0.52469938       0.61257589 </v>
    <v>       0.62489165       0.37853223       0.75262939 </v>
    <v>       0.49952385       0.01032715       0.62253297 </v>
    <v>       0.62499588       0.62015350       0.01383744 </v>
    <v>       0.38273965       0.86344598       0.25922617 </v>
    <v>       0.99445038       0.01261050       0.87468050 </v>
    <v>       0.00280199       0.53408481       0.39014187 </v>
    <v>       0.98980962       0.49204217       0.87434978 </v>
    <v>       0.51172675       0.01021205       0.37053462 </v>
    <v>       0.49865988       0.98563512       0.87381437 </v>
    <v>       0.51871005       0.46374013       0.35610158 </v>
    <v>       0.50351515       0.51931347       0.87644790 </v>
    <v>       0.50325231       0.01781447       0.13580536 </v>
    <v>       0.24009260       0.24643417       0.87352448 </v>
    <v>       0.72159229       0.24954935       0.36235069 </v>
    <v>       0.26588897       0.74789331       0.87702478 </v>
    <v>       0.61756837       0.64390299       0.25455686 </v>
    <v>       0.76543885       0.25015844       0.87677640 </v>
    <v>       0.73764257       0.74225958       0.87641776 </v>
    <v>       0.24705863       0.25971395       0.12448607 </v>
    <v>       0.48507486       0.48873635       0.61859191 </v>
    <v>       0.24609900       0.75415690       0.12949845 </v>
    <v>       0.22112476       0.73679153       0.60649127 </v>
    <v>       0.71541843       0.25554253       0.14350470 </v>
    <v>       0.74632765       0.24891910       0.62251573 </v>
    <v>       0.26203988       0.25492633       0.62667974 </v>
    <v>       0.78916183       0.75337349       0.60245898 </v>
   </varray>
  </structure>
  <varray name="forces" >
   <v>       0.00024090       0.00007044       0.00126354 </v>
   <v>       0.00521158      -0.00290882      -0.00845476 </v>
   <v>      -0.00186567       0.00007264      -0.00171610 </v>
   <v>      -0.00436944      -0.00448309      -0.00058465 </v>
   <v>      -0.00303204      -0.00863746       0.00906694 </v>
   <v>      -0.00033164       0.00465503      -0.00301416 </v>
   <v>       0.00245469      -0.00390660      -0.00494765 </v>
   <v>       0.00183211      -0.00240384       0.00904824 </v>
   <v>       0.00141828      -0.00188568       0.00128850 </v>
   <v>       0.00154084      -0.00010355      -0.00208773 </v>
   <v>       0.00650851      -0.00589318       0.00267938 </v>
   <v>       0.00262703       0.00081337      -0.00638196 </v>
   <v>       0.00450197       0.00071915      -0.00651539 </v>
   <v>      -0.00432906      -0.00379773      -0.00419420 </v>
   <v>       0.00027153      -0.00344661       0.00128657 </v>
   <v>      -0.00297250       0.00280253      -0.00287391 </v>
   <v>       0.00071268      -0.00104235       0.00045961 </v>
   <v>      -0.00543950       0.00433238      -0.00833315 </v>
   <v>      -0.00048259       0.00808519       0.00184015 </v>
   <v>      -0.00126872       0.00664468       0.00662604 </v>
   <v>       0.00267704      -0.00385007      -0.00127046 </v>
   <v>       0.00213089      -0.00742948       0.00485542 </v>
   <v>       0.00213537      -0.00277240      -0.00466894 </v>
   <v>       0.00227800       0.00222298      -0.00685608 </v>
   <v>      -0.00837254      -0.00339397       0.00377392 </v>
   <v>      -0.00185191      -0.00363443       0.00467230 </v>
   <v>       0.00041307      -0.00064980       0.00035645 </v>
   <v>       0.00107261       0.00977078       0.00076905 </v>
   <v>       0.00615049      -0.00151473       0.00003543 </v>
   <v>       0.00472173      -0.00603760       0.00183011 </v>
   <v>      -0.00380251       0.00005743       0.00662242 </v>
   <v>      -0.00253372       0.00456951      -0.00982349 </v>
   <v>       0.00268562       0.01851345      -0.01000223 </v>
   <v>       0.00363299       0.00932414       0.00429595 </v>
   <v>      -0.00037485      -0.01648036      -0.01691645 </v>
   <v>      -0.02437478       0.03987078       0.00035951 </v>
   <v>       0.00295015       0.00115188      -0.01133044 </v>
   <v>       0.00180643       0.00287846       0.00208377 </v>
   <v>       0.00866011       0.00436899       0.00847105 </v>
   <v>      -0.00680010      -0.00126698      -0.00619866 </v>
   <v>      -0.00340436      -0.01302147       0.00767954 </v>
   <v>       0.00276336       0.00247201       0.00350076 </v>
   <v>       0.01409023       0.01631531       0.00511631 </v>
   <v>      -0.00993137      -0.00614547       0.00320646 </v>
   <v>       0.00144520      -0.00850797       0.00466967 </v>
   <v>       0.00061223       0.00007440       0.01072198 </v>
   <v>      -0.01038043      -0.01446020      -0.00511713 </v>
   <v>       0.00695980      -0.00329841      -0.01217630 </v>
   <v>      -0.00186862      -0.00165598      -0.00856903 </v>
   <v>      -0.00094321      -0.00508077       0.00537498 </v>
   <v>       0.01139185      -0.00197730       0.00055945 </v>
   <v>      -0.01187876      -0.00087437       0.01889172 </v>
   <v>      -0.00402669       0.00612084       0.01151959 </v>
   <v>       0.00377858       0.00357733      -0.00637485 </v>
   <v>      -0.00505602      -0.00180474      -0.00519020 </v>
   <v>       0.01248035      -0.00219744      -0.02267511 </v>
   <v>      -0.00206127       0.01117747       0.00162249 </v>
   <v>      -0.00660951      -0.02027936       0.01064413 </v>
   <v>       0.00485757       0.00060903       0.00003790 </v>
   <v>      -0.00153636      -0.01302824      -0.00491770 </v>
   <v>       0.00628051       0.00053564      -0.00355811 </v>
   <v>      -0.00051957      -0.00897878       0.00259214 </v>
   <v>      -0.01148228      -0.01273677       0.00157743 </v>
   <v>       0.00851553      -0.01102759       0.00709475 </v>
   <v>      -0.00271923       0.00625701      -0.01116665 </v>
   <v>      -0.00253566      -0.00317543      -0.00164615 </v>
   <v>      -0.01250101      -0.00177217       0.00401630 </v>
   <v>      -0.00689887       0.00070931      -0.00748410 </v>
   <v>       0.00604596      -0.00035072       0.00579146 </v>
   <v>       0.01535147       0.01146326      -0.00237690 </v>
   <v>      -0.00489868      -0.00307913      -0.00052209 </v>
   <v>       0.00672760       0.00619846       0.00664869 </v>
   <v>      -0.00154693       0.00229067      -0.00585050 </v>
   <v>      -0.00292879       0.00004812      -0.00086953 </v>
   <v>      -0.00476740       0.00577105       0.00702913 </v>
   <v>      -0.00653876      -0.00312026      -0.00646095 </v>
   <v>      -0.00474948      -0.00602192       0.00877457 </v>
   <v>       0.00585315       0.00186412       0.00779372 </v>
   <v>       0.01425761       0.01900294       0.00133855 </v>
   <v>      -0.00091759      -0.01042634       0.00023675 </v>
   <v>       0.00004542      -0.00230353       0.00718911 </v>
   <v>      -0.01111779       0.00515919       0.00301531 </v>
   <v>       0.00094795       0.00338995       0.00687441 </v>
   <v>       0.00466515      -0.01061298      -0.00535071 </v>
   <v>      -0.00539699       0.00649948       0.00204366 </v>
   <v>      -0.00551497      -0.00610771       0.00130449 </v>
   <v>      -0.00054754       0.00606571       0.00274025 </v>
   <v>       0.00570269      -0.00180409      -0.00284349 </v>
   <v>      -0.00797797       0.00279341       0.00506357 </v>
   <v>      -0.00548078       0.00189642      -0.00369170 </v>
   <v>      -0.00337477       0.00134214       0.00431355 </v>
   <v>       0.00115876       0.00087770       0.00227637 </v>
   <v>       0.00056297      -0.00157956       0.00132870 </v>
   <v>      -0.00996687       0.00285315       0.00182393 </v>
   <v>      -0.00186776      -0.01665442      -0.00270817 </v>
   <v>      -0.00157461       0.00198527      -0.00492517 </v>
   <v>      -0.00266452      -0.00145220      -0.00679499 </v>
   <v>       0.00497737       0.00044310      -0.00985028 </v>
   <v>      -0.00710484      -0.01403241       0.00052175 </v>
   <v>       0.00480595       0.00986772      -0.00503747 </v>
   <v>       0.00664429       0.01074363       0.00410290 </v>
   <v>       0.02252772       0.00060992       0.00457850 </v>
   <v>       0.00256333       0.00000744       0.00271141 </v>
   <v>       0.00628180      -0.00547541       0.00695780 </v>
   <v>       0.00736356       0.02366992       0.00348542 </v>
   <v>      -0.00004514      -0.00063334      -0.00118396 </v>
   <v>       0.00021194      -0.01754778      -0.00982099 </v>
   <v>       0.00904666       0.00025509       0.00240874 </v>
   <v>       0.01594084       0.00175738       0.00448223 </v>
   <v>       0.01276226      -0.00869048      -0.00585231 </v>
   <v>      -0.00272589       0.00381300       0.00118019 </v>
   <v>      -0.00445030       0.00177308       0.00128081 </v>
   <v>       0.00257418       0.00105661      -0.00006914 </v>
   <v>      -0.01484486       0.01878306       0.00081981 </v>
   <v>      -0.00508897       0.01163139       0.00551394 </v>
   <v>       0.00485644      -0.00457114       0.00274870 </v>
   <v>       0.00589608       0.00910030       0.00090149 </v>
   <v>      -0.00103363       0.00201774       0.01562985 </v>
   <v>      -0.00452239       0.00104995       0.00306889 </v>
   <v>       0.00341064      -0.00711387      -0.00264423 </v>
   <v>      -0.00773789      -0.01718517      -0.00304796 </v>
   <v>       0.00158092       0.00221010      -0.00065040 </v>
   <v>      -0.00634593      -0.00394019      -0.00869916 </v>
   <v>      -0.00789598      -0.00139910       0.00507231 </v>
   <v>      -0.00969597      -0.00200462       0.00281242 </v>
   <v>       0.00061703      -0.00715598       0.00444868 </v>
   <v>       0.01743927      -0.00165601       0.00698814 </v>
   <v>       0.00223782      -0.00637951      -0.00646664 </v>
   <v>      -0.00358329       0.00141901       0.00430797 </v>
   <v>      -0.00358988      -0.00401200       0.00149103 </v>
   <v>       0.00906769       0.00051972      -0.00501512 </v>
   <v>      -0.00359084      -0.00186646      -0.00975880 </v>
   <v>       0.00114918      -0.00118757      -0.00246459 </v>
   <v>      -0.00674367       0.00391763       0.00948655 </v>
   <v>      -0.00332813       0.01150100      -0.00344719 </v>
   <v>      -0.00168964       0.01327521      -0.00157635 </v>
   <v>       0.00280682       0.00078490       0.00516669 </v>
   <v>      -0.00279081      -0.00186641       0.00950808 </v>
   <v>      -0.00542881      -0.00367472       0.01409463 </v>
   <v>      -0.00562153      -0.00288332       0.00596984 </v>
   <v>      -0.00007216       0.00148587      -0.01091098 </v>
   <v>       0.00181374       0.00148723      -0.00469208 </v>
   <v>      -0.00305675      -0.00074681       0.00106188 </v>
   <v>       0.00055356      -0.00620013      -0.01456508 </v>
   <v>       0.00856988       0.00821251      -0.01663254 </v>
   <v>       0.00210798      -0.00462755      -0.00369802 </v>
   <v>       0.00337289       0.00536048       0.00517189 </v>
   <v>       0.00992765       0.00565948      -0.00053100 </v>
   <v>       0.00389942       0.00401970      -0.00193798 </v>
   <v>      -0.00064143      -0.00658380      -0.00282130 </v>
   <v>      -0.00571013       0.00607225      -0.00229914 </v>
   <v>      -0.01240974      -0.00026980      -0.00095604 </v>
  </varray>
  <varray name="stress" >
   <v>      -0.00920004      -0.02833037      -0.04318725 </v>
   <v>      -0.02833044      -0.11106652       0.00350099 </v>
   <v>      -0.04318750       0.00350095       0.02907575 </v>
  </varray>
  <energy>
   <i name="e_fr_energy">  -1057.20216939 </i>
   <i name="e_wo_entrp">  -1057.20216939 </i>
   <i name="e_0_energy">     -0.00000000 </i>
  </energy>
  <time name="totalsc"> 1018.48 1021.19</time>
 </calculation>
 <calculation>
  <scstep>
   <time name="dav">  287.72  287.87</time>
   <time name="total">  291.46  291.69</time>
   <energy>
    <i name="alphaZ">   5582.17568991 </i>
    <i name="ewald"> -61707.43106519 </i>
    <i name="hartreedc"> -17807.02231218 </i>
    <i name="XCdc">   3184.62981905 </i>
    <i name="pawpsdc"> 114573.31127926 </i>
    <i name="pawaedc">-113777.92252212 </i>
    <i name="eentropy">     -0.00000000 </i>
    <i name="bandstr">  -7155.11876577 </i>
    <i name="atom">  76050.17612637 </i>
    <i name="e_fr_energy">  -1057.20175067 </i>
    <i name="e_wo_entrp">  -1057.20175067 </i>
    <i name="e_0_energy">  -1057.20175067 </i>
   </energy>
  </scstep>
  <scstep>
   <time name="diag">   33.31   33.34</time>
   <time name="diis">   51.45   51.47</time>
   <time name="orth">   18.92   18.92</time>
   <time name="total">  107.41  107.49</time>
   <energy>
    <i name="e_fr_energy">  -1057.20252209 </i>
    <i name="e_wo_entrp">  -1057.20252209 </i>
    <i name="e_0_energy">  -1057.20252209 </i>
   </energy>
  </scstep>
  <scstep>
   <time name="diag">   33.32   33.32</time>
   <time name="diis">   39.89   39.91</time>
   <time name="orth">   18.97   18.97</time>
   <time name="total">   95.89   95.98</time>
   <energy>
    <i name="e_fr_energy">  -1057.20257895 </i>
    <i name="e_wo_entrp">  -1057.20257895 </i>
    <i name="e_0_energy">  -1057.20257895 </i>
   </energy>
  </scstep>
  <scstep>
   <time name="diag">   33.29   33.32</time>
   <time name="diis">   32.63   32.64</time>
   <time name="orth">   18.98   18.98</time>
   <time name="total">   88.61   88.66</time>
   <energy>
    <i name="e_fr_energy">  -1057.20254399 </i>
    <i name="e_wo_entrp">  -1057.20254399 </i>
    <i name="e_0_energy">  -1057.20254399 </i>
   </energy>
  </scstep>
  <scstep>
   <time name="diag">   33.32   33.34</time>
   <time name="diis">   32.10   32.12</time>
   <time name="orth">   18.93   18.94</time>
   <time name="total">   88.06   88.16</time>
   <energy>
    <i name="e_fr_energy">  -1057.20252915 </i>
    <i name="e_wo_entrp">  -1057.20252915 </i>
    <i name="e_0_energy">  -1057.20252915 </i>
   </energy>
  </scstep>
  <scstep>
   <time name="diag">   33.28   33.29</time>
   <time name="diis">   31.03   31.03</time>
   <time name="orth">   18.96   18.96</time>
   <time name="total">   86.99   87.07</time>
   <energy>
    <i name="e_fr_energy">  -1057.20253012 </i>
    <i name="e_wo_entrp">  -1057.20253012 </i>
    <i name="e_0_energy">  -1057.20253012 </i>
   </energy>
  </scstep>
  <scstep>
   <time name="diag">   33.36   33.37</time>
   <time name="diis">   29.34   29.37</time>
   <time name="orth">   18.98   18.99</time>
   <time name="total">   85.43   85.56</time>
   <energy>
    <i name="e_fr_energy">  -1057.20253070 </i>
    <i name="e_wo_entrp">  -1057.20253070 </i>
    <i name="e_0_energy">  -1057.20253070 </i>
   </energy>
  </scstep>
  <scstep>
   <time name="diag">   33.33   33.35</time>
   <time name="diis">   27.73   27.74</time>
   <time name="orth">   18.99   18.99</time>
   <time name="total">   80.61   80.67</time>
   <energy>
    <i name="alphaZ">   5582.17568991 </i>
    <i name="ewald"> -61707.43106519 </i>
    <i name="hartreedc"> -17806.47519128 </i>
    <i name="XCdc">   3184.59280265 </i>
    <i name="pawpsdc"> 114575.19594207 </i>
    <i name="pawaedc">-113779.81172717 </i>
    <i name="eentropy">     -0.00000000 </i>
    <i name="bandstr">  -7155.62510846 </i>
    <i name="atom">  76050.17612637 </i>
    <i name="e_fr_energy">  -1057.20253109 </i>
    <i name="e_wo_entrp">  -1057.20253109 </i>
    <i name="e_0_energy">  -1057.20253109 </i>
   </energy>
  </scstep>
  <structure>
   <crystal>
    <varray name="basis" >
     <v>      11.29304908      -0.00481781       0.01429381 </v>
     <v>      -0.00485098      11.29685696      -0.00563171 </v>
     <v>       0.02034146      -0.00823066      15.81441872 </v>
    </varray>
    <i name="volume">   2017.53547686 </i>
    <varray name="rec_basis" >
     <v>       0.08855020       0.00003797      -0.00011388 </v>
     <v>       0.00003771       0.08852024       0.00004602 </v>
     <v>      -0.00008002       0.00003149       0.06323355 </v>
    </varray>
   </crystal>
   <varray name="positions" >
    <v>       0.00334754       0.25175635       0.11190519 </v>
    <v>       0.99968997       0.24918644       0.63683186 </v>
    <v>       0.00018427       0.75001630       0.11487119 </v>
    <v>       0.00186456       0.75021085       0.64551661 </v>
    <v>       0.49230962       0.24381139       0.11122867 </v>
    <v>       0.49975121       0.24818370       0.63632022 </v>
    <v>       0.50115504       0.75935521       0.11663331 </v>
    <v>       0.49768301       0.74991831       0.63423785 </v>
    <v>       0.00350133       0.25344771       0.37785927 </v>
    <v>       0.00123433       0.25090167       0.87261647 </v>
    <v>       0.99758913       0.75104053       0.36194165 </v>
    <v>       0.99928690       0.74917754       0.87729949 </v>
    <v>       0.50266993       0.24544422       0.38239352 </v>
    <v>       0.49829043       0.24600382       0.87256338 </v>
    <v>       0.50523852       0.75887694       0.37229181 </v>
    <v>       0.50016703       0.75349026       0.87351058 </v>
    <v>       0.24795212       0.99664578       0.11254962 </v>
    <v>       0.25246159       0.00285038       0.63381355 </v>
    <v>       0.24466878       0.50209180       0.11576537 </v>
    <v>       0.24848807       0.49722728       0.63757721 </v>
    <v>       0.74830860       0.99788493       0.11670314 </v>
    <v>       0.74774804       0.99898144       0.63520278 </v>
    <v>       0.75358951       0.50291738       0.11661624 </v>
    <v>       0.74886056       0.49688672       0.63221269 </v>
    <v>       0.26021507       0.00405991       0.36995186 </v>
    <v>       0.25027651       0.00008850       0.87400858 </v>
    <v>       0.24159493       0.51590060       0.38064899 </v>
    <v>       0.24565784       0.49879093       0.87333048 </v>
    <v>       0.75275927       0.99800609       0.37731113 </v>
    <v>       0.74890324      -0.00000367       0.87368941 </v>
    <v>       0.74789523       0.49566513       0.37145080 </v>
    <v>       0.75135482       0.49875953       0.87338080 </v>
    <v>       0.49890831       0.50087144       0.75115441 </v>
    <v>       0.99792544       0.50087799       0.75225568 </v>
    <v>       0.24503140       0.75250734       0.24949652 </v>
    <v>       0.49958240       0.49983378       0.00041765 </v>
    <v>       0.24628034       0.24889548       0.99437030 </v>
    <v>       0.99961076       0.99901842       0.75346541 </v>
    <v>       0.74390422       0.24805995       0.50346964 </v>
    <v>       0.75529424       0.75321158       0.24793356 </v>
    <v>       0.49917657       0.99862386       0.75152282 </v>
    <v>       0.25030798       0.75080866       0.99765444 </v>
    <v>       0.49741095       0.48797758       0.49800873 </v>
    <v>       0.00210858       0.99549431       0.24898213 </v>
    <v>       0.49982234       0.00667262       0.50089967 </v>
    <v>       0.74980393       0.75068269       0.99833370 </v>
    <v>       0.74922849       0.24893637       0.99789830 </v>
    <v>       0.00368917       0.50331693       0.25034572 </v>
    <v>       0.75068088       0.24925792       0.75042135 </v>
    <v>       0.99562194       0.47180241       0.50091727 </v>
    <v>       0.24972500       0.74886189       0.75197639 </v>
    <v>       0.25722801       0.25210010       0.51045566 </v>
    <v>       0.23197721       0.24448400       0.24049651 </v>
    <v>       0.24978707       0.24939331       0.75121892 </v>
    <v>       0.74993570       0.74832993       0.75072043 </v>
    <v>       0.49904251       0.98523515       0.25145047 </v>
    <v>       0.99882877       0.49837386       0.99881111 </v>
    <v>       0.28015604       0.75299888       0.49802300 </v>
    <v>       0.77979954       0.24471361       0.25122753 </v>
    <v>       0.99881577       0.00154501       0.99952682 </v>
    <v>       0.49642061       0.52871758       0.24930772 </v>
    <v>       0.49978281       0.00025010       0.99889846 </v>
    <v>       0.00835200       0.03107233       0.49758854 </v>
    <v>       0.72020822       0.74177492       0.49786157 </v>
    <v>       0.11241967       0.13264207       0.26923614 </v>
    <v>       0.12065734       0.12356863       0.74023284 </v>
    <v>       0.11140329       0.63932355       0.24849019 </v>
    <v>       0.12264257       0.62500289       0.75672641 </v>
    <v>       0.87574621       0.87352616       0.75383491 </v>
    <v>       0.62409275       0.12385517       0.75453369 </v>
    <v>       0.64697540       0.89213083       0.25407328 </v>
    <v>       0.62293859       0.62576175       0.73340206 </v>
    <v>       0.49700260       0.47019942       0.13830292 </v>
    <v>       0.64088643       0.59431031       0.49397465 </v>
    <v>       0.37432121       0.12037189       0.75405795 </v>
    <v>       0.89594611       0.36501073       0.26091559 </v>
    <v>       0.87810473       0.37458942       0.73934667 </v>
    <v>       0.89515258       0.85650419       0.24444410 </v>
    <v>       0.35864980       0.89883634       0.49606062 </v>
    <v>       0.37285944       0.16890970       0.26937505 </v>
    <v>       0.62631426       0.87313241       0.73951323 </v>
    <v>       0.35510023       0.61585580       0.26015432 </v>
    <v>       0.37307189       0.62347931       0.74142099 </v>
    <v>       0.86109627       0.09971391       0.25465880 </v>
    <v>       0.87558589       0.12012430       0.73880709 </v>
    <v>       0.86318825       0.60785812       0.25050809 </v>
    <v>       0.87156196       0.62208833       0.75034910 </v>
    <v>       0.15080133       0.38796972       0.27231646 </v>
    <v>       0.12273643       0.37862056       0.74409828 </v>
    <v>       0.12607387       0.87602319       0.75492165 </v>
    <v>       0.77251414       0.75513841       0.38349064 </v>
    <v>       0.14035743       0.88995358       0.25581854 </v>
    <v>       0.75260593       0.75093358       0.12781413 </v>
    <v>       0.12915851       0.62282412       0.99919917 </v>
    <v>       0.37186543       0.37917901       0.99437782 </v>
    <v>       0.36040859       0.38415108       0.47661372 </v>
    <v>       0.37341796       0.87647965       0.00911784 </v>
    <v>       0.86761365       0.37526379       0.01362345 </v>
    <v>       0.85035026       0.38983302       0.49228370 </v>
    <v>       0.87187615       0.87596415       0.99914431 </v>
    <v>       0.12663599       0.12360264       0.00298157 </v>
    <v>       0.14915628       0.11929777       0.48098052 </v>
    <v>       0.37774740       0.37668361       0.75850886 </v>
    <v>       0.21746876       0.74863765       0.38784949 </v>
    <v>       0.62680229       0.12438085       0.99685122 </v>
    <v>       0.64564774       0.10441744       0.49887059 </v>
    <v>       0.37938916       0.62564762       0.01387645 </v>
    <v>       0.62039584       0.37317799       0.99523198 </v>
    <v>       0.12063664       0.37152148       0.99761161 </v>
    <v>       0.12074316       0.36344622       0.49169582 </v>
    <v>       0.37490965       0.87165159       0.73778860 </v>
    <v>       0.12419326       0.87171109       0.99699387 </v>
    <v>       0.62299359       0.87151686       0.00636624 </v>
    <v>       0.60288653       0.85949012       0.49975663 </v>
    <v>       0.37445118       0.12787880       0.99788962 </v>
    <v>       0.39112602       0.14099894       0.49368109 </v>
    <v>       0.98675674       0.96699364       0.38896845 </v>
    <v>       0.39518137       0.63139625       0.48367388 </v>
    <v>       0.87257759       0.12919045       0.01447496 </v>
    <v>       0.60508396       0.35199899       0.50360801 </v>
    <v>       0.87590318       0.62671468       0.00365019 </v>
    <v>       0.88620122       0.14496118       0.49360529 </v>
    <v>       0.01148239       0.00130992       0.12981499 </v>
    <v>       0.00663496       0.97452882       0.60855002 </v>
    <v>       0.01106563       0.49141099       0.13164307 </v>
    <v>       0.00266211       0.52466883       0.61258945 </v>
    <v>       0.62496610       0.37852520       0.75265064 </v>
    <v>       0.49953344       0.01029990       0.62251322 </v>
    <v>       0.62498055       0.62015956       0.01385059 </v>
    <v>       0.38272429       0.86342885       0.25923072 </v>
    <v>       0.99448914       0.01261272       0.87466516 </v>
    <v>       0.00278670       0.53407681       0.39011211 </v>
    <v>       0.98981454       0.49203709       0.87434225 </v>
    <v>       0.51169790       0.01022879       0.37056359 </v>
    <v>       0.49864570       0.98568421       0.87380388 </v>
    <v>       0.51870286       0.46379681       0.35609679 </v>
    <v>       0.50352711       0.51931684       0.87646365 </v>
    <v>       0.50324033       0.01780652       0.13583438 </v>
    <v>       0.24006933       0.24641850       0.87356749 </v>
    <v>       0.72156824       0.24953704       0.36236892 </v>
    <v>       0.26588872       0.74789963       0.87699150 </v>
    <v>       0.61757614       0.64390934       0.25454254 </v>
    <v>       0.76542579       0.25015524       0.87677965 </v>
    <v>       0.73764501       0.74223307       0.87637332 </v>
    <v>       0.24709535       0.25974900       0.12443531 </v>
    <v>       0.48508388       0.48871658       0.61858061 </v>
    <v>       0.24611339       0.75417981       0.12951422 </v>
    <v>       0.22116718       0.73681571       0.60648962 </v>
    <v>       0.71543511       0.25555970       0.14349878 </v>
    <v>       0.74632492       0.24889098       0.62250712 </v>
    <v>       0.26201551       0.25495224       0.62667276 </v>
    <v>       0.78910882       0.75337231       0.60245612 </v>
   </varray>
  </structure>
  <varray name="forces" >
   <v>       0.00113773      -0.00154232      -0.00368534 </v>
   <v>       0.00099388      -0.00311591      -0.00399946 </v>
   <v>      -0.00283539       0.00238433       0.00107449 </v>
   <v>      -0.00396075      -0.00111951       0.00156873 </v>
   <v>      -0.00576879       0.00193365       0.00230756 </v>
   <v>       0.00113642       0.00014388      -0.00571873 </v>
   <v>       0.00263473      -0.00308579       0.00093787 </v>
   <v>       0.00131732       0.00509364       0.00063485 </v>
   <v>       0.00153906      -0.00312523      -0.00021719 </v>
   <v>      -0.00253773       0.00163107       0.00133864 </v>
   <v>       0.00655297      -0.00477030       0.00199855 </v>
   <v>      -0.00012589       0.00170884      -0.00910962 </v>
   <v>      -0.00062554      -0.00533364       0.00036539 </v>
   <v>      -0.00103770       0.00274405      -0.00022266 </v>
   <v>      -0.00347928       0.00401810       0.00331319 </v>
   <v>       0.00149361       0.00143743      -0.00332912 </v>
   <v>      -0.00452176       0.00792065       0.00526302 </v>
   <v>      -0.00170678       0.00350638      -0.01123367 </v>
   <v>      -0.00209271      -0.00461329       0.00124152 </v>
   <v>      -0.00305987       0.00203261       0.00387189 </v>
   <v>       0.00547092       0.00381288       0.00042048 </v>
   <v>      -0.00028976      -0.00163972       0.00213350 </v>
   <v>       0.00122126      -0.01314295      -0.00836545 </v>
   <v>       0.00423237      -0.00307356      -0.00123431 </v>
   <v>       0.00063852      -0.00393494       0.00364181 </v>
   <v>      -0.00516170       0.00231893       0.00381079 </v>
   <v>       0.00166662      -0.00412759       0.00311479 </v>
   <v>      -0.00041599       0.00223194       0.00251544 </v>
   <v>      -0.00160963       0.00132516       0.00359055 </v>
   <v>       0.00558959       0.00145617      -0.00039880 </v>
   <v>       0.00091169      -0.00309936       0.00163927 </v>
   <v>      -0.00264243      -0.00487171      -0.00591825 </v>
   <v>       0.00660712      -0.00808563       0.00291116 </v>
   <v>      -0.00971408      -0.00528987       0.00123978 </v>
   <v>      -0.00327027       0.00703818       0.00457256 </v>
   <v>       0.02702332      -0.05233597      -0.00961611 </v>
   <v>       0.00086867       0.01134852       0.00537168 </v>
   <v>      -0.00335132       0.00766519      -0.00134115 </v>
   <v>      -0.01268629      -0.00958717      -0.00252255 </v>
   <v>       0.00340206      -0.00302888       0.00683457 </v>
   <v>       0.00414186       0.01392107      -0.01341025 </v>
   <v>      -0.01585210       0.00718505      -0.00735003 </v>
   <v>      -0.00069618      -0.00809698      -0.00407874 </v>
   <v>       0.00883783       0.00390379      -0.00794662 </v>
   <v>      -0.00001773       0.00589070      -0.00660273 </v>
   <v>       0.00729158      -0.00703295      -0.01007930 </v>
   <v>      -0.00379177       0.01835569      -0.01015824 </v>
   <v>      -0.00533629      -0.00690940       0.00400587 </v>
   <v>       0.00082228       0.00020435       0.00069013 </v>
   <v>       0.00314659      -0.00985809      -0.00593486 </v>
   <v>      -0.00474648       0.00614570      -0.00278911 </v>
   <v>       0.00847060      -0.00168155      -0.00600702 </v>
   <v>       0.00603568      -0.00195842      -0.01356704 </v>
   <v>       0.00100196       0.00159360       0.00858186 </v>
   <v>       0.00401667       0.00221036       0.00067874 </v>
   <v>      -0.00172383      -0.00340366       0.02327308 </v>
   <v>      -0.00483528      -0.01316499      -0.00357031 </v>
   <v>       0.01055474       0.01541448      -0.00421916 </v>
   <v>      -0.00392037      -0.00572748       0.00233945 </v>
   <v>       0.00369284       0.00895914       0.00188333 </v>
   <v>      -0.00345404       0.00123878      -0.00504087 </v>
   <v>      -0.00058318       0.01021992       0.00015329 </v>
   <v>       0.00564994       0.00256144       0.00317284 </v>
   <v>      -0.01129727       0.01403387      -0.00804526 </v>
   <v>      -0.00553034       0.00206621      -0.00698298 </v>
   <v>       0.00105921       0.00131850      -0.00281855 </v>
   <v>      -0.00455342       0.00293336      -0.00373403 </v>
   <v>       0.00353867       0.00787925      -0.00580670 </v>
   <v>       0.00074429      -0.00389185       0.00400234 </v>
   <v>      -0.00503266      -0.01034867      -0.00155264 </v>
   <v>       0.00102416      -0.00438306      -0.00144370 </v>
   <v>      -0.00233463      -0.00036350       0.00152771 </v>
   <v>      -0.00476300       0.00918766       0.00017987 </v>
   <v>       0.00122898       0.00235947       0.00121158 </v>
   <v>       0.00406416      -0.00055253       0.00199786 </v>
   <v>       0.00446640       0.00302157      -0.00428464 </v>
   <v>       0.00361499       0.00367952       0.00316369 </v>
   <v>      -0.00403383      -0.00734518       0.00604252 </v>
   <v>      -0.01409950      -0.02097839       0.00291223 </v>
   <v>      -0.00541275      -0.00666118      -0.00323665 </v>
   <v>      -0.00348075      -0.00173548       0.00811569 </v>
   <v>       0.00309416      -0.00738589      -0.00040833 </v>
   <v>       0.00321946       0.00289367       0.00461250 </v>
   <v>      -0.00263645      -0.00431512      -0.00368286 </v>
   <v>       0.00181498      -0.00278031       0.00100268 </v>
   <v>      -0.00475650      -0.00255400      -0.00136005 </v>
   <v>      -0.00031009       0.00631044      -0.00090646 </v>
   <v>       0.00067226       0.00680182      -0.00199547 </v>
[...]
       <r>   -17.1724     0.0000    32.0000 </r>
       <r>   -17.0187     0.0000    32.0000 </r>
       <r>   -16.8650     0.0000    32.0000 </r>
       <r>   -16.7112     0.0000    32.0000 </r>
       <r>   -16.5575     0.0000    32.0000 </r>
       <r>   -16.4038     0.0000    32.0000 </r>
       <r>   -16.2500     0.0000    32.0000 </r>
       <r>   -16.0963     0.0000    32.0000 </r>
       <r>   -15.9426     0.0000    32.0000 </r>
       <r>   -15.7888     0.0000    32.0000 </r>
       <r>   -15.6351     0.0000    32.0000 </r>
       <r>   -15.4813     0.0000    32.0000 </r>
       <r>   -15.3276     0.0024    32.0004 </r>
       <r>   -15.1739     6.4770    32.9961 </r>
       <r>   -15.0201    20.3994    36.1322 </r>
       <r>   -14.8664    41.2072    42.4672 </r>
       <r>   -14.7127    51.4718    50.3803 </r>
       <r>   -14.5589    40.9744    56.6795 </r>
       <r>   -14.4052    39.4633    62.7464 </r>
       <r>   -14.2515    47.8857    70.1081 </r>
       <r>   -14.0977    78.1963    82.1297 </r>
       <r>   -13.9440   102.3446    97.8637 </r>
       <r>   -13.7903    70.5106   108.7036 </r>
       <r>   -13.6365    61.5227   118.1618 </r>
       <r>   -13.4828    11.9550   119.9998 </r>
       <r>   -13.3291     0.0016   120.0000 </r>
       <r>   -13.1753     0.0000   120.0000 </r>
       <r>   -13.0216     0.0000   120.0000 </r>
       <r>   -12.8678     3.0792   120.4734 </r>
       <r>   -12.7141    40.6525   126.7231 </r>
       <r>   -12.5604   131.6142   146.9569 </r>
       <r>   -12.4066   140.4617   168.5508 </r>
       <r>   -12.2529   102.3018   184.2782 </r>
       <r>   -12.0992   104.2300   200.3021 </r>
       <r>   -11.9454    46.8039   207.4975 </r>
       <r>   -11.7917    18.3068   210.3119 </r>
       <r>   -11.6380    23.3402   213.9001 </r>
       <r>   -11.4842    12.8158   215.8704 </r>
       <r>   -11.3305     0.8433   216.0000 </r>
       <r>   -11.1768     0.0000   216.0000 </r>
       <r>   -11.0230     0.0000   216.0000 </r>
       <r>   -10.8693     0.0000   216.0000 </r>
       <r>   -10.7155     0.0000   216.0000 </r>
       <r>   -10.5618     0.0000   216.0000 </r>
       <r>   -10.4081     0.0000   216.0000 </r>
       <r>   -10.2543     0.0000   216.0000 </r>
       <r>   -10.1006     0.0000   216.0000 </r>
       <r>    -9.9469     0.0000   216.0000 </r>
       <r>    -9.7931     0.0000   216.0000 </r>
       <r>    -9.6394     0.0000   216.0000 </r>
       <r>    -9.4857     0.0000   216.0000 </r>
       <r>    -9.3319     0.0000   216.0000 </r>
       <r>    -9.1782     0.0000   216.0000 </r>
       <r>    -9.0245     0.0000   216.0000 </r>
       <r>    -8.8707     0.0000   216.0000 </r>
       <r>    -8.7170     0.0000   216.0000 </r>
       <r>    -8.5633     0.0000   216.0000 </r>
       <r>    -8.4095     0.0000   216.0000 </r>
       <r>    -8.2558     0.0000   216.0000 </r>
       <r>    -8.1020     0.0000   216.0000 </r>
       <r>    -7.9483     0.0000   216.0000 </r>
       <r>    -7.7946     0.0000   216.0000 </r>
       <r>    -7.6408     0.0000   216.0000 </r>
       <r>    -7.4871     0.0000   216.0000 </r>
       <r>    -7.3334     0.0000   216.0000 </r>
       <r>    -7.1796     0.0000   216.0000 </r>
       <r>    -7.0259     0.0000   216.0000 </r>
       <r>    -6.8722     0.0000   216.0000 </r>
       <r>    -6.7184     0.0000   216.0000 </r>
       <r>    -6.5647     0.0000   216.0000 </r>
       <r>    -6.4110     0.0000   216.0000 </r>
       <r>    -6.2572     0.0000   216.0000 </r>
       <r>    -6.1035     0.0000   216.0000 </r>
       <r>    -5.9498     0.0000   216.0000 </r>
       <r>    -5.7960     0.0000   216.0000 </r>
       <r>    -5.6423     0.0000   216.0000 </r>
       <r>    -5.4885     0.0000   216.0000 </r>
       <r>    -5.3348     0.0000   216.0000 </r>
       <r>    -5.1811     0.0000   216.0000 </r>
       <r>    -5.0273     0.0000   216.0000 </r>
       <r>    -4.8736     0.0000   216.0000 </r>
       <r>    -4.7199     0.0000   216.0000 </r>
       <r>    -4.5661     0.0000   216.0000 </r>
       <r>    -4.4124     0.0000   216.0000 </r>
       <r>    -4.2587     0.0000   216.0000 </r>
       <r>    -4.1049     0.0000   216.0000 </r>
       <r>    -3.9512     0.0000   216.0000 </r>
       <r>    -3.7975     0.0000   216.0000 </r>
       <r>    -3.6437     0.0000   216.0000 </r>
       <r>    -3.4900     0.0000   216.0000 </r>
       <r>    -3.3362     0.0000   216.0000 </r>
       <r>    -3.1825     0.0000   216.0000 </r>
       <r>    -3.0288     0.0000   216.0000 </r>
       <r>    -2.8750     0.0000   216.0000 </r>
       <r>    -2.7213     0.0000   216.0000 </r>
       <r>    -2.5676     0.0001   216.0000 </r>
       <r>    -2.4138     3.4686   216.5333 </r>
       <r>    -2.2601    15.3019   218.8857 </r>
       <r>    -2.1064    31.5223   223.7318 </r>
       <r>    -1.9526    30.0077   228.3450 </r>
       <r>    -1.7989    24.2076   232.0666 </r>
       <r>    -1.6452    35.1823   237.4754 </r>
       <r>    -1.4914    43.7004   244.1937 </r>
       <r>    -1.3377    46.7612   251.3825 </r>
       <r>    -1.1840    64.0006   261.2217 </r>
       <r>    -1.0302    83.2391   274.0185 </r>
       <r>    -0.8765    74.2943   285.4401 </r>
       <r>    -0.7227    86.0071   298.6625 </r>
       <r>    -0.5690    87.2925   312.0824 </r>
       <r>    -0.4153    94.7536   326.6494 </r>
       <r>    -0.2615    77.3036   338.5337 </r>
       <r>    -0.1078    56.6411   347.2414 </r>
       <r>     0.0459    55.3913   355.7570 </r>
       <r>     0.1997    53.8189   364.0309 </r>
       <r>     0.3534    59.1252   373.1206 </r>
       <r>     0.5071    64.2743   383.0018 </r>
       <r>     0.6609    54.8010   391.4267 </r>
       <r>     0.8146    51.2640   399.3078 </r>
       <r>     0.9683    51.6977   407.2555 </r>
       <r>     1.1221    58.0526   416.1803 </r>
       <r>     1.2758    74.0927   427.5709 </r>
       <r>     1.4295    86.7667   440.9101 </r>
       <r>     1.5833    77.3766   452.8056 </r>
       <r>     1.7370    66.2198   462.9859 </r>
       <r>     1.8908    52.1819   471.0081 </r>
       <r>     2.0445    28.2064   475.3444 </r>
       <r>     2.1982    19.0377   478.2712 </r>
       <r>     2.3520    10.7972   479.9311 </r>
       <r>     2.5057     0.4481   480.0000 </r>
       <r>     2.6594     0.0000   480.0000 </r>
       <r>     2.8132     0.0000   480.0000 </r>
       <r>     2.9669     0.0000   480.0000 </r>
       <r>     3.1206     0.0000   480.0000 </r>
       <r>     3.2744     0.0000   480.0000 </r>
       <r>     3.4281     0.0000   480.0000 </r>
       <r>     3.5818     0.0000   480.0000 </r>
       <r>     3.7356     0.0000   480.0000 </r>
       <r>     3.8893     0.0000   480.0000 </r>
       <r>     4.0430     0.0000   480.0000 </r>
       <r>     4.1968     0.0000   480.0000 </r>
       <r>     4.3505     0.4688   480.0721 </r>
       <r>     4.5043    23.7919   483.7297 </r>
       <r>     4.6580    51.2689   491.6116 </r>
       <r>     4.8117    61.6308   501.0864 </r>
       <r>     4.9655    54.8680   509.5216 </r>
       <r>     5.1192    65.7293   519.6265 </r>
       <r>     5.2729    88.1543   533.1789 </r>
       <r>     5.4267    72.7885   544.3691 </r>
       <r>     5.5804    71.4096   555.3473 </r>
       <r>     5.7341    64.0840   565.1992 </r>
       <r>     5.8879    61.1503   574.6002 </r>
       <r>     6.0416    78.1178   586.6097 </r>
       <r>     6.1953    86.8619   599.9634 </r>
       <r>     6.3491    45.0858   606.8947 </r>
       <r>     6.5028    12.7732   608.8584 </r>
       <r>     6.6566    11.6699   610.6525 </r>
       <r>     6.8103    10.7725   612.3086 </r>
       <r>     6.9640    16.2764   614.8109 </r>
       <r>     7.1178    14.0945   616.9777 </r>
       <r>     7.2715    13.6686   619.0790 </r>
       <r>     7.4252    18.5656   621.9332 </r>
       <r>     7.5790    17.9264   624.6891 </r>
       <r>     7.7327    18.7229   627.5675 </r>
       <r>     7.8864    21.1177   630.8140 </r>
       <r>     8.0402    27.2040   634.9963 </r>
       <r>     8.1939    30.6773   639.7124 </r>
       <r>     8.3476    25.8317   643.6837 </r>
       <r>     8.5014    29.6916   648.2484 </r>
       <r>     8.6551    28.2372   652.5894 </r>
       <r>     8.8088    29.1167   657.0657 </r>
       <r>     8.9626    31.2483   661.8697 </r>
       <r>     9.1163    35.5455   667.3343 </r>
       <r>     9.2701    38.9647   673.3245 </r>
       <r>     9.4238    45.8838   680.3785 </r>
       <r>     9.5775    46.5468   687.5344 </r>
       <r>     9.7313    56.0445   696.1504 </r>
       <r>     9.8850    60.6293   705.4713 </r>
       <r>    10.0387    62.0961   715.0177 </r>
       <r>    10.1925    51.1102   722.8751 </r>
       <r>    10.3462    55.4684   731.4026 </r>
       <r>    10.4999    59.0735   740.4843 </r>
       <r>    10.6537    49.2768   748.0599 </r>
       <r>    10.8074    49.6376   755.6909 </r>
       <r>    10.9611    59.6317   764.8584 </r>
       <r>    11.1149    20.4250   767.9985 </r>
       <r>    11.2686     0.0100   768.0000 </r>
       <r>    11.4223     0.0000   768.0000 </r>
       <r>    11.5761     0.0000   768.0000 </r>
       <r>    11.7298     0.0000   768.0000 </r>
       <r>    11.8836     0.0000   768.0000 </r>
       <r>    12.0373     0.0000   768.0000 </r>
       <r>    12.1910     0.0000   768.0000 </r>
       <r>    12.3448     0.0000   768.0000 </r>
       <r>    12.4985     0.0000   768.0000 </r>
       <r>    12.6522     0.0000   768.0000 </r>
       <r>    12.8060     0.0000   768.0000 </r>
       <r>    12.9597     0.0000   768.0000 </r>
       <r>    13.1134     0.0000   768.0000 </r>
      </set>
     </set>
    </array>
   </total>
  </dos>
 </calculation>
 <structure name="finalpos" >
  <crystal>
   <varray name="basis" >
    <v>      11.29301004      -0.00485674       0.01425052 </v>
    <v>      -0.00489004      11.29652528      -0.00561342 </v>
    <v>       0.02027996      -0.00820457      15.81509530 </v>
   </varray>
   <i name="volume">   2017.55559462 </i>
   <varray name="rec_basis" >
    <v>       0.08855051       0.00003828      -0.00011353 </v>
    <v>       0.00003801       0.08852283       0.00004588 </v>
    <v>      -0.00007978       0.00003139       0.06323085 </v>
   </varray>
  </crystal>
  <varray name="positions" >
   <v>       0.00335175       0.25175252       0.11189938 </v>
   <v>       0.99970115       0.24917243       0.63681226 </v>
   <v>       0.00017366       0.75002344       0.11487137 </v>
   <v>       0.00184568       0.75019960       0.64551821 </v>
   <v>       0.49228786       0.24380565       0.11124260 </v>
   <v>       0.49975414       0.24819325       0.63630518 </v>
   <v>       0.50116544       0.75933947       0.11662920 </v>
   <v>       0.49769047       0.74992800       0.63425326 </v>
   <v>       0.00350843       0.25343626       0.37786044 </v>
   <v>       0.00123033       0.25090957       0.87261410 </v>
   <v>       0.99761891       0.75101647       0.36194948 </v>
   <v>       0.99929203       0.74918447       0.87727337 </v>
   <v>       0.50267649       0.24543176       0.38238715 </v>
   <v>       0.49827986       0.24600644       0.87255766 </v>
   <v>       0.50522957       0.75888158       0.37230015 </v>
   <v>       0.50016557       0.75350250       0.87349856 </v>
   <v>       0.24794145       0.99666488       0.11256132 </v>
   <v>       0.25244690       0.00286977       0.63377989 </v>
   <v>       0.24466304       0.50209560       0.11577034 </v>
   <v>       0.24848033       0.49724944       0.63759448 </v>
   <v>       0.74832995       0.99788805       0.11670103 </v>
   <v>       0.74775251       0.99896332       0.63521240 </v>
   <v>       0.75359706       0.50287746       0.11659386 </v>
   <v>       0.74887680       0.49688421       0.63220137 </v>
   <v>       0.26019992       0.00404119       0.36996436 </v>
   <v>       0.25025911       0.00008709       0.87402268 </v>
   <v>       0.24160144       0.51588836       0.38065555 </v>
   <v>       0.24565939       0.49881673       0.87333638 </v>
   <v>       0.75276498       0.99800512       0.37731776 </v>
   <v>       0.74892705      -0.00001704       0.87369040 </v>
   <v>       0.74789324       0.49565780       0.37146205 </v>
   <v>       0.75134416       0.49875462       0.87335594 </v>
   <v>       0.49893191       0.50088142       0.75114600 </v>
   <v>       0.99790210       0.50088070       0.75225931 </v>
   <v>       0.24501873       0.75250247       0.24948403 </v>
   <v>       0.49962439       0.49972812       0.00040657 </v>
   <v>       0.24629088       0.24892605       0.99436555 </v>
   <v>       0.99960470       0.99904713       0.75346537 </v>
   <v>       0.74387857       0.24804400       0.50347178 </v>
   <v>       0.75528705       0.75319857       0.24793747 </v>
   <v>       0.49917197       0.99862879       0.75150466 </v>
   <v>       0.25026470       0.75083514       0.99764288 </v>
   <v>       0.49743566       0.48798442       0.49800700 </v>
   <v>       0.00209810       0.99547690       0.24897259 </v>
   <v>       0.49982576       0.00667455       0.50089198 </v>
   <v>       0.74982832       0.75066200       0.99832563 </v>
   <v>       0.74919994       0.24896729       0.99786867 </v>
   <v>       0.00368600       0.50329364       0.25034342 </v>
   <v>       0.75067992       0.24925554       0.75041156 </v>
   <v>       0.99562991       0.47176392       0.50091191 </v>
   <v>       0.24973007       0.74887747       0.75197122 </v>
   <v>       0.25723183       0.25209517       0.51046657 </v>
   <v>       0.23199254       0.24449376       0.24048444 </v>
   <v>       0.24979974       0.24940744       0.75123011 </v>
   <v>       0.74993827       0.74833293       0.75071536 </v>
   <v>       0.49906224       0.98521862       0.25146195 </v>
   <v>       0.99880966       0.49835396       0.99880489 </v>
   <v>       0.28017630       0.75300725       0.49802802 </v>
   <v>       0.77979520       0.24469717       0.25123276 </v>
   <v>       0.99881801       0.00154292       0.99952102 </v>
   <v>       0.49642180       0.52872300       0.24929319 </v>
   <v>       0.49978024       0.00026388       0.99890218 </v>
   <v>       0.00834676       0.03105674       0.49759927 </v>
   <v>       0.72019243       0.74179132       0.49785944 </v>
   <v>       0.11240044       0.13265852       0.26920852 </v>
   <v>       0.12065630       0.12356645       0.74022485 </v>
   <v>       0.11136856       0.63933006       0.24848562 </v>
   <v>       0.12263831       0.62503464       0.75670214 </v>
   <v>       0.87576030       0.87351291       0.75385111 </v>
   <v>       0.62410664       0.12384680       0.75453187 </v>
   <v>       0.64696793       0.89210588       0.25406486 </v>
   <v>       0.62294207       0.62576981       0.73341350 </v>
   <v>       0.49698580       0.47023332       0.13829572 </v>
   <v>       0.64088495       0.59431826       0.49397600 </v>
   <v>       0.37432890       0.12038075       0.75406945 </v>
   <v>       0.89595146       0.36501677       0.26089807 </v>
   <v>       0.87810701       0.37458990       0.73936362 </v>
   <v>       0.89515226       0.85648569       0.24446757 </v>
   <v>       0.35863758       0.89880920       0.49607230 </v>
   <v>       0.37284236       0.16886964       0.26936808 </v>
   <v>       0.62630400       0.87312202       0.73954079 </v>
   <v>       0.35508952       0.61584255       0.26016288 </v>
   <v>       0.37308039       0.62350031       0.74144096 </v>
   <v>       0.86109800       0.09968035       0.25464373 </v>
   <v>       0.87558075       0.12012660       0.73881151 </v>
   <v>       0.86315669       0.60784290       0.25050985 </v>
   <v>       0.87156014       0.62211998       0.75035048 </v>
   <v>       0.15081428       0.38798810       0.27230868 </v>
   <v>       0.12272080       0.37863147       0.74410849 </v>
   <v>       0.12606841       0.87601173       0.75490989 </v>
   <v>       0.77249623       0.75514141       0.38351072 </v>
   <v>       0.14036328       0.88993927       0.25582248 </v>
   <v>       0.75261056       0.75093415       0.12780076 </v>
   <v>       0.12914061       0.62286828       0.99920849 </v>
   <v>       0.37188968       0.37915653       0.99436558 </v>
   <v>       0.36042428       0.38418281       0.47660523 </v>
   <v>       0.37341110       0.87645831       0.00909509 </v>
   <v>       0.86764529       0.37527399       0.01360291 </v>
   <v>       0.85035825       0.38981343       0.49228742 </v>
   <v>       0.87187112       0.87596709       0.99913078 </v>
   <v>       0.12662890       0.12360875       0.00298927 </v>
   <v>       0.14918501       0.11925932       0.48100900 </v>
   <v>       0.37776743       0.37670766       0.75851411 </v>
   <v>       0.21749292       0.74860558       0.38787839 </v>
   <v>       0.62676468       0.12439500       0.99686794 </v>
   <v>       0.64567520       0.10442991       0.49887061 </v>
   <v>       0.37934236       0.62563446       0.01385330 </v>
   <v>       0.62039553       0.37322563       0.99524855 </v>
   <v>       0.12067703       0.37157515       0.99763023 </v>
   <v>       0.12075233       0.36345185       0.49168081 </v>
   <v>       0.37489928       0.87165926       0.73779769 </v>
   <v>       0.12420239       0.87169081       0.99699641 </v>
   <v>       0.62299729       0.87152631       0.00636620 </v>
   <v>       0.60290001       0.85946323       0.49975713 </v>
   <v>       0.37447618       0.12787141       0.99790688 </v>
   <v>       0.39113498       0.14100880       0.49369888 </v>
   <v>       0.98678283       0.96702668       0.38896734 </v>
   <v>       0.39520112       0.63140121       0.48371664 </v>
   <v>       0.87258346       0.12916333       0.01448451 </v>
   <v>       0.60507307       0.35202337       0.50360525 </v>
   <v>       0.87584400       0.62668408       0.00364634 </v>
   <v>       0.88623278       0.14495755       0.49360394 </v>
   <v>       0.01145191       0.00127887       0.12979958 </v>
   <v>       0.00659426       0.97451876       0.60855998 </v>
   <v>       0.01103940       0.49141708       0.13163183 </v>
   <v>       0.00266217       0.52463788       0.61258839 </v>
   <v>       0.62498616       0.37855350       0.75266048 </v>
   <v>       0.49954393       0.01026748       0.62254655 </v>
   <v>       0.62496844       0.62020784       0.01386830 </v>
   <v>       0.38272182       0.86341664       0.25922538 </v>
   <v>       0.99453376       0.01260991       0.87466060 </v>
   <v>       0.00277237       0.53405191       0.39011300 </v>
   <v>       0.98982785       0.49204899       0.87433705 </v>
   <v>       0.51168086       0.01022302       0.37054073 </v>
   <v>       0.49863276       0.98572683       0.87381621 </v>
   <v>       0.51870113       0.46386486       0.35608833 </v>
   <v>       0.50353115       0.51934505       0.87646109 </v>
   <v>       0.50323340       0.01779439       0.13581681 </v>
   <v>       0.24004908       0.24640171       0.87354707 </v>
   <v>       0.72156125       0.24952684       0.36236927 </v>
   <v>       0.26589243       0.74790876       0.87699244 </v>
   <v>       0.61757871       0.64392006       0.25452370 </v>
   <v>       0.76541460       0.25014090       0.87677574 </v>
   <v>       0.73764376       0.74221197       0.87636858 </v>
   <v>       0.24712850       0.25978009       0.12444113 </v>
   <v>       0.48509826       0.48871916       0.61859555 </v>
   <v>       0.24613608       0.75418945       0.12947748 </v>
   <v>       0.22119851       0.73683516       0.60651695 </v>
   <v>       0.71545490       0.25557162       0.14350843 </v>
   <v>       0.74632806       0.24886870       0.62250581 </v>
   <v>       0.26198477       0.25497927       0.62670807 </v>
   <v>       0.78906430       0.75336175       0.60247706 </v>
  </varray>
 </structure>
</modeling>
