<?xml version="1.0" encoding="ISO-8859-1"?>
<modeling>
 <generator>
  <i name="program" type="string">vasp </i>
  <i name="version" type="string">5.4.1  </i>
  <i name="subversion" type="string">05Feb16 (build Jan 25 2017 20:16:33) complex                          parallel </i>
  <i name="platform" type="string">BWXE6 </i>
  <i name="date" type="string">2019 06 25 </i>
  <i name="time" type="string">10:10:29 </i>
 </generator>
 <incar>
  <i type="string" name="SYSTEM"> STF</i>
  <i type="string" name="PREC">normal</i>
  <i type="string" name="ALGO"> Fast</i>
  <i type="int" name="ISPIN">     2</i>
  <i type="int" name="NELM">    40</i>
  <i type="int" name="NELMIN">     8</i>
  <i type="int" name="IBRION">     2</i>
  <i name="EDIFF">      0.00010000</i>
  <i name="EDIFFG">     -0.03000000</i>
  <i type="int" name="NSW">    30</i>
  <i type="int" name="ISIF">     3</i>
  <i name="ENCUT">    520.00000000</i>
  <i type="int" name="NBANDS">   768</i>
  <v name="MAGMOM">      0.60000000      0.60000000      0.60000000      0.60000000      0.60000000      0.60000000      0.60000000      0.60000000      0.60000000      0.60000000      0.60000000      0.60000000      0.60000000      0.60000000      0.60000000      0.60000000      0.60000000      0.60000000      0.60000000      0.60000000
      0.60000000      0.60000000      0.60000000      0.60000000      0.60000000      0.60000000      0.60000000      0.60000000      0.60000000      0.60000000      0.60000000      0.60000000      0.60000000      0.60000000      0.60000000      0.60000000      0.60000000      0.60000000      0.60000000      0.60000000
      0.60000000      0.60000000      0.60000000      0.60000000      0.60000000      0.60000000      0.60000000      0.60000000      0.60000000      0.60000000      0.60000000      0.60000000      0.60000000      0.60000000      0.60000000      0.60000000      5.00000000      5.00000000      5.00000000      5.00000000
      5.00000000      5.00000000      5.00000000      5.00000000      0.60000000      0.60000000      0.60000000      0.60000000      0.60000000      0.60000000      0.60000000      0.60000000      0.60000000      0.60000000      0.60000000      0.60000000      0.60000000      0.60000000      0.60000000      0.60000000
      0.60000000      0.60000000      0.60000000      0.60000000      0.60000000      0.60000000      0.60000000      0.60000000      0.60000000      0.60000000      0.60000000      0.60000000      0.60000000      0.60000000      0.60000000      0.60000000      0.60000000      0.60000000      0.60000000      0.60000000
      0.60000000      0.60000000      0.60000000      0.60000000      0.60000000      0.60000000      0.60000000      0.60000000      0.60000000      0.60000000      0.60000000      0.60000000      0.60000000      0.60000000      0.60000000      0.60000000      0.60000000      0.60000000      0.60000000      0.60000000
      0.60000000      0.60000000      0.60000000      0.60000000      0.60000000      0.60000000      0.60000000      0.60000000      0.60000000      0.60000000      0.60000000      0.60000000      0.60000000      0.60000000      0.60000000      0.60000000      0.60000000      0.60000000      0.60000000      0.60000000
      0.60000000      0.60000000      0.60000000      0.60000000      0.60000000      0.60000000      0.60000000      0.60000000      0.60000000      0.60000000      0.60000000      0.60000000      0.60000000      0.60000000      0.60000000      0.60000000</v>
  <i type="string" name="LREAL"> Auto</i>
  <i type="int" name="ISMEAR">     0</i>
  <i name="SIGMA">      0.05000000</i>
  <i type="int" name="LMAXMIX">     4</i>
  <v type="int" name="KPOINT_BSE">    -1     0     0     0</v>
  <i type="int" name="NELM">    40</i>
  <i type="logical" name="LDAU"> T  </i>
  <v type="int" name="LDAUTYPE">     2</v>
  <v type="int" name="LDAUL">     0     2     2     0</v>
  <v name="LDAUU">      0.00000000      3.00000000      5.00000000      0.00000000</v>
  <v name="LDAUJ">      0.00000000      0.00000000      0.00000000      0.00000000</v>
  <i type="int" name="LDAUPRINT">     1</i>
 </incar>
 <kpoints>
  <generation param="Monkhorst-Pack">
   <v type="int" name="divisions">       2        2        2 </v>
   <v name="usershift">      0.00000000       0.00000000       0.00000000 </v>
   <v name="genvec1">      0.50000000       0.00000000       0.00000000 </v>
   <v name="genvec2">      0.00000000       0.50000000       0.00000000 </v>
   <v name="genvec3">      0.00000000       0.00000000       0.50000000 </v>
   <v name="shift">      0.50000000       0.50000000       0.50000000 </v>
  </generation>
  <varray name="kpointlist" >
   <v>       0.25000000       0.25000000       0.25000000 </v>
   <v>      -0.25000000       0.25000000       0.25000000 </v>
   <v>       0.25000000      -0.25000000       0.25000000 </v>
   <v>      -0.25000000      -0.25000000       0.25000000 </v>
  </varray>
  <varray name="weights" >
   <v>       0.25000000 </v>
   <v>       0.25000000 </v>
   <v>       0.25000000 </v>
   <v>       0.25000000 </v>
  </varray>
 </kpoints>
 <parameters>
  <separator name="general" >
   <i type="string" name="SYSTEM">STF</i>
   <i type="logical" name="LCOMPAT"> F  </i>
  </separator>
  <separator name="electronic" >
   <i type="string" name="PREC">normal</i>
   <i name="ENMAX">    520.00000000</i>
   <i name="ENAUG">    605.39200000</i>
   <i name="EDIFF">      0.00010000</i>
   <i type="int" name="IALGO">    68</i>
   <i type="int" name="IWAVPR">    11</i>
   <i type="int" name="NBANDS">   768</i>
   <i name="NELECT">   1032.00000000</i>
   <i type="int" name="TURBO">     0</i>
   <i type="int" name="IRESTART">     0</i>
   <i type="int" name="NREBOOT">     0</i>
   <i type="int" name="NMIN">     0</i>
   <i name="EREF">      0.00000000</i>
   <separator name="electronic smearing" >
    <i type="int" name="ISMEAR">     0</i>
    <i name="SIGMA">      0.05000000</i>
    <i name="KSPACING">      0.50000000</i>
    <i type="logical" name="KGAMMA"> T  </i>
   </separator>
   <separator name="electronic projectors" >
    <i type="logical" name="LREAL"> T  </i>
    <v name="ROPT">     -0.00050000     -0.00050000     -0.00050000     -0.00050000</v>
    <i type="int" name="LMAXPAW">  -100</i>
    <i type="int" name="LMAXMIX">     4</i>
    <i type="logical" name="NLSPLINE"> F  </i>
   </separator>
   <separator name="electronic startup" >
    <i type="int" name="ISTART">     1</i>
    <i type="int" name="ICHARG">     0</i>
    <i type="int" name="INIWAV">     1</i>
   </separator>
   <separator name="electronic spin" >
    <i type="int" name="ISPIN">     2</i>
    <i type="logical" name="LNONCOLLINEAR"> F  </i>
    <v name="MAGMOM">      0.60000000      0.60000000      0.60000000      0.60000000      0.60000000      0.60000000      0.60000000      0.60000000      0.60000000      0.60000000      0.60000000      0.60000000      0.60000000      0.60000000      0.60000000      0.60000000      0.60000000      0.60000000      0.60000000      0.60000000
      0.60000000      0.60000000      0.60000000      0.60000000      0.60000000      0.60000000      0.60000000      0.60000000      0.60000000      0.60000000      0.60000000      0.60000000      0.60000000      0.60000000      0.60000000      0.60000000      0.60000000      0.60000000      0.60000000      0.60000000
      0.60000000      0.60000000      0.60000000      0.60000000      0.60000000      0.60000000      0.60000000      0.60000000      0.60000000      0.60000000      0.60000000      0.60000000      0.60000000      0.60000000      0.60000000      0.60000000      5.00000000      5.00000000      5.00000000      5.00000000
      5.00000000      5.00000000      5.00000000      5.00000000      0.60000000      0.60000000      0.60000000      0.60000000      0.60000000      0.60000000      0.60000000      0.60000000      0.60000000      0.60000000      0.60000000      0.60000000      0.60000000      0.60000000      0.60000000      0.60000000
      0.60000000      0.60000000      0.60000000      0.60000000      0.60000000      0.60000000      0.60000000      0.60000000      0.60000000      0.60000000      0.60000000      0.60000000      0.60000000      0.60000000      0.60000000      0.60000000      0.60000000      0.60000000      0.60000000      0.60000000
      0.60000000      0.60000000      0.60000000      0.60000000      0.60000000      0.60000000      0.60000000      0.60000000      0.60000000      0.60000000      0.60000000      0.60000000      0.60000000      0.60000000      0.60000000      0.60000000      0.60000000      0.60000000      0.60000000      0.60000000
      0.60000000      0.60000000      0.60000000      0.60000000      0.60000000      0.60000000      0.60000000      0.60000000      0.60000000      0.60000000      0.60000000      0.60000000      0.60000000      0.60000000      0.60000000      0.60000000      0.60000000      0.60000000      0.60000000      0.60000000
      0.60000000      0.60000000      0.60000000      0.60000000      0.60000000      0.60000000      0.60000000      0.60000000      0.60000000      0.60000000      0.60000000      0.60000000      0.60000000      0.60000000      0.60000000      0.60000000</v>
    <i name="NUPDOWN">     -1.00000000</i>
    <i type="logical" name="LSORBIT"> F  </i>
    <v name="SAXIS">      0.00000000      0.00000000      1.00000000</v>
    <i type="logical" name="LSPIRAL"> F  </i>
    <v name="QSPIRAL">      0.00000000      0.00000000      0.00000000</v>
    <i type="logical" name="LZEROZ"> F  </i>
   </separator>
   <separator name="electronic exchange-correlation" >
    <i type="logical" name="LASPH"> F  </i>
    <i type="logical" name="LMETAGGA"> F  </i>
   </separator>
   <separator name="electronic convergence" >
    <i type="int" name="NELM">    40</i>
    <i type="int" name="NELMDL">     0</i>
    <i type="int" name="NELMIN">     8</i>
    <i name="ENINI">    520.00000000</i>
    <separator name="electronic convergence detail" >
     <i type="logical" name="LDIAG"> T  </i>
     <i type="logical" name="LSUBROT"> F  </i>
     <i name="WEIMIN">      0.00100000</i>
     <i name="EBREAK">      0.00000003</i>
     <i name="DEPER">      0.30000000</i>
     <i type="int" name="NRMM">     4</i>
     <i name="TIME">      0.40000000</i>
    </separator>
   </separator>
   <separator name="electronic mixer" >
    <i name="AMIX">      0.40000000</i>
    <i name="BMIX">      1.00000000</i>
    <i name="AMIN">      0.10000000</i>
    <i name="AMIX_MAG">      1.60000000</i>
    <i name="BMIX_MAG">      1.00000000</i>
    <separator name="electronic mixer details" >
     <i type="int" name="IMIX">     4</i>
     <i type="logical" name="MIXFIRST"> F  </i>
     <i type="int" name="MAXMIX">   -45</i>
     <i name="WC">    100.00000000</i>
     <i type="int" name="INIMIX">     1</i>
     <i type="int" name="MIXPRE">     1</i>
     <i type="int" name="MREMOVE">     5</i>
    </separator>
   </separator>
   <separator name="electronic dipolcorrection" >
    <i type="logical" name="LDIPOL"> F  </i>
    <i type="logical" name="LMONO"> F  </i>
    <i type="int" name="IDIPOL">     0</i>
    <i name="EPSILON">      1.00000000</i>
    <v name="DIPOL">   -100.00000000   -100.00000000   -100.00000000</v>
    <i name="EFIELD">      0.00000000</i>
   </separator>
  </separator>
  <separator name="grids" >
   <i type="int" name="NGX">    64</i>
   <i type="int" name="NGY">    64</i>
   <i type="int" name="NGZ">    90</i>
   <i type="int" name="NGXF">   128</i>
   <i type="int" name="NGYF">   128</i>
   <i type="int" name="NGZF">   180</i>
   <i type="logical" name="ADDGRID"> F  </i>
  </separator>
  <separator name="ionic" >
   <i type="int" name="NSW">    30</i>
   <i type="int" name="IBRION">     2</i>
   <i type="int" name="ISIF">     3</i>
   <i name="PSTRESS">      0.00000000</i>
   <i name="EDIFFG">     -0.03000000</i>
   <i type="int" name="NFREE">     1</i>
   <i name="POTIM">      0.50000000</i>
   <i name="SMASS">     -3.00000000</i>
   <i name="SCALEE">      1.00000000</i>
  </separator>
  <separator name="ionic md" >
   <i name="TEBEG">      0.00010000</i>
   <i name="TEEND">      0.00010000</i>
   <i type="int" name="NBLOCK">     1</i>
   <i type="int" name="KBLOCK">    30</i>
   <i type="int" name="NPACO">   256</i>
   <i name="APACO">     16.00000000</i>
  </separator>
  <separator name="symmetry" >
   <i type="int" name="ISYM">     2</i>
   <i name="SYMPREC">      0.00001000</i>
  </separator>
  <separator name="dos" >
   <i type="logical" name="LORBIT"> F  </i>
   <v name="RWIGS">     -1.00000000     -1.00000000     -1.00000000     -1.00000000</v>
   <i type="int" name="NEDOS">   301</i>
   <i name="EMIN">     10.00000000</i>
   <i name="EMAX">    -10.00000000</i>
   <i name="EFERMI">      0.00000000</i>
  </separator>
  <separator name="writing" >
   <i type="int" name="NWRITE">     2</i>
   <i type="logical" name="LWAVE"> T  </i>
   <i type="logical" name="LCHARG"> T  </i>
   <i type="logical" name="LPARD"> F  </i>
   <i type="logical" name="LVTOT"> F  </i>
   <i type="logical" name="LVHAR"> F  </i>
   <i type="logical" name="LELF"> F  </i>
   <i type="logical" name="LOPTICS"> F  </i>
   <v name="STM">      0.00000000      0.00000000      0.00000000      0.00000000      0.00000000      0.00000000      0.00000000</v>
  </separator>
  <separator name="performance" >
   <i type="int" name="NPAR">     2</i>
   <i type="int" name="NSIM">     4</i>
   <i type="int" name="NBLK">    -1</i>
   <i type="logical" name="LPLANE"> T  </i>
   <i type="logical" name="LSCALAPACK"> T  </i>
   <i type="logical" name="LSCAAWARE"> F  </i>
   <i type="logical" name="LSCALU"> F  </i>
   <i type="logical" name="LASYNC"> F  </i>
   <i type="logical" name="LORBITALREAL"> F  </i>
  </separator>
  <separator name="miscellaneous" >
   <i type="int" name="IDIOT">     3</i>
   <i type="logical" name="LMUSIC"> F  </i>
   <v name="POMASS">     87.62000000     47.88000000     55.84700000     16.00000000</v>
   <v name="DARWINR">      0.00000000      0.00000000      0.00000000      0.00000000</v>
   <v name="DARWINV">      1.00000000      1.00000000      1.00000000      1.00000000</v>
   <i type="logical" name="LCORR"> T  </i>
  </separator>
  <i type="logical" name="GGA_COMPAT"> T  </i>
  <i type="logical" name="LBERRY"> F  </i>
  <i type="int" name="ICORELEVEL">     0</i>
  <i type="logical" name="LDAU"> T  </i>
  <v type="int" name="LDAUTYPE">     2</v>
  <v type="int" name="LDAUL">     0</v>
  <v name="LDAUU">      0.00000000</v>
  <v name="LDAUJ">      0.00000000</v>
  <i type="int" name="LDAUPRINT">     1</i>
  <i type="int" name="I_CONSTRAINED_M">     0</i>
  <separator name="electronic exchange-correlation" >
   <i type="string" name="GGA">--</i>
   <i type="int" name="VOSKOWN">     0</i>
   <i type="logical" name="LHFCALC"> F  </i>
   <i type="string" name="PRECFOCK"></i>
   <i type="logical" name="LSYMGRAD"> F  </i>
   <i type="logical" name="LHFONE"> F  </i>
   <i type="logical" name="LRHFCALC"> F  </i>
   <i type="logical" name="LTHOMAS"> F  </i>
   <i type="logical" name="LMODELHF"> F  </i>
   <i name="ENCUT4O">     -1.00000000</i>
   <i type="int" name="EXXOEP">     0</i>
   <i type="int" name="FOURORBIT">     0</i>
   <i name="AEXX">      0.00000000</i>
   <i name="HFALPHA">      0.00000000</i>
   <i name="MCALPHA">      0.00000000</i>
   <i name="ALDAX">      1.00000000</i>
   <i name="AGGAX">      1.00000000</i>
   <i name="ALDAC">      1.00000000</i>
   <i name="AGGAC">      1.00000000</i>
   <i type="int" name="NKREDX">     1</i>
   <i type="int" name="NKREDY">     1</i>
   <i type="int" name="NKREDZ">     1</i>
   <i type="logical" name="SHIFTRED"> F  </i>
   <i type="logical" name="ODDONLY"> F  </i>
   <i type="logical" name="EVENONLY"> F  </i>
   <i type="int" name="LMAXFOCK">     0</i>
   <i type="int" name="NMAXFOCKAE">     0</i>
   <i type="logical" name="LFOCKAEDFT"> F  </i>
   <i name="HFSCREEN">      0.00000000</i>
   <i name="HFSCREENC">      0.00000000</i>
   <i type="int" name="NBANDSGWLOW">     0</i>
  </separator>
  <separator name="vdW DFT" >
   <i type="logical" name="LUSE_VDW"> F  </i>
   <i name="Zab_VDW">     -0.84910000</i>
   <i name="PARAM1">      0.12340000</i>
   <i name="PARAM2">      1.00000000</i>
   <i name="PARAM3">      0.00000000</i>
  </separator>
  <separator name="model GW" >
   <i type="int" name="MODEL_GW">     0</i>
   <i name="MODEL_EPS0">      7.74956674</i>
   <i name="MODEL_ALPHA">      1.00000000</i>
  </separator>
  <separator name="linear response parameters" >
   <i type="logical" name="LEPSILON"> F  </i>
   <i type="logical" name="LRPA"> F  </i>
   <i type="logical" name="LNABLA"> F  </i>
   <i type="logical" name="LVEL"> F  </i>
   <i type="int" name="KINTER">     0</i>
   <i name="CSHIFT">      0.10000000</i>
   <i name="OMEGAMAX">     -1.00000000</i>
   <i name="DEG_THRESHOLD">      0.00200000</i>
  </separator>
  <separator name="orbital magnetization" >
   <i type="logical" name="NUCIND"> F  </i>
   <v name="MAGPOS">      0.00000000      0.00000000      0.00000000</v>
   <i type="logical" name="LNICSALL"> T  </i>
   <i type="logical" name="ORBITALMAG"> F  </i>
   <i type="logical" name="LMAGBLOCH"> F  </i>
   <i type="logical" name="LCHIMAG"> F  </i>
   <i type="logical" name="LGAUGE"> T  </i>
   <i type="int" name="MAGATOM">     0</i>
   <v name="MAGDIPOL">      0.00000000      0.00000000      0.00000000</v>
   <v name="AVECCONST">      0.00000000      0.00000000      0.00000000</v>
  </separator>
  <separator name="response functions" >
   <i type="logical" name="LADDER"> F  </i>
   <i type="logical" name="LFXC"> F  </i>
   <i type="logical" name="LHARTREE"> T  </i>
   <i type="int" name="IBSE">     0</i>
   <v type="int" name="KPOINT">    -1     0     0     0</v>
   <i type="logical" name="LTCTE"> F  </i>
   <i type="logical" name="LTETE"> F  </i>
   <i type="logical" name="LTRIPLET"> F  </i>
   <i type="logical" name="LFXCEPS"> F  </i>
   <i type="logical" name="LFXHEG"> F  </i>
   <i type="int" name="NATURALO">     0</i>
   <i type="logical" name="L2ORDER"> F  </i>
   <i type="logical" name="LUSEW"> F  </i>
   <i name="ENCUTGW">     -2.00000000</i>
   <i name="ENCUTGWSOFT">     -2.00000000</i>
   <i name="ENCUTLF">     -1.00000000</i>
   <i type="int" name="LMAXMP2">    -1</i>
   <i name="SCISSOR">      0.00000000</i>
   <i type="int" name="NOMEGA">     0</i>
   <i type="int" name="NOMEGAR">     0</i>
   <i type="int" name="NBANDSGW">    -1</i>
   <i type="int" name="NBANDSO">    -1</i>
   <i type="int" name="NBANDSV">    -1</i>
   <i type="int" name="NELM">    40</i>
   <i type="int" name="NELMHF">     1</i>
   <i type="int" name="DIM">     3</i>
   <i type="int" name="ANTIRES">     0</i>
   <i name="OMEGAMAX">    -30.00000000</i>
   <i name="OMEGAMIN">    -30.00000000</i>
   <i name="OMEGATL">   -200.00000000</i>
   <i type="int" name="OMEGAGRID">     0</i>
   <i name="CSHIFT">     -0.10000000</i>
   <i type="logical" name="SELFENERGY"> F  </i>
   <i type="logical" name="LSPECTRAL"> F  </i>
   <i type="logical" name="LSPECTRALGW"> F  </i>
   <i type="logical" name="LSINGLES"> F  </i>
   <i type="logical" name="LFERMIGW"> F  </i>
   <i type="logical" name="ODDONLYGW"> F  </i>
   <i type="logical" name="EVENONLYGW"> F  </i>
   <i type="int" name="NKREDLFX">     1</i>
   <i type="int" name="NKREDLFY">     1</i>
   <i type="int" name="NKREDLFZ">     1</i>
   <i type="int" name="MAXMEM">  1800</i>
   <i type="int" name="TELESCOPE">     0</i>
   <i type="int" name="TAUPAR">     1</i>
   <i type="int" name="OMEGAPAR">    -1</i>
   <i name="LAMBDA">      1.00000000</i>
  </separator>
  <separator name="External order field" >
   <i name="OFIELD_KAPPA">      0.00000000</i>
   <v name="OFIELD_K">      0.00000000      0.00000000      0.00000000</v>
   <i name="OFIELD_Q6_NEAR">      0.00000000</i>
   <i name="OFIELD_Q6_FAR">      0.00000000</i>
   <i name="OFIELD_A">      0.00000000</i>
  </separator>
 </parameters>
 <atominfo>
  <atoms>     156 </atoms>
  <types>       4 </types>
  <array name="atoms" >
   <dimension dim="1">ion</dimension>
   <field type="string">element</field>
   <field type="int">atomtype</field>
   <set>
    <rc><c>Sr</c><c>   1</c></rc>
    <rc><c>Sr</c><c>   1</c></rc>
    <rc><c>Sr</c><c>   1</c></rc>
    <rc><c>Sr</c><c>   1</c></rc>
    <rc><c>Sr</c><c>   1</c></rc>
    <rc><c>Sr</c><c>   1</c></rc>
    <rc><c>Sr</c><c>   1</c></rc>
    <rc><c>Sr</c><c>   1</c></rc>
    <rc><c>Sr</c><c>   1</c></rc>
    <rc><c>Sr</c><c>   1</c></rc>
    <rc><c>Sr</c><c>   1</c></rc>
    <rc><c>Sr</c><c>   1</c></rc>
    <rc><c>Sr</c><c>   1</c></rc>
    <rc><c>Sr</c><c>   1</c></rc>
    <rc><c>Sr</c><c>   1</c></rc>
    <rc><c>Sr</c><c>   1</c></rc>
    <rc><c>Sr</c><c>   1</c></rc>
    <rc><c>Sr</c><c>   1</c></rc>
    <rc><c>Sr</c><c>   1</c></rc>
    <rc><c>Sr</c><c>   1</c></rc>
    <rc><c>Sr</c><c>   1</c></rc>
    <rc><c>Sr</c><c>   1</c></rc>
    <rc><c>Sr</c><c>   1</c></rc>
    <rc><c>Sr</c><c>   1</c></rc>
    <rc><c>Sr</c><c>   1</c></rc>
    <rc><c>Sr</c><c>   1</c></rc>
    <rc><c>Sr</c><c>   1</c></rc>
    <rc><c>Sr</c><c>   1</c></rc>
    <rc><c>Sr</c><c>   1</c></rc>
    <rc><c>Sr</c><c>   1</c></rc>
    <rc><c>Sr</c><c>   1</c></rc>
    <rc><c>Sr</c><c>   1</c></rc>
    <rc><c>Ti</c><c>   2</c></rc>
    <rc><c>Ti</c><c>   2</c></rc>
    <rc><c>Ti</c><c>   2</c></rc>
    <rc><c>Ti</c><c>   2</c></rc>
    <rc><c>Ti</c><c>   2</c></rc>
    <rc><c>Ti</c><c>   2</c></rc>
    <rc><c>Ti</c><c>   2</c></rc>
    <rc><c>Ti</c><c>   2</c></rc>
    <rc><c>Ti</c><c>   2</c></rc>
    <rc><c>Ti</c><c>   2</c></rc>
    <rc><c>Ti</c><c>   2</c></rc>
    <rc><c>Ti</c><c>   2</c></rc>
    <rc><c>Ti</c><c>   2</c></rc>
    <rc><c>Ti</c><c>   2</c></rc>
    <rc><c>Ti</c><c>   2</c></rc>
    <rc><c>Ti</c><c>   2</c></rc>
    <rc><c>Ti</c><c>   2</c></rc>
    <rc><c>Ti</c><c>   2</c></rc>
    <rc><c>Ti</c><c>   2</c></rc>
    <rc><c>Ti</c><c>   2</c></rc>
    <rc><c>Ti</c><c>   2</c></rc>
    <rc><c>Ti</c><c>   2</c></rc>
    <rc><c>Ti</c><c>   2</c></rc>
    <rc><c>Ti</c><c>   2</c></rc>
    <rc><c>Fe</c><c>   3</c></rc>
    <rc><c>Fe</c><c>   3</c></rc>
    <rc><c>Fe</c><c>   3</c></rc>
    <rc><c>Fe</c><c>   3</c></rc>
    <rc><c>Fe</c><c>   3</c></rc>
    <rc><c>Fe</c><c>   3</c></rc>
    <rc><c>Fe</c><c>   3</c></rc>
    <rc><c>Fe</c><c>   3</c></rc>
    <rc><c>O </c><c>   4</c></rc>
    <rc><c>O </c><c>   4</c></rc>
    <rc><c>O </c><c>   4</c></rc>
    <rc><c>O </c><c>   4</c></rc>
    <rc><c>O </c><c>   4</c></rc>
    <rc><c>O </c><c>   4</c></rc>
    <rc><c>O </c><c>   4</c></rc>
    <rc><c>O </c><c>   4</c></rc>
    <rc><c>O </c><c>   4</c></rc>
    <rc><c>O </c><c>   4</c></rc>
    <rc><c>O </c><c>   4</c></rc>
    <rc><c>O </c><c>   4</c></rc>
    <rc><c>O </c><c>   4</c></rc>
    <rc><c>O </c><c>   4</c></rc>
    <rc><c>O </c><c>   4</c></rc>
    <rc><c>O </c><c>   4</c></rc>
    <rc><c>O </c><c>   4</c></rc>
    <rc><c>O </c><c>   4</c></rc>
    <rc><c>O </c><c>   4</c></rc>
    <rc><c>O </c><c>   4</c></rc>
    <rc><c>O </c><c>   4</c></rc>
    <rc><c>O </c><c>   4</c></rc>
    <rc><c>O </c><c>   4</c></rc>
    <rc><c>O </c><c>   4</c></rc>
    <rc><c>O </c><c>   4</c></rc>
    <rc><c>O </c><c>   4</c></rc>
    <rc><c>O </c><c>   4</c></rc>
    <rc><c>O </c><c>   4</c></rc>
    <rc><c>O </c><c>   4</c></rc>
    <rc><c>O </c><c>   4</c></rc>
    <rc><c>O </c><c>   4</c></rc>
    <rc><c>O </c><c>   4</c></rc>
    <rc><c>O </c><c>   4</c></rc>
    <rc><c>O </c><c>   4</c></rc>
    <rc><c>O </c><c>   4</c></rc>
    <rc><c>O </c><c>   4</c></rc>
    <rc><c>O </c><c>   4</c></rc>
    <rc><c>O </c><c>   4</c></rc>
    <rc><c>O </c><c>   4</c></rc>
    <rc><c>O </c><c>   4</c></rc>
    <rc><c>O </c><c>   4</c></rc>
    <rc><c>O </c><c>   4</c></rc>
    <rc><c>O </c><c>   4</c></rc>
    <rc><c>O </c><c>   4</c></rc>
    <rc><c>O </c><c>   4</c></rc>
    <rc><c>O </c><c>   4</c></rc>
    <rc><c>O </c><c>   4</c></rc>
    <rc><c>O </c><c>   4</c></rc>
    <rc><c>O </c><c>   4</c></rc>
    <rc><c>O </c><c>   4</c></rc>
    <rc><c>O </c><c>   4</c></rc>
    <rc><c>O </c><c>   4</c></rc>
    <rc><c>O </c><c>   4</c></rc>
    <rc><c>O </c><c>   4</c></rc>
    <rc><c>O </c><c>   4</c></rc>
    <rc><c>O </c><c>   4</c></rc>
    <rc><c>O </c><c>   4</c></rc>
    <rc><c>O </c><c>   4</c></rc>
    <rc><c>O </c><c>   4</c></rc>
    <rc><c>O </c><c>   4</c></rc>
    <rc><c>O </c><c>   4</c></rc>
    <rc><c>O </c><c>   4</c></rc>
    <rc><c>O </c><c>   4</c></rc>
    <rc><c>O </c><c>   4</c></rc>
    <rc><c>O </c><c>   4</c></rc>
    <rc><c>O </c><c>   4</c></rc>
    <rc><c>O </c><c>   4</c></rc>
    <rc><c>O </c><c>   4</c></rc>
    <rc><c>O </c><c>   4</c></rc>
    <rc><c>O </c><c>   4</c></rc>
    <rc><c>O </c><c>   4</c></rc>
    <rc><c>O </c><c>   4</c></rc>
    <rc><c>O </c><c>   4</c></rc>
    <rc><c>O </c><c>   4</c></rc>
    <rc><c>O </c><c>   4</c></rc>
    <rc><c>O </c><c>   4</c></rc>
    <rc><c>O </c><c>   4</c></rc>
    <rc><c>O </c><c>   4</c></rc>
    <rc><c>O </c><c>   4</c></rc>
    <rc><c>O </c><c>   4</c></rc>
    <rc><c>O </c><c>   4</c></rc>
    <rc><c>O </c><c>   4</c></rc>
    <rc><c>O </c><c>   4</c></rc>
    <rc><c>O </c><c>   4</c></rc>
    <rc><c>O </c><c>   4</c></rc>
    <rc><c>O </c><c>   4</c></rc>
    <rc><c>O </c><c>   4</c></rc>
    <rc><c>O </c><c>   4</c></rc>
    <rc><c>O </c><c>   4</c></rc>
    <rc><c>O </c><c>   4</c></rc>
    <rc><c>O </c><c>   4</c></rc>
    <rc><c>O </c><c>   4</c></rc>
   </set>
  </array>
  <array name="atomtypes" >
   <dimension dim="1">type</dimension>
   <field type="int">atomspertype</field>
   <field type="string">element</field>
   <field>mass</field>
   <field>valence</field>
   <field type="string">pseudopotential</field>
   <set>
    <rc><c>  32</c><c>Sr</c><c>     87.62000000</c><c>     10.00000000</c><c>  PAW_PBE Sr_sv 07Sep2000               </c></rc>
    <rc><c>  24</c><c>Ti</c><c>     47.88000000</c><c>      4.00000000</c><c>  PAW_PBE Ti 08Apr2002                  </c></rc>
    <rc><c>   8</c><c>Fe</c><c>     55.84700000</c><c>      8.00000000</c><c>  PAW_PBE Fe 06Sep2000                  </c></rc>
    <rc><c>  92</c><c>O </c><c>     16.00000000</c><c>      6.00000000</c><c>  PAW_PBE O 08Apr2002                   </c></rc>
   </set>
  </array>
 </atominfo>
 <structure name="initialpos" >
  <crystal>
   <varray name="basis" >
    <v>      11.22463248       0.01243055       0.00390622 </v>
    <v>       0.01242596      11.23607689      -0.00517319 </v>
    <v>       0.00543579      -0.00755900      15.97587361 </v>
   </varray>
   <i name="volume">   2014.88735159 </i>
   <varray name="rec_basis" >
    <v>       0.08908990      -0.00009854      -0.00003036 </v>
    <v>      -0.00009858       0.08899916       0.00004214 </v>
    <v>      -0.00002182       0.00002884       0.06259441 </v>
   </varray>
  </crystal>
  <varray name="positions" >
   <v>       0.99727806       0.25146260       0.11388143 </v>
   <v>       0.99413402       0.24953554       0.63864894 </v>
   <v>       0.00592474       0.75215088       0.12288003 </v>
   <v>       0.00252787       0.74951706       0.63023564 </v>
   <v>       0.50378262       0.25404638       0.11687944 </v>
   <v>       0.50257945       0.24970895       0.63440453 </v>
   <v>       0.49555849       0.74700793       0.11958982 </v>
   <v>       0.49576979       0.75010660       0.62788685 </v>
   <v>       0.00729161       0.25860154       0.38077207 </v>
   <v>       0.99265367       0.24961921       0.86983495 </v>
   <v>       0.00475020       0.74971539       0.38103618 </v>
   <v>       0.00348066       0.75046168       0.86746001 </v>
   <v>       0.50764843       0.25394038       0.37243792 </v>
   <v>       0.50633213       0.24987417       0.87343693 </v>
   <v>       0.49516145       0.74801704       0.38236579 </v>
   <v>       0.49723570       0.74804801       0.86916223 </v>
   <v>       0.24346002       0.99480175       0.11701135 </v>
   <v>       0.24540609       0.98923825       0.63344623 </v>
   <v>       0.25100737       0.50597983       0.11991824 </v>
   <v>       0.23994146       0.50651309       0.62947956 </v>
   <v>       0.75532432       0.00285398       0.11686285 </v>
   <v>       0.75225369       0.99759776       0.63417492 </v>
   <v>       0.74903416       0.49687267       0.11715912 </v>
   <v>       0.75822160       0.49953189       0.62972554 </v>
   <v>       0.24069404       0.98883804       0.37912476 </v>
   <v>       0.24645844       0.99623889       0.86917837 </v>
   <v>       0.24709445       0.51948607       0.37493854 </v>
   <v>       0.24735433       0.50414143       0.87036430 </v>
   <v>       0.75677936       0.99428595       0.38020835 </v>
   <v>       0.75224662       0.00620005       0.87127493 </v>
   <v>       0.75529629       0.50855228       0.37958857 </v>
   <v>       0.75274560       0.49277454       0.86861514 </v>
   <v>       0.99870414       0.00165015       0.99684300 </v>
   <v>       0.99724255       0.99975329       0.50159964 </v>
   <v>       0.99778385       0.50001473       0.99805264 </v>
   <v>       0.50152988       0.00038619       0.99882203 </v>
   <v>       0.50081958       0.00199399       0.49831232 </v>
   <v>       0.50173054       0.49844926       0.99697350 </v>
   <v>       0.24997996       0.24906005       0.99388725 </v>
   <v>       0.24970015       0.74983263       0.99781860 </v>
   <v>       0.24943453       0.74881736       0.50384929 </v>
   <v>       0.75058170       0.25047752       0.50831999 </v>
   <v>       0.74817310       0.74987212       0.99928376 </v>
   <v>       0.74970627       0.75344313       0.50357517 </v>
   <v>       0.24650064       0.25328022       0.23954875 </v>
   <v>       0.24920357       0.25025475       0.75029614 </v>
   <v>       0.25038503       0.75139338       0.24821082 </v>
   <v>       0.75291408       0.25033150       0.24112739 </v>
   <v>       0.75831159       0.73849204       0.24883017 </v>
   <v>       0.75185113       0.74816332       0.75009135 </v>
   <v>       0.99999548       0.00276064       0.25278018 </v>
   <v>       0.00507293       0.49671220       0.25143466 </v>
   <v>       0.48686533       0.00882263       0.25227132 </v>
   <v>       0.49857262       0.00118856       0.75055450 </v>
   <v>       0.49806159       0.50028849       0.25392863 </v>
   <v>       0.49825777       0.49785106       0.74558116 </v>
   <v>       0.99785788       0.50650160       0.49865598 </v>
   <v>       0.51144153       0.50914787       0.49989754 </v>
   <v>       0.24522232       0.23165476       0.51108161 </v>
   <v>       0.74942883       0.25017751       0.99448134 </v>
   <v>       0.24798943       0.74876467       0.74968723 </v>
   <v>       0.75076974       0.24983824       0.75364034 </v>
   <v>       0.99887226       0.00038693       0.75003945 </v>
   <v>       0.00007360       0.49912182       0.74882046 </v>
   <v>       0.12086143       0.13996665       0.26752365 </v>
   <v>       0.11805950       0.13654178       0.74878519 </v>
   <v>       0.11225848       0.63849463       0.24955028 </v>
   <v>       0.11463819       0.63226467       0.74591789 </v>
   <v>       0.62347084       0.12907434       0.25996321 </v>
   <v>       0.61298934       0.13313369       0.74953602 </v>
   <v>       0.60920131       0.63890826       0.25810376 </v>
   <v>       0.61259218       0.63392633       0.74378806 </v>
   <v>       0.38571067       0.35292539       0.25397926 </v>
   <v>       0.38772161       0.36192319       0.75712188 </v>
   <v>       0.39616100       0.85901878       0.24805927 </v>
   <v>       0.38675680       0.86686830       0.74713817 </v>
   <v>       0.88492040       0.36223305       0.25974021 </v>
   <v>       0.88439004       0.36670485       0.75160376 </v>
   <v>       0.87345950       0.87148053       0.24586148 </v>
   <v>       0.88045198       0.86384056       0.74988562 </v>
   <v>       0.35922322       0.11432012       0.26278713 </v>
   <v>       0.36377075       0.11326491       0.74623647 </v>
   <v>       0.36144915       0.60969753       0.24772244 </v>
   <v>       0.36611226       0.61216032       0.74866038 </v>
   <v>       0.86609096       0.12195281       0.26498335 </v>
   <v>       0.86522349       0.11521867       0.75080029 </v>
   <v>       0.86188216       0.61139235       0.24166835 </v>
   <v>       0.86322189       0.61590494       0.74361036 </v>
   <v>       0.14251324       0.38535831       0.26330752 </v>
   <v>       0.13705688       0.38227624       0.75683403 </v>
   <v>       0.13795322       0.88876110       0.24591728 </v>
   <v>       0.13211325       0.88439479       0.74902766 </v>
   <v>       0.64093976       0.37889136       0.26854059 </v>
   <v>       0.63343002       0.38625138       0.74537090 </v>
   <v>       0.63257551       0.88450994       0.75255182 </v>
   <v>       0.36379455       0.38405960       0.00271278 </v>
   <v>       0.36501352       0.88531785       0.00463679 </v>
   <v>       0.36486895       0.89156858       0.49756479 </v>
   <v>       0.86592373       0.38635619       0.00265478 </v>
   <v>       0.86758724       0.37505264       0.48401846 </v>
   <v>       0.86334209       0.88373614       0.00480623 </v>
   <v>       0.86229022       0.88620993       0.50145906 </v>
   <v>       0.13668090       0.11343179       0.00021665 </v>
   <v>       0.12890904       0.11623126       0.49154584 </v>
   <v>       0.13415029       0.61523336       0.00406333 </v>
   <v>       0.13211872       0.62131884       0.49988540 </v>
   <v>       0.63333571       0.11232903       0.00226108 </v>
   <v>       0.63518602       0.12173740       0.48327978 </v>
   <v>       0.63434323       0.61452847       0.00621258 </v>
   <v>       0.63569705       0.62013148       0.49727971 </v>
   <v>       0.11486090       0.36267312       0.99394671 </v>
   <v>       0.17313073       0.36519170       0.46798845 </v>
   <v>       0.11444614       0.86539986       0.00493416 </v>
   <v>       0.11458145       0.86762433       0.50235154 </v>
   <v>       0.61264131       0.36513796       0.00168320 </v>
   <v>       0.61937251       0.36381218       0.48869929 </v>
   <v>       0.61210569       0.86296716       0.99381940 </v>
   <v>       0.61296981       0.86821267       0.50415172 </v>
   <v>       0.38517704       0.13412932       0.01171839 </v>
   <v>       0.38540265       0.14749084       0.47795882 </v>
   <v>       0.38460975       0.63262192       0.00433645 </v>
   <v>       0.38071453       0.63149581       0.49975513 </v>
   <v>       0.88503507       0.13375444       0.00166117 </v>
   <v>       0.87722968       0.13401293       0.48197093 </v>
   <v>       0.88110119       0.63573595       0.01777046 </v>
   <v>       0.87970211       0.63735883       0.49854384 </v>
   <v>       0.00094024       0.01292379       0.13015003 </v>
   <v>       0.99461164       0.00906994       0.62105335 </v>
   <v>       0.00979728       0.48541968       0.12970962 </v>
   <v>       0.00433139       0.48051163       0.61725539 </v>
   <v>       0.51606338       0.99450106       0.13320324 </v>
   <v>       0.49984303       0.01304626       0.61921618 </v>
   <v>       0.50588294       0.48978615       0.13191457 </v>
   <v>       0.48582789       0.48211147       0.61873858 </v>
   <v>       0.00137218       0.98261301       0.37399327 </v>
   <v>       0.99917611       0.99800093       0.87768809 </v>
   <v>       0.99756179       0.51028802       0.37292779 </v>
   <v>       0.99256325       0.51219389       0.87886480 </v>
   <v>       0.51820163       0.97664405       0.36839233 </v>
   <v>       0.49201164       0.00537799       0.87633811 </v>
   <v>       0.47948729       0.48970901       0.37874549 </v>
   <v>       0.50343797       0.50374986       0.87596358 </v>
   <v>       0.25917755       0.23955482       0.87617583 </v>
   <v>       0.24969165       0.75490113       0.37320757 </v>
   <v>       0.25108465       0.74948546       0.87742042 </v>
   <v>       0.74618501       0.25045699       0.87564467 </v>
   <v>       0.74314662       0.76250467       0.37039621 </v>
   <v>       0.75320502       0.73900896       0.87721710 </v>
   <v>       0.23862478       0.25008836       0.12552013 </v>
   <v>       0.25946343       0.26124205       0.62560794 </v>
   <v>       0.25033662       0.74980600       0.12592160 </v>
   <v>       0.25336247       0.75321699       0.62332944 </v>
   <v>       0.74887723       0.25167620       0.12666074 </v>
   <v>       0.75262196       0.24741515       0.62275463 </v>
   <v>       0.72403410       0.76842475       0.13242016 </v>
   <v>       0.74709808       0.75314795       0.62482617 </v>
  </varray>
 </structure>
 <calculation>
  <scstep>
   <time name="dav">  612.15  612.19</time>
   <time name="total">  619.22  619.35</time>
   <energy>
    <i name="alphaZ">   5600.98624321 </i>
    <i name="ewald"> -60747.50892105 </i>
    <i name="hartreedc"> -16729.07124529 </i>
    <i name="XCdc">   2962.29432333 </i>
    <i name="pawpsdc"> 112551.34715832 </i>
    <i name="pawaedc">-111451.12931128 </i>
    <i name="eentropy">     -0.00000000 </i>
    <i name="bandstr">  -7089.51877899 </i>
    <i name="atom">  73783.44779670 </i>
    <i name="e_fr_energy">  -1119.15273507 </i>
    <i name="e_wo_entrp">  -1119.15273507 </i>
    <i name="e_0_energy">  -1119.15273507 </i>
   </energy>
  </scstep>
  <scstep>
   <time name="diag">   64.85   64.87</time>
   <time name="diis">   61.46   61.46</time>
   <time name="orth">   33.37   33.37</time>
   <time name="total">  166.83  166.86</time>
   <energy>
    <i name="e_fr_energy">  -1119.15273610 </i>
    <i name="e_wo_entrp">  -1119.15273610 </i>
    <i name="e_0_energy">  -1119.15273610 </i>
   </energy>
  </scstep>
  <scstep>
   <time name="diag">   64.66   64.66</time>
   <time name="diis">   58.32   58.35</time>
   <time name="orth">   33.34   33.34</time>
   <time name="total">  163.45  163.52</time>
   <energy>
    <i name="e_fr_energy">  -1119.15273653 </i>
    <i name="e_wo_entrp">  -1119.15273653 </i>
    <i name="e_0_energy">  -1119.15273653 </i>
   </energy>
  </scstep>
  <scstep>
   <time name="diag">   64.72   64.75</time>
   <time name="diis">   52.83   52.86</time>
   <time name="orth">   33.35   33.35</time>
   <time name="total">  158.05  158.18</time>
   <energy>
    <i name="e_fr_energy">  -1119.15273693 </i>
    <i name="e_wo_entrp">  -1119.15273693 </i>
    <i name="e_0_energy">  -1119.15273693 </i>
   </energy>
  </scstep>
  <scstep>
   <time name="diag">   64.80   64.80</time>
   <time name="diis">   51.87   51.92</time>
   <time name="orth">   33.41   33.41</time>
   <time name="total">  157.21  157.32</time>
   <energy>
    <i name="e_fr_energy">  -1119.15273717 </i>
    <i name="e_wo_entrp">  -1119.15273717 </i>
    <i name="e_0_energy">  -1119.15273717 </i>
   </energy>
  </scstep>
  <scstep>
   <time name="diag">   64.75   64.76</time>
   <time name="diis">   47.05   47.07</time>
   <time name="orth">   33.35   33.35</time>
   <time name="total">  152.30  152.67</time>
   <energy>
    <i name="e_fr_energy">  -1119.15273740 </i>
    <i name="e_wo_entrp">  -1119.15273740 </i>
    <i name="e_0_energy">  -1119.15273740 </i>
   </energy>
  </scstep>
  <scstep>
   <time name="diag">   64.62   64.66</time>
   <time name="diis">   46.55   46.56</time>
   <time name="orth">   33.46   33.46</time>
   <time name="total">  151.73  151.86</time>
   <energy>
    <i name="e_fr_energy">  -1119.15273751 </i>
    <i name="e_wo_entrp">  -1119.15273751 </i>
    <i name="e_0_energy">  -1119.15273751 </i>
   </energy>
  </scstep>
  <scstep>
   <time name="diag">   64.72   64.72</time>
   <time name="diis">   43.85   43.88</time>
   <time name="orth">   33.45   33.45</time>
   <time name="total">  143.06  143.20</time>
   <energy>
    <i name="alphaZ">   5600.98624321 </i>
    <i name="ewald"> -60747.50892105 </i>
    <i name="hartreedc"> -16729.05343903 </i>
    <i name="XCdc">   2962.29301869 </i>
    <i name="pawpsdc"> 112550.96744577 </i>
    <i name="pawaedc">-111450.73903264 </i>
    <i name="eentropy">     -0.00000000 </i>
    <i name="bandstr">  -7089.54584918 </i>
    <i name="atom">  73783.44779670 </i>
    <i name="e_fr_energy">  -1119.15273753 </i>
    <i name="e_wo_entrp">  -1119.15273753 </i>
    <i name="e_0_energy">  -1119.15273753 </i>
   </energy>
  </scstep>
  <structure>
   <crystal>
    <varray name="basis" >
     <v>      11.22463248       0.01243055       0.00390622 </v>
     <v>       0.01242596      11.23607689      -0.00517319 </v>
     <v>       0.00543579      -0.00755900      15.97587361 </v>
    </varray>
    <i name="volume">   2014.88735159 </i>
    <varray name="rec_basis" >
     <v>       0.08908990      -0.00009854      -0.00003036 </v>
     <v>      -0.00009858       0.08899916       0.00004214 </v>
     <v>      -0.00002182       0.00002884       0.06259441 </v>
    </varray>
   </crystal>
   <varray name="positions" >
    <v>       0.99727806       0.25146260       0.11388143 </v>
    <v>       0.99413402       0.24953554       0.63864894 </v>
    <v>       0.00592474       0.75215088       0.12288003 </v>
    <v>       0.00252787       0.74951706       0.63023564 </v>
    <v>       0.50378262       0.25404638       0.11687944 </v>
    <v>       0.50257945       0.24970895       0.63440453 </v>
    <v>       0.49555849       0.74700793       0.11958982 </v>
    <v>       0.49576979       0.75010660       0.62788685 </v>
    <v>       0.00729161       0.25860154       0.38077207 </v>
    <v>       0.99265367       0.24961921       0.86983495 </v>
    <v>       0.00475020       0.74971539       0.38103618 </v>
    <v>       0.00348066       0.75046168       0.86746001 </v>
    <v>       0.50764843       0.25394038       0.37243792 </v>
    <v>       0.50633213       0.24987417       0.87343693 </v>
    <v>       0.49516145       0.74801704       0.38236579 </v>
    <v>       0.49723570       0.74804801       0.86916223 </v>
    <v>       0.24346002       0.99480175       0.11701135 </v>
    <v>       0.24540609       0.98923825       0.63344623 </v>
    <v>       0.25100737       0.50597983       0.11991824 </v>
    <v>       0.23994146       0.50651309       0.62947956 </v>
    <v>       0.75532432       0.00285398       0.11686285 </v>
    <v>       0.75225369       0.99759776       0.63417492 </v>
    <v>       0.74903416       0.49687267       0.11715912 </v>
    <v>       0.75822160       0.49953189       0.62972554 </v>
    <v>       0.24069404       0.98883804       0.37912476 </v>
    <v>       0.24645844       0.99623889       0.86917837 </v>
    <v>       0.24709445       0.51948607       0.37493854 </v>
    <v>       0.24735433       0.50414143       0.87036430 </v>
    <v>       0.75677936       0.99428595       0.38020835 </v>
    <v>       0.75224662       0.00620005       0.87127493 </v>
    <v>       0.75529629       0.50855228       0.37958857 </v>
    <v>       0.75274560       0.49277454       0.86861514 </v>
    <v>       0.99870414       0.00165015       0.99684300 </v>
    <v>       0.99724255       0.99975329       0.50159964 </v>
    <v>       0.99778385       0.50001473       0.99805264 </v>
    <v>       0.50152988       0.00038619       0.99882203 </v>
    <v>       0.50081958       0.00199399       0.49831232 </v>
    <v>       0.50173054       0.49844926       0.99697350 </v>
    <v>       0.24997996       0.24906005       0.99388725 </v>
    <v>       0.24970015       0.74983263       0.99781860 </v>
    <v>       0.24943453       0.74881736       0.50384929 </v>
    <v>       0.75058170       0.25047752       0.50831999 </v>
    <v>       0.74817310       0.74987212       0.99928376 </v>
    <v>       0.74970627       0.75344313       0.50357517 </v>
    <v>       0.24650064       0.25328022       0.23954875 </v>
    <v>       0.24920357       0.25025475       0.75029614 </v>
    <v>       0.25038503       0.75139338       0.24821082 </v>
    <v>       0.75291408       0.25033150       0.24112739 </v>
    <v>       0.75831159       0.73849204       0.24883017 </v>
    <v>       0.75185113       0.74816332       0.75009135 </v>
    <v>       0.99999548       0.00276064       0.25278018 </v>
    <v>       0.00507293       0.49671220       0.25143466 </v>
    <v>       0.48686533       0.00882263       0.25227132 </v>
    <v>       0.49857262       0.00118856       0.75055450 </v>
    <v>       0.49806159       0.50028849       0.25392863 </v>
    <v>       0.49825777       0.49785106       0.74558116 </v>
    <v>       0.99785788       0.50650160       0.49865598 </v>
    <v>       0.51144153       0.50914787       0.49989754 </v>
    <v>       0.24522232       0.23165476       0.51108161 </v>
    <v>       0.74942883       0.25017751       0.99448134 </v>
    <v>       0.24798943       0.74876467       0.74968723 </v>
    <v>       0.75076974       0.24983824       0.75364034 </v>
    <v>       0.99887226       0.00038693       0.75003945 </v>
    <v>       0.00007360       0.49912182       0.74882046 </v>
    <v>       0.12086143       0.13996665       0.26752365 </v>
    <v>       0.11805950       0.13654178       0.74878519 </v>
    <v>       0.11225848       0.63849463       0.24955028 </v>
    <v>       0.11463819       0.63226467       0.74591789 </v>
    <v>       0.62347084       0.12907434       0.25996321 </v>
    <v>       0.61298934       0.13313369       0.74953602 </v>
    <v>       0.60920131       0.63890826       0.25810376 </v>
    <v>       0.61259218       0.63392633       0.74378806 </v>
    <v>       0.38571067       0.35292539       0.25397926 </v>
    <v>       0.38772161       0.36192319       0.75712188 </v>
    <v>       0.39616100       0.85901878       0.24805927 </v>
    <v>       0.38675680       0.86686830       0.74713817 </v>
    <v>       0.88492040       0.36223305       0.25974021 </v>
    <v>       0.88439004       0.36670485       0.75160376 </v>
    <v>       0.87345950       0.87148053       0.24586148 </v>
    <v>       0.88045198       0.86384056       0.74988562 </v>
    <v>       0.35922322       0.11432012       0.26278713 </v>
    <v>       0.36377075       0.11326491       0.74623647 </v>
    <v>       0.36144915       0.60969753       0.24772244 </v>
    <v>       0.36611226       0.61216032       0.74866038 </v>
    <v>       0.86609096       0.12195281       0.26498335 </v>
    <v>       0.86522349       0.11521867       0.75080029 </v>
    <v>       0.86188216       0.61139235       0.24166835 </v>
    <v>       0.86322189       0.61590494       0.74361036 </v>
    <v>       0.14251324       0.38535831       0.26330752 </v>
    <v>       0.13705688       0.38227624       0.75683403 </v>
    <v>       0.13795322       0.88876110       0.24591728 </v>
    <v>       0.13211325       0.88439479       0.74902766 </v>
    <v>       0.64093976       0.37889136       0.26854059 </v>
    <v>       0.63343002       0.38625138       0.74537090 </v>
    <v>       0.63257551       0.88450994       0.75255182 </v>
    <v>       0.36379455       0.38405960       0.00271278 </v>
    <v>       0.36501352       0.88531785       0.00463679 </v>
    <v>       0.36486895       0.89156858       0.49756479 </v>
    <v>       0.86592373       0.38635619       0.00265478 </v>
    <v>       0.86758724       0.37505264       0.48401846 </v>
    <v>       0.86334209       0.88373614       0.00480623 </v>
    <v>       0.86229022       0.88620993       0.50145906 </v>
    <v>       0.13668090       0.11343179       0.00021665 </v>
    <v>       0.12890904       0.11623126       0.49154584 </v>
    <v>       0.13415029       0.61523336       0.00406333 </v>
    <v>       0.13211872       0.62131884       0.49988540 </v>
    <v>       0.63333571       0.11232903       0.00226108 </v>
    <v>       0.63518602       0.12173740       0.48327978 </v>
    <v>       0.63434323       0.61452847       0.00621258 </v>
    <v>       0.63569705       0.62013148       0.49727971 </v>
    <v>       0.11486090       0.36267312       0.99394671 </v>
    <v>       0.17313073       0.36519170       0.46798845 </v>
    <v>       0.11444614       0.86539986       0.00493416 </v>
    <v>       0.11458145       0.86762433       0.50235154 </v>
    <v>       0.61264131       0.36513796       0.00168320 </v>
    <v>       0.61937251       0.36381218       0.48869929 </v>
    <v>       0.61210569       0.86296716       0.99381940 </v>
    <v>       0.61296981       0.86821267       0.50415172 </v>
    <v>       0.38517704       0.13412932       0.01171839 </v>
    <v>       0.38540265       0.14749084       0.47795882 </v>
    <v>       0.38460975       0.63262192       0.00433645 </v>
    <v>       0.38071453       0.63149581       0.49975513 </v>
    <v>       0.88503507       0.13375444       0.00166117 </v>
    <v>       0.87722968       0.13401293       0.48197093 </v>
    <v>       0.88110119       0.63573595       0.01777046 </v>
    <v>       0.87970211       0.63735883       0.49854384 </v>
    <v>       0.00094024       0.01292379       0.13015003 </v>
    <v>       0.99461164       0.00906994       0.62105335 </v>
    <v>       0.00979728       0.48541968       0.12970962 </v>
    <v>       0.00433139       0.48051163       0.61725539 </v>
    <v>       0.51606338       0.99450106       0.13320324 </v>
    <v>       0.49984303       0.01304626       0.61921618 </v>
    <v>       0.50588294       0.48978615       0.13191457 </v>
    <v>       0.48582789       0.48211147       0.61873858 </v>
    <v>       0.00137218       0.98261301       0.37399327 </v>
    <v>       0.99917611       0.99800093       0.87768809 </v>
    <v>       0.99756179       0.51028802       0.37292779 </v>
    <v>       0.99256325       0.51219389       0.87886480 </v>
    <v>       0.51820163       0.97664405       0.36839233 </v>
    <v>       0.49201164       0.00537799       0.87633811 </v>
    <v>       0.47948729       0.48970901       0.37874549 </v>
    <v>       0.50343797       0.50374986       0.87596358 </v>
    <v>       0.25917755       0.23955482       0.87617583 </v>
    <v>       0.24969165       0.75490113       0.37320757 </v>
    <v>       0.25108465       0.74948546       0.87742042 </v>
    <v>       0.74618501       0.25045699       0.87564467 </v>
    <v>       0.74314662       0.76250467       0.37039621 </v>
    <v>       0.75320502       0.73900896       0.87721710 </v>
    <v>       0.23862478       0.25008836       0.12552013 </v>
    <v>       0.25946343       0.26124205       0.62560794 </v>
    <v>       0.25033662       0.74980600       0.12592160 </v>
    <v>       0.25336247       0.75321699       0.62332944 </v>
    <v>       0.74887723       0.25167620       0.12666074 </v>
    <v>       0.75262196       0.24741515       0.62275463 </v>
    <v>       0.72403410       0.76842475       0.13242016 </v>
    <v>       0.74709808       0.75314795       0.62482617 </v>
   </varray>
  </structure>
  <varray name="forces" >
   <v>      -0.00075392       0.00135003       0.00040923 </v>
   <v>       0.00757144       0.01089567       0.00389980 </v>
   <v>       0.00584174       0.00356527       0.00129002 </v>
   <v>       0.00599801      -0.00618597       0.01464463 </v>
   <v>       0.00698864      -0.00417545       0.00057465 </v>
   <v>      -0.00134041       0.00495359       0.00934146 </v>
   <v>      -0.00276837       0.00506124       0.00526016 </v>
   <v>       0.00082760      -0.00012500       0.00073442 </v>
   <v>       0.00130123      -0.00685469      -0.00707844 </v>
   <v>       0.00130296       0.00572565      -0.00440963 </v>
   <v>      -0.00602863      -0.00110031       0.00664601 </v>
   <v>       0.00783598       0.00531485      -0.00373243 </v>
   <v>       0.00664961       0.01123619      -0.01235146 </v>
   <v>      -0.00006809       0.00490686       0.00330426 </v>
   <v>       0.00052779       0.00267041      -0.01732387 </v>
   <v>       0.00617013      -0.00106737       0.01129413 </v>
   <v>       0.00618008      -0.00137926       0.01272077 </v>
   <v>      -0.00588783      -0.00137832      -0.00801271 </v>
   <v>      -0.00358071       0.00455695      -0.00865211 </v>
   <v>       0.00039263      -0.00542582       0.00686470 </v>
   <v>      -0.00643360       0.00333318       0.00188410 </v>
   <v>      -0.00112229       0.00367857       0.00374517 </v>
   <v>      -0.00114915       0.00522635      -0.00505465 </v>
   <v>       0.00658555       0.00606623       0.00384500 </v>
   <v>       0.00227632      -0.00363206      -0.01195789 </v>
   <v>      -0.01007579       0.00294559      -0.01441707 </v>
   <v>       0.00659409      -0.00026984       0.00768451 </v>
   <v>      -0.00503411      -0.00490899       0.00594210 </v>
   <v>      -0.00219279       0.01027615      -0.00555991 </v>
   <v>       0.00387751      -0.00702046       0.00837373 </v>
   <v>      -0.00416529       0.00324345       0.00148446 </v>
   <v>      -0.00328250       0.01293636      -0.00119314 </v>
   <v>      -0.01271712      -0.00342447       0.00771722 </v>
   <v>       0.02309083       0.00724599      -0.00676966 </v>
   <v>       0.02382603       0.00458053      -0.01547282 </v>
   <v>      -0.00306943       0.00565907       0.01761292 </v>
   <v>       0.00011602      -0.01375321      -0.00625249 </v>
   <v>       0.00911959       0.00679376      -0.00359183 </v>
   <v>       0.00259061       0.01105186      -0.03692533 </v>
   <v>      -0.01383844      -0.01188842       0.02283190 </v>
   <v>       0.00232917      -0.00829703      -0.00941916 </v>
   <v>      -0.01480464       0.00582007      -0.01098114 </v>
   <v>      -0.00213643      -0.00299303      -0.00632188 </v>
   <v>       0.02100083       0.00257611       0.00081396 </v>
   <v>      -0.00526142      -0.00742215      -0.01277005 </v>
   <v>      -0.00733834       0.01012628      -0.00073025 </v>
   <v>       0.02133125       0.01641011      -0.00331972 </v>
   <v>       0.00148055      -0.01104168       0.00622602 </v>
   <v>      -0.00979604       0.01717711       0.00935406 </v>
   <v>      -0.00446941      -0.01699927       0.00095678 </v>
   <v>      -0.01769812      -0.00231823       0.00146431 </v>
   <v>      -0.02298501      -0.00106856       0.00339042 </v>
   <v>       0.00454821      -0.00781681       0.00531949 </v>
   <v>      -0.01819943       0.00524158       0.00075961 </v>
   <v>      -0.01284067      -0.00082783       0.00967636 </v>
   <v>      -0.00485713       0.01390531       0.00225742 </v>
   <v>      -0.01828357       0.00326931       0.01209475 </v>
   <v>      -0.00820657      -0.00372071      -0.01409810 </v>
   <v>      -0.00656441       0.02800433      -0.00732075 </v>
   <v>       0.00200854      -0.00267239       0.02558264 </v>
   <v>      -0.01629446      -0.00423166      -0.01264854 </v>
   <v>       0.01817035       0.01076296      -0.00953389 </v>
   <v>       0.00007951      -0.00403147       0.00613746 </v>
   <v>       0.00021687       0.00242111       0.00519911 </v>
   <v>      -0.01708509      -0.01376668      -0.00288279 </v>
   <v>      -0.00202120       0.00294103       0.01489131 </v>
   <v>       0.01806547       0.00318329       0.00305052 </v>
   <v>       0.01188366       0.00797487       0.00871733 </v>
   <v>       0.00338680       0.02248238      -0.00140845 </v>
   <v>      -0.00659796      -0.00723961       0.00468182 </v>
   <v>      -0.00679162      -0.00815310       0.00058836 </v>
   <v>       0.01248279       0.00116063      -0.00041003 </v>
   <v>       0.00157227       0.01211037      -0.00096945 </v>
   <v>      -0.00113478      -0.00204272      -0.00945138 </v>
   <v>      -0.01350826      -0.00855511       0.00634549 </v>
   <v>       0.00527449       0.00563480       0.00530260 </v>
   <v>      -0.00044706      -0.00628926      -0.00024940 </v>
   <v>      -0.01452948      -0.00983388       0.00091138 </v>
   <v>      -0.00393809       0.00490985      -0.00322690 </v>
   <v>      -0.01391025      -0.00486959      -0.00288964 </v>
   <v>       0.00540765       0.00150318      -0.02544701 </v>
   <v>       0.01183773      -0.01454068      -0.00926096 </v>
   <v>       0.00297352       0.00302732      -0.00542705 </v>
   <v>       0.00381036       0.00448346      -0.00582476 </v>
   <v>       0.00175924       0.00605564      -0.00019891 </v>
   <v>       0.00348338      -0.00380422      -0.00213897 </v>
   <v>       0.01622380      -0.00302766      -0.00033339 </v>
   <v>      -0.00828252       0.01335476      -0.00715858 </v>
   <v>       0.00426802      -0.01334607       0.00069837 </v>
   <v>       0.01945459      -0.01404087       0.01018573 </v>
   <v>      -0.00137047      -0.00509428      -0.00261379 </v>
   <v>       0.00437321      -0.01378023       0.01124505 </v>
   <v>      -0.00427086       0.00127556      -0.01239581 </v>
   <v>      -0.00708779      -0.00281524      -0.00089483 </v>
   <v>       0.01202082      -0.00685137       0.01247119 </v>
   <v>       0.01180931       0.00293826       0.00403624 </v>
   <v>       0.00255676      -0.00667702       0.00337238 </v>
   <v>      -0.00720619      -0.01024989       0.00627911 </v>
   <v>      -0.01406344      -0.00560419      -0.00585927 </v>
   <v>       0.00738801       0.01133439       0.00463837 </v>
   <v>       0.01862251      -0.00107006       0.00863961 </v>
   <v>      -0.01358453      -0.01434937       0.01016311 </v>
   <v>      -0.00320895       0.00015482      -0.00282077 </v>
   <v>       0.00390020      -0.01242975      -0.00702746 </v>
   <v>       0.00956676       0.00998114      -0.00814958 </v>
   <v>       0.00525283      -0.00795089      -0.00431426 </v>
   <v>      -0.00193186       0.00767076      -0.01268399 </v>
   <v>      -0.00259032      -0.00699938      -0.00154500 </v>
   <v>       0.00180030       0.00550912       0.00451010 </v>
   <v>       0.00754738      -0.00757065       0.00239969 </v>
   <v>      -0.00251229       0.00584871      -0.01164937 </v>
   <v>      -0.00844394      -0.02464302       0.02272044 </v>
   <v>       0.00719596      -0.00331774      -0.00250599 </v>
   <v>      -0.02106422      -0.00198778       0.00082119 </v>
   <v>       0.00325100      -0.00240869       0.00098141 </v>
   <v>      -0.01504554       0.00926012      -0.00344335 </v>
   <v>       0.01068023       0.00105389      -0.01440717 </v>
   <v>       0.00687413       0.00052481      -0.01659874 </v>
   <v>      -0.00063725      -0.01062075       0.01519843 </v>
   <v>      -0.01115587      -0.00627514       0.02619498 </v>
   <v>      -0.00894935      -0.00547432      -0.00352307 </v>
   <v>      -0.00216038       0.01462416      -0.00244849 </v>
   <v>      -0.00939751      -0.00268221      -0.00747216 </v>
   <v>       0.01370198      -0.01186726       0.00206782 </v>
   <v>       0.00046716      -0.00168670      -0.00579205 </v>
   <v>       0.00425298      -0.00134935       0.01921742 </v>
   <v>      -0.00079006       0.01686400       0.00413042 </v>
   <v>      -0.00672607      -0.00337495      -0.00976639 </v>
   <v>       0.00910690      -0.01163256      -0.00039534 </v>
   <v>       0.00362616      -0.00113577      -0.00507218 </v>
   <v>       0.01294409      -0.00819379      -0.01485530 </v>
   <v>       0.02134195      -0.00898411       0.01201704 </v>
   <v>       0.00245664       0.00401538      -0.01564267 </v>
   <v>       0.00858609       0.01213126       0.00896738 </v>
   <v>      -0.00741355       0.00223339       0.00792340 </v>
   <v>      -0.00636114      -0.00604614      -0.00516641 </v>
   <v>      -0.00544711       0.00569549      -0.00493770 </v>
   <v>      -0.00406214       0.00448900       0.00136048 </v>
   <v>      -0.01003101       0.00833191       0.00698818 </v>
   <v>      -0.00734186       0.01161025      -0.00978255 </v>
   <v>       0.00284068      -0.00034121       0.00605907 </v>
   <v>      -0.01249176      -0.00961336       0.00870624 </v>
   <v>       0.01241443      -0.01158170       0.00268453 </v>
   <v>      -0.00367626      -0.00257101      -0.00262690 </v>
   <v>       0.00705419      -0.00162962      -0.00852763 </v>
   <v>       0.00458295       0.00010532      -0.01791339 </v>
   <v>       0.01637699      -0.01708172       0.00713573 </v>
   <v>       0.01291562       0.00890016      -0.00869051 </v>
   <v>      -0.01692365       0.01059423       0.01782449 </v>
   <v>      -0.01948665       0.01379286      -0.00343249 </v>
   <v>      -0.01074288      -0.00696893       0.01675712 </v>
   <v>       0.00996139       0.00108057       0.00855729 </v>
   <v>       0.01150445      -0.00086118       0.00274330 </v>
   <v>      -0.00171086      -0.00127262       0.01801976 </v>
   <v>      -0.00205598       0.00345732      -0.00287897 </v>
   <v>      -0.00425533      -0.00070270      -0.01853145 </v>
  </varray>
  <varray name="stress" >
   <v>      -0.19486515       0.07474602      -0.03600239 </v>
   <v>       0.07474575       0.12323071      -0.07081282 </v>
   <v>      -0.03600273      -0.07081313      -0.36915347 </v>
  </varray>
  <energy>
   <i name="e_fr_energy">  -1119.15273753 </i>
   <i name="e_wo_entrp">  -1119.15273753 </i>
   <i name="e_0_energy">     -0.00000000 </i>
  </energy>
  <time name="totalsc"> 1976.78 1979.71</time>
 </calculation>
 <calculation>
  <scstep>
   <time name="dav">  569.89  570.06</time>
   <time name="total">  576.99  577.20</time>
   <energy>
    <i name="alphaZ">   5601.94656999 </i>
    <i name="ewald"> -60750.52856610 </i>
    <i name="hartreedc"> -16730.47799100 </i>
    <i name="XCdc">   2962.51661027 </i>
    <i name="pawpsdc"> 112550.96638435 </i>
    <i name="pawaedc">-111450.73790281 </i>
    <i name="eentropy">     -0.00000000 </i>
    <i name="bandstr">  -7086.28569360 </i>
    <i name="atom">  73783.44779670 </i>
    <i name="e_fr_energy">  -1119.15279221 </i>
    <i name="e_wo_entrp">  -1119.15279221 </i>
    <i name="e_0_energy">  -1119.15279221 </i>
   </energy>
  </scstep>
  <scstep>
   <time name="diag">   64.84   64.84</time>
   <time name="diis">  104.39  104.40</time>
   <time name="orth">   33.41   33.42</time>
   <time name="total">  209.76  209.80</time>
   <energy>
    <i name="e_fr_energy">  -1119.15381523 </i>
    <i name="e_wo_entrp">  -1119.15381523 </i>
    <i name="e_0_energy">  -1119.15381523 </i>
   </energy>
  </scstep>
  <scstep>
   <time name="diag">   64.80   64.86</time>
   <time name="diis">   97.18   97.19</time>
   <time name="orth">   33.49   33.49</time>
   <time name="total">  202.55  202.66</time>
   <energy>
    <i name="e_fr_energy">  -1119.15383386 </i>
    <i name="e_wo_entrp">  -1119.15383386 </i>
    <i name="e_0_energy">  -1119.15383386 </i>
   </energy>
  </scstep>
  <scstep>
   <time name="diag">   64.81   64.82</time>
   <time name="diis">   71.18   71.20</time>
   <time name="orth">   33.43   33.44</time>
   <time name="total">  176.58  176.65</time>
   <energy>
    <i name="e_fr_energy">  -1119.15376526 </i>
    <i name="e_wo_entrp">  -1119.15376526 </i>
    <i name="e_0_energy">  -1119.15376526 </i>
   </energy>
  </scstep>
  <scstep>
   <time name="diag">   64.78   64.81</time>
   <time name="diis">   64.28   64.34</time>
   <time name="orth">   33.42   33.42</time>
   <time name="total">  169.63  169.77</time>
   <energy>
    <i name="e_fr_energy">  -1119.15375471 </i>
    <i name="e_wo_entrp">  -1119.15375471 </i>
    <i name="e_0_energy">  -1119.15375471 </i>
   </energy>
  </scstep>
  <scstep>
   <time name="diag">   64.74   64.74</time>
   <time name="diis">   63.41   63.41</time>
   <time name="orth">   33.43   33.43</time>
   <time name="total">  168.71  168.82</time>
   <energy>
    <i name="e_fr_energy">  -1119.15375753 </i>
    <i name="e_wo_entrp">  -1119.15375753 </i>
    <i name="e_0_energy">  -1119.15375753 </i>
   </energy>
  </scstep>
  <scstep>
   <time name="diag">   64.95   64.94</time>
   <time name="diis">   62.57   62.62</time>
   <time name="orth">   33.40   33.42</time>
   <time name="total">  168.03  168.25</time>
   <energy>
    <i name="e_fr_energy">  -1119.15375971 </i>
    <i name="e_wo_entrp">  -1119.15375971 </i>
    <i name="e_0_energy">  -1119.15375971 </i>
   </energy>
  </scstep>
  <scstep>
   <time name="diag">   65.00   65.04</time>
   <time name="diis">   61.67   61.70</time>
   <time name="orth">   33.44   33.44</time>
   <time name="total">  161.16  161.32</time>
   <energy>
    <i name="alphaZ">   5601.94656999 </i>
    <i name="ewald"> -60750.52856610 </i>
    <i name="hartreedc"> -16728.17518188 </i>
    <i name="XCdc">   2962.35060622 </i>
    <i name="pawpsdc"> 112578.84537318 </i>
    <i name="pawaedc">-111478.63139947 </i>
    <i name="eentropy">     -0.00000000 </i>
    <i name="bandstr">  -7088.40896007 </i>
    <i name="atom">  73783.44779670 </i>
    <i name="e_fr_energy">  -1119.15376143 </i>
    <i name="e_wo_entrp">  -1119.15376143 </i>
    <i name="e_0_energy">  -1119.15376143 </i>
   </energy>
  </scstep>
  <structure>
   <crystal>
    <varray name="basis" >
     <v>      11.22378214       0.01275733       0.00374815 </v>
     <v>       0.01275171      11.23661589      -0.00548206 </v>
     <v>       0.00521147      -0.00799918      15.97358014 </v>
    </varray>
    <i name="volume">   2014.54194482 </i>
    <varray name="rec_basis" >
     <v>       0.08909665      -0.00010112      -0.00002912 </v>
     <v>      -0.00010117       0.08899490       0.00004460 </v>
     <v>      -0.00002094       0.00003057       0.06260340 </v>
    </varray>
   </crystal>
   <varray name="positions" >
    <v>       0.99727482       0.25146840       0.11388267 </v>
    <v>       0.99416651       0.24958229       0.63866072 </v>
    <v>       0.00594983       0.75216616       0.12288392 </v>
    <v>       0.00255365       0.74949050       0.63027985 </v>
    <v>       0.50381267       0.25402842       0.11688116 </v>
    <v>       0.50257365       0.24973025       0.63443274 </v>
    <v>       0.49554656       0.74702968       0.11960572 </v>
    <v>       0.49577334       0.75010606       0.62788907 </v>
    <v>       0.00729725       0.25857209       0.38075068 </v>
    <v>       0.99265925       0.24964378       0.86982164 </v>
    <v>       0.00472429       0.74971070       0.38105626 </v>
    <v>       0.00351432       0.75048445       0.86744874 </v>
    <v>       0.50767697       0.25398856       0.37240063 </v>
    <v>       0.50633181       0.24989524       0.87344692 </v>
    <v>       0.49516373       0.74802847       0.38231348 </v>
    <v>       0.49726220       0.74804342       0.86919633 </v>
    <v>       0.24348657       0.99479582       0.11704976 </v>
    <v>       0.24538080       0.98923234       0.63342204 </v>
    <v>       0.25099197       0.50599939       0.11989212 </v>
    <v>       0.23994316       0.50648981       0.62950028 </v>
    <v>       0.75529665       0.00286832       0.11686855 </v>
    <v>       0.75224884       0.99761356       0.63418623 </v>
    <v>       0.74902920       0.49689510       0.11714386 </v>
    <v>       0.75824987       0.49955791       0.62973715 </v>
    <v>       0.24070386       0.98882242       0.37908864 </v>
    <v>       0.24641514       0.99625156       0.86913485 </v>
    <v>       0.24712278       0.51948489       0.37496174 </v>
    <v>       0.24733271       0.50412039       0.87038224 </v>
    <v>       0.75676990       0.99433007       0.38019158 </v>
    <v>       0.75226331       0.00616991       0.87130020 </v>
    <v>       0.75527838       0.50856623       0.37959306 </v>
    <v>       0.75273143       0.49283009       0.86861156 </v>
    <v>       0.99864949       0.00163552       0.99686632 </v>
    <v>       0.99734177       0.99978428       0.50157919 </v>
    <v>       0.99788625       0.50003425       0.99800590 </v>
    <v>       0.50151664       0.00041053       0.99887523 </v>
    <v>       0.50082015       0.00193492       0.49829342 </v>
    <v>       0.50176971       0.49847838       0.99696265 </v>
    <v>       0.24999109       0.24910742       0.99377576 </v>
    <v>       0.24964070       0.74978170       0.99788754 </v>
    <v>       0.24944460       0.74878171       0.50382083 </v>
    <v>       0.75051806       0.25050256       0.50828685 </v>
    <v>       0.74816394       0.74985927       0.99926467 </v>
    <v>       0.74979652       0.75345410       0.50357761 </v>
    <v>       0.24647808       0.25324835       0.23951019 </v>
    <v>       0.24917199       0.25029826       0.75029395 </v>
    <v>       0.25047664       0.75146373       0.24820079 </v>
    <v>       0.75292049       0.25028410       0.24114618 </v>
    <v>       0.75826939       0.73856586       0.24885845 </v>
    <v>       0.75183200       0.74809036       0.75009422 </v>
    <v>       0.99991943       0.00275078       0.25278462 </v>
    <v>       0.00497414       0.49670773       0.25144492 </v>
    <v>       0.48688490       0.00878906       0.25228736 </v>
    <v>       0.49849438       0.00121116       0.75055682 </v>
    <v>       0.49800639       0.50028502       0.25395786 </v>
    <v>       0.49823682       0.49791079       0.74558800 </v>
    <v>       0.99777927       0.50651575       0.49869253 </v>
    <v>       0.51140630       0.50913190       0.49985498 </v>
    <v>       0.24519398       0.23177501       0.51105955 </v>
    <v>       0.74943744       0.25016608       0.99455859 </v>
    <v>       0.24791944       0.74874655       0.74964905 </v>
    <v>       0.75084780       0.24988434       0.75361154 </v>
    <v>       0.99887261       0.00036963       0.75005798 </v>
    <v>       0.00007451       0.49913222       0.74883616 </v>
    <v>       0.12078806       0.13990762       0.26751495 </v>
    <v>       0.11805078       0.13655444       0.74883017 </v>
    <v>       0.11233610       0.63850822       0.24955947 </v>
    <v>       0.11468922       0.63229887       0.74594422 </v>
    <v>       0.62348529       0.12917085       0.25995898 </v>
    <v>       0.61296101       0.13310265       0.74955016 </v>
    <v>       0.60917215       0.63887328       0.25810553 </v>
    <v>       0.61264583       0.63393125       0.74378681 </v>
    <v>       0.38571737       0.35297738       0.25397635 </v>
    <v>       0.38771676       0.36191440       0.75709333 </v>
    <v>       0.39610298       0.85898213       0.24807844 </v>
    <v>       0.38677943       0.86689247       0.74715419 </v>
    <v>       0.88491851       0.36220604       0.25973945 </v>
    <v>       0.88432764       0.36666270       0.75160652 </v>
    <v>       0.87344256       0.87150162       0.24585174 </v>
    <v>       0.88039223       0.86381971       0.74987690 </v>
    <v>       0.35924649       0.11432650       0.26271028 </v>
    <v>       0.36382171       0.11320241       0.74620847 </v>
    <v>       0.36146192       0.60971050       0.24770605 </v>
    <v>       0.36612863       0.61217954       0.74864280 </v>
    <v>       0.86609850       0.12197880       0.26498275 </v>
    <v>       0.86523848       0.11520232       0.75079383 </v>
    <v>       0.86195190       0.61137927       0.24166732 </v>
    <v>       0.86318623       0.61596230       0.74358877 </v>
    <v>       0.14253165       0.38530099       0.26330961 </v>
    <v>       0.13714055       0.38221588       0.75686475 </v>
    <v>       0.13794735       0.88873923       0.24590938 </v>
    <v>       0.13213209       0.88433563       0.74906159 </v>
    <v>       0.64092142       0.37889684       0.26850317 </v>
    <v>       0.63339957       0.38623932       0.74536821 </v>
    <v>       0.63262719       0.88448049       0.75258946 </v>
    <v>       0.36384529       0.38407217       0.00272496 </v>
    <v>       0.36502454       0.88528917       0.00464696 </v>
    <v>       0.36483802       0.89152462       0.49758374 </v>
    <v>       0.86586332       0.38633218       0.00263710 </v>
    <v>       0.86761893       0.37510128       0.48403248 </v>
    <v>       0.86342212       0.88373147       0.00483229 </v>
    <v>       0.86223189       0.88614841       0.50148974 </v>
    <v>       0.13666712       0.11343247       0.00020814 </v>
    <v>       0.12892587       0.11617786       0.49152460 </v>
    <v>       0.13419137       0.61527615       0.00403873 </v>
    <v>       0.13214134       0.62128467       0.49987236 </v>
    <v>       0.63332739       0.11236194       0.00222279 </v>
    <v>       0.63517492       0.12170736       0.48327511 </v>
    <v>       0.63435093       0.61455212       0.00622620 </v>
    <v>       0.63572952       0.62009894       0.49728694 </v>
    <v>       0.11485009       0.36269822       0.99391154 </v>
    <v>       0.17309452       0.36508598       0.46805704 </v>
    <v>       0.11447708       0.86538558       0.00492658 </v>
    <v>       0.11449093       0.86761590       0.50235404 </v>
    <v>       0.61265529       0.36512760       0.00168615 </v>
    <v>       0.61930780       0.36385200       0.48868892 </v>
    <v>       0.61215161       0.86297160       0.99377589 </v>
    <v>       0.61299937       0.86821486       0.50410159 </v>
    <v>       0.38517433       0.13408375       0.01176427 </v>
    <v>       0.38535470       0.14746400       0.47803792 </v>
    <v>       0.38457132       0.63259845       0.00432582 </v>
    <v>       0.38070518       0.63155861       0.49974776 </v>
    <v>       0.88499470       0.13374296       0.00163862 </v>
    <v>       0.87728863       0.13396192       0.48197714 </v>
    <v>       0.88110322       0.63572870       0.01775297 </v>
    <v>       0.87972037       0.63735306       0.49860186 </v>
    <v>       0.00093675       0.01299620       0.13016253 </v>
    <v>       0.99458277       0.00905547       0.62102386 </v>
    <v>       0.00983648       0.48536969       0.12970840 </v>
    <v>       0.00434698       0.48050673       0.61724007 </v>
    <v>       0.51611907       0.99446579       0.13315836 </v>
    <v>       0.49993478       0.01300761       0.61925243 </v>
    <v>       0.50589350       0.48980335       0.13186733 </v>
    <v>       0.48586472       0.48216353       0.61876567 </v>
    <v>       0.00134029       0.98262265       0.37401721 </v>
    <v>       0.99914881       0.99797499       0.87767249 </v>
    <v>       0.99753836       0.51031249       0.37291289 </v>
    <v>       0.99254576       0.51221319       0.87886892 </v>
    <v>       0.51815847       0.97667989       0.36841346 </v>
    <v>       0.49198004       0.00542785       0.87630860 </v>
    <v>       0.47949949       0.48970754       0.37876378 </v>
    <v>       0.50338431       0.50370866       0.87598988 </v>
    <v>       0.25923095       0.23950504       0.87618391 </v>
    <v>       0.24967587       0.75489010       0.37319964 </v>
    <v>       0.25111499       0.74947841       0.87739465 </v>
    <v>       0.74620473       0.25045739       0.87559057 </v>
    <v>       0.74321708       0.76243127       0.37041772 </v>
    <v>       0.75326050       0.73904709       0.87719086 </v>
    <v>       0.23855197       0.25013396       0.12557399 </v>
    <v>       0.25937961       0.26130136       0.62559762 </v>
    <v>       0.25029046       0.74977617       0.12597221 </v>
    <v>       0.25340527       0.75322160       0.62335527 </v>
    <v>       0.74892667       0.25167245       0.12666901 </v>
    <v>       0.75261458       0.24740973       0.62280904 </v>
    <v>       0.72402525       0.76843960       0.13241147 </v>
    <v>       0.74707982       0.75314492       0.62477022 </v>
   </varray>
  </structure>
  <varray name="forces" >
   <v>      -0.00007120       0.00273692       0.00092530 </v>
   <v>       0.00436324       0.00109240      -0.00364424 </v>
   <v>       0.00353650       0.00192732       0.00593955 </v>
   <v>       0.00092271       0.00070666       0.00913278 </v>
   <v>       0.00230927       0.00248796       0.00126175 </v>
   <v>       0.00205398       0.00055126       0.01053667 </v>
   <v>      -0.00121488      -0.00044232      -0.00059910 </v>
   <v>       0.00015451       0.00423373      -0.00054287 </v>
   <v>       0.00084246      -0.00774021      -0.00631062 </v>
   <v>      -0.00948043      -0.00175692      -0.00111546 </v>
   <v>      -0.00396167      -0.00195659       0.00442744 </v>
   <v>       0.00751838       0.01216040      -0.00233012 </v>
   <v>      -0.00063093       0.00841822      -0.00747781 </v>
   <v>       0.01100393       0.00063144      -0.00075763 </v>
   <v>      -0.00001598      -0.00136232      -0.00595182 </v>
   <v>      -0.00040104       0.00799904       0.00889500 </v>
   <v>       0.00154618       0.00365189       0.00459697 </v>
   <v>      -0.00389454      -0.00149773      -0.00919861 </v>
   <v>      -0.00061172       0.00120305       0.00193785 </v>
   <v>       0.00439081      -0.00188960       0.00386068 </v>
   <v>      -0.00354395       0.00268341      -0.00233465 </v>
   <v>      -0.00386087       0.00170033       0.00737080 </v>
   <v>      -0.00020855       0.00379757      -0.00323555 </v>
   <v>      -0.00116100       0.00630228       0.00038179 </v>
   <v>      -0.00123671      -0.00136455      -0.00854571 </v>
   <v>      -0.00574786      -0.00431665      -0.01064368 </v>
   <v>      -0.00186696      -0.00238701       0.00198126 </v>
   <v>       0.00357332       0.00612359       0.00479823 </v>
   <v>       0.00255506       0.00454988       0.00591855 </v>
   <v>      -0.00334181      -0.00322739      -0.00177233 </v>
   <v>      -0.00369963       0.00602669       0.00021842 </v>
   <v>      -0.00638318       0.00290917       0.00166654 </v>
   <v>       0.00422827       0.00027590      -0.00348945 </v>
   <v>       0.00189480      -0.00054127      -0.00349136 </v>
   <v>      -0.00989144      -0.00107939       0.01191410 </v>
   <v>      -0.00964688      -0.00042387      -0.00832424 </v>
   <v>      -0.00157178      -0.01381967       0.02032882 </v>
   <v>       0.00617273       0.00183335       0.01120326 </v>
   <v>       0.00962150      -0.00286271       0.03131895 </v>
   <v>       0.00350510       0.00718862      -0.01019347 </v>
   <v>      -0.00363399      -0.00270863      -0.00285172 </v>
   <v>       0.00555671      -0.01527234       0.02577593 </v>
   <v>       0.00891600       0.00096408      -0.00349811 </v>
   <v>       0.00667121       0.00369922       0.00802440 </v>
   <v>      -0.01016576       0.00229351       0.01642275 </v>
   <v>       0.02437022      -0.02434193      -0.01658333 </v>
   <v>      -0.01515968      -0.00686914       0.00874683 </v>
   <v>       0.00122891       0.00795834       0.00313825 </v>
   <v>       0.01743719      -0.02557769      -0.00061919 </v>
   <v>      -0.00632327       0.03307387      -0.00641899 </v>
   <v>       0.01108263       0.00337383       0.00078812 </v>
   <v>       0.00740741       0.00512970      -0.01344031 </v>
   <v>      -0.00359570       0.01138267      -0.00918853 </v>
   <v>       0.01317189       0.00071124       0.00540596 </v>
   <v>      -0.00893006      -0.00705947      -0.01369413 </v>
   <v>       0.01155247      -0.01478372      -0.00112737 </v>
   <v>      -0.01188850       0.00660793      -0.00346287 </v>
   <v>       0.00110019       0.00912883       0.00308350 </v>
   <v>       0.00219108      -0.01324122       0.00099319 </v>
   <v>       0.00107996       0.00261167      -0.00410678 </v>
   <v>       0.00671559       0.00873860      -0.00135531 </v>
   <v>      -0.00786958      -0.00465419       0.00109786 </v>
   <v>      -0.00988125      -0.00558054       0.00148689 </v>
   <v>      -0.00485934       0.00366255       0.00206470 </v>
   <v>      -0.00994255      -0.01089802      -0.00364121 </v>
   <v>       0.00160562       0.00248587       0.01317314 </v>
   <v>       0.00785443      -0.00626818       0.00131454 </v>
   <v>      -0.00601119      -0.01424102       0.00660715 </v>
[...]
       <r>   -16.3104     0.0000    32.0000 </r>
       <r>   -16.1580     0.0000    32.0000 </r>
       <r>   -16.0056     0.0000    32.0000 </r>
       <r>   -15.8533     0.0000    32.0000 </r>
       <r>   -15.7009     0.0000    32.0000 </r>
       <r>   -15.5485     0.0000    32.0000 </r>
       <r>   -15.3961     0.0035    32.0005 </r>
       <r>   -15.2437     6.2409    32.9516 </r>
       <r>   -15.0913    20.2361    36.0353 </r>
       <r>   -14.9389    36.5654    41.6074 </r>
       <r>   -14.7866    49.0893    49.0879 </r>
       <r>   -14.6342    40.2378    55.2196 </r>
       <r>   -14.4818    39.6245    61.2579 </r>
       <r>   -14.3294    40.5432    67.4361 </r>
       <r>   -14.1770    64.1214    77.2074 </r>
       <r>   -14.0246   108.7733    93.7830 </r>
       <r>   -13.8722   107.2594   110.1279 </r>
       <r>   -13.7198    53.2065   118.2359 </r>
       <r>   -13.5675    22.6385   121.6857 </r>
       <r>   -13.4151     9.9999   123.2095 </r>
       <r>   -13.2627     5.1860   123.9998 </r>
       <r>   -13.1103     0.0012   124.0000 </r>
       <r>   -12.9579     0.0000   124.0000 </r>
       <r>   -12.8055     0.0082   124.0012 </r>
       <r>   -12.6531    21.2519   127.2398 </r>
       <r>   -12.5008   119.4584   145.4436 </r>
       <r>   -12.3484   166.7305   170.8512 </r>
       <r>   -12.1960   124.7406   189.8600 </r>
       <r>   -12.0436   107.8298   206.2918 </r>
       <r>   -11.8912    66.6568   216.4494 </r>
       <r>   -11.7388    18.4142   219.2555 </r>
       <r>   -11.5864     4.8848   219.9999 </r>
       <r>   -11.4340     0.0008   220.0000 </r>
       <r>   -11.2817     0.0000   220.0000 </r>
       <r>   -11.1293     0.0000   220.0000 </r>
       <r>   -10.9769     0.0000   220.0000 </r>
       <r>   -10.8245     0.0000   220.0000 </r>
       <r>   -10.6721     0.0000   220.0000 </r>
       <r>   -10.5197     0.0000   220.0000 </r>
       <r>   -10.3673     0.0000   220.0000 </r>
       <r>   -10.2150     0.0000   220.0000 </r>
       <r>   -10.0626     0.0000   220.0000 </r>
       <r>    -9.9102     0.0000   220.0000 </r>
       <r>    -9.7578     0.0000   220.0000 </r>
       <r>    -9.6054     0.0000   220.0000 </r>
       <r>    -9.4530     0.0000   220.0000 </r>
       <r>    -9.3006     0.0000   220.0000 </r>
       <r>    -9.1482     0.0000   220.0000 </r>
       <r>    -8.9959     0.0000   220.0000 </r>
       <r>    -8.8435     0.0000   220.0000 </r>
       <r>    -8.6911     0.0000   220.0000 </r>
       <r>    -8.5387     0.0000   220.0000 </r>
       <r>    -8.3863     0.0000   220.0000 </r>
       <r>    -8.2339     0.0000   220.0000 </r>
       <r>    -8.0815     0.0000   220.0000 </r>
       <r>    -7.9292     0.0000   220.0000 </r>
       <r>    -7.7768     0.0000   220.0000 </r>
       <r>    -7.6244     0.0000   220.0000 </r>
       <r>    -7.4720     0.0000   220.0000 </r>
       <r>    -7.3196     0.0000   220.0000 </r>
       <r>    -7.1672     0.0000   220.0000 </r>
       <r>    -7.0148     0.0000   220.0000 </r>
       <r>    -6.8624     0.0000   220.0000 </r>
       <r>    -6.7101     0.0000   220.0000 </r>
       <r>    -6.5577     0.0000   220.0000 </r>
       <r>    -6.4053     0.0000   220.0000 </r>
       <r>    -6.2529     0.0000   220.0000 </r>
       <r>    -6.1005     0.0000   220.0000 </r>
       <r>    -5.9481     0.0000   220.0000 </r>
       <r>    -5.7957     0.0000   220.0000 </r>
       <r>    -5.6433     0.0000   220.0000 </r>
       <r>    -5.4910     0.0000   220.0000 </r>
       <r>    -5.3386     0.0000   220.0000 </r>
       <r>    -5.1862     0.0000   220.0000 </r>
       <r>    -5.0338     0.0000   220.0000 </r>
       <r>    -4.8814     0.0000   220.0000 </r>
       <r>    -4.7290     0.0000   220.0000 </r>
       <r>    -4.5766     2.1564   220.3286 </r>
       <r>    -4.4243    10.9488   221.9971 </r>
       <r>    -4.2719     3.4953   222.5297 </r>
       <r>    -4.1195    14.8382   224.7908 </r>
       <r>    -3.9671     1.3726   225.0000 </r>
       <r>    -3.8147     0.0000   225.0000 </r>
       <r>    -3.6623     0.0000   225.0000 </r>
       <r>    -3.5099     0.0000   225.0000 </r>
       <r>    -3.3575     0.0000   225.0000 </r>
       <r>    -3.2052     0.0000   225.0000 </r>
       <r>    -3.0528     0.0000   225.0000 </r>
       <r>    -2.9004     0.0000   225.0000 </r>
       <r>    -2.7480     0.0000   225.0000 </r>
       <r>    -2.5956     0.0000   225.0000 </r>
       <r>    -2.4432     1.5620   225.2380 </r>
       <r>    -2.2908     9.9813   226.7590 </r>
       <r>    -2.1385    22.1915   230.1407 </r>
       <r>    -1.9861    26.0383   234.1086 </r>
       <r>    -1.8337    38.3938   239.9593 </r>
       <r>    -1.6813    56.7505   248.6074 </r>
       <r>    -1.5289    44.7485   255.4264 </r>
       <r>    -1.3765    57.8624   264.2439 </r>
       <r>    -1.2241    66.1203   274.3198 </r>
       <r>    -1.0717    67.4670   284.6008 </r>
       <r>    -0.9194    77.8950   296.4710 </r>
       <r>    -0.7670    79.3568   308.5639 </r>
       <r>    -0.6146    94.5306   322.9691 </r>
       <r>    -0.4622   109.6491   339.6782 </r>
       <r>    -0.3098    80.9079   352.0075 </r>
       <r>    -0.1574    55.7633   360.5051 </r>
       <r>    -0.0050    47.2735   367.7089 </r>
       <r>     0.1473    49.4698   375.2475 </r>
       <r>     0.2997    48.6610   382.6628 </r>
       <r>     0.4521    49.8994   390.2668 </r>
       <r>     0.6045    50.4382   397.9529 </r>
       <r>     0.7569    55.0046   406.3349 </r>
       <r>     0.9093    58.4443   415.2410 </r>
       <r>     1.0617    63.7899   424.9617 </r>
       <r>     1.2141    71.1510   435.8042 </r>
       <r>     1.3664    80.5036   448.0719 </r>
       <r>     1.5188    86.5147   461.2556 </r>
       <r>     1.6712    75.7940   472.8056 </r>
       <r>     1.8236    68.0699   483.1785 </r>
       <r>     1.9760    46.9151   490.3278 </r>
       <r>     2.1284    43.1953   496.9102 </r>
       <r>     2.2808    17.7565   499.6160 </r>
       <r>     2.4331     7.4103   500.7452 </r>
       <r>     2.5855     1.6718   501.0000 </r>
       <r>     2.7379     0.0000   501.0000 </r>
       <r>     2.8903     0.0000   501.0000 </r>
       <r>     3.0427     0.0000   501.0000 </r>
       <r>     3.1951     0.0000   501.0000 </r>
       <r>     3.3475     0.0000   501.0000 </r>
       <r>     3.4999     0.0000   501.0000 </r>
       <r>     3.6522     0.0000   501.0000 </r>
       <r>     3.8046     0.0000   501.0000 </r>
       <r>     3.9570     0.0000   501.0000 </r>
       <r>     4.1094     0.0000   501.0000 </r>
       <r>     4.2618     0.0000   501.0000 </r>
       <r>     4.4142     0.0005   501.0001 </r>
       <r>     4.5666     8.4060   502.2810 </r>
       <r>     4.7190    35.2219   507.6484 </r>
       <r>     4.8713    38.2538   513.4777 </r>
       <r>     5.0237    31.0272   518.2059 </r>
       <r>     5.1761    48.3333   525.5712 </r>
       <r>     5.3285    56.3736   534.1618 </r>
       <r>     5.4809    65.9895   544.2177 </r>
       <r>     5.6333    61.3752   553.5705 </r>
       <r>     5.7857    83.1450   566.2407 </r>
       <r>     5.9380    85.6048   579.2857 </r>
       <r>     6.0904    92.9449   593.4493 </r>
       <r>     6.2428    63.0283   603.0540 </r>
       <r>     6.3952    51.1796   610.8531 </r>
       <r>     6.5476    29.5830   615.3612 </r>
       <r>     6.7000    17.4556   618.0212 </r>
       <r>     6.8524    17.0761   620.6233 </r>
       <r>     7.0048    22.2915   624.0203 </r>
       <r>     7.1571    19.4356   626.9820 </r>
       <r>     7.3095    17.7890   629.6928 </r>
       <r>     7.4619    15.1387   631.9997 </r>
       <r>     7.6143    14.8385   634.2609 </r>
       <r>     7.7667    14.8943   636.5306 </r>
       <r>     7.9191    17.5323   639.2023 </r>
       <r>     8.0715    23.8958   642.8437 </r>
       <r>     8.2238    24.6188   646.5953 </r>
       <r>     8.3762    26.2387   650.5937 </r>
       <r>     8.5286    27.1727   654.7345 </r>
       <r>     8.6810    26.3175   658.7449 </r>
       <r>     8.8334    30.0973   663.3313 </r>
       <r>     8.9858    35.8994   668.8019 </r>
       <r>     9.1382    42.0679   675.2125 </r>
       <r>     9.2906    35.7077   680.6539 </r>
       <r>     9.4429    43.8936   687.3427 </r>
       <r>     9.5953    47.5811   694.5934 </r>
       <r>     9.7477    55.8561   703.1051 </r>
       <r>     9.9001    60.5662   712.3346 </r>
       <r>    10.0525    63.4133   721.9980 </r>
       <r>    10.2049    64.2143   731.7834 </r>
       <r>    10.3573    54.4843   740.0861 </r>
       <r>    10.5096    55.1038   748.4832 </r>
       <r>    10.6620    59.4299   757.5395 </r>
       <r>    10.8144    50.2852   765.2023 </r>
       <r>    10.9668    18.3474   767.9982 </r>
       <r>    11.1192     0.0120   768.0000 </r>
       <r>    11.2716     0.0000   768.0000 </r>
       <r>    11.4240     0.0000   768.0000 </r>
       <r>    11.5764     0.0000   768.0000 </r>
       <r>    11.7287     0.0000   768.0000 </r>
       <r>    11.8811     0.0000   768.0000 </r>
       <r>    12.0335     0.0000   768.0000 </r>
       <r>    12.1859     0.0000   768.0000 </r>
       <r>    12.3383     0.0000   768.0000 </r>
       <r>    12.4907     0.0000   768.0000 </r>
       <r>    12.6431     0.0000   768.0000 </r>
       <r>    12.7954     0.0000   768.0000 </r>
       <r>    12.9478     0.0000   768.0000 </r>
      </set>
     </set>
    </array>
   </total>
  </dos>
 </calculation>
 <structure name="finalpos" >
  <crystal>
   <varray name="basis" >
    <v>      11.22369454       0.01293587       0.00368941 </v>
    <v>       0.01292940      11.23753617      -0.00567468 </v>
    <v>       0.00512847      -0.00827414      15.97223794 </v>
   </varray>
   <i name="volume">   2014.52182620 </i>
   <varray name="rec_basis" >
    <v>       0.08909735      -0.00010253      -0.00002866 </v>
    <v>      -0.00010258       0.08898762       0.00004613 </v>
    <v>      -0.00002062       0.00003164       0.06260866 </v>
   </varray>
  </crystal>
  <varray name="positions" >
   <v>       0.99727311       0.25148157       0.11388596 </v>
   <v>       0.99420110       0.24961289       0.63865838 </v>
   <v>       0.00597681       0.75218179       0.12290136 </v>
   <v>       0.00257188       0.74947815       0.63032785 </v>
   <v>       0.50383867       0.25402742       0.11688549 </v>
   <v>       0.50257812       0.24974445       0.63447583 </v>
   <v>       0.49553616       0.74704022       0.11961324 </v>
   <v>       0.49577626       0.75012090       0.62788901 </v>
   <v>       0.00730388       0.25852758       0.38072280 </v>
   <v>       0.99262861       0.24965142       0.86981147 </v>
   <v>       0.00469575       0.74970097       0.38107868 </v>
   <v>       0.00356092       0.75054123       0.86743656 </v>
   <v>       0.50769142       0.25404606       0.37236067 </v>
   <v>       0.50637199       0.24990943       0.87345060 </v>
   <v>       0.49516536       0.74802993       0.38226869 </v>
   <v>       0.49727325       0.74807217       0.86923587 </v>
   <v>       0.24350764       0.99480613       0.11708331 </v>
   <v>       0.24535300       0.98922390       0.63338495 </v>
   <v>       0.25098142       0.50601485       0.11988236 </v>
   <v>       0.23996009       0.50646961       0.62952185 </v>
   <v>       0.75526866       0.00288593       0.11686604 </v>
   <v>       0.75223255       0.99762877       0.63421120 </v>
   <v>       0.74902597       0.49692150       0.11712711 </v>
   <v>       0.75826175       0.49959522       0.62974445 </v>
   <v>       0.24070555       0.98880887       0.37904673 </v>
   <v>       0.24637011       0.99624300       0.86908330 </v>
   <v>       0.24712874       0.51947602       0.37497786 </v>
   <v>       0.24733380       0.50413088       0.87040457 </v>
   <v>       0.75677411       0.99437204       0.38019735 </v>
   <v>       0.75226125       0.00614120       0.87131006 </v>
   <v>       0.75525502       0.50859616       0.37959628 </v>
   <v>       0.75270115       0.49287169       0.86861405 </v>
   <v>       0.99863183       0.00162807       0.99687166 </v>
   <v>       0.99740755       0.99980076       0.50155866 </v>
   <v>       0.99791108       0.50004140       0.99800853 </v>
   <v>       0.50147433       0.00042361       0.99888516 </v>
   <v>       0.50081518       0.00185072       0.49833420 </v>
   <v>       0.50180340       0.49849739       0.99698675 </v>
   <v>       0.25003222       0.24912480       0.99378717 </v>
   <v>       0.24961896       0.74977799       0.99790193 </v>
   <v>       0.24943797       0.74875122       0.50379696 </v>
   <v>       0.75050048       0.25046359       0.50833214 </v>
   <v>       0.74819039       0.74985546       0.99924426 </v>
   <v>       0.74985785       0.75348108       0.50359864 </v>
   <v>       0.24642772       0.25323861       0.23952906 </v>
   <v>       0.24924058       0.25023790       0.75025029 </v>
   <v>       0.25047606       0.75148042       0.24821720 </v>
   <v>       0.75292901       0.25028539       0.24116497 </v>
   <v>       0.75830695       0.73851796       0.24887368 </v>
   <v>       0.75179643       0.74816597       0.75007975 </v>
   <v>       0.99991971       0.00275561       0.25279081 </v>
   <v>       0.00494247       0.49672383       0.25141813 </v>
   <v>       0.48688413       0.00880995       0.25227389 </v>
   <v>       0.49849577       0.00122632       0.75057183 </v>
   <v>       0.49794190       0.50025749       0.25394008 </v>
   <v>       0.49826545       0.49789497       0.74558886 </v>
   <v>       0.99769124       0.50654771       0.49870447 </v>
   <v>       0.51139142       0.50915579       0.49983860 </v>
   <v>       0.24518702       0.23179617       0.51104934 </v>
   <v>       0.74944675       0.25016941       0.99459205 </v>
   <v>       0.24790415       0.74876793       0.74962432 </v>
   <v>       0.75086404       0.24989373       0.75359796 </v>
   <v>       0.99883682       0.00033998       0.75007250 </v>
   <v>       0.00005743       0.49915184       0.74885031 </v>
   <v>       0.12070789       0.13983238       0.26750058 </v>
   <v>       0.11805143       0.13657170       0.74889111 </v>
   <v>       0.11241224       0.63849440       0.24956843 </v>
   <v>       0.11469847       0.63226769       0.74597691 </v>
   <v>       0.62345853       0.12923204       0.25996438 </v>
   <v>       0.61294197       0.13308507       0.74956660 </v>
   <v>       0.60915738       0.63885937       0.25811133 </v>
   <v>       0.61268999       0.63390964       0.74379471 </v>
   <v>       0.38571725       0.35302720       0.25397356 </v>
   <v>       0.38769292       0.36190177       0.75705928 </v>
   <v>       0.39609014       0.85899133       0.24810115 </v>
   <v>       0.38677616       0.86688963       0.74716290 </v>
   <v>       0.88491280       0.36216756       0.25973836 </v>
   <v>       0.88432166       0.36668219       0.75160553 </v>
   <v>       0.87339562       0.87153404       0.24583949 </v>
   <v>       0.88035792       0.86380137       0.74986085 </v>
   <v>       0.35931237       0.11429213       0.26260335 </v>
   <v>       0.36379544       0.11320088       0.74616151 </v>
   <v>       0.36148982       0.60972517       0.24769508 </v>
   <v>       0.36614852       0.61219802       0.74862081 </v>
   <v>       0.86610197       0.12199754       0.26499001 </v>
   <v>       0.86528112       0.11517748       0.75078229 </v>
   <v>       0.86195673       0.61146099       0.24166661 </v>
   <v>       0.86321580       0.61595878       0.74355865 </v>
   <v>       0.14253154       0.38523950       0.26332559 </v>
   <v>       0.13718052       0.38219825       0.75691166 </v>
   <v>       0.13792477       0.88872944       0.24589846 </v>
   <v>       0.13213064       0.88428447       0.74909229 </v>
   <v>       0.64090419       0.37889838       0.26845799 </v>
   <v>       0.63335173       0.38624814       0.74536487 </v>
   <v>       0.63268992       0.88443195       0.75263828 </v>
   <v>       0.36386080       0.38404993       0.00273436 </v>
   <v>       0.36504690       0.88524233       0.00467678 </v>
   <v>       0.36479964       0.89147513       0.49760277 </v>
   <v>       0.86584290       0.38634214       0.00261259 </v>
   <v>       0.86762168       0.37513401       0.48405169 </v>
   <v>       0.86350281       0.88370622       0.00487421 </v>
   <v>       0.86219286       0.88610683       0.50151608 </v>
   <v>       0.13665898       0.11346162       0.00019405 </v>
   <v>       0.12899185       0.11614352       0.49149636 </v>
   <v>       0.13421140       0.61529467       0.00400632 </v>
   <v>       0.13216907       0.62124074       0.49985748 </v>
   <v>       0.63330936       0.11239652       0.00219271 </v>
   <v>       0.63517972       0.12170022       0.48326082 </v>
   <v>       0.63436592       0.61459505       0.00623307 </v>
   <v>       0.63574982       0.62003119       0.49728809 </v>
   <v>       0.11485593       0.36273601       0.99384977 </v>
   <v>       0.17299545       0.36506685       0.46810328 </v>
   <v>       0.11450523       0.86537338       0.00492596 </v>
   <v>       0.11441149       0.86756171       0.50235226 </v>
   <v>       0.61266780       0.36512722       0.00169209 </v>
   <v>       0.61924443       0.36387673       0.48867572 </v>
   <v>       0.61222010       0.86298444       0.99371727 </v>
   <v>       0.61300590       0.86822125       0.50403140 </v>
   <v>       0.38514313       0.13405122       0.01183366 </v>
   <v>       0.38531272       0.14744062       0.47812744 </v>
   <v>       0.38452006       0.63256545       0.00432077 </v>
   <v>       0.38070748       0.63162018       0.49973368 </v>
   <v>       0.88495113       0.13371926       0.00161310 </v>
   <v>       0.87729259       0.13396632       0.48197753 </v>
   <v>       0.88111916       0.63570988       0.01772930 </v>
   <v>       0.87977610       0.63733233       0.49866460 </v>
   <v>       0.00092225       0.01309114       0.13017353 </v>
   <v>       0.99456512       0.00903863       0.62101502 </v>
   <v>       0.00989271       0.48530458       0.12968568 </v>
   <v>       0.00437638       0.48049592       0.61726653 </v>
   <v>       0.51619678       0.99440750       0.13314502 </v>
   <v>       0.50004780       0.01294739       0.61924823 </v>
   <v>       0.50590002       0.48983193       0.13182903 </v>
   <v>       0.48590582       0.48224142       0.61878174 </v>
   <v>       0.00129084       0.98262520       0.37401982 </v>
   <v>       0.99911200       0.99793511       0.87766666 </v>
   <v>       0.99750854       0.51033796       0.37291490 </v>
   <v>       0.99253144       0.51224145       0.87883100 </v>
   <v>       0.51809920       0.97673125       0.36840610 </v>
   <v>       0.49193207       0.00548510       0.87632749 </v>
   <v>       0.47949477       0.48970351       0.37878045 </v>
   <v>       0.50332200       0.50366392       0.87600107 </v>
   <v>       0.25930128       0.23944289       0.87615614 </v>
   <v>       0.24966720       0.75488332       0.37320535 </v>
   <v>       0.25114901       0.74945613       0.87740764 </v>
   <v>       0.74623061       0.25047404       0.87557926 </v>
   <v>       0.74330434       0.76234867       0.37041842 </v>
   <v>       0.75333338       0.73908159       0.87718233 </v>
   <v>       0.23844653       0.25019271       0.12555151 </v>
   <v>       0.25925957       0.26138400       0.62560862 </v>
   <v>       0.25024007       0.74974638       0.12600173 </v>
   <v>       0.25344004       0.75322507       0.62335586 </v>
   <v>       0.74899346       0.25165476       0.12667946 </v>
   <v>       0.75259901       0.24741262       0.62278977 </v>
   <v>       0.72401044       0.76845999       0.13241677 </v>
   <v>       0.74704707       0.75312931       0.62473893 </v>
  </varray>
 </structure>
</modeling>
