       N       E                     dE             d eps       ncg     rms          rms(c)
DAV:   1    -0.105720539680E+04   -0.10572E+04   -0.20981E-02 13256   0.341E-01    0.261E-02
RMM:   2    -0.105720539631E+04    0.48149E-06   -0.17686E-05  6715   0.746E-03    0.448E-02
RMM:   3    -0.105720539650E+04   -0.18795E-06   -0.53052E-06  6050   0.450E-03    0.399E-03
RMM:   4    -0.105720539658E+04   -0.75102E-07   -0.14416E-06  2762   0.197E-03    0.268E-03
RMM:   5    -0.105720539664E+04   -0.59459E-07   -0.88493E-07  2731   0.219E-03    0.355E-03
RMM:   6    -0.105720539667E+04   -0.31112E-07   -0.34135E-07  2111   0.179E-03    0.147E-03
RMM:   7    -0.105720539668E+04   -0.70722E-08   -0.24983E-07  1879   0.184E-03    0.515E-04
RMM:   8    -0.105720539669E+04   -0.10143E-07   -0.70991E-08  1545   0.173E-03
   1 F= -.10572054E+04 E0= -.10572054E+04  d E =-.105721E+04  mag=    80.0000
       N       E                     dE             d eps       ncg     rms          rms(c)
DAV:   1    -0.105720537259E+04    0.24085E-04   -0.25832E-01 12576   0.598E-01    0.231E-01
RMM:   2    -0.105720624909E+04   -0.87650E-03   -0.71528E-03 12383   0.118E-01    0.158E-01
RMM:   3    -0.105720631217E+04   -0.63081E-04   -0.37776E-04  9779   0.356E-02    0.915E-02
RMM:   4    -0.105720628599E+04    0.26175E-04   -0.74456E-05  7278   0.125E-02    0.559E-02
RMM:   5    -0.105720627326E+04    0.12736E-04   -0.62143E-05  7149   0.102E-02    0.182E-02
RMM:   6    -0.105720627521E+04   -0.19565E-05   -0.13052E-05  6804   0.603E-03    0.920E-03
RMM:   7    -0.105720627575E+04   -0.53864E-06   -0.57011E-06  5690   0.350E-03    0.881E-03
RMM:   8    -0.105720627608E+04   -0.32461E-06   -0.26815E-06  4537   0.295E-03
   2 F= -.10572063E+04 E0= -.10572063E+04  d E =-.879393E-03  mag=    80.0000
       N       E                     dE             d eps       ncg     rms          rms(c)
DAV:   1    -0.105720620310E+04    0.72650E-04   -0.50036E-02 12512   0.263E-01    0.102E-01
RMM:   2    -0.105720637377E+04   -0.17066E-03   -0.13972E-03 12099   0.517E-02    0.702E-02
RMM:   3    -0.105720638479E+04   -0.11019E-04   -0.63952E-05  7088   0.164E-02    0.414E-02
RMM:   4    -0.105720638121E+04    0.35730E-05   -0.20263E-05  6893   0.695E-03    0.247E-02
RMM:   5    -0.105720637917E+04    0.20476E-05   -0.14862E-05  6386   0.517E-03    0.201E-02
RMM:   6    -0.105720637946E+04   -0.29319E-06   -0.54226E-06  5576   0.419E-03    0.111E-02
RMM:   7    -0.105720637965E+04   -0.19032E-06   -0.12133E-06  3216   0.216E-03    0.387E-03
RMM:   8    -0.105720637973E+04   -0.83237E-07   -0.60324E-07  2860   0.217E-03
   3 F= -.10572064E+04 E0= -.10572064E+04  d E =-.983048E-03  mag=    80.0000
       N       E                     dE             d eps       ncg     rms          rms(c)
DAV:   1    -0.105720655653E+04   -0.17688E-03   -0.15773E-01 12720   0.470E-01    0.130E-01
RMM:   2    -0.105720700521E+04   -0.44869E-03   -0.41533E-03 12474   0.866E-02    0.795E-02
RMM:   3    -0.105720702070E+04   -0.15489E-04   -0.18788E-04  7835   0.271E-02    0.443E-02
RMM:   4    -0.105720701157E+04    0.91373E-05   -0.52963E-05  7023   0.111E-02    0.247E-02
RMM:   5    -0.105720701012E+04    0.14501E-05   -0.24492E-05  6837   0.689E-03    0.193E-02
RMM:   6    -0.105720701101E+04   -0.89694E-06   -0.92552E-06  6075   0.483E-03    0.951E-03
RMM:   7    -0.105720701150E+04   -0.48720E-06   -0.43618E-06  4790   0.314E-03    0.452E-03
RMM:   8    -0.105720701173E+04   -0.23168E-06   -0.23472E-06  3929   0.270E-03
   4 F= -.10572070E+04 E0= -.10572070E+04  d E =-.631999E-03  mag=    80.0000
       N       E                     dE             d eps       ncg     rms          rms(c)
DAV:   1    -0.105720495082E+04    0.20607E-02   -0.93997E-01 12608   0.115E+00    0.317E-01
RMM:   2    -0.105720761792E+04   -0.26671E-02   -0.24678E-02 12585   0.211E-01    0.194E-01
RMM:   3    -0.105720774274E+04   -0.12482E-03   -0.14348E-03 12140   0.649E-02    0.109E-01
RMM:   4    -0.105720766791E+04    0.74822E-04   -0.24236E-04  8221   0.198E-02    0.612E-02
RMM:   5    -0.105720764970E+04    0.18218E-04   -0.10624E-04  7330   0.136E-02    0.280E-02
RMM:   6    -0.105720765287E+04   -0.31733E-05   -0.28659E-05  7148   0.896E-03    0.215E-02
RMM:   7    -0.105720765429E+04   -0.14195E-05   -0.14913E-05  6875   0.519E-03    0.120E-02
RMM:   8    -0.105720765498E+04   -0.69512E-06   -0.84481E-06  6575   0.485E-03
   5 F= -.10572077E+04 E0= -.10572077E+04  d E =-.127525E-02  mag=    80.0000
       N       E                     dE             d eps       ncg     rms          rms(c)
DAV:   1    -0.105720779681E+04   -0.14252E-03   -0.12030E-01 12528   0.409E-01    0.106E-01
RMM:   2    -0.105720813432E+04   -0.33751E-03   -0.31939E-03 12667   0.747E-02    0.665E-02
RMM:   3    -0.105720814027E+04   -0.59482E-05   -0.13539E-04  7406   0.227E-02    0.383E-02
RMM:   4    -0.105720813528E+04    0.49911E-05   -0.36909E-05  7018   0.920E-03    0.226E-02
RMM:   5    -0.105720813355E+04    0.17251E-05   -0.18547E-05  6731   0.581E-03    0.127E-02
RMM:   6    -0.105720813411E+04   -0.56239E-06   -0.68180E-06  5845   0.413E-03    0.768E-03
RMM:   7    -0.105720813439E+04   -0.27580E-06   -0.33130E-06  4581   0.289E-03    0.319E-03
RMM:   8    -0.105720813441E+04   -0.16938E-07   -0.15355E-06  3661   0.253E-03
   6 F= -.10572081E+04 E0= -.10572081E+04  d E =-.479422E-03  mag=    80.0000
       N       E                     dE             d eps       ncg     rms          rms(c)
DAV:   1    -0.105720597054E+04    0.21638E-02   -0.10812E+00 12616   0.122E+00    0.318E-01
RMM:   2    -0.105720894868E+04   -0.29781E-02   -0.28098E-02 12684   0.223E-01    0.198E-01
RMM:   3    -0.105720905976E+04   -0.11108E-03   -0.15595E-03 12246   0.677E-02    0.114E-01
RMM:   4    -0.105720899218E+04    0.67579E-04   -0.24130E-04  8125   0.199E-02    0.680E-02
RMM:   5    -0.105720896991E+04    0.22267E-04   -0.11852E-04  7246   0.141E-02    0.263E-02
RMM:   6    -0.105720897357E+04   -0.36570E-05   -0.30258E-05  7126   0.907E-03    0.192E-02
RMM:   7    -0.105720897485E+04   -0.12839E-05   -0.16092E-05  6881   0.527E-03    0.110E-02
RMM:   8    -0.105720897493E+04   -0.78013E-07   -0.92026E-06  6597   0.502E-03
   7 F= -.10572090E+04 E0= -.10572090E+04  d E =-.131995E-02  mag=    80.0000
