<?xml version="1.0" encoding="ISO-8859-1"?>
<modeling>
 <generator>
  <i name="program" type="string">vasp </i>
  <i name="version" type="string">5.4.1  </i>
  <i name="subversion" type="string">05Feb16 (build Jan 25 2017 20:16:33) complex                          parallel </i>
  <i name="platform" type="string">BWXE6 </i>
  <i name="date" type="string">2019 07 09 </i>
  <i name="time" type="string">23:35:28 </i>
 </generator>
 <incar>
  <i type="string" name="SYSTEM"> STF</i>
  <i type="string" name="PREC">normal</i>
  <i type="string" name="ALGO"> Fast</i>
  <i type="int" name="ISPIN">     2</i>
  <i type="int" name="NELM">    40</i>
  <i type="int" name="NELMIN">     8</i>
  <i type="int" name="IBRION">     2</i>
  <i name="EDIFF">      0.00010000</i>
  <i name="EDIFFG">     -0.03000000</i>
  <i type="int" name="NSW">    30</i>
  <i type="int" name="ISIF">     3</i>
  <i name="ENCUT">    520.00000000</i>
  <i type="int" name="NBANDS">   768</i>
  <v name="MAGMOM">      0.60000000      0.60000000      0.60000000      0.60000000      0.60000000      0.60000000      0.60000000      0.60000000      0.60000000      0.60000000      0.60000000      0.60000000      0.60000000      0.60000000      0.60000000      0.60000000      0.60000000      0.60000000      0.60000000      0.60000000
      0.60000000      0.60000000      0.60000000      0.60000000      0.60000000      0.60000000      0.60000000      0.60000000      0.60000000      0.60000000      0.60000000      0.60000000      0.60000000      0.60000000      0.60000000      0.60000000      0.60000000      0.60000000      0.60000000      0.60000000
      0.60000000      0.60000000      0.60000000      0.60000000      0.60000000      0.60000000      0.60000000      0.60000000      5.00000000      5.00000000      5.00000000      5.00000000      5.00000000      5.00000000      5.00000000      5.00000000      5.00000000      5.00000000      5.00000000      5.00000000
      5.00000000      5.00000000      5.00000000      5.00000000      0.60000000      0.60000000      0.60000000      0.60000000      0.60000000      0.60000000      0.60000000      0.60000000      0.60000000      0.60000000      0.60000000      0.60000000      0.60000000      0.60000000      0.60000000      0.60000000
      0.60000000      0.60000000      0.60000000      0.60000000      0.60000000      0.60000000      0.60000000      0.60000000      0.60000000      0.60000000      0.60000000      0.60000000      0.60000000      0.60000000      0.60000000      0.60000000      0.60000000      0.60000000      0.60000000      0.60000000
      0.60000000      0.60000000      0.60000000      0.60000000      0.60000000      0.60000000      0.60000000      0.60000000      0.60000000      0.60000000      0.60000000      0.60000000      0.60000000      0.60000000      0.60000000      0.60000000      0.60000000      0.60000000      0.60000000      0.60000000
      0.60000000      0.60000000      0.60000000      0.60000000      0.60000000      0.60000000      0.60000000      0.60000000      0.60000000      0.60000000      0.60000000      0.60000000      0.60000000      0.60000000      0.60000000      0.60000000      0.60000000      0.60000000      0.60000000      0.60000000
      0.60000000      0.60000000      0.60000000      0.60000000      0.60000000      0.60000000      0.60000000      0.60000000      0.60000000      0.60000000      0.60000000      0.60000000</v>
  <i type="string" name="LREAL"> Auto</i>
  <i type="int" name="ISMEAR">     0</i>
  <i name="SIGMA">      0.05000000</i>
  <i type="int" name="LMAXMIX">     4</i>
  <v type="int" name="KPOINT_BSE">    -1     0     0     0</v>
  <i type="int" name="NELM">    40</i>
  <i type="logical" name="LDAU"> T  </i>
  <v type="int" name="LDAUTYPE">     2</v>
  <v type="int" name="LDAUL">     0     2     2     0</v>
  <v name="LDAUU">      0.00000000      3.00000000      5.00000000      0.00000000</v>
  <v name="LDAUJ">      0.00000000      0.00000000      0.00000000      0.00000000</v>
  <i type="int" name="LDAUPRINT">     1</i>
 </incar>
 <kpoints>
  <generation param="Monkhorst-Pack">
   <v type="int" name="divisions">       2        2        2 </v>
   <v name="usershift">      0.00000000       0.00000000       0.00000000 </v>
   <v name="genvec1">      0.50000000       0.00000000      -0.00000000 </v>
   <v name="genvec2">     -0.00000000       0.50000000       0.00000000 </v>
   <v name="genvec3">      0.00000000       0.00000000       0.50000000 </v>
   <v name="shift">      0.50000000       0.50000000       0.50000000 </v>
  </generation>
  <varray name="kpointlist" >
   <v>       0.25000000       0.25000000       0.25000000 </v>
   <v>      -0.25000000       0.25000000       0.25000000 </v>
   <v>       0.25000000      -0.25000000       0.25000000 </v>
   <v>      -0.25000000      -0.25000000       0.25000000 </v>
  </varray>
  <varray name="weights" >
   <v>       0.25000000 </v>
   <v>       0.25000000 </v>
   <v>       0.25000000 </v>
   <v>       0.25000000 </v>
  </varray>
 </kpoints>
 <parameters>
  <separator name="general" >
   <i type="string" name="SYSTEM">STF</i>
   <i type="logical" name="LCOMPAT"> F  </i>
  </separator>
  <separator name="electronic" >
   <i type="string" name="PREC">normal</i>
   <i name="ENMAX">    520.00000000</i>
   <i name="ENAUG">    605.39200000</i>
   <i name="EDIFF">      0.00010000</i>
   <i type="int" name="IALGO">    68</i>
   <i type="int" name="IWAVPR">    11</i>
   <i type="int" name="NBANDS">   768</i>
   <i name="NELECT">   1040.00000000</i>
   <i type="int" name="TURBO">     0</i>
   <i type="int" name="IRESTART">     0</i>
   <i type="int" name="NREBOOT">     0</i>
   <i type="int" name="NMIN">     0</i>
   <i name="EREF">      0.00000000</i>
   <separator name="electronic smearing" >
    <i type="int" name="ISMEAR">     0</i>
    <i name="SIGMA">      0.05000000</i>
    <i name="KSPACING">      0.50000000</i>
    <i type="logical" name="KGAMMA"> T  </i>
   </separator>
   <separator name="electronic projectors" >
    <i type="logical" name="LREAL"> T  </i>
    <v name="ROPT">     -0.00050000     -0.00050000     -0.00050000     -0.00050000</v>
    <i type="int" name="LMAXPAW">  -100</i>
    <i type="int" name="LMAXMIX">     4</i>
    <i type="logical" name="NLSPLINE"> F  </i>
   </separator>
   <separator name="electronic startup" >
    <i type="int" name="ISTART">     1</i>
    <i type="int" name="ICHARG">     0</i>
    <i type="int" name="INIWAV">     1</i>
   </separator>
   <separator name="electronic spin" >
    <i type="int" name="ISPIN">     2</i>
    <i type="logical" name="LNONCOLLINEAR"> F  </i>
    <v name="MAGMOM">      0.60000000      0.60000000      0.60000000      0.60000000      0.60000000      0.60000000      0.60000000      0.60000000      0.60000000      0.60000000      0.60000000      0.60000000      0.60000000      0.60000000      0.60000000      0.60000000      0.60000000      0.60000000      0.60000000      0.60000000
      0.60000000      0.60000000      0.60000000      0.60000000      0.60000000      0.60000000      0.60000000      0.60000000      0.60000000      0.60000000      0.60000000      0.60000000      0.60000000      0.60000000      0.60000000      0.60000000      0.60000000      0.60000000      0.60000000      0.60000000
      0.60000000      0.60000000      0.60000000      0.60000000      0.60000000      0.60000000      0.60000000      0.60000000      5.00000000      5.00000000      5.00000000      5.00000000      5.00000000      5.00000000      5.00000000      5.00000000      5.00000000      5.00000000      5.00000000      5.00000000
      5.00000000      5.00000000      5.00000000      5.00000000      0.60000000      0.60000000      0.60000000      0.60000000      0.60000000      0.60000000      0.60000000      0.60000000      0.60000000      0.60000000      0.60000000      0.60000000      0.60000000      0.60000000      0.60000000      0.60000000
      0.60000000      0.60000000      0.60000000      0.60000000      0.60000000      0.60000000      0.60000000      0.60000000      0.60000000      0.60000000      0.60000000      0.60000000      0.60000000      0.60000000      0.60000000      0.60000000      0.60000000      0.60000000      0.60000000      0.60000000
      0.60000000      0.60000000      0.60000000      0.60000000      0.60000000      0.60000000      0.60000000      0.60000000      0.60000000      0.60000000      0.60000000      0.60000000      0.60000000      0.60000000      0.60000000      0.60000000      0.60000000      0.60000000      0.60000000      0.60000000
      0.60000000      0.60000000      0.60000000      0.60000000      0.60000000      0.60000000      0.60000000      0.60000000      0.60000000      0.60000000      0.60000000      0.60000000      0.60000000      0.60000000      0.60000000      0.60000000      0.60000000      0.60000000      0.60000000      0.60000000
      0.60000000      0.60000000      0.60000000      0.60000000      0.60000000      0.60000000      0.60000000      0.60000000      0.60000000      0.60000000      0.60000000      0.60000000</v>
    <i name="NUPDOWN">     -1.00000000</i>
    <i type="logical" name="LSORBIT"> F  </i>
    <v name="SAXIS">      0.00000000      0.00000000      1.00000000</v>
    <i type="logical" name="LSPIRAL"> F  </i>
    <v name="QSPIRAL">      0.00000000      0.00000000      0.00000000</v>
    <i type="logical" name="LZEROZ"> F  </i>
   </separator>
   <separator name="electronic exchange-correlation" >
    <i type="logical" name="LASPH"> F  </i>
    <i type="logical" name="LMETAGGA"> F  </i>
   </separator>
   <separator name="electronic convergence" >
    <i type="int" name="NELM">    40</i>
    <i type="int" name="NELMDL">     0</i>
    <i type="int" name="NELMIN">     8</i>
    <i name="ENINI">    520.00000000</i>
    <separator name="electronic convergence detail" >
     <i type="logical" name="LDIAG"> T  </i>
     <i type="logical" name="LSUBROT"> F  </i>
     <i name="WEIMIN">      0.00100000</i>
     <i name="EBREAK">      0.00000003</i>
     <i name="DEPER">      0.30000000</i>
     <i type="int" name="NRMM">     4</i>
     <i name="TIME">      0.40000000</i>
    </separator>
   </separator>
   <separator name="electronic mixer" >
    <i name="AMIX">      0.40000000</i>
    <i name="BMIX">      1.00000000</i>
    <i name="AMIN">      0.10000000</i>
    <i name="AMIX_MAG">      1.60000000</i>
    <i name="BMIX_MAG">      1.00000000</i>
    <separator name="electronic mixer details" >
     <i type="int" name="IMIX">     4</i>
     <i type="logical" name="MIXFIRST"> F  </i>
     <i type="int" name="MAXMIX">   -45</i>
     <i name="WC">    100.00000000</i>
     <i type="int" name="INIMIX">     1</i>
     <i type="int" name="MIXPRE">     1</i>
     <i type="int" name="MREMOVE">     5</i>
    </separator>
   </separator>
   <separator name="electronic dipolcorrection" >
    <i type="logical" name="LDIPOL"> F  </i>
    <i type="logical" name="LMONO"> F  </i>
    <i type="int" name="IDIPOL">     0</i>
    <i name="EPSILON">      1.00000000</i>
    <v name="DIPOL">   -100.00000000   -100.00000000   -100.00000000</v>
    <i name="EFIELD">      0.00000000</i>
   </separator>
  </separator>
  <separator name="grids" >
   <i type="int" name="NGX">    64</i>
   <i type="int" name="NGY">    64</i>
   <i type="int" name="NGZ">    90</i>
   <i type="int" name="NGXF">   128</i>
   <i type="int" name="NGYF">   128</i>
   <i type="int" name="NGZF">   180</i>
   <i type="logical" name="ADDGRID"> F  </i>
  </separator>
  <separator name="ionic" >
   <i type="int" name="NSW">    30</i>
   <i type="int" name="IBRION">     2</i>
   <i type="int" name="ISIF">     3</i>
   <i name="PSTRESS">      0.00000000</i>
   <i name="EDIFFG">     -0.03000000</i>
   <i type="int" name="NFREE">     1</i>
   <i name="POTIM">      0.50000000</i>
   <i name="SMASS">     -3.00000000</i>
   <i name="SCALEE">      1.00000000</i>
  </separator>
  <separator name="ionic md" >
   <i name="TEBEG">      0.00010000</i>
   <i name="TEEND">      0.00010000</i>
   <i type="int" name="NBLOCK">     1</i>
   <i type="int" name="KBLOCK">    30</i>
   <i type="int" name="NPACO">   256</i>
   <i name="APACO">     16.00000000</i>
  </separator>
  <separator name="symmetry" >
   <i type="int" name="ISYM">     2</i>
   <i name="SYMPREC">      0.00001000</i>
  </separator>
  <separator name="dos" >
   <i type="logical" name="LORBIT"> F  </i>
   <v name="RWIGS">     -1.00000000     -1.00000000     -1.00000000     -1.00000000</v>
   <i type="int" name="NEDOS">   301</i>
   <i name="EMIN">     10.00000000</i>
   <i name="EMAX">    -10.00000000</i>
   <i name="EFERMI">      0.00000000</i>
  </separator>
  <separator name="writing" >
   <i type="int" name="NWRITE">     2</i>
   <i type="logical" name="LWAVE"> T  </i>
   <i type="logical" name="LCHARG"> T  </i>
   <i type="logical" name="LPARD"> F  </i>
   <i type="logical" name="LVTOT"> F  </i>
   <i type="logical" name="LVHAR"> F  </i>
   <i type="logical" name="LELF"> F  </i>
   <i type="logical" name="LOPTICS"> F  </i>
   <v name="STM">      0.00000000      0.00000000      0.00000000      0.00000000      0.00000000      0.00000000      0.00000000</v>
  </separator>
  <separator name="performance" >
   <i type="int" name="NPAR">     2</i>
   <i type="int" name="NSIM">     4</i>
   <i type="int" name="NBLK">    -1</i>
   <i type="logical" name="LPLANE"> T  </i>
   <i type="logical" name="LSCALAPACK"> T  </i>
   <i type="logical" name="LSCAAWARE"> F  </i>
   <i type="logical" name="LSCALU"> F  </i>
   <i type="logical" name="LASYNC"> F  </i>
   <i type="logical" name="LORBITALREAL"> F  </i>
  </separator>
  <separator name="miscellaneous" >
   <i type="int" name="IDIOT">     3</i>
   <i type="logical" name="LMUSIC"> F  </i>
   <v name="POMASS">     87.62000000     47.88000000     55.84700000     16.00000000</v>
   <v name="DARWINR">      0.00000000      0.00000000      0.00000000      0.00000000</v>
   <v name="DARWINV">      1.00000000      1.00000000      1.00000000      1.00000000</v>
   <i type="logical" name="LCORR"> T  </i>
  </separator>
  <i type="logical" name="GGA_COMPAT"> T  </i>
  <i type="logical" name="LBERRY"> F  </i>
  <i type="int" name="ICORELEVEL">     0</i>
  <i type="logical" name="LDAU"> T  </i>
  <v type="int" name="LDAUTYPE">     2</v>
  <v type="int" name="LDAUL">     0</v>
  <v name="LDAUU">      0.00000000</v>
  <v name="LDAUJ">      0.00000000</v>
  <i type="int" name="LDAUPRINT">     1</i>
  <i type="int" name="I_CONSTRAINED_M">     0</i>
  <separator name="electronic exchange-correlation" >
   <i type="string" name="GGA">--</i>
   <i type="int" name="VOSKOWN">     0</i>
   <i type="logical" name="LHFCALC"> F  </i>
   <i type="string" name="PRECFOCK"></i>
   <i type="logical" name="LSYMGRAD"> F  </i>
   <i type="logical" name="LHFONE"> F  </i>
   <i type="logical" name="LRHFCALC"> F  </i>
   <i type="logical" name="LTHOMAS"> F  </i>
   <i type="logical" name="LMODELHF"> F  </i>
   <i name="ENCUT4O">     -1.00000000</i>
   <i type="int" name="EXXOEP">     0</i>
   <i type="int" name="FOURORBIT">     0</i>
   <i name="AEXX">      0.00000000</i>
   <i name="HFALPHA">      0.00000000</i>
   <i name="MCALPHA">      0.00000000</i>
   <i name="ALDAX">      1.00000000</i>
   <i name="AGGAX">      1.00000000</i>
   <i name="ALDAC">      1.00000000</i>
   <i name="AGGAC">      1.00000000</i>
   <i type="int" name="NKREDX">     1</i>
   <i type="int" name="NKREDY">     1</i>
   <i type="int" name="NKREDZ">     1</i>
   <i type="logical" name="SHIFTRED"> F  </i>
   <i type="logical" name="ODDONLY"> F  </i>
   <i type="logical" name="EVENONLY"> F  </i>
   <i type="int" name="LMAXFOCK">     0</i>
   <i type="int" name="NMAXFOCKAE">     0</i>
   <i type="logical" name="LFOCKAEDFT"> F  </i>
   <i name="HFSCREEN">      0.00000000</i>
   <i name="HFSCREENC">      0.00000000</i>
   <i type="int" name="NBANDSGWLOW">     0</i>
  </separator>
  <separator name="vdW DFT" >
   <i type="logical" name="LUSE_VDW"> F  </i>
   <i name="Zab_VDW">     -0.84910000</i>
   <i name="PARAM1">      0.12340000</i>
   <i name="PARAM2">      1.00000000</i>
   <i name="PARAM3">      0.00000000</i>
  </separator>
  <separator name="model GW" >
   <i type="int" name="MODEL_GW">     0</i>
   <i name="MODEL_EPS0">      7.89387391</i>
   <i name="MODEL_ALPHA">      1.00000000</i>
  </separator>
  <separator name="linear response parameters" >
   <i type="logical" name="LEPSILON"> F  </i>
   <i type="logical" name="LRPA"> F  </i>
   <i type="logical" name="LNABLA"> F  </i>
   <i type="logical" name="LVEL"> F  </i>
   <i type="int" name="KINTER">     0</i>
   <i name="CSHIFT">      0.10000000</i>
   <i name="OMEGAMAX">     -1.00000000</i>
   <i name="DEG_THRESHOLD">      0.00200000</i>
  </separator>
  <separator name="orbital magnetization" >
   <i type="logical" name="NUCIND"> F  </i>
   <v name="MAGPOS">      0.00000000      0.00000000      0.00000000</v>
   <i type="logical" name="LNICSALL"> T  </i>
   <i type="logical" name="ORBITALMAG"> F  </i>
   <i type="logical" name="LMAGBLOCH"> F  </i>
   <i type="logical" name="LCHIMAG"> F  </i>
   <i type="logical" name="LGAUGE"> T  </i>
   <i type="int" name="MAGATOM">     0</i>
   <v name="MAGDIPOL">      0.00000000      0.00000000      0.00000000</v>
   <v name="AVECCONST">      0.00000000      0.00000000      0.00000000</v>
  </separator>
  <separator name="response functions" >
   <i type="logical" name="LADDER"> F  </i>
   <i type="logical" name="LFXC"> F  </i>
   <i type="logical" name="LHARTREE"> T  </i>
   <i type="int" name="IBSE">     0</i>
   <v type="int" name="KPOINT">    -1     0     0     0</v>
   <i type="logical" name="LTCTE"> F  </i>
   <i type="logical" name="LTETE"> F  </i>
   <i type="logical" name="LTRIPLET"> F  </i>
   <i type="logical" name="LFXCEPS"> F  </i>
   <i type="logical" name="LFXHEG"> F  </i>
   <i type="int" name="NATURALO">     0</i>
   <i type="logical" name="L2ORDER"> F  </i>
   <i type="logical" name="LUSEW"> F  </i>
   <i name="ENCUTGW">     -2.00000000</i>
   <i name="ENCUTGWSOFT">     -2.00000000</i>
   <i name="ENCUTLF">     -1.00000000</i>
   <i type="int" name="LMAXMP2">    -1</i>
   <i name="SCISSOR">      0.00000000</i>
   <i type="int" name="NOMEGA">     0</i>
   <i type="int" name="NOMEGAR">     0</i>
   <i type="int" name="NBANDSGW">    -1</i>
   <i type="int" name="NBANDSO">    -1</i>
   <i type="int" name="NBANDSV">    -1</i>
   <i type="int" name="NELM">    40</i>
   <i type="int" name="NELMHF">     1</i>
   <i type="int" name="DIM">     3</i>
   <i type="int" name="ANTIRES">     0</i>
   <i name="OMEGAMAX">    -30.00000000</i>
   <i name="OMEGAMIN">    -30.00000000</i>
   <i name="OMEGATL">   -200.00000000</i>
   <i type="int" name="OMEGAGRID">     0</i>
   <i name="CSHIFT">     -0.10000000</i>
   <i type="logical" name="SELFENERGY"> F  </i>
   <i type="logical" name="LSPECTRAL"> F  </i>
   <i type="logical" name="LSPECTRALGW"> F  </i>
   <i type="logical" name="LSINGLES"> F  </i>
   <i type="logical" name="LFERMIGW"> F  </i>
   <i type="logical" name="ODDONLYGW"> F  </i>
   <i type="logical" name="EVENONLYGW"> F  </i>
   <i type="int" name="NKREDLFX">     1</i>
   <i type="int" name="NKREDLFY">     1</i>
   <i type="int" name="NKREDLFZ">     1</i>
   <i type="int" name="MAXMEM">  1800</i>
   <i type="int" name="TELESCOPE">     0</i>
   <i type="int" name="TAUPAR">     1</i>
   <i type="int" name="OMEGAPAR">    -1</i>
   <i name="LAMBDA">      1.00000000</i>
  </separator>
  <separator name="External order field" >
   <i name="OFIELD_KAPPA">      0.00000000</i>
   <v name="OFIELD_K">      0.00000000      0.00000000      0.00000000</v>
   <i name="OFIELD_Q6_NEAR">      0.00000000</i>
   <i name="OFIELD_Q6_FAR">      0.00000000</i>
   <i name="OFIELD_A">      0.00000000</i>
  </separator>
 </parameters>
 <atominfo>
  <atoms>     152 </atoms>
  <types>       4 </types>
  <array name="atoms" >
   <dimension dim="1">ion</dimension>
   <field type="string">element</field>
   <field type="int">atomtype</field>
   <set>
    <rc><c>Sr</c><c>   1</c></rc>
    <rc><c>Sr</c><c>   1</c></rc>
    <rc><c>Sr</c><c>   1</c></rc>
    <rc><c>Sr</c><c>   1</c></rc>
    <rc><c>Sr</c><c>   1</c></rc>
    <rc><c>Sr</c><c>   1</c></rc>
    <rc><c>Sr</c><c>   1</c></rc>
    <rc><c>Sr</c><c>   1</c></rc>
    <rc><c>Sr</c><c>   1</c></rc>
    <rc><c>Sr</c><c>   1</c></rc>
    <rc><c>Sr</c><c>   1</c></rc>
    <rc><c>Sr</c><c>   1</c></rc>
    <rc><c>Sr</c><c>   1</c></rc>
    <rc><c>Sr</c><c>   1</c></rc>
    <rc><c>Sr</c><c>   1</c></rc>
    <rc><c>Sr</c><c>   1</c></rc>
    <rc><c>Sr</c><c>   1</c></rc>
    <rc><c>Sr</c><c>   1</c></rc>
    <rc><c>Sr</c><c>   1</c></rc>
    <rc><c>Sr</c><c>   1</c></rc>
    <rc><c>Sr</c><c>   1</c></rc>
    <rc><c>Sr</c><c>   1</c></rc>
    <rc><c>Sr</c><c>   1</c></rc>
    <rc><c>Sr</c><c>   1</c></rc>
    <rc><c>Sr</c><c>   1</c></rc>
    <rc><c>Sr</c><c>   1</c></rc>
    <rc><c>Sr</c><c>   1</c></rc>
    <rc><c>Sr</c><c>   1</c></rc>
    <rc><c>Sr</c><c>   1</c></rc>
    <rc><c>Sr</c><c>   1</c></rc>
    <rc><c>Sr</c><c>   1</c></rc>
    <rc><c>Sr</c><c>   1</c></rc>
    <rc><c>Ti</c><c>   2</c></rc>
    <rc><c>Ti</c><c>   2</c></rc>
    <rc><c>Ti</c><c>   2</c></rc>
    <rc><c>Ti</c><c>   2</c></rc>
    <rc><c>Ti</c><c>   2</c></rc>
    <rc><c>Ti</c><c>   2</c></rc>
    <rc><c>Ti</c><c>   2</c></rc>
    <rc><c>Ti</c><c>   2</c></rc>
    <rc><c>Ti</c><c>   2</c></rc>
    <rc><c>Ti</c><c>   2</c></rc>
    <rc><c>Ti</c><c>   2</c></rc>
    <rc><c>Ti</c><c>   2</c></rc>
    <rc><c>Ti</c><c>   2</c></rc>
    <rc><c>Ti</c><c>   2</c></rc>
    <rc><c>Ti</c><c>   2</c></rc>
    <rc><c>Ti</c><c>   2</c></rc>
    <rc><c>Fe</c><c>   3</c></rc>
    <rc><c>Fe</c><c>   3</c></rc>
    <rc><c>Fe</c><c>   3</c></rc>
    <rc><c>Fe</c><c>   3</c></rc>
    <rc><c>Fe</c><c>   3</c></rc>
    <rc><c>Fe</c><c>   3</c></rc>
    <rc><c>Fe</c><c>   3</c></rc>
    <rc><c>Fe</c><c>   3</c></rc>
    <rc><c>Fe</c><c>   3</c></rc>
    <rc><c>Fe</c><c>   3</c></rc>
    <rc><c>Fe</c><c>   3</c></rc>
    <rc><c>Fe</c><c>   3</c></rc>
    <rc><c>Fe</c><c>   3</c></rc>
    <rc><c>Fe</c><c>   3</c></rc>
    <rc><c>Fe</c><c>   3</c></rc>
    <rc><c>Fe</c><c>   3</c></rc>
    <rc><c>O </c><c>   4</c></rc>
    <rc><c>O </c><c>   4</c></rc>
    <rc><c>O </c><c>   4</c></rc>
    <rc><c>O </c><c>   4</c></rc>
    <rc><c>O </c><c>   4</c></rc>
    <rc><c>O </c><c>   4</c></rc>
    <rc><c>O </c><c>   4</c></rc>
    <rc><c>O </c><c>   4</c></rc>
    <rc><c>O </c><c>   4</c></rc>
    <rc><c>O </c><c>   4</c></rc>
    <rc><c>O </c><c>   4</c></rc>
    <rc><c>O </c><c>   4</c></rc>
    <rc><c>O </c><c>   4</c></rc>
    <rc><c>O </c><c>   4</c></rc>
    <rc><c>O </c><c>   4</c></rc>
    <rc><c>O </c><c>   4</c></rc>
    <rc><c>O </c><c>   4</c></rc>
    <rc><c>O </c><c>   4</c></rc>
    <rc><c>O </c><c>   4</c></rc>
    <rc><c>O </c><c>   4</c></rc>
    <rc><c>O </c><c>   4</c></rc>
    <rc><c>O </c><c>   4</c></rc>
    <rc><c>O </c><c>   4</c></rc>
    <rc><c>O </c><c>   4</c></rc>
    <rc><c>O </c><c>   4</c></rc>
    <rc><c>O </c><c>   4</c></rc>
    <rc><c>O </c><c>   4</c></rc>
    <rc><c>O </c><c>   4</c></rc>
    <rc><c>O </c><c>   4</c></rc>
    <rc><c>O </c><c>   4</c></rc>
    <rc><c>O </c><c>   4</c></rc>
    <rc><c>O </c><c>   4</c></rc>
    <rc><c>O </c><c>   4</c></rc>
    <rc><c>O </c><c>   4</c></rc>
    <rc><c>O </c><c>   4</c></rc>
    <rc><c>O </c><c>   4</c></rc>
    <rc><c>O </c><c>   4</c></rc>
    <rc><c>O </c><c>   4</c></rc>
    <rc><c>O </c><c>   4</c></rc>
    <rc><c>O </c><c>   4</c></rc>
    <rc><c>O </c><c>   4</c></rc>
    <rc><c>O </c><c>   4</c></rc>
    <rc><c>O </c><c>   4</c></rc>
    <rc><c>O </c><c>   4</c></rc>
    <rc><c>O </c><c>   4</c></rc>
    <rc><c>O </c><c>   4</c></rc>
    <rc><c>O </c><c>   4</c></rc>
    <rc><c>O </c><c>   4</c></rc>
    <rc><c>O </c><c>   4</c></rc>
    <rc><c>O </c><c>   4</c></rc>
    <rc><c>O </c><c>   4</c></rc>
    <rc><c>O </c><c>   4</c></rc>
    <rc><c>O </c><c>   4</c></rc>
    <rc><c>O </c><c>   4</c></rc>
    <rc><c>O </c><c>   4</c></rc>
    <rc><c>O </c><c>   4</c></rc>
    <rc><c>O </c><c>   4</c></rc>
    <rc><c>O </c><c>   4</c></rc>
    <rc><c>O </c><c>   4</c></rc>
    <rc><c>O </c><c>   4</c></rc>
    <rc><c>O </c><c>   4</c></rc>
    <rc><c>O </c><c>   4</c></rc>
    <rc><c>O </c><c>   4</c></rc>
    <rc><c>O </c><c>   4</c></rc>
    <rc><c>O </c><c>   4</c></rc>
    <rc><c>O </c><c>   4</c></rc>
    <rc><c>O </c><c>   4</c></rc>
    <rc><c>O </c><c>   4</c></rc>
    <rc><c>O </c><c>   4</c></rc>
    <rc><c>O </c><c>   4</c></rc>
    <rc><c>O </c><c>   4</c></rc>
    <rc><c>O </c><c>   4</c></rc>
    <rc><c>O </c><c>   4</c></rc>
    <rc><c>O </c><c>   4</c></rc>
    <rc><c>O </c><c>   4</c></rc>
    <rc><c>O </c><c>   4</c></rc>
    <rc><c>O </c><c>   4</c></rc>
    <rc><c>O </c><c>   4</c></rc>
    <rc><c>O </c><c>   4</c></rc>
    <rc><c>O </c><c>   4</c></rc>
    <rc><c>O </c><c>   4</c></rc>
    <rc><c>O </c><c>   4</c></rc>
    <rc><c>O </c><c>   4</c></rc>
    <rc><c>O </c><c>   4</c></rc>
    <rc><c>O </c><c>   4</c></rc>
    <rc><c>O </c><c>   4</c></rc>
    <rc><c>O </c><c>   4</c></rc>
    <rc><c>O </c><c>   4</c></rc>
   </set>
  </array>
  <array name="atomtypes" >
   <dimension dim="1">type</dimension>
   <field type="int">atomspertype</field>
   <field type="string">element</field>
   <field>mass</field>
   <field>valence</field>
   <field type="string">pseudopotential</field>
   <set>
    <rc><c>  32</c><c>Sr</c><c>     87.62000000</c><c>     10.00000000</c><c>  PAW_PBE Sr_sv 07Sep2000               </c></rc>
    <rc><c>  16</c><c>Ti</c><c>     47.88000000</c><c>      4.00000000</c><c>  PAW_PBE Ti 08Apr2002                  </c></rc>
    <rc><c>  16</c><c>Fe</c><c>     55.84700000</c><c>      8.00000000</c><c>  PAW_PBE Fe 06Sep2000                  </c></rc>
    <rc><c>  88</c><c>O </c><c>     16.00000000</c><c>      6.00000000</c><c>  PAW_PBE O 08Apr2002                   </c></rc>
   </set>
  </array>
 </atominfo>
 <structure name="initialpos" >
  <crystal>
   <varray name="basis" >
    <v>      11.20898031       0.03251800      -0.01564536 </v>
    <v>       0.03253174      11.19495815      -0.01806005 </v>
    <v>      -0.02152153      -0.02571933      15.93674218 </v>
   </varray>
   <i name="volume">   1999.78138958 </i>
   <varray name="rec_basis" >
    <v>       0.08921510      -0.00025906       0.00012006 </v>
    <v>      -0.00025894       0.08932691       0.00014381 </v>
    <v>       0.00008729       0.00010097       0.06274836 </v>
   </varray>
  </crystal>
  <varray name="positions" >
   <v>       0.99613633       0.24740960       0.11224015 </v>
   <v>       0.99862542       0.24571053       0.62995033 </v>
   <v>       0.99250547       0.75668950       0.12061815 </v>
   <v>       0.99555916       0.75403676       0.62557054 </v>
   <v>       0.50292932       0.24233355       0.11331885 </v>
   <v>       0.50105185       0.24993957       0.62702135 </v>
   <v>       0.50548360       0.75676722       0.12239630 </v>
   <v>       0.50670586       0.75162404       0.62658773 </v>
   <v>       0.99688997       0.24762621       0.38100132 </v>
   <v>       0.00049675       0.23680333       0.87291008 </v>
   <v>       0.99055285       0.74981143       0.38141279 </v>
   <v>       0.99912103       0.75884559       0.87335643 </v>
   <v>       0.50472842       0.24604823       0.38183418 </v>
   <v>       0.50090339       0.24954121       0.87218171 </v>
   <v>       0.51062348       0.75580259       0.38181952 </v>
   <v>       0.50082796       0.74972157       0.87449424 </v>
   <v>       0.24011903       0.00115875       0.11451544 </v>
   <v>       0.24200224       0.00005314       0.62650177 </v>
   <v>       0.24535082       0.49534747       0.11323976 </v>
   <v>       0.24749238       0.49987258       0.63066183 </v>
   <v>       0.75396185       0.99923148       0.11833884 </v>
   <v>       0.75424728       0.99621167       0.62798817 </v>
   <v>       0.76399439       0.50329147       0.11800778 </v>
   <v>       0.74643986       0.50481507       0.62310121 </v>
   <v>       0.24790605       0.99914704       0.37815137 </v>
   <v>       0.24186181       0.99914328       0.87221090 </v>
   <v>       0.24050676       0.50332588       0.38892836 </v>
   <v>       0.25086747       0.49823555       0.87270674 </v>
   <v>       0.75267644       0.99117176       0.38324098 </v>
   <v>       0.76513015       0.99934839       0.87250104 </v>
   <v>       0.75973860       0.51109328       0.38139885 </v>
   <v>       0.75093217       0.50091798       0.87404933 </v>
   <v>       0.25126691       0.24853537       0.99417805 </v>
   <v>       0.99949713       0.99967401       0.49947260 </v>
   <v>       0.25098634       0.74767082       0.99582570 </v>
   <v>       0.74913905       0.74958737       0.99838383 </v>
   <v>       0.74940201       0.74918662       0.75158635 </v>
   <v>       0.49484647       0.49949631       0.49146343 </v>
   <v>       0.99366600       0.00557201       0.25052410 </v>
   <v>       0.49618314       0.00050118       0.49847273 </v>
   <v>       0.25156311       0.75022593       0.75334094 </v>
   <v>       0.25101622       0.24907583       0.75320190 </v>
   <v>       0.00880104       0.49761843       0.25485214 </v>
   <v>       0.74939115       0.25231078       0.75297164 </v>
   <v>       0.99843537       0.49785508       0.50058589 </v>
   <v>       0.74895347       0.25000216       0.99539388 </v>
   <v>       0.50406905       0.00552641       0.25358495 </v>
   <v>       0.75299976       0.75262880       0.24916209 </v>
   <v>       0.75610190       0.24828223       0.23822244 </v>
   <v>       0.00264118       0.50167749       0.01029883 </v>
   <v>       0.74851103       0.75039556       0.50275351 </v>
   <v>       0.25299977       0.74962914       0.51413317 </v>
   <v>       0.25093070       0.24822678       0.51128142 </v>
   <v>       0.53432334       0.49492129       0.25230724 </v>
   <v>       0.49727690       0.49810724       0.01674010 </v>
   <v>       0.99963200       0.99943102       0.99953843 </v>
   <v>       0.24069820       0.76614742       0.23523057 </v>
   <v>       0.23829749       0.23984991       0.23682355 </v>
   <v>       0.49513981       0.99854029       0.01278075 </v>
   <v>       0.49853196       0.50081339       0.73788139 </v>
   <v>       0.99753885       0.49878094       0.74027320 </v>
   <v>       0.49693122       0.00112186       0.73862491 </v>
   <v>       0.00142504       0.99911271       0.74828844 </v>
   <v>       0.74951116       0.25255859       0.51063339 </v>
   <v>       0.10957911       0.14043148       0.25681705 </v>
   <v>       0.12362786       0.12980435       0.74474818 </v>
   <v>       0.12080707       0.62580270       0.74952898 </v>
   <v>       0.61291021       0.13755965       0.24502433 </v>
   <v>       0.61810193       0.13049357       0.74781639 </v>
   <v>       0.87688286       0.86961813       0.74725448 </v>
   <v>       0.61755841       0.62727886       0.75695937 </v>
   <v>       0.38270629       0.87322285       0.76542529 </v>
   <v>       0.38175508       0.37301014       0.76116086 </v>
   <v>       0.14775714       0.63972022       0.27486633 </v>
   <v>       0.90304336       0.36341916       0.24959617 </v>
   <v>       0.88208261       0.37308911       0.77026340 </v>
   <v>       0.88051845       0.86974475       0.24585715 </v>
   <v>       0.12505255       0.86776681       0.50053106 </v>
   <v>       0.36591534       0.14262767       0.27481391 </v>
   <v>       0.37450169       0.12000604       0.76750499 </v>
   <v>       0.65222147       0.37755975       0.27199116 </v>
   <v>       0.37422492       0.61745372       0.76787877 </v>
   <v>       0.88093180       0.62566847       0.99115888 </v>
   <v>       0.87676418       0.61922657       0.25257085 </v>
   <v>       0.87385657       0.61939726       0.76449286 </v>
   <v>       0.16750564       0.39058462       0.25978659 </v>
   <v>       0.12860534       0.38154620       0.75206798 </v>
   <v>       0.13054871       0.89164406       0.23594360 </v>
   <v>       0.13147653       0.87639099       0.73781832 </v>
   <v>       0.61486749       0.63945020       0.24677157 </v>
   <v>       0.62618198       0.38437388       0.75798380 </v>
   <v>       0.63065780       0.88601411       0.23759272 </v>
   <v>       0.62722007       0.88361583       0.75129058 </v>
   <v>       0.37368483       0.37898102       0.98753758 </v>
   <v>       0.37849439       0.85148876       0.26913981 </v>
   <v>       0.37221913       0.87782472       0.98968913 </v>
   <v>       0.36941107       0.87656729       0.48493519 </v>
   <v>       0.12799777       0.62114181       0.50537111 </v>
   <v>       0.86874052       0.37437066       0.48362939 </v>
   <v>       0.74806321       0.75756807       0.37182227 </v>
   <v>       0.87208994       0.87729286       0.50298204 </v>
   <v>       0.13097019       0.12180832       0.00491330 </v>
   <v>       0.12830108       0.12453200       0.49155124 </v>
   <v>       0.12847084       0.61607673       0.98802850 </v>
   <v>       0.75544875       0.25545375       0.12108363 </v>
   <v>       0.62475617       0.11772485       0.00213407 </v>
   <v>       0.62478362       0.12884459       0.49967034 </v>
   <v>       0.62580627       0.61628319       0.00341030 </v>
   <v>       0.62208831       0.61953137       0.49046850 </v>
   <v>       0.11925194       0.37168164       0.99834657 </v>
   <v>       0.12288807       0.86702683       0.01573858 </v>
   <v>       0.61696845       0.37347412       0.99733747 </v>
   <v>       0.62306853       0.37531696       0.48233320 </v>
   <v>       0.61653437       0.87224126       0.00396818 </v>
   <v>       0.61939766       0.87413915       0.50881724 </v>
   <v>       0.38142844       0.12527450       0.98383619 </v>
   <v>       0.37249236       0.12820854       0.48171569 </v>
   <v>       0.38251912       0.62252875       0.98438863 </v>
   <v>       0.37395310       0.63075664       0.48289428 </v>
   <v>       0.87675868       0.13104078       0.99406276 </v>
   <v>       0.87191044       0.12883387       0.48758515 </v>
   <v>       0.37027614       0.37282616       0.48852326 </v>
   <v>       0.98403982       0.01952710       0.12893689 </v>
   <v>       0.99650437       0.00891995       0.62049322 </v>
   <v>       0.01454867       0.51101332       0.13115769 </v>
   <v>       0.98416533       0.48658512       0.62201870 </v>
   <v>       0.46793672       0.00421857       0.13228172 </v>
   <v>       0.47640734       0.00636852       0.62021725 </v>
   <v>       0.47232296       0.48030758       0.14071385 </v>
   <v>       0.49147707       0.49915892       0.61659694 </v>
   <v>       0.00556100       0.98505846       0.37380577 </v>
   <v>       0.12375060       0.36872375       0.49573202 </v>
   <v>       0.00423435       0.50190503       0.37545186 </v>
   <v>       0.87312072       0.38232639       0.99367833 </v>
   <v>       0.51879793       0.99657523       0.37362472 </v>
   <v>       0.86940456       0.87710812       0.00256783 </v>
   <v>       0.46365401       0.49586164       0.35719620 </v>
   <v>       0.00648211       0.99339442       0.87462491 </v>
   <v>       0.23481471       0.24942681       0.87483135 </v>
   <v>       0.87715826       0.62583556       0.49814572 </v>
   <v>       0.23275699       0.75969520       0.87522997 </v>
   <v>       0.85787554       0.12111030       0.27287414 </v>
   <v>       0.73877761       0.24359720       0.87551570 </v>
   <v>       0.86933823       0.12392391       0.75034141 </v>
   <v>       0.74245214       0.75632172       0.87688375 </v>
   <v>       0.26814434       0.25168329       0.12136786 </v>
   <v>       0.26569009       0.24868829       0.62932496 </v>
   <v>       0.27222631       0.72672415       0.12205825 </v>
   <v>       0.27699508       0.74237598       0.63080837 </v>
   <v>       0.75405093       0.26819418       0.62879511 </v>
   <v>       0.75623088       0.74061048       0.12369505 </v>
   <v>       0.74737054       0.73726178       0.62853360 </v>
  </varray>
 </structure>
 <calculation>
  <scstep>
   <time name="dav">  298.51  298.52</time>
   <time name="total">  302.24  302.31</time>
   <energy>
    <i name="alphaZ">   5631.73432415 </i>
    <i name="ewald"> -62354.30678962 </i>
    <i name="hartreedc"> -17277.81473820 </i>
    <i name="XCdc">   3186.10402073 </i>
    <i name="pawpsdc"> 113649.66933380 </i>
    <i name="pawaedc">-112854.39519656 </i>
    <i name="eentropy">     -0.00000000 </i>
    <i name="bandstr">  -7088.37247748 </i>
    <i name="atom">  76050.17612637 </i>
    <i name="e_fr_energy">  -1057.20539680 </i>
    <i name="e_wo_entrp">  -1057.20539680 </i>
    <i name="e_0_energy">  -1057.20539680 </i>
   </energy>
  </scstep>
  <scstep>
   <time name="diag">   33.12   33.13</time>
   <time name="diis">   30.57   30.59</time>
   <time name="orth">   18.78   18.79</time>
   <time name="total">   86.19   86.25</time>
   <energy>
    <i name="e_fr_energy">  -1057.20539631 </i>
    <i name="e_wo_entrp">  -1057.20539631 </i>
    <i name="e_0_energy">  -1057.20539631 </i>
   </energy>
  </scstep>
  <scstep>
   <time name="diag">   33.21   33.21</time>
   <time name="diis">   29.03   29.05</time>
   <time name="orth">   18.82   18.82</time>
   <time name="total">   84.77   84.81</time>
   <energy>
    <i name="e_fr_energy">  -1057.20539650 </i>
    <i name="e_wo_entrp">  -1057.20539650 </i>
    <i name="e_0_energy">  -1057.20539650 </i>
   </energy>
  </scstep>
  <scstep>
   <time name="diag">   33.20   33.20</time>
   <time name="diis">   23.87   23.90</time>
   <time name="orth">   18.78   18.79</time>
   <time name="total">   79.57   79.72</time>
   <energy>
    <i name="e_fr_energy">  -1057.20539658 </i>
    <i name="e_wo_entrp">  -1057.20539658 </i>
    <i name="e_0_energy">  -1057.20539658 </i>
   </energy>
  </scstep>
  <scstep>
   <time name="diag">   33.15   33.18</time>
   <time name="diis">   23.67   23.71</time>
   <time name="orth">   18.77   18.77</time>
   <time name="total">   79.30   79.42</time>
   <energy>
    <i name="e_fr_energy">  -1057.20539664 </i>
    <i name="e_wo_entrp">  -1057.20539664 </i>
    <i name="e_0_energy">  -1057.20539664 </i>
   </energy>
  </scstep>
  <scstep>
   <time name="diag">   33.16   33.18</time>
   <time name="diis">   22.72   22.73</time>
   <time name="orth">   18.79   18.79</time>
   <time name="total">   78.36   78.47</time>
   <energy>
    <i name="e_fr_energy">  -1057.20539667 </i>
    <i name="e_wo_entrp">  -1057.20539667 </i>
    <i name="e_0_energy">  -1057.20539667 </i>
   </energy>
  </scstep>
  <scstep>
   <time name="diag">   33.15   33.17</time>
   <time name="diis">   22.31   22.31</time>
   <time name="orth">   18.76   18.76</time>
   <time name="total">   77.94   77.99</time>
   <energy>
    <i name="e_fr_energy">  -1057.20539668 </i>
    <i name="e_wo_entrp">  -1057.20539668 </i>
    <i name="e_0_energy">  -1057.20539668 </i>
   </energy>
  </scstep>
  <scstep>
   <time name="diag">   33.19   33.20</time>
   <time name="diis">   21.81   21.81</time>
   <time name="orth">   18.77   18.76</time>
   <time name="total">   74.33   74.44</time>
   <energy>
    <i name="alphaZ">   5631.73432415 </i>
    <i name="ewald"> -62354.30678962 </i>
    <i name="hartreedc"> -17277.82601227 </i>
    <i name="XCdc">   3186.10336894 </i>
    <i name="pawpsdc"> 113649.06781830 </i>
    <i name="pawaedc">-112853.79602377 </i>
    <i name="eentropy">     -0.00000000 </i>
    <i name="bandstr">  -7088.35820878 </i>
    <i name="atom">  76050.17612637 </i>
    <i name="e_fr_energy">  -1057.20539669 </i>
    <i name="e_wo_entrp">  -1057.20539669 </i>
    <i name="e_0_energy">  -1057.20539669 </i>
   </energy>
  </scstep>
  <structure>
   <crystal>
    <varray name="basis" >
     <v>      11.20898031       0.03251800      -0.01564536 </v>
     <v>       0.03253174      11.19495815      -0.01806005 </v>
     <v>      -0.02152153      -0.02571933      15.93674218 </v>
    </varray>
    <i name="volume">   1999.78138958 </i>
    <varray name="rec_basis" >
     <v>       0.08921510      -0.00025906       0.00012006 </v>
     <v>      -0.00025894       0.08932691       0.00014381 </v>
     <v>       0.00008729       0.00010097       0.06274836 </v>
    </varray>
   </crystal>
   <varray name="positions" >
    <v>       0.99613633       0.24740960       0.11224015 </v>
    <v>       0.99862542       0.24571053       0.62995033 </v>
    <v>       0.99250547       0.75668950       0.12061815 </v>
    <v>       0.99555916       0.75403676       0.62557054 </v>
    <v>       0.50292932       0.24233355       0.11331885 </v>
    <v>       0.50105185       0.24993957       0.62702135 </v>
    <v>       0.50548360       0.75676722       0.12239630 </v>
    <v>       0.50670586       0.75162404       0.62658773 </v>
    <v>       0.99688997       0.24762621       0.38100132 </v>
    <v>       0.00049675       0.23680333       0.87291008 </v>
    <v>       0.99055285       0.74981143       0.38141279 </v>
    <v>       0.99912103       0.75884559       0.87335643 </v>
    <v>       0.50472842       0.24604823       0.38183418 </v>
    <v>       0.50090339       0.24954121       0.87218171 </v>
    <v>       0.51062348       0.75580259       0.38181952 </v>
    <v>       0.50082796       0.74972157       0.87449424 </v>
    <v>       0.24011903       0.00115875       0.11451544 </v>
    <v>       0.24200224       0.00005314       0.62650177 </v>
    <v>       0.24535082       0.49534747       0.11323976 </v>
    <v>       0.24749238       0.49987258       0.63066183 </v>
    <v>       0.75396185       0.99923148       0.11833884 </v>
    <v>       0.75424728       0.99621167       0.62798817 </v>
    <v>       0.76399439       0.50329147       0.11800778 </v>
    <v>       0.74643986       0.50481507       0.62310121 </v>
    <v>       0.24790605       0.99914704       0.37815137 </v>
    <v>       0.24186181       0.99914328       0.87221090 </v>
    <v>       0.24050676       0.50332588       0.38892836 </v>
    <v>       0.25086747       0.49823555       0.87270674 </v>
    <v>       0.75267644       0.99117176       0.38324098 </v>
    <v>       0.76513015       0.99934839       0.87250104 </v>
    <v>       0.75973860       0.51109328       0.38139885 </v>
    <v>       0.75093217       0.50091798       0.87404933 </v>
    <v>       0.25126691       0.24853537       0.99417805 </v>
    <v>       0.99949713       0.99967401       0.49947260 </v>
    <v>       0.25098634       0.74767082       0.99582570 </v>
    <v>       0.74913905       0.74958737       0.99838383 </v>
    <v>       0.74940201       0.74918662       0.75158635 </v>
    <v>       0.49484647       0.49949631       0.49146343 </v>
    <v>       0.99366600       0.00557201       0.25052410 </v>
    <v>       0.49618314       0.00050118       0.49847273 </v>
    <v>       0.25156311       0.75022593       0.75334094 </v>
    <v>       0.25101622       0.24907583       0.75320190 </v>
    <v>       0.00880104       0.49761843       0.25485214 </v>
    <v>       0.74939115       0.25231078       0.75297164 </v>
    <v>       0.99843537       0.49785508       0.50058589 </v>
    <v>       0.74895347       0.25000216       0.99539388 </v>
    <v>       0.50406905       0.00552641       0.25358495 </v>
    <v>       0.75299976       0.75262880       0.24916209 </v>
    <v>       0.75610190       0.24828223       0.23822244 </v>
    <v>       0.00264118       0.50167749       0.01029883 </v>
    <v>       0.74851103       0.75039556       0.50275351 </v>
    <v>       0.25299977       0.74962914       0.51413317 </v>
    <v>       0.25093070       0.24822678       0.51128142 </v>
    <v>       0.53432334       0.49492129       0.25230724 </v>
    <v>       0.49727690       0.49810724       0.01674010 </v>
    <v>       0.99963200       0.99943102       0.99953843 </v>
    <v>       0.24069820       0.76614742       0.23523057 </v>
    <v>       0.23829749       0.23984991       0.23682355 </v>
    <v>       0.49513981       0.99854029       0.01278075 </v>
    <v>       0.49853196       0.50081339       0.73788139 </v>
    <v>       0.99753885       0.49878094       0.74027320 </v>
    <v>       0.49693122       0.00112186       0.73862491 </v>
    <v>       0.00142504       0.99911271       0.74828844 </v>
    <v>       0.74951116       0.25255859       0.51063339 </v>
    <v>       0.10957911       0.14043148       0.25681705 </v>
    <v>       0.12362786       0.12980435       0.74474818 </v>
    <v>       0.12080707       0.62580270       0.74952898 </v>
    <v>       0.61291021       0.13755965       0.24502433 </v>
    <v>       0.61810193       0.13049357       0.74781639 </v>
    <v>       0.87688286       0.86961813       0.74725448 </v>
    <v>       0.61755841       0.62727886       0.75695937 </v>
    <v>       0.38270629       0.87322285       0.76542529 </v>
    <v>       0.38175508       0.37301014       0.76116086 </v>
    <v>       0.14775714       0.63972022       0.27486633 </v>
    <v>       0.90304336       0.36341916       0.24959617 </v>
    <v>       0.88208261       0.37308911       0.77026340 </v>
    <v>       0.88051845       0.86974475       0.24585715 </v>
    <v>       0.12505255       0.86776681       0.50053106 </v>
    <v>       0.36591534       0.14262767       0.27481391 </v>
    <v>       0.37450169       0.12000604       0.76750499 </v>
    <v>       0.65222147       0.37755975       0.27199116 </v>
    <v>       0.37422492       0.61745372       0.76787877 </v>
    <v>       0.88093180       0.62566847       0.99115888 </v>
    <v>       0.87676418       0.61922657       0.25257085 </v>
    <v>       0.87385657       0.61939726       0.76449286 </v>
    <v>       0.16750564       0.39058462       0.25978659 </v>
    <v>       0.12860534       0.38154620       0.75206798 </v>
    <v>       0.13054871       0.89164406       0.23594360 </v>
    <v>       0.13147653       0.87639099       0.73781832 </v>
    <v>       0.61486749       0.63945020       0.24677157 </v>
    <v>       0.62618198       0.38437388       0.75798380 </v>
    <v>       0.63065780       0.88601411       0.23759272 </v>
    <v>       0.62722007       0.88361583       0.75129058 </v>
    <v>       0.37368483       0.37898102       0.98753758 </v>
    <v>       0.37849439       0.85148876       0.26913981 </v>
    <v>       0.37221913       0.87782472       0.98968913 </v>
    <v>       0.36941107       0.87656729       0.48493519 </v>
    <v>       0.12799777       0.62114181       0.50537111 </v>
    <v>       0.86874052       0.37437066       0.48362939 </v>
    <v>       0.74806321       0.75756807       0.37182227 </v>
    <v>       0.87208994       0.87729286       0.50298204 </v>
    <v>       0.13097019       0.12180832       0.00491330 </v>
    <v>       0.12830108       0.12453200       0.49155124 </v>
    <v>       0.12847084       0.61607673       0.98802850 </v>
    <v>       0.75544875       0.25545375       0.12108363 </v>
    <v>       0.62475617       0.11772485       0.00213407 </v>
    <v>       0.62478362       0.12884459       0.49967034 </v>
    <v>       0.62580627       0.61628319       0.00341030 </v>
    <v>       0.62208831       0.61953137       0.49046850 </v>
    <v>       0.11925194       0.37168164       0.99834657 </v>
    <v>       0.12288807       0.86702683       0.01573858 </v>
    <v>       0.61696845       0.37347412       0.99733747 </v>
    <v>       0.62306853       0.37531696       0.48233320 </v>
    <v>       0.61653437       0.87224126       0.00396818 </v>
    <v>       0.61939766       0.87413915       0.50881724 </v>
    <v>       0.38142844       0.12527450       0.98383619 </v>
    <v>       0.37249236       0.12820854       0.48171569 </v>
    <v>       0.38251912       0.62252875       0.98438863 </v>
    <v>       0.37395310       0.63075664       0.48289428 </v>
    <v>       0.87675868       0.13104078       0.99406276 </v>
    <v>       0.87191044       0.12883387       0.48758515 </v>
    <v>       0.37027614       0.37282616       0.48852326 </v>
    <v>       0.98403982       0.01952710       0.12893689 </v>
    <v>       0.99650437       0.00891995       0.62049322 </v>
    <v>       0.01454867       0.51101332       0.13115769 </v>
    <v>       0.98416533       0.48658512       0.62201870 </v>
    <v>       0.46793672       0.00421857       0.13228172 </v>
    <v>       0.47640734       0.00636852       0.62021725 </v>
    <v>       0.47232296       0.48030758       0.14071385 </v>
    <v>       0.49147707       0.49915892       0.61659694 </v>
    <v>       0.00556100       0.98505846       0.37380577 </v>
    <v>       0.12375060       0.36872375       0.49573202 </v>
    <v>       0.00423435       0.50190503       0.37545186 </v>
    <v>       0.87312072       0.38232639       0.99367833 </v>
    <v>       0.51879793       0.99657523       0.37362472 </v>
    <v>       0.86940456       0.87710812       0.00256783 </v>
    <v>       0.46365401       0.49586164       0.35719620 </v>
    <v>       0.00648211       0.99339442       0.87462491 </v>
    <v>       0.23481471       0.24942681       0.87483135 </v>
    <v>       0.87715826       0.62583556       0.49814572 </v>
    <v>       0.23275699       0.75969520       0.87522997 </v>
    <v>       0.85787554       0.12111030       0.27287414 </v>
    <v>       0.73877761       0.24359720       0.87551570 </v>
    <v>       0.86933823       0.12392391       0.75034141 </v>
    <v>       0.74245214       0.75632172       0.87688375 </v>
    <v>       0.26814434       0.25168329       0.12136786 </v>
    <v>       0.26569009       0.24868829       0.62932496 </v>
    <v>       0.27222631       0.72672415       0.12205825 </v>
    <v>       0.27699508       0.74237598       0.63080837 </v>
    <v>       0.75405093       0.26819418       0.62879511 </v>
    <v>       0.75623088       0.74061048       0.12369505 </v>
    <v>       0.74737054       0.73726178       0.62853360 </v>
   </varray>
  </structure>
  <varray name="forces" >
   <v>      -0.00201399       0.00317804       0.00431542 </v>
   <v>       0.01134300       0.00120282       0.00627555 </v>
   <v>       0.00878351      -0.00025165       0.00466713 </v>
   <v>       0.00362469      -0.00034732       0.00212656 </v>
   <v>       0.00027804       0.00223024       0.00272444 </v>
   <v>       0.00311538       0.00692072      -0.00117183 </v>
   <v>       0.00059714      -0.00581556       0.00246148 </v>
   <v>      -0.00196693       0.00535697      -0.00531652 </v>
   <v>       0.00029238      -0.00437655       0.00099381 </v>
   <v>      -0.00111846      -0.00559285      -0.00677307 </v>
   <v>       0.00404080      -0.00131471       0.00640236 </v>
   <v>       0.00521674      -0.00538018      -0.00130882 </v>
   <v>       0.00552994      -0.01320502      -0.00097650 </v>
   <v>      -0.00179947       0.00634015       0.00066188 </v>
   <v>      -0.00372228      -0.00755649       0.00365506 </v>
   <v>      -0.00336393       0.00076200      -0.00868470 </v>
   <v>      -0.00478382       0.00583663      -0.00978149 </v>
   <v>       0.00456943      -0.00345993      -0.00339450 </v>
   <v>      -0.01065487       0.00123279      -0.00041795 </v>
   <v>      -0.00106582      -0.00034632      -0.01203654 </v>
   <v>      -0.00835472       0.01335442       0.00859694 </v>
   <v>       0.00107420      -0.00058280       0.00121547 </v>
   <v>      -0.00458601       0.00657096      -0.00915444 </v>
   <v>      -0.00413626      -0.00032361      -0.00149803 </v>
   <v>      -0.01052242       0.01330956       0.00406390 </v>
   <v>       0.00097426      -0.00135973       0.00304926 </v>
   <v>      -0.00282166       0.01410362      -0.02192785 </v>
   <v>      -0.00588623       0.00342770      -0.00170099 </v>
   <v>       0.00227988      -0.00162598      -0.00060395 </v>
   <v>       0.00131376      -0.00240627      -0.00596428 </v>
   <v>      -0.00546275      -0.00475608       0.00309093 </v>
   <v>      -0.00112659       0.00101606       0.00256107 </v>
   <v>      -0.00204143      -0.00084816      -0.01115871 </v>
   <v>       0.00589123       0.01220530       0.00733114 </v>
   <v>      -0.01523048      -0.00624170      -0.00075980 </v>
   <v>      -0.01095608      -0.01529046      -0.00277219 </v>
   <v>       0.00031019       0.01393029      -0.00362436 </v>
   <v>       0.00017139       0.01738728      -0.00228655 </v>
   <v>      -0.00121348       0.00761292      -0.03238526 </v>
   <v>      -0.01676030       0.01308910       0.01090580 </v>
   <v>      -0.00683712      -0.00200502       0.00794258 </v>
   <v>       0.00153217       0.00038555       0.01012714 </v>
   <v>      -0.00109073       0.01112603      -0.00321330 </v>
   <v>      -0.00248266      -0.01700877       0.00032672 </v>
   <v>      -0.01195493       0.00077216      -0.00318436 </v>
   <v>       0.00871770      -0.01566764       0.00573701 </v>
   <v>       0.00560285       0.00523725      -0.00332432 </v>
   <v>      -0.00763196      -0.00024838       0.00530669 </v>
   <v>       0.00891003      -0.00621556      -0.00745939 </v>
   <v>       0.00472842       0.01761701       0.00778463 </v>
   <v>       0.01026359      -0.00830529      -0.00227704 </v>
   <v>      -0.00098565       0.00002949      -0.01129674 </v>
   <v>       0.00798554      -0.00414051       0.01343077 </v>
   <v>       0.01321196       0.00418061      -0.00186273 </v>
   <v>       0.00145194       0.00196249       0.01646120 </v>
   <v>       0.00107293       0.00493370      -0.00259933 </v>
   <v>      -0.00460639       0.00332769      -0.00760559 </v>
   <v>       0.00464590       0.00449279      -0.00269976 </v>
   <v>      -0.00140514      -0.00513240       0.00432837 </v>
   <v>      -0.00711843       0.00602725       0.00714497 </v>
   <v>       0.00644742      -0.00129949      -0.00106465 </v>
   <v>       0.00055508      -0.00956475      -0.00918404 </v>
   <v>      -0.00436212      -0.01939390       0.00675738 </v>
   <v>      -0.00336701      -0.00252564       0.00852581 </v>
   <v>      -0.02665978       0.00363448      -0.01621566 </v>
   <v>       0.00981609      -0.01845203       0.00992336 </v>
   <v>      -0.00286690      -0.01015142       0.01017734 </v>
   <v>      -0.00926605      -0.00112422      -0.00977350 </v>
   <v>       0.00874987      -0.00269441       0.00406819 </v>
   <v>      -0.00310234      -0.00834028      -0.00482961 </v>
   <v>      -0.00913496      -0.01505001       0.00046676 </v>
   <v>       0.00087401       0.00460122      -0.00501241 </v>
   <v>       0.00320531       0.00299662      -0.00038263 </v>
   <v>      -0.00501049       0.00507013       0.01039091 </v>
   <v>      -0.00060571       0.00320462       0.01290027 </v>
   <v>      -0.00276395       0.00868616      -0.00458501 </v>
   <v>       0.00001978      -0.01273866       0.01645643 </v>
   <v>       0.00375270       0.00689756      -0.00479906 </v>
   <v>       0.00288631      -0.00389422       0.00802609 </v>
   <v>       0.00232906       0.00512324       0.00732305 </v>
   <v>       0.00732939      -0.00968924       0.01183323 </v>
   <v>       0.01893427      -0.00192582       0.00588956 </v>
   <v>      -0.00920064       0.00421819      -0.01166281 </v>
   <v>      -0.01026903      -0.00367436       0.01608698 </v>
   <v>       0.00136243      -0.00138125      -0.00035723 </v>
   <v>       0.01164047       0.01990822      -0.01002699 </v>
   <v>      -0.00745324      -0.01129513      -0.01065502 </v>
   <v>      -0.00025979       0.00996215      -0.00960651 </v>
   <v>      -0.00305004      -0.00284605      -0.00585393 </v>
   <v>      -0.00583784      -0.00682219      -0.00512771 </v>
   <v>      -0.00165222       0.01189930      -0.00340866 </v>
   <v>      -0.00210006       0.00976440      -0.01255623 </v>
   <v>      -0.00802706      -0.00426542       0.00946717 </v>
   <v>      -0.00009697      -0.00790963      -0.00005383 </v>
   <v>      -0.00524522      -0.00071530       0.00458657 </v>
   <v>      -0.00209011       0.00232839       0.00064382 </v>
   <v>       0.01273151      -0.00323916      -0.00511013 </v>
   <v>      -0.00560149       0.00065642      -0.00981202 </v>
   <v>       0.00593695      -0.00869702       0.00628440 </v>
   <v>      -0.00879761       0.00561476       0.00980412 </v>
   <v>      -0.01652167      -0.01855140      -0.00093455 </v>
   <v>      -0.00399366      -0.00027300      -0.00554783 </v>
   <v>       0.01123077       0.00382999      -0.00248397 </v>
   <v>       0.00285138      -0.00011863       0.00429049 </v>
   <v>       0.01112174       0.00426587      -0.00064237 </v>
   <v>       0.00287069       0.01920275       0.00679989 </v>
   <v>       0.00958391      -0.00175367      -0.00778129 </v>
   <v>       0.00530740       0.00541754       0.00001965 </v>
   <v>       0.00083771       0.00040732       0.01775952 </v>
   <v>       0.01290501      -0.00490898       0.00637573 </v>
   <v>      -0.00232968      -0.00468403       0.00687087 </v>
   <v>       0.01628852       0.00452794       0.00008000 </v>
   <v>      -0.00762666      -0.00089173       0.02113992 </v>
   <v>       0.00979865      -0.00239429       0.01015162 </v>
   <v>       0.00424127      -0.00596641      -0.00060293 </v>
   <v>       0.00218662       0.00770954      -0.00440610 </v>
   <v>      -0.00289318      -0.00100863      -0.00408414 </v>
   <v>      -0.00700172       0.00439867      -0.00480132 </v>
   <v>      -0.00264907       0.00711717      -0.00069610 </v>
   <v>       0.00363398       0.00053063      -0.01186445 </v>
   <v>       0.01066086      -0.00143565      -0.00347194 </v>
   <v>       0.00445096      -0.00857943      -0.01708489 </v>
   <v>      -0.01150933      -0.00324855       0.00415432 </v>
   <v>       0.00089343      -0.00293894       0.00120657 </v>
   <v>      -0.01642786       0.00778122       0.00298442 </v>
   <v>       0.00938062       0.00201459      -0.00648164 </v>
   <v>      -0.00674636      -0.00435747       0.00256343 </v>
   <v>       0.00400786       0.00324306       0.01205402 </v>
   <v>      -0.00529599       0.00791153      -0.00000856 </v>
   <v>      -0.01305598      -0.00120977       0.00741998 </v>
   <v>      -0.00464289       0.00254286       0.00459918 </v>
   <v>       0.01289157       0.00038476       0.00445119 </v>
   <v>       0.01194551      -0.00324408       0.01299946 </v>
   <v>      -0.01045127      -0.00767574      -0.00996457 </v>
   <v>       0.00184512      -0.00207113       0.00039828 </v>
   <v>       0.00120701       0.00083106       0.00083272 </v>
   <v>      -0.00214094      -0.00207573       0.00638439 </v>
   <v>       0.00606149      -0.00253892       0.00557118 </v>
   <v>       0.00346104       0.01446801      -0.00973474 </v>
   <v>      -0.01381012      -0.00443775      -0.01059834 </v>
   <v>       0.00443088       0.00320718      -0.00552222 </v>
   <v>      -0.00384747       0.00805990       0.01503757 </v>
   <v>       0.00077512       0.01128030      -0.01024047 </v>
   <v>       0.00896671      -0.00146964      -0.00499900 </v>
   <v>      -0.00466264      -0.00650606       0.00182507 </v>
   <v>       0.01510529      -0.00055135      -0.00742698 </v>
   <v>       0.00880251      -0.00918055       0.00014505 </v>
   <v>       0.01694704      -0.00117096      -0.00658569 </v>
   <v>      -0.01233734      -0.00495668      -0.00103604 </v>
   <v>       0.00013431      -0.01549760       0.00525870 </v>
   <v>       0.01082410       0.00220181      -0.00501546 </v>
   <v>      -0.00128327      -0.00386778      -0.00335882 </v>
  </varray>
  <varray name="stress" >
   <v>       0.03992110      -0.01419113       0.05391462 </v>
   <v>      -0.01419144       0.02192147      -0.01897001 </v>
   <v>       0.05391494      -0.01897030      -0.13113873 </v>
  </varray>
  <energy>
   <i name="e_fr_energy">  -1057.20539669 </i>
   <i name="e_wo_entrp">  -1057.20539669 </i>
   <i name="e_0_energy">     -0.00000000 </i>
  </energy>
  <time name="totalsc"> 1014.10 1016.40</time>
 </calculation>
 <calculation>
  <scstep>
   <time name="dav">  286.30  286.34</time>
   <time name="total">  290.01  290.09</time>
   <energy>
    <i name="alphaZ">   5631.88893834 </i>
    <i name="ewald"> -62354.77007883 </i>
    <i name="hartreedc"> -17278.13293468 </i>
    <i name="XCdc">   3186.14063499 </i>
    <i name="pawpsdc"> 113649.06265791 </i>
    <i name="pawaedc">-112853.79082982 </i>
    <i name="eentropy">     -0.00000000 </i>
    <i name="bandstr">  -7087.77988687 </i>
    <i name="atom">  76050.17612637 </i>
    <i name="e_fr_energy">  -1057.20537259 </i>
    <i name="e_wo_entrp">  -1057.20537259 </i>
    <i name="e_0_energy">  -1057.20537259 </i>
   </energy>
  </scstep>
  <scstep>
   <time name="diag">   33.20   33.22</time>
   <time name="diis">   52.02   52.03</time>
   <time name="orth">   18.81   18.81</time>
   <time name="total">  107.77  107.84</time>
   <energy>
    <i name="e_fr_energy">  -1057.20624909 </i>
    <i name="e_wo_entrp">  -1057.20624909 </i>
    <i name="e_0_energy">  -1057.20624909 </i>
   </energy>
  </scstep>
  <scstep>
   <time name="diag">   33.17   33.18</time>
   <time name="diis">   41.70   41.74</time>
   <time name="orth">   18.78   18.79</time>
   <time name="total">   97.39   97.55</time>
   <energy>
    <i name="e_fr_energy">  -1057.20631217 </i>
    <i name="e_wo_entrp">  -1057.20631217 </i>
    <i name="e_0_energy">  -1057.20631217 </i>
   </energy>
  </scstep>
  <scstep>
   <time name="diag">   33.24   33.24</time>
   <time name="diis">   32.08   32.11</time>
   <time name="orth">   18.79   18.80</time>
   <time name="total">   87.85   87.93</time>
   <energy>
    <i name="e_fr_energy">  -1057.20628599 </i>
    <i name="e_wo_entrp">  -1057.20628599 </i>
    <i name="e_0_energy">  -1057.20628599 </i>
   </energy>
  </scstep>
  <scstep>
   <time name="diag">   33.23   33.24</time>
   <time name="diis">   31.65   31.66</time>
   <time name="orth">   18.81   18.80</time>
   <time name="total">   87.43   87.55</time>
   <energy>
    <i name="e_fr_energy">  -1057.20627326 </i>
    <i name="e_wo_entrp">  -1057.20627326 </i>
    <i name="e_0_energy">  -1057.20627326 </i>
   </energy>
  </scstep>
  <scstep>
   <time name="diag">   33.22   33.23</time>
   <time name="diis">   30.84   30.85</time>
   <time name="orth">   18.79   18.79</time>
   <time name="total">   86.59   86.69</time>
   <energy>
    <i name="e_fr_energy">  -1057.20627521 </i>
    <i name="e_wo_entrp">  -1057.20627521 </i>
    <i name="e_0_energy">  -1057.20627521 </i>
   </energy>
  </scstep>
  <scstep>
   <time name="diag">   33.19   33.20</time>
   <time name="diis">   28.95   28.97</time>
   <time name="orth">   18.81   18.81</time>
   <time name="total">   84.66   84.75</time>
   <energy>
    <i name="e_fr_energy">  -1057.20627575 </i>
    <i name="e_wo_entrp">  -1057.20627575 </i>
    <i name="e_0_energy">  -1057.20627575 </i>
   </energy>
  </scstep>
  <scstep>
   <time name="diag">   33.14   33.17</time>
   <time name="diis">   27.00   27.02</time>
   <time name="orth">   18.77   18.79</time>
   <time name="total">   79.49   79.64</time>
   <energy>
    <i name="alphaZ">   5631.88893834 </i>
    <i name="ewald"> -62354.77007883 </i>
    <i name="hartreedc"> -17277.68778747 </i>
    <i name="XCdc">   3186.11203513 </i>
    <i name="pawpsdc"> 113656.71591948 </i>
    <i name="pawaedc">-112861.44723926 </i>
    <i name="eentropy">     -0.00000000 </i>
    <i name="bandstr">  -7088.19418985 </i>
    <i name="atom">  76050.17612637 </i>
    <i name="e_fr_energy">  -1057.20627608 </i>
    <i name="e_wo_entrp">  -1057.20627608 </i>
    <i name="e_0_energy">  -1057.20627608 </i>
   </energy>
  </scstep>
  <structure>
   <crystal>
    <varray name="basis" >
     <v>      11.20915706       0.03245539      -0.01540539 </v>
     <v>       0.03246894      11.19505533      -0.01814254 </v>
     <v>      -0.02118134      -0.02583920      15.93591399 </v>
    </varray>
    <i name="volume">   1999.72648889 </i>
    <varray name="rec_basis" >
     <v>       0.08921369      -0.00025855       0.00011816 </v>
     <v>      -0.00025844       0.08932613       0.00014449 </v>
     <v>       0.00008595       0.00010145       0.06275162 </v>
    </varray>
   </crystal>
   <varray name="positions" >
    <v>       0.99612764       0.24742335       0.11225322 </v>
    <v>       0.99867426       0.24571561       0.62996939 </v>
    <v>       0.99254330       0.75668834       0.12063231 </v>
    <v>       0.99557477       0.75403523       0.62557699 </v>
    <v>       0.50293050       0.24234317       0.11332711 </v>
    <v>       0.50106516       0.24996935       0.62701785 </v>
    <v>       0.50548626       0.75674217       0.12240372 </v>
    <v>       0.50669730       0.75164712       0.62657166 </v>
    <v>       0.99689128       0.24760735       0.38100431 </v>
    <v>       0.00049196       0.23677919       0.87288954 </v>
    <v>       0.99057029       0.74980576       0.38143218 </v>
    <v>       0.99914354       0.75882233       0.87335246 </v>
    <v>       0.50475238       0.24599125       0.38183119 </v>
    <v>       0.50089557       0.24956856       0.87218373 </v>
    <v>       0.51060758       0.75577009       0.38183054 </v>
    <v>       0.50081342       0.74972483       0.87446794 </v>
    <v>       0.24009831       0.00118389       0.11448584 </v>
    <v>       0.24202193       0.00003814       0.62649149 </v>
    <v>       0.24530494       0.49535291       0.11323846 </v>
    <v>       0.24748773       0.49987102       0.63062538 </v>
    <v>       0.75392578       0.99928919       0.11836490 </v>
    <v>       0.75425192       0.99620916       0.62799185 </v>
    <v>       0.76397452       0.50331978       0.11798008 </v>
    <v>       0.74642206       0.50481372       0.62309666 </v>
    <v>       0.24786062       0.99920455       0.37816370 </v>
    <v>       0.24186604       0.99913743       0.87222012 </v>
    <v>       0.24049431       0.50338654       0.38886203 </v>
    <v>       0.25084208       0.49825038       0.87270159 </v>
    <v>       0.75268627       0.99116472       0.38323916 </v>
    <v>       0.76513580       0.99933797       0.87248297 </v>
    <v>       0.75971516       0.51107288       0.38140816 </v>
    <v>       0.75092733       0.50092239       0.87405708 </v>
    <v>       0.25125807       0.24853166       0.99414426 </v>
    <v>       0.99952238       0.99972658       0.49949488 </v>
    <v>       0.25092086       0.74764411       0.99582331 </v>
    <v>       0.74909207       0.74952160       0.99837532 </v>
    <v>       0.74940315       0.74924662       0.75157545 </v>
    <v>       0.49484698       0.49957122       0.49145659 </v>
    <v>       0.99366050       0.00560460       0.25042610 </v>
    <v>       0.49611090       0.00055788       0.49850573 </v>
    <v>       0.25153376       0.75021743       0.75336495 </v>
    <v>       0.25102287       0.24907754       0.75323257 </v>
    <v>       0.00879618       0.49766636       0.25484246 </v>
    <v>       0.74938068       0.25223752       0.75297253 </v>
    <v>       0.99838389       0.49785854       0.50057620 </v>
    <v>       0.74899122       0.24993457       0.99541121 </v>
    <v>       0.50409308       0.00554889       0.25357494 </v>
    <v>       0.75296694       0.75262786       0.24917812 </v>
    <v>       0.75614028       0.24825528       0.23819987 </v>
    <v>       0.00266135       0.50175341       0.01032250 </v>
    <v>       0.74855530       0.75035962       0.50274662 </v>
    <v>       0.25299547       0.74962920       0.51409897 </v>
    <v>       0.25096520       0.24820893       0.51132209 </v>
    <v>       0.53438014       0.49493912       0.25230167 </v>
    <v>       0.49728322       0.49811580       0.01678995 </v>
    <v>       0.99963654       0.99945225       0.99953059 </v>
    <v>       0.24067829       0.76616176       0.23520755 </v>
    <v>       0.23831742       0.23986920       0.23681542 </v>
    <v>       0.49513385       0.99851822       0.01279382 </v>
    <v>       0.49850129       0.50083950       0.73790302 </v>
    <v>       0.99756661       0.49877525       0.74027000 </v>
    <v>       0.49693367       0.00108057       0.73859707 </v>
    <v>       0.00140655       0.99902924       0.74830879 </v>
    <v>       0.74949675       0.25254781       0.51065917 </v>
    <v>       0.10946423       0.14044736       0.25676787 </v>
    <v>       0.12367040       0.12972478       0.74477817 </v>
    <v>       0.12079491       0.62575906       0.74955972 </v>
    <v>       0.61287029       0.13755486       0.24499470 </v>
    <v>       0.61813965       0.13048188       0.74782873 </v>
    <v>       0.87686958       0.86958220       0.74723981 </v>
    <v>       0.61751929       0.62721412       0.75696068 </v>
    <v>       0.38270997       0.87324263       0.76541015 </v>
    <v>       0.38176883       0.37302302       0.76115973 </v>
    <v>       0.14773558       0.63974221       0.27489778 </v>
    <v>       0.90304079       0.36343307       0.24963523 </v>
    <v>       0.88207058       0.37312654       0.77024955 </v>
    <v>       0.88051879       0.86968997       0.24590690 </v>
    <v>       0.12506859       0.86779646       0.50051658 </v>
    <v>       0.36592786       0.14261091       0.27483819 </v>
    <v>       0.37451169       0.12002814       0.76752719 </v>
    <v>       0.65225321       0.37751799       0.27202697 </v>
    <v>       0.37430647       0.61744523       0.76789667 </v>
    <v>       0.88089208       0.62568668       0.99112356 </v>
    <v>       0.87672012       0.61921098       0.25261949 </v>
    <v>       0.87386244       0.61939129       0.76449177 </v>
    <v>       0.16755543       0.39067019       0.25975638 </v>
    <v>       0.12857334       0.38149754       0.75203564 </v>
    <v>       0.13054741       0.89168693       0.23591457 </v>
    <v>       0.13146341       0.87637872       0.73780057 </v>
    <v>       0.61484242       0.63942084       0.24675599 </v>
    <v>       0.62617470       0.38442515       0.75797353 </v>
    <v>       0.63064857       0.88605613       0.23755475 </v>
    <v>       0.62718563       0.88359761       0.75131919 </v>
    <v>       0.37368451       0.37894694       0.98753738 </v>
    <v>       0.37847185       0.85148577       0.26915367 </v>
    <v>       0.37221011       0.87783478       0.98969108 </v>
    <v>       0.36946587       0.87655314       0.48491976 </v>
    <v>       0.12797360       0.62114464       0.50534138 </v>
    <v>       0.86876622       0.37433315       0.48364840 </v>
    <v>       0.74802534       0.75759244       0.37185194 </v>
    <v>       0.87201906       0.87721312       0.50297905 </v>
    <v>       0.13095297       0.12180715       0.00489649 </v>
    <v>       0.12834935       0.12454834       0.49154378 </v>
    <v>       0.12848314       0.61607621       0.98804150 </v>
    <v>       0.75549657       0.25547199       0.12108176 </v>
    <v>       0.62476833       0.11780761       0.00215476 </v>
    <v>       0.62482485       0.12883685       0.49964682 </v>
    <v>       0.62582905       0.61630647       0.00341041 </v>
    <v>       0.62209202       0.61953324       0.49052227 </v>
    <v>       0.11930758       0.37166036       0.99836590 </v>
    <v>       0.12287815       0.86700672       0.01575935 </v>
    <v>       0.61703850       0.37349343       0.99733780 </v>
    <v>       0.62303584       0.37531336       0.48239715 </v>
    <v>       0.61657663       0.87223089       0.00399894 </v>
    <v>       0.61941598       0.87411339       0.50881541 </v>
    <v>       0.38143773       0.12530767       0.98382290 </v>
    <v>       0.37247990       0.12820420       0.48170331 </v>
    <v>       0.38248890       0.62254776       0.98437409 </v>
    <v>       0.37394161       0.63078734       0.48289220 </v>
    <v>       0.87677425       0.13104294       0.99402687 </v>
    <v>       0.87195633       0.12882753       0.48757468 </v>
    <v>       0.37029531       0.37278902       0.48847152 </v>
    <v>       0.98399034       0.01951328       0.12894940 </v>
    <v>       0.99650826       0.00890729       0.62049686 </v>
    <v>       0.01447789       0.51104708       0.13116670 </v>
    <v>       0.98420564       0.48659364       0.62199913 </v>
    <v>       0.46790775       0.00419989       0.13228943 </v>
    <v>       0.47642461       0.00638253       0.62025377 </v>
    <v>       0.47230007       0.48034174       0.14071384 </v>
    <v>       0.49142094       0.49915392       0.61661934 </v>
    <v>       0.00554101       0.98506951       0.37381968 </v>
    <v>       0.12380610       0.36872528       0.49574555 </v>
    <v>       0.00428587       0.50189099       0.37549125 </v>
    <v>       0.87307578       0.38229338       0.99364809 </v>
    <v>       0.51880590       0.99656629       0.37362592 </v>
    <v>       0.86940975       0.87711169       0.00257036 </v>
    <v>       0.46364486       0.49585277       0.35721551 </v>
    <v>       0.00650826       0.99338344       0.87464179 </v>
    <v>       0.23482937       0.24948904       0.87480196 </v>
    <v>       0.87709882       0.62581653       0.49811356 </v>
    <v>       0.23277599       0.75970892       0.87521329 </v>
    <v>       0.85785897       0.12114519       0.27291968 </v>
    <v>       0.73878075       0.24364573       0.87548475 </v>
    <v>       0.86937681       0.12391743       0.75032630 </v>
    <v>       0.74243217       0.75629375       0.87688922 </v>
    <v>       0.26820932       0.25168067       0.12134544 </v>
    <v>       0.26572809       0.24864862       0.62932539 </v>
    <v>       0.27229923       0.72671885       0.12203838 </v>
    <v>       0.27694204       0.74235477       0.63080516 </v>
    <v>       0.75405173       0.26812743       0.62881095 </v>
    <v>       0.75627741       0.74061980       0.12367992 </v>
    <v>       0.74736505       0.73724511       0.62852341 </v>
   </varray>
  </structure>
  <varray name="forces" >
   <v>      -0.00107071       0.00583362       0.00215649 </v>
   <v>       0.01168376       0.00243043       0.00697021 </v>
   <v>       0.00051466       0.00272229       0.00499806 </v>
   <v>       0.00366939      -0.00234792      -0.00194157 </v>
   <v>      -0.00052112       0.00261310       0.00014228 </v>
   <v>       0.00155429       0.01258236       0.00141477 </v>
   <v>      -0.00185973      -0.00262689       0.00127408 </v>
   <v>      -0.00109162       0.00180246      -0.00694886 </v>
   <v>       0.00061920      -0.00396374       0.00373307 </v>
   <v>      -0.00258056      -0.00136002      -0.01060219 </v>
   <v>       0.00286609       0.00576056       0.00664474 </v>
   <v>      -0.00076137      -0.00498959      -0.00119167 </v>
   <v>       0.00652311      -0.00821159       0.00242085 </v>
   <v>       0.00172205       0.00878248      -0.00159748 </v>
   <v>      -0.00368998       0.00053628       0.00501393 </v>
   <v>      -0.00323805      -0.00095393      -0.01028207 </v>
   <v>       0.00150328       0.00467670      -0.00815256 </v>
   <v>       0.00159109      -0.00252251      -0.00077818 </v>
   <v>      -0.00529886      -0.00153790      -0.00007908 </v>
   <v>      -0.00018305      -0.00174562      -0.01453014 </v>
   <v>      -0.01186795       0.00358412       0.00433079 </v>
   <v>       0.00120599      -0.00117862      -0.00592095 </v>
   <v>      -0.00227467       0.00316002      -0.00919018 </v>
   <v>      -0.00580398      -0.00164130       0.00374621 </v>
   <v>      -0.01088037       0.00860451       0.00333670 </v>
   <v>       0.00357765      -0.00005018      -0.00013218 </v>
   <v>      -0.00086039       0.00876436      -0.00989213 </v>
   <v>      -0.00028813       0.00062121      -0.00479979 </v>
   <v>       0.00393769      -0.00434452       0.00494581 </v>
   <v>       0.00091299      -0.00243099      -0.00286269 </v>
   <v>      -0.00359819      -0.00760158       0.00490393 </v>
   <v>      -0.00252429      -0.00343803      -0.00421401 </v>
   <v>       0.00044126       0.00601894       0.00336546 </v>
   <v>      -0.00604112       0.00198685      -0.00726595 </v>
   <v>       0.00834999       0.00459033       0.00321385 </v>
   <v>       0.00383524       0.00906453       0.00262268 </v>
   <v>      -0.01819799      -0.02345756      -0.00284533 </v>
   <v>      -0.00820700      -0.00226899       0.00550780 </v>
   <v>      -0.00637636      -0.01114773       0.04027121 </v>
   <v>       0.00350986      -0.00782333      -0.00652842 </v>
   <v>       0.00132479      -0.00764481      -0.00660881 </v>
   <v>       0.00363835      -0.00289757      -0.01377572 </v>
   <v>      -0.00818481       0.00647468       0.01700360 </v>
   <v>       0.00007895       0.00686052       0.00203388 </v>
   <v>      -0.00121938      -0.00479975      -0.00063959 </v>
   <v>      -0.00466096       0.00514303      -0.01446856 </v>
   <v>      -0.00188102       0.00003457       0.00719633 </v>
   <v>       0.00138008       0.00437517       0.00809434 </v>
   <v>       0.00593681       0.00101468       0.00303937 </v>
   <v>      -0.00809961      -0.00412451      -0.00708793 </v>
   <v>       0.00211946       0.00253819      -0.00100064 </v>
   <v>      -0.00540788       0.00104120      -0.00584409 </v>
   <v>       0.00570956       0.00997909       0.00097627 </v>
   <v>       0.00629533      -0.01006593       0.00836823 </v>
   <v>      -0.00135557      -0.00160977       0.00456327 </v>
   <v>      -0.00659381      -0.00384193      -0.00654257 </v>
   <v>       0.00237255       0.00817368      -0.00357634 </v>
   <v>      -0.00127838      -0.00134557      -0.00380150 </v>
   <v>      -0.00093033      -0.00442982       0.00245565 </v>
   <v>       0.00317692      -0.00240257       0.00388738 </v>
   <v>      -0.00454094      -0.00456682      -0.00244560 </v>
   <v>      -0.00125105       0.00229382       0.00625406 </v>
   <v>       0.00289995      -0.00719960       0.00252893 </v>
   <v>      -0.00096310      -0.00263543       0.00432970 </v>
   <v>      -0.00255882       0.01769557      -0.01914700 </v>
   <v>       0.00866747      -0.01674421       0.00814525 </v>
   <v>       0.00414758      -0.00509562       0.01358287 </v>
   <v>       0.00141328       0.00509165      -0.01282916 </v>
   <v>       0.00497258      -0.00902560       0.00341564 </v>
   <v>       0.00236328      -0.00091333      -0.00135772 </v>
   <v>       0.00356329       0.00115546       0.00113067 </v>
   <v>      -0.00429842       0.00079937      -0.00533771 </v>
   <v>      -0.00619913      -0.00214542       0.00286655 </v>
   <v>      -0.00523628       0.00851686      -0.00045460 </v>
   <v>       0.00648540       0.00771503       0.00811397 </v>
   <v>      -0.00097535       0.00451259      -0.00583821 </v>
   <v>       0.00291888      -0.00605169       0.00991247 </v>
   <v>       0.00660167       0.00548887      -0.00370163 </v>
   <v>      -0.00889339       0.00200436       0.00266131 </v>
   <v>       0.00706804       0.00115404       0.00697030 </v>
   <v>       0.00129369      -0.00476052       0.00767276 </v>
   <v>       0.00070613       0.01040977       0.00908493 </v>
   <v>       0.00509003      -0.00736926      -0.00854148 </v>
   <v>      -0.00900289      -0.00402054       0.01391149 </v>
   <v>       0.00064169       0.00466372      -0.00131443 </v>
   <v>       0.01214014       0.00835771      -0.01334052 </v>
   <v>      -0.00315665      -0.00953919      -0.00650146 </v>
   <v>       0.00139313       0.00727139      -0.01372063 </v>
[...]
       <r>   -17.1702     0.0000    32.0000 </r>
       <r>   -17.0160     0.0000    32.0000 </r>
       <r>   -16.8618     0.0000    32.0000 </r>
       <r>   -16.7076     0.0000    32.0000 </r>
       <r>   -16.5534     0.0000    32.0000 </r>
       <r>   -16.3992     0.0000    32.0000 </r>
       <r>   -16.2450     0.0000    32.0000 </r>
       <r>   -16.0908     0.0000    32.0000 </r>
       <r>   -15.9366     0.0000    32.0000 </r>
       <r>   -15.7824     0.0000    32.0000 </r>
       <r>   -15.6282     0.0000    32.0000 </r>
       <r>   -15.4740     0.0000    32.0000 </r>
       <r>   -15.3198     0.0000    32.0000 </r>
       <r>   -15.1655     0.0094    32.0014 </r>
       <r>   -15.0113    13.5473    34.0905 </r>
       <r>   -14.8571    43.5871    40.8118 </r>
       <r>   -14.7029    47.3212    48.1090 </r>
       <r>   -14.5487    40.9731    54.4272 </r>
       <r>   -14.3945    29.8285    59.0269 </r>
       <r>   -14.2403    40.8051    65.3192 </r>
       <r>   -14.0861    77.7884    77.3146 </r>
       <r>   -13.9319    91.5865    91.4376 </r>
       <r>   -13.7777    80.1354   103.7948 </r>
       <r>   -13.6235    65.7399   113.9322 </r>
       <r>   -13.4693    36.3668   119.5402 </r>
       <r>   -13.3151     2.9821   120.0000 </r>
       <r>   -13.1609     0.0000   120.0000 </r>
       <r>   -13.0067     0.0945   120.0146 </r>
       <r>   -12.8525     6.7594   121.0569 </r>
       <r>   -12.6983    39.6612   127.1728 </r>
       <r>   -12.5441   108.3195   143.8762 </r>
       <r>   -12.3899   109.4688   160.7568 </r>
       <r>   -12.2357   110.4144   177.7832 </r>
       <r>   -12.0815    94.9921   192.4314 </r>
       <r>   -11.9273    83.4604   205.3013 </r>
       <r>   -11.7730    55.8863   213.9193 </r>
       <r>   -11.6188     9.5332   215.3893 </r>
       <r>   -11.4646     3.9600   216.0000 </r>
       <r>   -11.3104     0.0001   216.0000 </r>
       <r>   -11.1562     0.0000   216.0000 </r>
       <r>   -11.0020     0.0000   216.0000 </r>
       <r>   -10.8478     0.0000   216.0000 </r>
       <r>   -10.6936     0.0000   216.0000 </r>
       <r>   -10.5394     0.0000   216.0000 </r>
       <r>   -10.3852     0.0000   216.0000 </r>
       <r>   -10.2310     0.0000   216.0000 </r>
       <r>   -10.0768     0.0000   216.0000 </r>
       <r>    -9.9226     0.0000   216.0000 </r>
       <r>    -9.7684     0.0000   216.0000 </r>
       <r>    -9.6142     0.0000   216.0000 </r>
       <r>    -9.4600     0.0000   216.0000 </r>
       <r>    -9.3058     0.0000   216.0000 </r>
       <r>    -9.1516     0.0000   216.0000 </r>
       <r>    -8.9974     0.0000   216.0000 </r>
       <r>    -8.8432     0.0000   216.0000 </r>
       <r>    -8.6890     0.0000   216.0000 </r>
       <r>    -8.5348     0.0000   216.0000 </r>
       <r>    -8.3805     0.0000   216.0000 </r>
       <r>    -8.2263     0.0000   216.0000 </r>
       <r>    -8.0721     0.0000   216.0000 </r>
       <r>    -7.9179     0.0000   216.0000 </r>
       <r>    -7.7637     0.0000   216.0000 </r>
       <r>    -7.6095     0.0000   216.0000 </r>
       <r>    -7.4553     0.0000   216.0000 </r>
       <r>    -7.3011     0.0000   216.0000 </r>
       <r>    -7.1469     0.0000   216.0000 </r>
       <r>    -6.9927     0.0000   216.0000 </r>
       <r>    -6.8385     0.0000   216.0000 </r>
       <r>    -6.6843     0.0000   216.0000 </r>
       <r>    -6.5301     0.0000   216.0000 </r>
       <r>    -6.3759     0.0000   216.0000 </r>
       <r>    -6.2217     0.0000   216.0000 </r>
       <r>    -6.0675     0.0000   216.0000 </r>
       <r>    -5.9133     0.0000   216.0000 </r>
       <r>    -5.7591     0.0000   216.0000 </r>
       <r>    -5.6049     0.0000   216.0000 </r>
       <r>    -5.4507     0.0000   216.0000 </r>
       <r>    -5.2965     0.0000   216.0000 </r>
       <r>    -5.1423     0.0000   216.0000 </r>
       <r>    -4.9880     0.0000   216.0000 </r>
       <r>    -4.8338     0.0000   216.0000 </r>
       <r>    -4.6796     0.0000   216.0000 </r>
       <r>    -4.5254     0.0000   216.0000 </r>
       <r>    -4.3712     0.0000   216.0000 </r>
       <r>    -4.2170     0.0000   216.0000 </r>
       <r>    -4.0628     0.0000   216.0000 </r>
       <r>    -3.9086     0.0000   216.0000 </r>
       <r>    -3.7544     0.0000   216.0000 </r>
       <r>    -3.6002     0.0000   216.0000 </r>
       <r>    -3.4460     0.0000   216.0000 </r>
       <r>    -3.2918     0.0000   216.0000 </r>
       <r>    -3.1376     0.0000   216.0000 </r>
       <r>    -2.9834     0.0000   216.0000 </r>
       <r>    -2.8292     0.0000   216.0000 </r>
       <r>    -2.6750     0.0000   216.0000 </r>
       <r>    -2.5208     0.0001   216.0000 </r>
       <r>    -2.3666     3.7291   216.5751 </r>
       <r>    -2.2124    16.0979   219.0574 </r>
       <r>    -2.0582    31.2477   223.8760 </r>
       <r>    -1.9040    26.5886   227.9760 </r>
       <r>    -1.7498    34.5496   233.3037 </r>
       <r>    -1.5955    25.6681   237.2619 </r>
       <r>    -1.4413    35.3031   242.7058 </r>
       <r>    -1.2871    47.8669   250.0871 </r>
       <r>    -1.1329    87.0065   263.5039 </r>
       <r>    -0.9787    73.4324   274.8275 </r>
       <r>    -0.8245    70.2337   285.6578 </r>
       <r>    -0.6703    82.3272   298.3530 </r>
       <r>    -0.5161   101.0877   313.9412 </r>
       <r>    -0.3619    96.9122   328.8855 </r>
       <r>    -0.2077    71.9975   339.9879 </r>
       <r>    -0.0535    48.0211   347.3929 </r>
       <r>     0.1007    48.6000   354.8873 </r>
       <r>     0.2549    49.4541   362.5133 </r>
       <r>     0.4091    51.2326   370.4136 </r>
       <r>     0.5633    65.4441   380.5054 </r>
       <r>     0.7175    59.3466   389.6569 </r>
       <r>     0.8717    57.3213   398.4961 </r>
       <r>     1.0259    53.0689   406.6796 </r>
       <r>     1.1801    49.8487   414.3665 </r>
       <r>     1.3343    67.0793   424.7104 </r>
       <r>     1.4885    71.8972   435.7973 </r>
       <r>     1.6427    79.8266   448.1069 </r>
       <r>     1.7969    78.7448   460.2497 </r>
       <r>     1.9512    51.0945   468.1287 </r>
       <r>     2.1054    42.6669   474.7081 </r>
       <r>     2.2596    14.8374   476.9961 </r>
       <r>     2.4138     7.8717   478.2100 </r>
       <r>     2.5680    11.3192   479.9555 </r>
       <r>     2.7222     0.2889   480.0000 </r>
       <r>     2.8764     0.0000   480.0000 </r>
       <r>     3.0306     0.0000   480.0000 </r>
       <r>     3.1848     0.0000   480.0000 </r>
       <r>     3.3390     0.0000   480.0000 </r>
       <r>     3.4932     0.0000   480.0000 </r>
       <r>     3.6474     0.0000   480.0000 </r>
       <r>     3.8016     0.0000   480.0000 </r>
       <r>     3.9558     0.0000   480.0000 </r>
       <r>     4.1100     0.0000   480.0000 </r>
       <r>     4.2642     0.0986   480.0152 </r>
       <r>     4.4184     8.8186   481.3751 </r>
       <r>     4.5726    37.9947   487.2340 </r>
       <r>     4.7268    48.8784   494.7713 </r>
       <r>     4.8810    63.9124   504.6269 </r>
       <r>     5.0352    47.9074   512.0144 </r>
       <r>     5.1894    59.8004   521.2359 </r>
       <r>     5.3437    87.0158   534.6541 </r>
       <r>     5.4979    70.4304   545.5148 </r>
       <r>     5.6521    64.7116   555.4937 </r>
       <r>     5.8063    52.3567   563.5673 </r>
       <r>     5.9605    77.7711   575.5599 </r>
       <r>     6.1147    80.1276   587.9160 </r>
       <r>     6.2689    78.9119   600.0846 </r>
       <r>     6.4231    53.2323   608.2932 </r>
       <r>     6.5773     4.0266   608.9141 </r>
       <r>     6.7315     8.8854   610.2843 </r>
       <r>     6.8857     7.6056   611.4571 </r>
       <r>     7.0399    11.4699   613.2258 </r>
       <r>     7.1941    17.0305   615.8520 </r>
       <r>     7.3483    19.0656   618.7920 </r>
       <r>     7.5025    21.4478   622.0994 </r>
       <r>     7.6567    17.6373   624.8191 </r>
       <r>     7.8109    13.2163   626.8571 </r>
       <r>     7.9651    26.5834   630.9564 </r>
       <r>     8.1193    28.0922   635.2884 </r>
       <r>     8.2735    23.1662   638.8607 </r>
       <r>     8.4277    22.8900   642.3904 </r>
       <r>     8.5819    28.3422   646.7609 </r>
       <r>     8.7362    37.9775   652.6172 </r>
       <r>     8.8904    30.5310   657.3252 </r>
       <r>     9.0446    36.0436   662.8833 </r>
       <r>     9.1988    28.3536   667.2556 </r>
       <r>     9.3530    38.0925   673.1296 </r>
       <r>     9.5072    46.5159   680.3026 </r>
       <r>     9.6614    47.3096   687.5979 </r>
       <r>     9.8156    54.9940   696.0783 </r>
       <r>     9.9698    60.1705   705.3568 </r>
       <r>    10.1240    58.2867   714.3449 </r>
       <r>    10.2782    61.1649   723.7768 </r>
       <r>    10.4324    55.2394   732.2949 </r>
       <r>    10.5866    53.0098   740.4693 </r>
       <r>    10.7408    50.8757   748.3146 </r>
       <r>    10.8950    49.7271   755.9827 </r>
       <r>    11.0492    58.4306   764.9929 </r>
       <r>    11.2034    19.4877   767.9980 </r>
       <r>    11.3576     0.0128   768.0000 </r>
       <r>    11.5118     0.0000   768.0000 </r>
       <r>    11.6660     0.0000   768.0000 </r>
       <r>    11.8202     0.0000   768.0000 </r>
       <r>    11.9744     0.0000   768.0000 </r>
       <r>    12.1287     0.0000   768.0000 </r>
       <r>    12.2829     0.0000   768.0000 </r>
       <r>    12.4371     0.0000   768.0000 </r>
       <r>    12.5913     0.0000   768.0000 </r>
       <r>    12.7455     0.0000   768.0000 </r>
       <r>    12.8997     0.0000   768.0000 </r>
       <r>    13.0539     0.0000   768.0000 </r>
       <r>    13.2081     0.0000   768.0000 </r>
      </set>
     </set>
    </array>
   </total>
  </dos>
 </calculation>
 <structure name="finalpos" >
  <crystal>
   <varray name="basis" >
    <v>      11.20991938       0.03232221      -0.01430133 </v>
    <v>       0.03233437      11.19574502      -0.01812184 </v>
    <v>      -0.01961442      -0.02581733      15.93487223 </v>
   </varray>
   <i name="volume">   1999.85561371 </i>
   <varray name="rec_basis" >
    <v>       0.08920759      -0.00025746       0.00010939 </v>
    <v>      -0.00025736       0.08932062       0.00014440 </v>
    <v>       0.00007977       0.00010135       0.06275571 </v>
   </varray>
  </crystal>
  <varray name="positions" >
   <v>       0.99609109       0.24758307       0.11230747 </v>
   <v>       0.99899377       0.24575092       0.63013692 </v>
   <v>       0.99256859       0.75676124       0.12072572 </v>
   <v>       0.99569188       0.75399831       0.62558865 </v>
   <v>       0.50290360       0.24241770       0.11333324 </v>
   <v>       0.50114223       0.25030338       0.62705090 </v>
   <v>       0.50544776       0.75661080       0.12244624 </v>
   <v>       0.50662873       0.75173071       0.62643078 </v>
   <v>       0.99692208       0.24749216       0.38105572 </v>
   <v>       0.00043773       0.23667428       0.87269043 </v>
   <v>       0.99066425       0.74989354       0.38158653 </v>
   <v>       0.99916086       0.75865157       0.87332966 </v>
   <v>       0.50494636       0.24570549       0.38186282 </v>
   <v>       0.50089197       0.24982058       0.87219142 </v>
   <v>       0.51049801       0.75571368       0.38191793 </v>
   <v>       0.50068718       0.74972350       0.87426254 </v>
   <v>       0.24006986       0.00136705       0.11429274 </v>
   <v>       0.24209316      -0.00005977       0.62649879 </v>
   <v>       0.24510227       0.49531194       0.11323122 </v>
   <v>       0.24745982       0.49984367       0.63030335 </v>
   <v>       0.75361044       0.99948984       0.11845886 </v>
   <v>       0.75429114       0.99617852       0.62793396 </v>
   <v>       0.76389176       0.50346624       0.11775686 </v>
   <v>       0.74625550       0.50476507       0.62317004 </v>
   <v>       0.24756974       0.99951507       0.37822735 </v>
   <v>       0.24194431       0.99912966       0.87223865 </v>
   <v>       0.24048021       0.50366383       0.38857058 </v>
   <v>       0.25077518       0.49828891       0.87264599 </v>
   <v>       0.75276833       0.99104947       0.38332490 </v>
   <v>       0.76515281       0.99922324       0.87239855 </v>
   <v>       0.75957797       0.51085798       0.38150226 </v>
   <v>       0.75088002       0.50085565       0.87403307 </v>
   <v>       0.25126923       0.24861023       0.99411866 </v>
   <v>       0.99948127       0.99987619       0.49955005 </v>
   <v>       0.25094427       0.74766168       0.99585607 </v>
   <v>       0.74911647       0.74960347       0.99838017 </v>
   <v>       0.74921514       0.74902777       0.75156110 </v>
   <v>       0.49472227       0.49963258       0.49149847 </v>
   <v>       0.99351972       0.00556083       0.25042871 </v>
   <v>       0.49608196       0.00046733       0.49851029 </v>
   <v>       0.25150414       0.75010555       0.75334798 </v>
   <v>       0.25110660       0.24894269       0.75322174 </v>
   <v>       0.00862965       0.49787719       0.25495399 </v>
   <v>       0.74938233       0.25211557       0.75300117 </v>
   <v>       0.99831439       0.49775153       0.50053773 </v>
   <v>       0.74909501       0.24990474       0.99531234 </v>
   <v>       0.50406145       0.00558235       0.25359568 </v>
   <v>       0.75291915       0.75261691       0.24922926 </v>
   <v>       0.75632529       0.24828586       0.23818736 </v>
   <v>       0.00251792       0.50180924       0.01028134 </v>
   <v>       0.74856614       0.75039460       0.50273226 </v>
   <v>       0.25286082       0.74966976       0.51397189 </v>
   <v>       0.25117232       0.24835960       0.51136855 </v>
   <v>       0.53461665       0.49475398       0.25235558 </v>
   <v>       0.49726745       0.49810944       0.01691250 </v>
   <v>       0.99949700       0.99938805       0.99944867 </v>
   <v>       0.24065170       0.76633871       0.23508777 </v>
   <v>       0.23829880       0.23995725       0.23672723 </v>
   <v>       0.49508152       0.99842285       0.01284438 </v>
   <v>       0.49844181       0.50083083       0.73799779 </v>
   <v>       0.99751580       0.49868619       0.74025027 </v>
   <v>       0.49688959       0.00106568       0.73867511 </v>
   <v>       0.00142451       0.99875301       0.74838355 </v>
   <v>       0.74943098       0.25246768       0.51075477 </v>
   <v>       0.10908478       0.14085342       0.25637495 </v>
   <v>       0.12399165       0.12923651       0.74494519 </v>
   <v>       0.12086854       0.62551294       0.74983719 </v>
   <v>       0.61280443       0.13761861       0.24473010 </v>
   <v>       0.61836569       0.13027806       0.74792298 </v>
   <v>       0.87681749       0.86945079       0.74718660 </v>
   <v>       0.61751060       0.62707997       0.75696994 </v>
   <v>       0.38258446       0.87326436       0.76528946 </v>
   <v>       0.38170240       0.37305078       0.76118669 </v>
   <v>       0.14755327       0.64006322       0.27494850 </v>
   <v>       0.90315355       0.36358602       0.24987558 </v>
   <v>       0.88202469       0.37319973       0.77010505 </v>
   <v>       0.88063343       0.86948077       0.24621944 </v>
   <v>       0.12524312       0.86800086       0.50040048 </v>
   <v>       0.36574459       0.14263272       0.27496452 </v>
   <v>       0.37472567       0.12011072       0.76769931 </v>
   <v>       0.65233631       0.37731125       0.27221778 </v>
   <v>       0.37450097       0.61765211       0.76807654 </v>
   <v>       0.88087653       0.62559404       0.99090177 </v>
   <v>       0.87643989       0.61910079       0.25298937 </v>
   <v>       0.87389463       0.61945456       0.76444858 </v>
   <v>       0.16797345       0.39104871       0.25944529 </v>
   <v>       0.12840942       0.38113714       0.75180360 </v>
   <v>       0.13054464       0.89198304       0.23564004 </v>
   <v>       0.13136277       0.87611389       0.73772159 </v>
   <v>       0.61480941       0.63942532       0.24664644 </v>
   <v>       0.62623320       0.38448726       0.75786469 </v>
   <v>       0.63067478       0.88617215       0.23729191 </v>
   <v>       0.62700140       0.88342666       0.75152207 </v>
   <v>       0.37384413       0.37888149       0.98754345 </v>
   <v>       0.37829662       0.85136130       0.26926486 </v>
   <v>       0.37211901       0.87792496       0.98968222 </v>
   <v>       0.36972513       0.87649565       0.48488399 </v>
   <v>       0.12781496       0.62130610       0.50514733 </v>
   <v>       0.86884025       0.37409326       0.48368976 </v>
   <v>       0.74764249       0.75766987       0.37191184 </v>
   <v>       0.87201064       0.87707755       0.50297819 </v>
   <v>       0.13089693       0.12180853       0.00481002 </v>
   <v>       0.12855583       0.12453994       0.49152558 </v>
   <v>       0.12847564       0.61610495       0.98811913 </v>
   <v>       0.75591383       0.25556692       0.12107971 </v>
   <v>       0.62470526       0.11810156       0.00230623 </v>
   <v>       0.62501069       0.12873758       0.49950780 </v>
   <v>       0.62580631       0.61638261       0.00347604 </v>
   <v>       0.62204016       0.61951965       0.49085638 </v>
   <v>       0.11944647       0.37180172       0.99855229 </v>
   <v>       0.12282486       0.86686236       0.01590036 </v>
   <v>       0.61731665       0.37379213       0.99746069 </v>
   <v>       0.62290731       0.37528487       0.48285768 </v>
   <v>       0.61666051       0.87232337       0.00419961 </v>
   <v>       0.61930619       0.87412265       0.50886360 </v>
   <v>       0.38153802       0.12536729       0.98372355 </v>
   <v>       0.37249920       0.12805748       0.48166045 </v>
   <v>       0.38239656       0.62251950       0.98427899 </v>
   <v>       0.37387140       0.63094231       0.48284252 </v>
   <v>       0.87689650       0.13103700       0.99379100 </v>
   <v>       0.87222479       0.12880456       0.48758519 </v>
   <v>       0.37042527       0.37267693       0.48816686 </v>
   <v>       0.98355621       0.01949317       0.12892502 </v>
   <v>       0.99654676       0.00880259       0.62048094 </v>
   <v>       0.01403300       0.51134860       0.13117447 </v>
   <v>       0.98443986       0.48671236       0.62191546 </v>
   <v>       0.46766756       0.00411320       0.13230344 </v>
   <v>       0.47647593       0.00654210       0.62027788 </v>
   <v>       0.47215932       0.48058836       0.14079934 </v>
   <v>       0.49091072       0.49915775       0.61663928 </v>
   <v>       0.00545781       0.98519215       0.37382025 </v>
   <v>       0.12407848       0.36882323       0.49587237 </v>
   <v>       0.00460089       0.50178616       0.37553078 </v>
   <v>       0.87311295       0.38230371       0.99350083 </v>
   <v>       0.51888483       0.99655291       0.37360612 </v>
   <v>       0.86941464       0.87709031       0.00255593 </v>
   <v>       0.46378294       0.49590244       0.35723264 </v>
   <v>       0.00665771       0.99322113       0.87467256 </v>
   <v>       0.23484935       0.24988704       0.87474718 </v>
   <v>       0.87680934       0.62549197       0.49788001 </v>
   <v>       0.23279124       0.75982036       0.87519441 </v>
   <v>       0.85776707       0.12123505       0.27320287 </v>
   <v>       0.73880665       0.24386861       0.87541699 </v>
   <v>       0.86960263       0.12386779       0.75028442 </v>
   <v>       0.74227572       0.75614250       0.87684410 </v>
   <v>       0.26859639       0.25161193       0.12132752 </v>
   <v>       0.26603634       0.24832587       0.62940835 </v>
   <v>       0.27271413       0.72665074       0.12200588 </v>
   <v>       0.27658517       0.74222775       0.63071100 </v>
   <v>       0.75405698       0.26763672       0.62887858 </v>
   <v>       0.75660605       0.74057449       0.12375095 </v>
   <v>       0.74732602       0.73713193       0.62856287 </v>
  </varray>
 </structure>
</modeling>
