       N       E                     dE             d eps       ncg     rms          rms(c)
DAV:   1    -0.112134643185E+04   -0.11213E+04   -0.40329E-02 13688   0.463E-01    0.179E-02
RMM:   2    -0.112134643286E+04   -0.10090E-05   -0.32222E-05  7126   0.915E-03    0.265E-02
RMM:   3    -0.112134643334E+04   -0.47382E-06   -0.11035E-05  6856   0.598E-03    0.757E-03
RMM:   4    -0.112134643430E+04   -0.96361E-06   -0.65758E-06  4944   0.328E-03    0.675E-03
RMM:   5    -0.112134643521E+04   -0.90679E-06   -0.39389E-06  4550   0.355E-03    0.564E-03
RMM:   6    -0.112134643579E+04   -0.58468E-06   -0.26134E-06  3341   0.233E-03    0.200E-03
RMM:   7    -0.112134643608E+04   -0.29038E-06   -0.13090E-06  2866   0.244E-03    0.109E-03
RMM:   8    -0.112134643619E+04   -0.10610E-06   -0.90464E-07  2502   0.205E-03
   1 F= -.11213464E+04 E0= -.11213464E+04  d E =-.112135E+04  mag=    40.0000
       N       E                     dE             d eps       ncg     rms          rms(c)
DAV:   1    -0.112135167421E+04   -0.52381E-02   -0.93857E-01 12912   0.116E+00    0.736E-01
RMM:   2    -0.112135011280E+04    0.15614E-02   -0.40330E-02 12393   0.257E-01    0.571E-01
RMM:   3    -0.112134897320E+04    0.11396E-02   -0.29090E-03 12764   0.928E-02    0.270E-01
RMM:   4    -0.112134853559E+04    0.43761E-03   -0.15984E-03 12794   0.432E-02    0.194E-01
RMM:   5    -0.112134846608E+04    0.69516E-04   -0.23499E-04  8508   0.252E-02    0.104E-01
RMM:   6    -0.112134844826E+04    0.17821E-04   -0.13481E-04  7414   0.135E-02    0.609E-02
RMM:   7    -0.112134844161E+04    0.66411E-05   -0.57066E-05  7249   0.117E-02    0.517E-02
RMM:   8    -0.112134843721E+04    0.44023E-05   -0.34056E-05  7123   0.751E-03
   2 F= -.11213484E+04 E0= -.11213484E+04  d E =-.200102E-02  mag=    40.0000
       N       E                     dE             d eps       ncg     rms          rms(c)
DAV:   1    -0.112134889692E+04   -0.45531E-03   -0.60094E-02 13904   0.294E-01    0.187E-01
RMM:   2    -0.112134878178E+04    0.11514E-03   -0.25860E-03 12305   0.646E-02    0.146E-01
RMM:   3    -0.112134869448E+04    0.87303E-04   -0.13849E-04  8155   0.232E-02    0.721E-02
RMM:   4    -0.112134866372E+04    0.30759E-04   -0.11640E-04  6952   0.132E-02    0.605E-02
RMM:   5    -0.112134866497E+04   -0.12524E-05   -0.33813E-05  6785   0.908E-03    0.359E-02
RMM:   6    -0.112134866923E+04   -0.42587E-05   -0.20639E-05  6453   0.505E-03    0.170E-02
RMM:   7    -0.112134867415E+04   -0.49188E-05   -0.10748E-05  4811   0.413E-03    0.970E-03
RMM:   8    -0.112134867765E+04   -0.34981E-05   -0.92785E-06  4376   0.331E-03
   3 F= -.11213487E+04 E0= -.11213487E+04  d E =-.224146E-02  mag=    40.0000
       N       E                     dE             d eps       ncg     rms          rms(c)
DAV:   1    -0.112134836601E+04    0.30814E-03   -0.70368E-01 12592   0.992E-01    0.317E-01
RMM:   2    -0.112135039988E+04   -0.20339E-02   -0.18579E-02 12320   0.186E-01    0.197E-01
RMM:   3    -0.112135052474E+04   -0.12485E-03   -0.11107E-03 12115   0.601E-02    0.110E-01
RMM:   4    -0.112135045037E+04    0.74368E-04   -0.19598E-04  7705   0.191E-02    0.638E-02
RMM:   5    -0.112135043178E+04    0.18586E-04   -0.94594E-05  7230   0.131E-02    0.420E-02
RMM:   6    -0.112135043350E+04   -0.17158E-05   -0.27152E-05  7112   0.908E-03    0.251E-02
RMM:   7    -0.112135043420E+04   -0.70200E-06   -0.13791E-05  6948   0.518E-03    0.137E-02
RMM:   8    -0.112135043414E+04    0.57902E-07   -0.73838E-06  6598   0.480E-03
   4 F= -.11213504E+04 E0= -.11213504E+04  d E =-.175649E-02  mag=    40.0000
       N       E                     dE             d eps       ncg     rms          rms(c)
DAV:   1    -0.112134993357E+04    0.50063E-03   -0.28352E-01 12512   0.630E-01    0.201E-01
RMM:   2    -0.112135076009E+04   -0.82652E-03   -0.75611E-03 12331   0.118E-01    0.125E-01
RMM:   3    -0.112135080451E+04   -0.44424E-04   -0.40316E-04  9631   0.381E-02    0.706E-02
RMM:   4    -0.112135077911E+04    0.25404E-04   -0.97354E-05  7216   0.135E-02    0.407E-02
RMM:   5    -0.112135077166E+04    0.74478E-05   -0.45552E-05  7119   0.956E-03    0.242E-02
RMM:   6    -0.112135077263E+04   -0.96517E-06   -0.16974E-05  6982   0.633E-03    0.148E-02
RMM:   7    -0.112135077311E+04   -0.48433E-06   -0.82184E-06  6416   0.434E-03    0.753E-03
RMM:   8    -0.112135077311E+04    0.75670E-09   -0.49825E-06  5495   0.344E-03
   5 F= -.11213508E+04 E0= -.11213508E+04  d E =-.209546E-02  mag=    40.0000
       N       E                     dE             d eps       ncg     rms          rms(c)
DAV:   1    -0.112135120203E+04   -0.42892E-03   -0.51333E-01 12848   0.851E-01    0.291E-01
RMM:   2    -0.112135219885E+04   -0.99681E-03   -0.14543E-02 12395   0.159E-01    0.198E-01
RMM:   3    -0.112135214253E+04    0.56323E-04   -0.88337E-04 11834   0.544E-02    0.105E-01
RMM:   4    -0.112135208613E+04    0.56399E-04   -0.25313E-04  7731   0.198E-02    0.729E-02
RMM:   5    -0.112135208386E+04    0.22692E-05   -0.74288E-05  7128   0.133E-02    0.532E-02
RMM:   6    -0.112135209085E+04   -0.69896E-05   -0.40477E-05  7100   0.876E-03    0.240E-02
RMM:   7    -0.112135209780E+04   -0.69512E-05   -0.20211E-05  6939   0.668E-03    0.131E-02
RMM:   8    -0.112135210257E+04   -0.47721E-05   -0.14818E-05  6572   0.508E-03
   6 F= -.11213521E+04 E0= -.11213521E+04  d E =-.132946E-02  mag=    40.0000
       N       E                     dE             d eps       ncg     rms          rms(c)
DAV:   1    -0.112135155741E+04    0.54039E-03   -0.54764E-01 12768   0.880E-01    0.299E-01
RMM:   2    -0.112135264013E+04   -0.10827E-02   -0.15561E-02 12394   0.165E-01    0.204E-01
RMM:   3    -0.112135258637E+04    0.53758E-04   -0.95417E-04 12037   0.556E-02    0.108E-01
RMM:   4    -0.112135252806E+04    0.58305E-04   -0.24990E-04  7708   0.201E-02    0.760E-02
RMM:   5    -0.112135252537E+04    0.26931E-05   -0.80033E-05  7206   0.132E-02    0.558E-02
RMM:   6    -0.112135253214E+04   -0.67677E-05   -0.37612E-05  7081   0.907E-03    0.245E-02
RMM:   7    -0.112135253909E+04   -0.69514E-05   -0.21640E-05  7001   0.672E-03    0.138E-02
RMM:   8    -0.112135254375E+04   -0.46551E-05   -0.14678E-05  6758   0.542E-03
   7 F= -.11213525E+04 E0= -.11213525E+04  d E =-.177064E-02  mag=    40.0000
       N       E                     dE             d eps       ncg     rms          rms(c)
DAV:   1    -0.112135204858E+04    0.49051E-03   -0.64071E-01 12800   0.939E-01    0.251E-01
RMM:   2    -0.112135372181E+04   -0.16732E-02   -0.16327E-02 12385   0.168E-01    0.156E-01
RMM:   3    -0.112135378438E+04   -0.62576E-04   -0.90399E-04 11447   0.551E-02    0.878E-02
RMM:   4    -0.112135373465E+04    0.49726E-04   -0.18181E-04  7471   0.174E-02    0.510E-02
RMM:   5    -0.112135372453E+04    0.10125E-04   -0.69221E-05  7123   0.116E-02    0.351E-02
RMM:   6    -0.112135372633E+04   -0.18013E-05   -0.25810E-05  7057   0.801E-03    0.173E-02
RMM:   7    -0.112135372709E+04   -0.76360E-06   -0.14221E-05  6850   0.545E-03    0.122E-02
RMM:   8    -0.112135372705E+04    0.45635E-07   -0.83614E-06  6376   0.477E-03
   8 F= -.11213537E+04 E0= -.11213537E+04  d E =-.118330E-02  mag=    40.0000
       N       E                     dE             d eps       ncg     rms          rms(c)
DAV:   1    -0.112135271324E+04    0.10139E-02   -0.52288E-01 12592   0.848E-01    0.226E-01
RMM:   2    -0.112135408228E+04   -0.13690E-02   -0.13356E-02 12390   0.152E-01    0.141E-01
RMM:   3    -0.112135413268E+04   -0.50405E-04   -0.73823E-04 10978   0.503E-02    0.794E-02
RMM:   4    -0.112135409182E+04    0.40867E-04   -0.14782E-04  7288   0.160E-02    0.458E-02
RMM:   5    -0.112135408360E+04    0.82214E-05   -0.57718E-05  7118   0.105E-02    0.330E-02
RMM:   6    -0.112135408493E+04   -0.13295E-05   -0.22435E-05  7018   0.737E-03    0.158E-02
RMM:   7    -0.112135408561E+04   -0.68532E-06   -0.12302E-05  6790   0.498E-03    0.112E-02
RMM:   8    -0.112135408568E+04   -0.67274E-07   -0.71560E-06  5993   0.440E-03
   9 F= -.11213541E+04 E0= -.11213541E+04  d E =-.154193E-02  mag=    40.0000
       N       E                     dE             d eps       ncg     rms          rms(c)
DAV:   1    -0.112135367790E+04    0.40771E-03   -0.69393E-01 12520   0.973E-01    0.243E-01
RMM:   2    -0.112135522671E+04   -0.15488E-02   -0.18027E-02 12466   0.176E-01    0.163E-01
RMM:   3    -0.112135522430E+04    0.24156E-05   -0.10007E-03 11637   0.567E-02    0.101E-01
RMM:   4    -0.112135517672E+04    0.47574E-04   -0.17666E-04  7427   0.176E-02    0.645E-02
RMM:   5    -0.112135515741E+04    0.19310E-04   -0.84956E-05  7115   0.124E-02    0.310E-02
RMM:   6    -0.112135515908E+04   -0.16704E-05   -0.27603E-05  7024   0.829E-03    0.211E-02
RMM:   7    -0.112135515975E+04   -0.66098E-06   -0.15317E-05  6780   0.538E-03    0.112E-02
RMM:   8    -0.112135515919E+04    0.55251E-06   -0.86925E-06  6231   0.486E-03
  10 F= -.11213552E+04 E0= -.11213552E+04  d E =-.107351E-02  mag=    40.0000
