<?xml version="1.0" encoding="ISO-8859-1"?>
<modeling>
 <generator>
  <i name="program" type="string">vasp </i>
  <i name="version" type="string">5.4.1  </i>
  <i name="subversion" type="string">05Feb16 (build Jan 25 2017 20:16:33) complex                          parallel </i>
  <i name="platform" type="string">BWXE6 </i>
  <i name="date" type="string">2019 07 09 </i>
  <i name="time" type="string">01:07:14 </i>
 </generator>
 <incar>
  <i type="string" name="SYSTEM"> STF</i>
  <i type="string" name="PREC">normal</i>
  <i type="string" name="ALGO"> Fast</i>
  <i type="int" name="ISPIN">     2</i>
  <i type="int" name="NELM">    40</i>
  <i type="int" name="NELMIN">     8</i>
  <i type="int" name="IBRION">     2</i>
  <i name="EDIFF">      0.00010000</i>
  <i name="EDIFFG">     -0.03000000</i>
  <i type="int" name="NSW">    30</i>
  <i type="int" name="ISIF">     3</i>
  <i name="ENCUT">    520.00000000</i>
  <i type="int" name="NBANDS">   768</i>
  <v name="MAGMOM">      0.60000000      0.60000000      0.60000000      0.60000000      0.60000000      0.60000000      0.60000000      0.60000000      0.60000000      0.60000000      0.60000000      0.60000000      0.60000000      0.60000000      0.60000000      0.60000000      0.60000000      0.60000000      0.60000000      0.60000000
      0.60000000      0.60000000      0.60000000      0.60000000      0.60000000      0.60000000      0.60000000      0.60000000      0.60000000      0.60000000      0.60000000      0.60000000      0.60000000      0.60000000      0.60000000      0.60000000      0.60000000      0.60000000      0.60000000      0.60000000
      0.60000000      0.60000000      0.60000000      0.60000000      0.60000000      0.60000000      0.60000000      0.60000000      0.60000000      0.60000000      0.60000000      0.60000000      0.60000000      0.60000000      0.60000000      0.60000000      5.00000000      5.00000000      5.00000000      5.00000000
      5.00000000      5.00000000      5.00000000      5.00000000      0.60000000      0.60000000      0.60000000      0.60000000      0.60000000      0.60000000      0.60000000      0.60000000      0.60000000      0.60000000      0.60000000      0.60000000      0.60000000      0.60000000      0.60000000      0.60000000
      0.60000000      0.60000000      0.60000000      0.60000000      0.60000000      0.60000000      0.60000000      0.60000000      0.60000000      0.60000000      0.60000000      0.60000000      0.60000000      0.60000000      0.60000000      0.60000000      0.60000000      0.60000000      0.60000000      0.60000000
      0.60000000      0.60000000      0.60000000      0.60000000      0.60000000      0.60000000      0.60000000      0.60000000      0.60000000      0.60000000      0.60000000      0.60000000      0.60000000      0.60000000      0.60000000      0.60000000      0.60000000      0.60000000      0.60000000      0.60000000
      0.60000000      0.60000000      0.60000000      0.60000000      0.60000000      0.60000000      0.60000000      0.60000000      0.60000000      0.60000000      0.60000000      0.60000000      0.60000000      0.60000000      0.60000000      0.60000000      0.60000000      0.60000000      0.60000000      0.60000000
      0.60000000      0.60000000      0.60000000      0.60000000      0.60000000      0.60000000      0.60000000      0.60000000      0.60000000      0.60000000      0.60000000      0.60000000      0.60000000      0.60000000      0.60000000      0.60000000</v>
  <i type="string" name="LREAL"> Auto</i>
  <i type="int" name="ISMEAR">     0</i>
  <i name="SIGMA">      0.05000000</i>
  <i type="int" name="LMAXMIX">     4</i>
  <v type="int" name="KPOINT_BSE">    -1     0     0     0</v>
  <i type="int" name="NELM">    40</i>
  <i type="logical" name="LDAU"> T  </i>
  <v type="int" name="LDAUTYPE">     2</v>
  <v type="int" name="LDAUL">     0     2     2     0</v>
  <v name="LDAUU">      0.00000000      3.00000000      5.00000000      0.00000000</v>
  <v name="LDAUJ">      0.00000000      0.00000000      0.00000000      0.00000000</v>
  <i type="int" name="LDAUPRINT">     1</i>
 </incar>
 <kpoints>
  <generation param="Monkhorst-Pack">
   <v type="int" name="divisions">       2        2        2 </v>
   <v name="usershift">      0.00000000       0.00000000       0.00000000 </v>
   <v name="genvec1">      0.50000000      -0.00000000       0.00000000 </v>
   <v name="genvec2">     -0.00000000       0.50000000       0.00000000 </v>
   <v name="genvec3">      0.00000000      -0.00000000       0.50000000 </v>
   <v name="shift">      0.50000000       0.50000000       0.50000000 </v>
  </generation>
  <varray name="kpointlist" >
   <v>       0.25000000       0.25000000       0.25000000 </v>
   <v>      -0.25000000       0.25000000       0.25000000 </v>
   <v>       0.25000000      -0.25000000       0.25000000 </v>
   <v>      -0.25000000      -0.25000000       0.25000000 </v>
  </varray>
  <varray name="weights" >
   <v>       0.25000000 </v>
   <v>       0.25000000 </v>
   <v>       0.25000000 </v>
   <v>       0.25000000 </v>
  </varray>
 </kpoints>
 <parameters>
  <separator name="general" >
   <i type="string" name="SYSTEM">STF</i>
   <i type="logical" name="LCOMPAT"> F  </i>
  </separator>
  <separator name="electronic" >
   <i type="string" name="PREC">normal</i>
   <i name="ENMAX">    520.00000000</i>
   <i name="ENAUG">    605.39200000</i>
   <i name="EDIFF">      0.00010000</i>
   <i type="int" name="IALGO">    68</i>
   <i type="int" name="IWAVPR">    11</i>
   <i type="int" name="NBANDS">   768</i>
   <i name="NELECT">   1032.00000000</i>
   <i type="int" name="TURBO">     0</i>
   <i type="int" name="IRESTART">     0</i>
   <i type="int" name="NREBOOT">     0</i>
   <i type="int" name="NMIN">     0</i>
   <i name="EREF">      0.00000000</i>
   <separator name="electronic smearing" >
    <i type="int" name="ISMEAR">     0</i>
    <i name="SIGMA">      0.05000000</i>
    <i name="KSPACING">      0.50000000</i>
    <i type="logical" name="KGAMMA"> T  </i>
   </separator>
   <separator name="electronic projectors" >
    <i type="logical" name="LREAL"> T  </i>
    <v name="ROPT">     -0.00050000     -0.00050000     -0.00050000     -0.00050000</v>
    <i type="int" name="LMAXPAW">  -100</i>
    <i type="int" name="LMAXMIX">     4</i>
    <i type="logical" name="NLSPLINE"> F  </i>
   </separator>
   <separator name="electronic startup" >
    <i type="int" name="ISTART">     1</i>
    <i type="int" name="ICHARG">     0</i>
    <i type="int" name="INIWAV">     1</i>
   </separator>
   <separator name="electronic spin" >
    <i type="int" name="ISPIN">     2</i>
    <i type="logical" name="LNONCOLLINEAR"> F  </i>
    <v name="MAGMOM">      0.60000000      0.60000000      0.60000000      0.60000000      0.60000000      0.60000000      0.60000000      0.60000000      0.60000000      0.60000000      0.60000000      0.60000000      0.60000000      0.60000000      0.60000000      0.60000000      0.60000000      0.60000000      0.60000000      0.60000000
      0.60000000      0.60000000      0.60000000      0.60000000      0.60000000      0.60000000      0.60000000      0.60000000      0.60000000      0.60000000      0.60000000      0.60000000      0.60000000      0.60000000      0.60000000      0.60000000      0.60000000      0.60000000      0.60000000      0.60000000
      0.60000000      0.60000000      0.60000000      0.60000000      0.60000000      0.60000000      0.60000000      0.60000000      0.60000000      0.60000000      0.60000000      0.60000000      0.60000000      0.60000000      0.60000000      0.60000000      5.00000000      5.00000000      5.00000000      5.00000000
      5.00000000      5.00000000      5.00000000      5.00000000      0.60000000      0.60000000      0.60000000      0.60000000      0.60000000      0.60000000      0.60000000      0.60000000      0.60000000      0.60000000      0.60000000      0.60000000      0.60000000      0.60000000      0.60000000      0.60000000
      0.60000000      0.60000000      0.60000000      0.60000000      0.60000000      0.60000000      0.60000000      0.60000000      0.60000000      0.60000000      0.60000000      0.60000000      0.60000000      0.60000000      0.60000000      0.60000000      0.60000000      0.60000000      0.60000000      0.60000000
      0.60000000      0.60000000      0.60000000      0.60000000      0.60000000      0.60000000      0.60000000      0.60000000      0.60000000      0.60000000      0.60000000      0.60000000      0.60000000      0.60000000      0.60000000      0.60000000      0.60000000      0.60000000      0.60000000      0.60000000
      0.60000000      0.60000000      0.60000000      0.60000000      0.60000000      0.60000000      0.60000000      0.60000000      0.60000000      0.60000000      0.60000000      0.60000000      0.60000000      0.60000000      0.60000000      0.60000000      0.60000000      0.60000000      0.60000000      0.60000000
      0.60000000      0.60000000      0.60000000      0.60000000      0.60000000      0.60000000      0.60000000      0.60000000      0.60000000      0.60000000      0.60000000      0.60000000      0.60000000      0.60000000      0.60000000      0.60000000</v>
    <i name="NUPDOWN">     -1.00000000</i>
    <i type="logical" name="LSORBIT"> F  </i>
    <v name="SAXIS">      0.00000000      0.00000000      1.00000000</v>
    <i type="logical" name="LSPIRAL"> F  </i>
    <v name="QSPIRAL">      0.00000000      0.00000000      0.00000000</v>
    <i type="logical" name="LZEROZ"> F  </i>
   </separator>
   <separator name="electronic exchange-correlation" >
    <i type="logical" name="LASPH"> F  </i>
    <i type="logical" name="LMETAGGA"> F  </i>
   </separator>
   <separator name="electronic convergence" >
    <i type="int" name="NELM">    40</i>
    <i type="int" name="NELMDL">     0</i>
    <i type="int" name="NELMIN">     8</i>
    <i name="ENINI">    520.00000000</i>
    <separator name="electronic convergence detail" >
     <i type="logical" name="LDIAG"> T  </i>
     <i type="logical" name="LSUBROT"> F  </i>
     <i name="WEIMIN">      0.00100000</i>
     <i name="EBREAK">      0.00000003</i>
     <i name="DEPER">      0.30000000</i>
     <i type="int" name="NRMM">     4</i>
     <i name="TIME">      0.40000000</i>
    </separator>
   </separator>
   <separator name="electronic mixer" >
    <i name="AMIX">      0.40000000</i>
    <i name="BMIX">      1.00000000</i>
    <i name="AMIN">      0.10000000</i>
    <i name="AMIX_MAG">      1.60000000</i>
    <i name="BMIX_MAG">      1.00000000</i>
    <separator name="electronic mixer details" >
     <i type="int" name="IMIX">     4</i>
     <i type="logical" name="MIXFIRST"> F  </i>
     <i type="int" name="MAXMIX">   -45</i>
     <i name="WC">    100.00000000</i>
     <i type="int" name="INIMIX">     1</i>
     <i type="int" name="MIXPRE">     1</i>
     <i type="int" name="MREMOVE">     5</i>
    </separator>
   </separator>
   <separator name="electronic dipolcorrection" >
    <i type="logical" name="LDIPOL"> F  </i>
    <i type="logical" name="LMONO"> F  </i>
    <i type="int" name="IDIPOL">     0</i>
    <i name="EPSILON">      1.00000000</i>
    <v name="DIPOL">   -100.00000000   -100.00000000   -100.00000000</v>
    <i name="EFIELD">      0.00000000</i>
   </separator>
  </separator>
  <separator name="grids" >
   <i type="int" name="NGX">    64</i>
   <i type="int" name="NGY">    64</i>
   <i type="int" name="NGZ">    90</i>
   <i type="int" name="NGXF">   128</i>
   <i type="int" name="NGYF">   128</i>
   <i type="int" name="NGZF">   180</i>
   <i type="logical" name="ADDGRID"> F  </i>
  </separator>
  <separator name="ionic" >
   <i type="int" name="NSW">    30</i>
   <i type="int" name="IBRION">     2</i>
   <i type="int" name="ISIF">     3</i>
   <i name="PSTRESS">      0.00000000</i>
   <i name="EDIFFG">     -0.03000000</i>
   <i type="int" name="NFREE">     1</i>
   <i name="POTIM">      0.50000000</i>
   <i name="SMASS">     -3.00000000</i>
   <i name="SCALEE">      1.00000000</i>
  </separator>
  <separator name="ionic md" >
   <i name="TEBEG">      0.00010000</i>
   <i name="TEEND">      0.00010000</i>
   <i type="int" name="NBLOCK">     1</i>
   <i type="int" name="KBLOCK">    30</i>
   <i type="int" name="NPACO">   256</i>
   <i name="APACO">     16.00000000</i>
  </separator>
  <separator name="symmetry" >
   <i type="int" name="ISYM">     2</i>
   <i name="SYMPREC">      0.00001000</i>
  </separator>
  <separator name="dos" >
   <i type="logical" name="LORBIT"> F  </i>
   <v name="RWIGS">     -1.00000000     -1.00000000     -1.00000000     -1.00000000</v>
   <i type="int" name="NEDOS">   301</i>
   <i name="EMIN">     10.00000000</i>
   <i name="EMAX">    -10.00000000</i>
   <i name="EFERMI">      0.00000000</i>
  </separator>
  <separator name="writing" >
   <i type="int" name="NWRITE">     2</i>
   <i type="logical" name="LWAVE"> T  </i>
   <i type="logical" name="LCHARG"> T  </i>
   <i type="logical" name="LPARD"> F  </i>
   <i type="logical" name="LVTOT"> F  </i>
   <i type="logical" name="LVHAR"> F  </i>
   <i type="logical" name="LELF"> F  </i>
   <i type="logical" name="LOPTICS"> F  </i>
   <v name="STM">      0.00000000      0.00000000      0.00000000      0.00000000      0.00000000      0.00000000      0.00000000</v>
  </separator>
  <separator name="performance" >
   <i type="int" name="NPAR">     2</i>
   <i type="int" name="NSIM">     4</i>
   <i type="int" name="NBLK">    -1</i>
   <i type="logical" name="LPLANE"> T  </i>
   <i type="logical" name="LSCALAPACK"> T  </i>
   <i type="logical" name="LSCAAWARE"> F  </i>
   <i type="logical" name="LSCALU"> F  </i>
   <i type="logical" name="LASYNC"> F  </i>
   <i type="logical" name="LORBITALREAL"> F  </i>
  </separator>
  <separator name="miscellaneous" >
   <i type="int" name="IDIOT">     3</i>
   <i type="logical" name="LMUSIC"> F  </i>
   <v name="POMASS">     87.62000000     47.88000000     55.84700000     16.00000000</v>
   <v name="DARWINR">      0.00000000      0.00000000      0.00000000      0.00000000</v>
   <v name="DARWINV">      1.00000000      1.00000000      1.00000000      1.00000000</v>
   <i type="logical" name="LCORR"> T  </i>
  </separator>
  <i type="logical" name="GGA_COMPAT"> T  </i>
  <i type="logical" name="LBERRY"> F  </i>
  <i type="int" name="ICORELEVEL">     0</i>
  <i type="logical" name="LDAU"> T  </i>
  <v type="int" name="LDAUTYPE">     2</v>
  <v type="int" name="LDAUL">     0</v>
  <v name="LDAUU">      0.00000000</v>
  <v name="LDAUJ">      0.00000000</v>
  <i type="int" name="LDAUPRINT">     1</i>
  <i type="int" name="I_CONSTRAINED_M">     0</i>
  <separator name="electronic exchange-correlation" >
   <i type="string" name="GGA">--</i>
   <i type="int" name="VOSKOWN">     0</i>
   <i type="logical" name="LHFCALC"> F  </i>
   <i type="string" name="PRECFOCK"></i>
   <i type="logical" name="LSYMGRAD"> F  </i>
   <i type="logical" name="LHFONE"> F  </i>
   <i type="logical" name="LRHFCALC"> F  </i>
   <i type="logical" name="LTHOMAS"> F  </i>
   <i type="logical" name="LMODELHF"> F  </i>
   <i name="ENCUT4O">     -1.00000000</i>
   <i type="int" name="EXXOEP">     0</i>
   <i type="int" name="FOURORBIT">     0</i>
   <i name="AEXX">      0.00000000</i>
   <i name="HFALPHA">      0.00000000</i>
   <i name="MCALPHA">      0.00000000</i>
   <i name="ALDAX">      1.00000000</i>
   <i name="AGGAX">      1.00000000</i>
   <i name="ALDAC">      1.00000000</i>
   <i name="AGGAC">      1.00000000</i>
   <i type="int" name="NKREDX">     1</i>
   <i type="int" name="NKREDY">     1</i>
   <i type="int" name="NKREDZ">     1</i>
   <i type="logical" name="SHIFTRED"> F  </i>
   <i type="logical" name="ODDONLY"> F  </i>
   <i type="logical" name="EVENONLY"> F  </i>
   <i type="int" name="LMAXFOCK">     0</i>
   <i type="int" name="NMAXFOCKAE">     0</i>
   <i type="logical" name="LFOCKAEDFT"> F  </i>
   <i name="HFSCREEN">      0.00000000</i>
   <i name="HFSCREENC">      0.00000000</i>
   <i type="int" name="NBANDSGWLOW">     0</i>
  </separator>
  <separator name="vdW DFT" >
   <i type="logical" name="LUSE_VDW"> F  </i>
   <i name="Zab_VDW">     -0.84910000</i>
   <i name="PARAM1">      0.12340000</i>
   <i name="PARAM2">      1.00000000</i>
   <i name="PARAM3">      0.00000000</i>
  </separator>
  <separator name="model GW" >
   <i type="int" name="MODEL_GW">     0</i>
   <i name="MODEL_EPS0">      7.70143861</i>
   <i name="MODEL_ALPHA">      1.00000000</i>
  </separator>
  <separator name="linear response parameters" >
   <i type="logical" name="LEPSILON"> F  </i>
   <i type="logical" name="LRPA"> F  </i>
   <i type="logical" name="LNABLA"> F  </i>
   <i type="logical" name="LVEL"> F  </i>
   <i type="int" name="KINTER">     0</i>
   <i name="CSHIFT">      0.10000000</i>
   <i name="OMEGAMAX">     -1.00000000</i>
   <i name="DEG_THRESHOLD">      0.00200000</i>
  </separator>
  <separator name="orbital magnetization" >
   <i type="logical" name="NUCIND"> F  </i>
   <v name="MAGPOS">      0.00000000      0.00000000      0.00000000</v>
   <i type="logical" name="LNICSALL"> T  </i>
   <i type="logical" name="ORBITALMAG"> F  </i>
   <i type="logical" name="LMAGBLOCH"> F  </i>
   <i type="logical" name="LCHIMAG"> F  </i>
   <i type="logical" name="LGAUGE"> T  </i>
   <i type="int" name="MAGATOM">     0</i>
   <v name="MAGDIPOL">      0.00000000      0.00000000      0.00000000</v>
   <v name="AVECCONST">      0.00000000      0.00000000      0.00000000</v>
  </separator>
  <separator name="response functions" >
   <i type="logical" name="LADDER"> F  </i>
   <i type="logical" name="LFXC"> F  </i>
   <i type="logical" name="LHARTREE"> T  </i>
   <i type="int" name="IBSE">     0</i>
   <v type="int" name="KPOINT">    -1     0     0     0</v>
   <i type="logical" name="LTCTE"> F  </i>
   <i type="logical" name="LTETE"> F  </i>
   <i type="logical" name="LTRIPLET"> F  </i>
   <i type="logical" name="LFXCEPS"> F  </i>
   <i type="logical" name="LFXHEG"> F  </i>
   <i type="int" name="NATURALO">     0</i>
   <i type="logical" name="L2ORDER"> F  </i>
   <i type="logical" name="LUSEW"> F  </i>
   <i name="ENCUTGW">     -2.00000000</i>
   <i name="ENCUTGWSOFT">     -2.00000000</i>
   <i name="ENCUTLF">     -1.00000000</i>
   <i type="int" name="LMAXMP2">    -1</i>
   <i name="SCISSOR">      0.00000000</i>
   <i type="int" name="NOMEGA">     0</i>
   <i type="int" name="NOMEGAR">     0</i>
   <i type="int" name="NBANDSGW">    -1</i>
   <i type="int" name="NBANDSO">    -1</i>
   <i type="int" name="NBANDSV">    -1</i>
   <i type="int" name="NELM">    40</i>
   <i type="int" name="NELMHF">     1</i>
   <i type="int" name="DIM">     3</i>
   <i type="int" name="ANTIRES">     0</i>
   <i name="OMEGAMAX">    -30.00000000</i>
   <i name="OMEGAMIN">    -30.00000000</i>
   <i name="OMEGATL">   -200.00000000</i>
   <i type="int" name="OMEGAGRID">     0</i>
   <i name="CSHIFT">     -0.10000000</i>
   <i type="logical" name="SELFENERGY"> F  </i>
   <i type="logical" name="LSPECTRAL"> F  </i>
   <i type="logical" name="LSPECTRALGW"> F  </i>
   <i type="logical" name="LSINGLES"> F  </i>
   <i type="logical" name="LFERMIGW"> F  </i>
   <i type="logical" name="ODDONLYGW"> F  </i>
   <i type="logical" name="EVENONLYGW"> F  </i>
   <i type="int" name="NKREDLFX">     1</i>
   <i type="int" name="NKREDLFY">     1</i>
   <i type="int" name="NKREDLFZ">     1</i>
   <i type="int" name="MAXMEM">  1800</i>
   <i type="int" name="TELESCOPE">     0</i>
   <i type="int" name="TAUPAR">     1</i>
   <i type="int" name="OMEGAPAR">    -1</i>
   <i name="LAMBDA">      1.00000000</i>
  </separator>
  <separator name="External order field" >
   <i name="OFIELD_KAPPA">      0.00000000</i>
   <v name="OFIELD_K">      0.00000000      0.00000000      0.00000000</v>
   <i name="OFIELD_Q6_NEAR">      0.00000000</i>
   <i name="OFIELD_Q6_FAR">      0.00000000</i>
   <i name="OFIELD_A">      0.00000000</i>
  </separator>
 </parameters>
 <atominfo>
  <atoms>     156 </atoms>
  <types>       4 </types>
  <array name="atoms" >
   <dimension dim="1">ion</dimension>
   <field type="string">element</field>
   <field type="int">atomtype</field>
   <set>
    <rc><c>Sr</c><c>   1</c></rc>
    <rc><c>Sr</c><c>   1</c></rc>
    <rc><c>Sr</c><c>   1</c></rc>
    <rc><c>Sr</c><c>   1</c></rc>
    <rc><c>Sr</c><c>   1</c></rc>
    <rc><c>Sr</c><c>   1</c></rc>
    <rc><c>Sr</c><c>   1</c></rc>
    <rc><c>Sr</c><c>   1</c></rc>
    <rc><c>Sr</c><c>   1</c></rc>
    <rc><c>Sr</c><c>   1</c></rc>
    <rc><c>Sr</c><c>   1</c></rc>
    <rc><c>Sr</c><c>   1</c></rc>
    <rc><c>Sr</c><c>   1</c></rc>
    <rc><c>Sr</c><c>   1</c></rc>
    <rc><c>Sr</c><c>   1</c></rc>
    <rc><c>Sr</c><c>   1</c></rc>
    <rc><c>Sr</c><c>   1</c></rc>
    <rc><c>Sr</c><c>   1</c></rc>
    <rc><c>Sr</c><c>   1</c></rc>
    <rc><c>Sr</c><c>   1</c></rc>
    <rc><c>Sr</c><c>   1</c></rc>
    <rc><c>Sr</c><c>   1</c></rc>
    <rc><c>Sr</c><c>   1</c></rc>
    <rc><c>Sr</c><c>   1</c></rc>
    <rc><c>Sr</c><c>   1</c></rc>
    <rc><c>Sr</c><c>   1</c></rc>
    <rc><c>Sr</c><c>   1</c></rc>
    <rc><c>Sr</c><c>   1</c></rc>
    <rc><c>Sr</c><c>   1</c></rc>
    <rc><c>Sr</c><c>   1</c></rc>
    <rc><c>Sr</c><c>   1</c></rc>
    <rc><c>Sr</c><c>   1</c></rc>
    <rc><c>Ti</c><c>   2</c></rc>
    <rc><c>Ti</c><c>   2</c></rc>
    <rc><c>Ti</c><c>   2</c></rc>
    <rc><c>Ti</c><c>   2</c></rc>
    <rc><c>Ti</c><c>   2</c></rc>
    <rc><c>Ti</c><c>   2</c></rc>
    <rc><c>Ti</c><c>   2</c></rc>
    <rc><c>Ti</c><c>   2</c></rc>
    <rc><c>Ti</c><c>   2</c></rc>
    <rc><c>Ti</c><c>   2</c></rc>
    <rc><c>Ti</c><c>   2</c></rc>
    <rc><c>Ti</c><c>   2</c></rc>
    <rc><c>Ti</c><c>   2</c></rc>
    <rc><c>Ti</c><c>   2</c></rc>
    <rc><c>Ti</c><c>   2</c></rc>
    <rc><c>Ti</c><c>   2</c></rc>
    <rc><c>Ti</c><c>   2</c></rc>
    <rc><c>Ti</c><c>   2</c></rc>
    <rc><c>Ti</c><c>   2</c></rc>
    <rc><c>Ti</c><c>   2</c></rc>
    <rc><c>Ti</c><c>   2</c></rc>
    <rc><c>Ti</c><c>   2</c></rc>
    <rc><c>Ti</c><c>   2</c></rc>
    <rc><c>Ti</c><c>   2</c></rc>
    <rc><c>Fe</c><c>   3</c></rc>
    <rc><c>Fe</c><c>   3</c></rc>
    <rc><c>Fe</c><c>   3</c></rc>
    <rc><c>Fe</c><c>   3</c></rc>
    <rc><c>Fe</c><c>   3</c></rc>
    <rc><c>Fe</c><c>   3</c></rc>
    <rc><c>Fe</c><c>   3</c></rc>
    <rc><c>Fe</c><c>   3</c></rc>
    <rc><c>O </c><c>   4</c></rc>
    <rc><c>O </c><c>   4</c></rc>
    <rc><c>O </c><c>   4</c></rc>
    <rc><c>O </c><c>   4</c></rc>
    <rc><c>O </c><c>   4</c></rc>
    <rc><c>O </c><c>   4</c></rc>
    <rc><c>O </c><c>   4</c></rc>
    <rc><c>O </c><c>   4</c></rc>
    <rc><c>O </c><c>   4</c></rc>
    <rc><c>O </c><c>   4</c></rc>
    <rc><c>O </c><c>   4</c></rc>
    <rc><c>O </c><c>   4</c></rc>
    <rc><c>O </c><c>   4</c></rc>
    <rc><c>O </c><c>   4</c></rc>
    <rc><c>O </c><c>   4</c></rc>
    <rc><c>O </c><c>   4</c></rc>
    <rc><c>O </c><c>   4</c></rc>
    <rc><c>O </c><c>   4</c></rc>
    <rc><c>O </c><c>   4</c></rc>
    <rc><c>O </c><c>   4</c></rc>
    <rc><c>O </c><c>   4</c></rc>
    <rc><c>O </c><c>   4</c></rc>
    <rc><c>O </c><c>   4</c></rc>
    <rc><c>O </c><c>   4</c></rc>
    <rc><c>O </c><c>   4</c></rc>
    <rc><c>O </c><c>   4</c></rc>
    <rc><c>O </c><c>   4</c></rc>
    <rc><c>O </c><c>   4</c></rc>
    <rc><c>O </c><c>   4</c></rc>
    <rc><c>O </c><c>   4</c></rc>
    <rc><c>O </c><c>   4</c></rc>
    <rc><c>O </c><c>   4</c></rc>
    <rc><c>O </c><c>   4</c></rc>
    <rc><c>O </c><c>   4</c></rc>
    <rc><c>O </c><c>   4</c></rc>
    <rc><c>O </c><c>   4</c></rc>
    <rc><c>O </c><c>   4</c></rc>
    <rc><c>O </c><c>   4</c></rc>
    <rc><c>O </c><c>   4</c></rc>
    <rc><c>O </c><c>   4</c></rc>
    <rc><c>O </c><c>   4</c></rc>
    <rc><c>O </c><c>   4</c></rc>
    <rc><c>O </c><c>   4</c></rc>
    <rc><c>O </c><c>   4</c></rc>
    <rc><c>O </c><c>   4</c></rc>
    <rc><c>O </c><c>   4</c></rc>
    <rc><c>O </c><c>   4</c></rc>
    <rc><c>O </c><c>   4</c></rc>
    <rc><c>O </c><c>   4</c></rc>
    <rc><c>O </c><c>   4</c></rc>
    <rc><c>O </c><c>   4</c></rc>
    <rc><c>O </c><c>   4</c></rc>
    <rc><c>O </c><c>   4</c></rc>
    <rc><c>O </c><c>   4</c></rc>
    <rc><c>O </c><c>   4</c></rc>
    <rc><c>O </c><c>   4</c></rc>
    <rc><c>O </c><c>   4</c></rc>
    <rc><c>O </c><c>   4</c></rc>
    <rc><c>O </c><c>   4</c></rc>
    <rc><c>O </c><c>   4</c></rc>
    <rc><c>O </c><c>   4</c></rc>
    <rc><c>O </c><c>   4</c></rc>
    <rc><c>O </c><c>   4</c></rc>
    <rc><c>O </c><c>   4</c></rc>
    <rc><c>O </c><c>   4</c></rc>
    <rc><c>O </c><c>   4</c></rc>
    <rc><c>O </c><c>   4</c></rc>
    <rc><c>O </c><c>   4</c></rc>
    <rc><c>O </c><c>   4</c></rc>
    <rc><c>O </c><c>   4</c></rc>
    <rc><c>O </c><c>   4</c></rc>
    <rc><c>O </c><c>   4</c></rc>
    <rc><c>O </c><c>   4</c></rc>
    <rc><c>O </c><c>   4</c></rc>
    <rc><c>O </c><c>   4</c></rc>
    <rc><c>O </c><c>   4</c></rc>
    <rc><c>O </c><c>   4</c></rc>
    <rc><c>O </c><c>   4</c></rc>
    <rc><c>O </c><c>   4</c></rc>
    <rc><c>O </c><c>   4</c></rc>
    <rc><c>O </c><c>   4</c></rc>
    <rc><c>O </c><c>   4</c></rc>
    <rc><c>O </c><c>   4</c></rc>
    <rc><c>O </c><c>   4</c></rc>
    <rc><c>O </c><c>   4</c></rc>
    <rc><c>O </c><c>   4</c></rc>
    <rc><c>O </c><c>   4</c></rc>
    <rc><c>O </c><c>   4</c></rc>
    <rc><c>O </c><c>   4</c></rc>
    <rc><c>O </c><c>   4</c></rc>
    <rc><c>O </c><c>   4</c></rc>
    <rc><c>O </c><c>   4</c></rc>
   </set>
  </array>
  <array name="atomtypes" >
   <dimension dim="1">type</dimension>
   <field type="int">atomspertype</field>
   <field type="string">element</field>
   <field>mass</field>
   <field>valence</field>
   <field type="string">pseudopotential</field>
   <set>
    <rc><c>  32</c><c>Sr</c><c>     87.62000000</c><c>     10.00000000</c><c>  PAW_PBE Sr_sv 07Sep2000               </c></rc>
    <rc><c>  24</c><c>Ti</c><c>     47.88000000</c><c>      4.00000000</c><c>  PAW_PBE Ti 08Apr2002                  </c></rc>
    <rc><c>   8</c><c>Fe</c><c>     55.84700000</c><c>      8.00000000</c><c>  PAW_PBE Fe 06Sep2000                  </c></rc>
    <rc><c>  92</c><c>O </c><c>     16.00000000</c><c>      6.00000000</c><c>  PAW_PBE O 08Apr2002                   </c></rc>
   </set>
  </array>
 </atominfo>
 <structure name="initialpos" >
  <crystal>
   <varray name="basis" >
    <v>      11.19037621       0.03890162      -0.00344676 </v>
    <v>       0.03894169      11.20490418       0.00374869 </v>
    <v>      -0.00494775       0.00544132      15.96973501 </v>
   </varray>
   <i name="volume">   2002.37403844 </i>
   <varray name="rec_basis" >
    <v>       0.08936359      -0.00031058       0.00002779 </v>
    <v>      -0.00031027       0.08924772      -0.00003051 </v>
    <v>       0.00001936      -0.00002102       0.06261846 </v>
   </varray>
  </crystal>
  <varray name="positions" >
   <v>       0.99735940       0.24818867       0.12618806 </v>
   <v>       0.99177922       0.24513023       0.62308246 </v>
   <v>       0.00060375       0.75155682       0.12704967 </v>
   <v>       0.99878366       0.75464574       0.62145851 </v>
   <v>       0.50249838       0.25222842       0.12293612 </v>
   <v>       0.50706014       0.25309304       0.62719676 </v>
   <v>       0.49901484       0.74729744       0.12378395 </v>
   <v>       0.50343366       0.74629570       0.62638300 </v>
   <v>       0.98435748       0.24832650       0.36786746 </v>
   <v>       0.99715197       0.24290523       0.87946721 </v>
   <v>       0.00178347       0.74886085       0.37315297 </v>
   <v>       0.99747135       0.76304680       0.88007179 </v>
   <v>       0.50796852       0.24754826       0.37214304 </v>
   <v>       0.50094890       0.25205919       0.87849501 </v>
   <v>       0.50029031       0.74835712       0.37222661 </v>
   <v>       0.50256379       0.74935736       0.87892575 </v>
   <v>       0.24939625       0.99844318       0.12295033 </v>
   <v>       0.25121634       0.99535426       0.62854149 </v>
   <v>       0.25264060       0.50181133       0.12381194 </v>
   <v>       0.25822078       0.50486977       0.62691754 </v>
   <v>       0.75098516       0.00270256       0.12621605 </v>
   <v>       0.74656634       0.00370430       0.62361700 </v>
   <v>       0.74750162       0.49777158       0.12706388 </v>
   <v>       0.74293986       0.49690696       0.62280324 </v>
   <v>       0.25252865       0.98695320       0.36992821 </v>
   <v>       0.24821653       0.00113915       0.87684703 </v>
   <v>       0.25284803       0.50709477       0.37053279 </v>
   <v>       0.26564252       0.50167350       0.88213254 </v>
   <v>       0.74743621       0.00064264       0.37107425 </v>
   <v>       0.74970969       0.00164288       0.87777339 </v>
   <v>       0.74905110       0.49794081       0.37150499 </v>
   <v>       0.74203148       0.50245174       0.87785696 </v>
   <v>       0.49961600       0.49620602       0.24939671 </v>
   <v>       0.49831932       0.00240016       0.24885817 </v>
   <v>       0.50129574       0.50208310       0.49878152 </v>
   <v>       0.75335013       0.75385900       0.75028290 </v>
   <v>       0.75083280       0.74588380       0.50017301 </v>
   <v>       0.74870426       0.24791690       0.75121848 </v>
   <v>       0.50009289       0.50061034       0.75180075 </v>
   <v>       0.75047367       0.74975613       0.24962065 </v>
   <v>       0.99987719       0.00112492       0.00192382 </v>
   <v>       0.75168068       0.74759984       0.00114183 </v>
   <v>       0.24923334       0.25414805       0.99865712 </v>
   <v>       0.49664987       0.99614100       0.49971710 </v>
   <v>       0.24830778       0.74623361       0.99689033 </v>
   <v>       0.24810007       0.25355720       0.75393650 </v>
   <v>       0.00189993       0.49644280       0.49606350 </v>
   <v>       0.25012281       0.74887508       0.24807618 </v>
   <v>       0.75038400       0.25379398       0.00060329 </v>
   <v>       0.00169222       0.00376639       0.25310967 </v>
   <v>       0.49952633       0.00024387       0.00037935 </v>
   <v>       0.00227211       0.00178000       0.74808700 </v>
   <v>       0.24772789       0.74822000       0.50191300 </v>
   <v>       0.74990711       0.24938966       0.49819925 </v>
   <v>       0.49916720       0.00411620       0.74982699 </v>
   <v>       0.00076666       0.49585195       0.25134288 </v>
   <v>       0.24962417       0.25047337       0.23993572 </v>
   <v>       0.25662945       0.26635029       0.51229885 </v>
   <v>       0.00037583       0.49952663       0.01006428 </v>
   <v>       0.74875276       0.25021572       0.24811355 </v>
   <v>       0.99337055       0.48364971       0.73770115 </v>
   <v>       0.26340682       0.75995352       0.75037161 </v>
   <v>       0.98659318       0.99004648       0.49962839 </v>
   <v>       0.50124724       0.49978428       0.00188645 </v>
   <v>       0.11568984       0.13970533       0.25731336 </v>
   <v>       0.10734110       0.14633827       0.75473781 </v>
   <v>       0.11284487       0.63755918       0.25231826 </v>
   <v>       0.88840948       0.13863513       0.49978111 </v>
   <v>       0.61079224       0.13504171       0.24813361 </v>
   <v>       0.60829314       0.13956808       0.74872731 </v>
   <v>       0.23823859       0.74329689       0.87053409 </v>
   <v>       0.49070181       0.00020958       0.12499490 </v>
   <v>       0.38418560       0.36110963       0.26177395 </v>
   <v>       0.38847851       0.36078411       0.74695982 </v>
   <v>       0.38665051       0.86158359       0.24949242 </v>
   <v>       0.24828589       0.74597277       0.12322651 </v>
   <v>       0.88814677       0.35769515       0.75453439 </v>
   <v>       0.88945613       0.86386590       0.25563410 </v>
   <v>       0.88937697       0.86549787       0.74270210 </v>
   <v>       0.36072428       0.11418747       0.25883867 </v>
   <v>       0.50241764       0.49880258       0.87355192 </v>
   <v>       0.36207262       0.61280606       0.24973755 </v>
   <v>       0.62309087       0.63357968       0.75164390 </v>
   <v>       0.36054387       0.88613410       0.99436590 </v>
   <v>       0.85920446       0.10889332       0.74718929 </v>
   <v>       0.75929819       0.74979042       0.12500510 </v>
   <v>       0.75874642       0.73453168       0.62748666 </v>
   <v>       0.13900602       0.38538919       0.26101318 </v>
   <v>       0.14064311       0.41148379       0.76697259 </v>
   <v>       0.13813626       0.88671744       0.24781228 </v>
   <v>       0.13609795       0.88593325       0.74923296 </v>
   <v>       0.86291833       0.61336145       0.25081137 </v>
   <v>       0.63859636       0.38660684       0.74802459 </v>
   <v>       0.63836312       0.88772510       0.24718956 </v>
   <v>       0.64016151       0.88831490       0.74164405 </v>
   <v>       0.49546288       0.49549824       0.12742980 </v>
   <v>       0.61315773       0.63851316       0.24768120 </v>
   <v>       0.36062303       0.88450213       0.50729790 </v>
   <v>       0.86581440       0.38889037       0.98822605 </v>
   <v>       0.86152149       0.38921589       0.50304018 </v>
   <v>       0.86334949       0.88841641       0.00050758 </v>
   <v>       0.85564887       0.88640925       0.50434829 </v>
   <v>       0.13715513       0.11244082       0.99768174 </v>
   <v>       0.36159052       0.61136487       0.75021889 </v>
   <v>       0.34785690       0.13163114       0.48160753 </v>
   <v>       0.14265890       0.60366173       0.49526219 </v>
   <v>       0.63684227       0.11148684       0.00231880 </v>
   <v>       0.36276973       0.38527201       0.00072540 </v>
   <v>       0.63920776       0.61495829       0.00186639 </v>
   <v>       0.64170686       0.61043192       0.50127269 </v>
   <v>       0.11099398       0.36461081       0.98898682 </v>
   <v>       0.90214310       0.61836886       0.76839247 </v>
   <v>       0.63559940       0.38802898       0.25090080 </v>
   <v>       0.11390205       0.86406675       0.50076704 </v>
   <v>       0.61440060       0.36197102       0.99909920 </v>
   <v>       0.61140364       0.36339316       0.50197541 </v>
   <v>       0.38708167       0.13663855       0.99918863 </v>
   <v>       0.60983849       0.86168510       0.50835595 </v>
   <v>       0.10935689       0.33851621       0.48302741 </v>
   <v>       0.13431016       0.61029467       0.99268664 </v>
   <v>       0.88723027       0.36472799       0.24927460 </v>
   <v>       0.39079554       0.64110668       0.50281071 </v>
   <v>       0.88792738       0.13719394       0.00026245 </v>
   <v>       0.74633511       0.24275159       0.87379852 </v>
   <v>       0.88927572       0.63581253       0.99116133 </v>
   <v>       0.89393013       0.63871576       0.49974200 </v>
   <v>       0.00171411       0.00402723       0.12677349 </v>
   <v>       0.01642675       0.01450851       0.62119441 </v>
   <v>       0.00519388       0.49624288       0.12795841 </v>
   <v>       0.01528906       0.49650478       0.62145982 </v>
   <v>       0.61163688       0.86227490       0.00281044 </v>
   <v>       0.49125358       0.01546832       0.62251334 </v>
   <v>       0.39435113       0.86359075       0.74565171 </v>
   <v>       0.50088677       0.50158601       0.62484657 </v>
   <v>       0.01176141       0.00670311       0.37946591 </v>
   <v>       0.99778711       0.99858705       0.87408454 </v>
   <v>       0.74628222       0.75110540       0.37690544 </v>
   <v>       0.36185323       0.39230485       0.49546561 </v>
   <v>       0.50189125       0.99092796       0.37642299 </v>
   <v>       0.50371778       0.99889460       0.87309456 </v>
   <v>       0.50366489       0.50724841       0.37620148 </v>
   <v>       0.86402869       0.11180612       0.25225197 </v>
   <v>       0.25638019       0.24805997       0.87448403 </v>
   <v>       0.25221289       0.75141295       0.37591546 </v>
   <v>       0.62690913       0.11642032       0.49835610 </v>
   <v>       0.74758236       0.25119742       0.37644808 </v>
   <v>       0.11186374       0.86328256       0.00218772 </v>
   <v>       0.74810875       0.75907204       0.87357701 </v>
   <v>       0.24480612       0.25375712       0.12204159 </v>
   <v>       0.23471094       0.25349522       0.62854018 </v>
   <v>       0.38597131       0.63819388       0.99774803 </v>
   <v>       0.23357325       0.73549149       0.62880559 </v>
   <v>       0.75453712       0.25450176       0.12257020 </v>
   <v>       0.74911323       0.24841399       0.62515343 </v>
   <v>       0.35606987       0.11128424       0.75025800 </v>
   <v>       0.99361981       0.50194003       0.37551597 </v>
  </varray>
 </structure>
 <calculation>
  <scstep>
   <time name="dav">  307.93  307.99</time>
   <time name="total">  311.66  311.89</time>
   <energy>
    <i name="alphaZ">   5635.98814268 </i>
    <i name="ewald"> -61556.53013239 </i>
    <i name="hartreedc"> -15990.15657341 </i>
    <i name="XCdc">   2963.84990538 </i>
    <i name="pawpsdc"> 112471.51423072 </i>
    <i name="pawaedc">-111372.34256232 </i>
    <i name="eentropy">     -0.00000000 </i>
    <i name="bandstr">  -7057.11723922 </i>
    <i name="atom">  73783.44779670 </i>
    <i name="e_fr_energy">  -1121.34643185 </i>
    <i name="e_wo_entrp">  -1121.34643185 </i>
    <i name="e_0_energy">  -1121.34643185 </i>
   </energy>
  </scstep>
  <scstep>
   <time name="diag">   33.25   33.26</time>
   <time name="diis">   31.67   31.67</time>
   <time name="orth">   18.84   18.84</time>
   <time name="total">   87.52   87.55</time>
   <energy>
    <i name="e_fr_energy">  -1121.34643286 </i>
    <i name="e_wo_entrp">  -1121.34643286 </i>
    <i name="e_0_energy">  -1121.34643286 </i>
   </energy>
  </scstep>
  <scstep>
   <time name="diag">   33.31   33.31</time>
   <time name="diis">   30.75   30.75</time>
   <time name="orth">   18.83   18.83</time>
   <time name="total">   86.60   86.68</time>
   <energy>
    <i name="e_fr_energy">  -1121.34643334 </i>
    <i name="e_wo_entrp">  -1121.34643334 </i>
    <i name="e_0_energy">  -1121.34643334 </i>
   </energy>
  </scstep>
  <scstep>
   <time name="diag">   33.24   33.27</time>
   <time name="diis">   27.57   27.59</time>
   <time name="orth">   18.80   18.81</time>
   <time name="total">   83.33   83.52</time>
   <energy>
    <i name="e_fr_energy">  -1121.34643430 </i>
    <i name="e_wo_entrp">  -1121.34643430 </i>
    <i name="e_0_energy">  -1121.34643430 </i>
   </energy>
  </scstep>
  <scstep>
   <time name="diag">   33.25   33.27</time>
   <time name="diis">   26.81   26.82</time>
   <time name="orth">   18.88   18.88</time>
   <time name="total">   82.63   82.71</time>
   <energy>
    <i name="e_fr_energy">  -1121.34643521 </i>
    <i name="e_wo_entrp">  -1121.34643521 </i>
    <i name="e_0_energy">  -1121.34643521 </i>
   </energy>
  </scstep>
  <scstep>
   <time name="diag">   33.21   33.21</time>
   <time name="diis">   24.85   24.88</time>
   <time name="orth">   18.81   18.83</time>
   <time name="total">   80.58   82.14</time>
   <energy>
    <i name="e_fr_energy">  -1121.34643579 </i>
    <i name="e_wo_entrp">  -1121.34643579 </i>
    <i name="e_0_energy">  -1121.34643579 </i>
   </energy>
  </scstep>
  <scstep>
   <time name="diag">   33.27   33.29</time>
   <time name="diis">   24.11   24.13</time>
   <time name="orth">   18.82   18.82</time>
   <time name="total">   79.96   80.08</time>
   <energy>
    <i name="e_fr_energy">  -1121.34643608 </i>
    <i name="e_wo_entrp">  -1121.34643608 </i>
    <i name="e_0_energy">  -1121.34643608 </i>
   </energy>
  </scstep>
  <scstep>
   <time name="diag">   33.26   33.26</time>
   <time name="diis">   23.57   23.58</time>
   <time name="orth">   18.77   18.77</time>
   <time name="total">   76.18   76.28</time>
   <energy>
    <i name="alphaZ">   5635.98814268 </i>
    <i name="ewald"> -61556.53013239 </i>
    <i name="hartreedc"> -15990.20971173 </i>
    <i name="XCdc">   2963.85294807 </i>
    <i name="pawpsdc"> 112470.69495867 </i>
    <i name="pawaedc">-111371.49159879 </i>
    <i name="eentropy">     -0.00000000 </i>
    <i name="bandstr">  -7057.09883940 </i>
    <i name="atom">  73783.44779670 </i>
    <i name="e_fr_energy">  -1121.34643619 </i>
    <i name="e_wo_entrp">  -1121.34643619 </i>
    <i name="e_0_energy">  -1121.34643619 </i>
   </energy>
  </scstep>
  <structure>
   <crystal>
    <varray name="basis" >
     <v>      11.19037621       0.03890162      -0.00344676 </v>
     <v>       0.03894169      11.20490418       0.00374869 </v>
     <v>      -0.00494775       0.00544132      15.96973501 </v>
    </varray>
    <i name="volume">   2002.37403844 </i>
    <varray name="rec_basis" >
     <v>       0.08936359      -0.00031058       0.00002779 </v>
     <v>      -0.00031027       0.08924772      -0.00003051 </v>
     <v>       0.00001936      -0.00002102       0.06261846 </v>
    </varray>
   </crystal>
   <varray name="positions" >
    <v>       0.99735940       0.24818867       0.12618806 </v>
    <v>       0.99177922       0.24513023       0.62308246 </v>
    <v>       0.00060375       0.75155682       0.12704967 </v>
    <v>       0.99878366       0.75464574       0.62145851 </v>
    <v>       0.50249838       0.25222842       0.12293612 </v>
    <v>       0.50706014       0.25309304       0.62719676 </v>
    <v>       0.49901484       0.74729744       0.12378395 </v>
    <v>       0.50343366       0.74629570       0.62638300 </v>
    <v>       0.98435748       0.24832650       0.36786746 </v>
    <v>       0.99715197       0.24290523       0.87946721 </v>
    <v>       0.00178347       0.74886085       0.37315297 </v>
    <v>       0.99747135       0.76304680       0.88007179 </v>
    <v>       0.50796852       0.24754826       0.37214304 </v>
    <v>       0.50094890       0.25205919       0.87849501 </v>
    <v>       0.50029031       0.74835712       0.37222661 </v>
    <v>       0.50256379       0.74935736       0.87892575 </v>
    <v>       0.24939625       0.99844318       0.12295033 </v>
    <v>       0.25121634       0.99535426       0.62854149 </v>
    <v>       0.25264060       0.50181133       0.12381194 </v>
    <v>       0.25822078       0.50486977       0.62691754 </v>
    <v>       0.75098516       0.00270256       0.12621605 </v>
    <v>       0.74656634       0.00370430       0.62361700 </v>
    <v>       0.74750162       0.49777158       0.12706388 </v>
    <v>       0.74293986       0.49690696       0.62280324 </v>
    <v>       0.25252865       0.98695320       0.36992821 </v>
    <v>       0.24821653       0.00113915       0.87684703 </v>
    <v>       0.25284803       0.50709477       0.37053279 </v>
    <v>       0.26564252       0.50167350       0.88213254 </v>
    <v>       0.74743621       0.00064264       0.37107425 </v>
    <v>       0.74970969       0.00164288       0.87777339 </v>
    <v>       0.74905110       0.49794081       0.37150499 </v>
    <v>       0.74203148       0.50245174       0.87785696 </v>
    <v>       0.49961600       0.49620602       0.24939671 </v>
    <v>       0.49831932       0.00240016       0.24885817 </v>
    <v>       0.50129574       0.50208310       0.49878152 </v>
    <v>       0.75335013       0.75385900       0.75028290 </v>
    <v>       0.75083280       0.74588380       0.50017301 </v>
    <v>       0.74870426       0.24791690       0.75121848 </v>
    <v>       0.50009289       0.50061034       0.75180075 </v>
    <v>       0.75047367       0.74975613       0.24962065 </v>
    <v>       0.99987719       0.00112492       0.00192382 </v>
    <v>       0.75168068       0.74759984       0.00114183 </v>
    <v>       0.24923334       0.25414805       0.99865712 </v>
    <v>       0.49664987       0.99614100       0.49971710 </v>
    <v>       0.24830778       0.74623361       0.99689033 </v>
    <v>       0.24810007       0.25355720       0.75393650 </v>
    <v>       0.00189993       0.49644280       0.49606350 </v>
    <v>       0.25012281       0.74887508       0.24807618 </v>
    <v>       0.75038400       0.25379398       0.00060329 </v>
    <v>       0.00169222       0.00376639       0.25310967 </v>
    <v>       0.49952633       0.00024387       0.00037935 </v>
    <v>       0.00227211       0.00178000       0.74808700 </v>
    <v>       0.24772789       0.74822000       0.50191300 </v>
    <v>       0.74990711       0.24938966       0.49819925 </v>
    <v>       0.49916720       0.00411620       0.74982699 </v>
    <v>       0.00076666       0.49585195       0.25134288 </v>
    <v>       0.24962417       0.25047337       0.23993572 </v>
    <v>       0.25662945       0.26635029       0.51229885 </v>
    <v>       0.00037583       0.49952663       0.01006428 </v>
    <v>       0.74875276       0.25021572       0.24811355 </v>
    <v>       0.99337055       0.48364971       0.73770115 </v>
    <v>       0.26340682       0.75995352       0.75037161 </v>
    <v>       0.98659318       0.99004648       0.49962839 </v>
    <v>       0.50124724       0.49978428       0.00188645 </v>
    <v>       0.11568984       0.13970533       0.25731336 </v>
    <v>       0.10734110       0.14633827       0.75473781 </v>
    <v>       0.11284487       0.63755918       0.25231826 </v>
    <v>       0.88840948       0.13863513       0.49978111 </v>
    <v>       0.61079224       0.13504171       0.24813361 </v>
    <v>       0.60829314       0.13956808       0.74872731 </v>
    <v>       0.23823859       0.74329689       0.87053409 </v>
    <v>       0.49070181       0.00020958       0.12499490 </v>
    <v>       0.38418560       0.36110963       0.26177395 </v>
    <v>       0.38847851       0.36078411       0.74695982 </v>
    <v>       0.38665051       0.86158359       0.24949242 </v>
    <v>       0.24828589       0.74597277       0.12322651 </v>
    <v>       0.88814677       0.35769515       0.75453439 </v>
    <v>       0.88945613       0.86386590       0.25563410 </v>
    <v>       0.88937697       0.86549787       0.74270210 </v>
    <v>       0.36072428       0.11418747       0.25883867 </v>
    <v>       0.50241764       0.49880258       0.87355192 </v>
    <v>       0.36207262       0.61280606       0.24973755 </v>
    <v>       0.62309087       0.63357968       0.75164390 </v>
    <v>       0.36054387       0.88613410       0.99436590 </v>
    <v>       0.85920446       0.10889332       0.74718929 </v>
    <v>       0.75929819       0.74979042       0.12500510 </v>
    <v>       0.75874642       0.73453168       0.62748666 </v>
    <v>       0.13900602       0.38538919       0.26101318 </v>
    <v>       0.14064311       0.41148379       0.76697259 </v>
    <v>       0.13813626       0.88671744       0.24781228 </v>
    <v>       0.13609795       0.88593325       0.74923296 </v>
    <v>       0.86291833       0.61336145       0.25081137 </v>
    <v>       0.63859636       0.38660684       0.74802459 </v>
    <v>       0.63836312       0.88772510       0.24718956 </v>
    <v>       0.64016151       0.88831490       0.74164405 </v>
    <v>       0.49546288       0.49549824       0.12742980 </v>
    <v>       0.61315773       0.63851316       0.24768120 </v>
    <v>       0.36062303       0.88450213       0.50729790 </v>
    <v>       0.86581440       0.38889037       0.98822605 </v>
    <v>       0.86152149       0.38921589       0.50304018 </v>
    <v>       0.86334949       0.88841641       0.00050758 </v>
    <v>       0.85564887       0.88640925       0.50434829 </v>
    <v>       0.13715513       0.11244082       0.99768174 </v>
    <v>       0.36159052       0.61136487       0.75021889 </v>
    <v>       0.34785690       0.13163114       0.48160753 </v>
    <v>       0.14265890       0.60366173       0.49526219 </v>
    <v>       0.63684227       0.11148684       0.00231880 </v>
    <v>       0.36276973       0.38527201       0.00072540 </v>
    <v>       0.63920776       0.61495829       0.00186639 </v>
    <v>       0.64170686       0.61043192       0.50127269 </v>
    <v>       0.11099398       0.36461081       0.98898682 </v>
    <v>       0.90214310       0.61836886       0.76839247 </v>
    <v>       0.63559940       0.38802898       0.25090080 </v>
    <v>       0.11390205       0.86406675       0.50076704 </v>
    <v>       0.61440060       0.36197102       0.99909920 </v>
    <v>       0.61140364       0.36339316       0.50197541 </v>
    <v>       0.38708167       0.13663855       0.99918863 </v>
    <v>       0.60983849       0.86168510       0.50835595 </v>
    <v>       0.10935689       0.33851621       0.48302741 </v>
    <v>       0.13431016       0.61029467       0.99268664 </v>
    <v>       0.88723027       0.36472799       0.24927460 </v>
    <v>       0.39079554       0.64110668       0.50281071 </v>
    <v>       0.88792738       0.13719394       0.00026245 </v>
    <v>       0.74633511       0.24275159       0.87379852 </v>
    <v>       0.88927572       0.63581253       0.99116133 </v>
    <v>       0.89393013       0.63871576       0.49974200 </v>
    <v>       0.00171411       0.00402723       0.12677349 </v>
    <v>       0.01642675       0.01450851       0.62119441 </v>
    <v>       0.00519388       0.49624288       0.12795841 </v>
    <v>       0.01528906       0.49650478       0.62145982 </v>
    <v>       0.61163688       0.86227490       0.00281044 </v>
    <v>       0.49125358       0.01546832       0.62251334 </v>
    <v>       0.39435113       0.86359075       0.74565171 </v>
    <v>       0.50088677       0.50158601       0.62484657 </v>
    <v>       0.01176141       0.00670311       0.37946591 </v>
    <v>       0.99778711       0.99858705       0.87408454 </v>
    <v>       0.74628222       0.75110540       0.37690544 </v>
    <v>       0.36185323       0.39230485       0.49546561 </v>
    <v>       0.50189125       0.99092796       0.37642299 </v>
    <v>       0.50371778       0.99889460       0.87309456 </v>
    <v>       0.50366489       0.50724841       0.37620148 </v>
    <v>       0.86402869       0.11180612       0.25225197 </v>
    <v>       0.25638019       0.24805997       0.87448403 </v>
    <v>       0.25221289       0.75141295       0.37591546 </v>
    <v>       0.62690913       0.11642032       0.49835610 </v>
    <v>       0.74758236       0.25119742       0.37644808 </v>
    <v>       0.11186374       0.86328256       0.00218772 </v>
    <v>       0.74810875       0.75907204       0.87357701 </v>
    <v>       0.24480612       0.25375712       0.12204159 </v>
    <v>       0.23471094       0.25349522       0.62854018 </v>
    <v>       0.38597131       0.63819388       0.99774803 </v>
    <v>       0.23357325       0.73549149       0.62880559 </v>
    <v>       0.75453712       0.25450176       0.12257020 </v>
    <v>       0.74911323       0.24841399       0.62515343 </v>
    <v>       0.35606987       0.11128424       0.75025800 </v>
    <v>       0.99361981       0.50194003       0.37551597 </v>
   </varray>
  </structure>
  <varray name="forces" >
   <v>       0.00546015       0.01285939      -0.00354704 </v>
   <v>       0.00431908      -0.00340439       0.00606634 </v>
   <v>       0.00312333      -0.00591848       0.00507950 </v>
   <v>      -0.01707795      -0.01498012      -0.00317182 </v>
   <v>      -0.01210743      -0.00467472      -0.00526322 </v>
   <v>      -0.00849310      -0.00043008       0.00649492 </v>
   <v>       0.00385614       0.00072353       0.01421561 </v>
   <v>       0.00175972       0.01720830      -0.00221951 </v>
   <v>       0.00533315      -0.01329010      -0.01679791 </v>
   <v>       0.01173901      -0.00297625      -0.00204171 </v>
   <v>       0.00406051      -0.01109936       0.00233309 </v>
   <v>      -0.02225993       0.01144707      -0.01774152 </v>
   <v>      -0.01155595       0.00373799      -0.00229911 </v>
   <v>       0.00362710      -0.00888222       0.00214168 </v>
   <v>      -0.00382446      -0.00282201       0.01224176 </v>
   <v>      -0.00263449       0.01027070      -0.00356525 </v>
   <v>      -0.00228985      -0.00151411      -0.00686741 </v>
   <v>       0.02275292       0.01659695       0.00237228 </v>
   <v>      -0.01362448      -0.00928194      -0.00109619 </v>
   <v>      -0.00199491      -0.00418852      -0.01252885 </v>
   <v>       0.00113603      -0.00088075      -0.01755134 </v>
   <v>      -0.00407207      -0.01256465       0.00845405 </v>
   <v>       0.00575493       0.00029188       0.00247255 </v>
   <v>       0.00686500       0.00732740      -0.01303374 </v>
   <v>       0.02419291      -0.01165258       0.01180022 </v>
   <v>       0.00447636       0.00885013       0.00640436 </v>
   <v>      -0.00894601       0.00419707       0.00100996 </v>
   <v>      -0.00441202       0.01275536       0.01066281 </v>
   <v>      -0.00595278      -0.00755120       0.00248756 </v>
   <v>      -0.00386688      -0.00311239      -0.01208812 </v>
   <v>      -0.00317586       0.00515374      -0.00325084 </v>
   <v>       0.00579436      -0.00224555       0.00204664 </v>
   <v>      -0.00931237       0.01680370       0.00913284 </v>
   <v>      -0.01785191      -0.01176845       0.00541023 </v>
   <v>      -0.00183358       0.01472430      -0.00666867 </v>
   <v>       0.02220972       0.01257822       0.02488111 </v>
   <v>      -0.01356708       0.02618070      -0.02342949 </v>
   <v>       0.00841785      -0.02146856       0.02069495 </v>
   <v>      -0.03139233       0.00543246       0.05161554 </v>
   <v>      -0.00432874       0.02273956       0.00558742 </v>
   <v>       0.01647664      -0.02726992       0.00076492 </v>
   <v>       0.00689476       0.04164589      -0.00793981 </v>
   <v>      -0.02206137      -0.02873853       0.05246040 </v>
   <v>      -0.02200815      -0.00769808      -0.04056369 </v>
   <v>      -0.02507917       0.02041717      -0.00368711 </v>
   <v>      -0.00060893      -0.01010506      -0.00242866 </v>
   <v>      -0.00139202       0.00444237       0.01760462 </v>
   <v>      -0.01605523       0.02353817      -0.02425009 </v>
   <v>       0.00058879      -0.03436947       0.01501079 </v>
   <v>       0.02459251      -0.02986448       0.00606362 </v>
   <v>       0.00470179      -0.00338263      -0.00996553 </v>
   <v>       0.01456692      -0.01993941       0.00055468 </v>
   <v>      -0.00004878       0.01545034      -0.02265618 </v>
   <v>       0.02731326      -0.01408730      -0.01892811 </v>
   <v>      -0.02043864      -0.01945028       0.03638544 </v>
   <v>       0.03450435       0.03158204      -0.07193401 </v>
   <v>       0.00582948      -0.01811608      -0.03449485 </v>
   <v>       0.03848855      -0.02540872       0.01488634 </v>
   <v>      -0.00496648       0.01696881       0.03613861 </v>
   <v>       0.00998001      -0.00059884      -0.00136881 </v>
   <v>      -0.03984734       0.02742140      -0.00781870 </v>
   <v>       0.00053033       0.02235369      -0.00240389 </v>
   <v>      -0.00371176      -0.02984104      -0.00485935 </v>
   <v>      -0.00388537       0.00274756      -0.00076825 </v>
   <v>      -0.00108962      -0.00182413       0.00407424 </v>
   <v>       0.01248107       0.00788657      -0.01894191 </v>
   <v>      -0.00302188      -0.02162606      -0.00528929 </v>
   <v>      -0.01700298       0.01886388       0.00491554 </v>
   <v>       0.02187135       0.00764381       0.01658546 </v>
   <v>       0.00709840       0.00030972      -0.01656901 </v>
   <v>      -0.01294675       0.00061687      -0.00300352 </v>
   <v>       0.01719199      -0.00365079      -0.00297853 </v>
   <v>      -0.00949643      -0.00835259       0.00873091 </v>
   <v>      -0.01870068       0.00596148       0.00347575 </v>
   <v>      -0.00608793       0.01483100       0.00304231 </v>
   <v>       0.00626666       0.00078615      -0.01074608 </v>
   <v>       0.02810699       0.03399616       0.00137530 </v>
   <v>      -0.00973876      -0.01328933      -0.00638176 </v>
   <v>      -0.01737697       0.01365172      -0.02209173 </v>
   <v>       0.00682060       0.00474782       0.01588413 </v>
   <v>      -0.00098179      -0.00650763      -0.01042563 </v>
   <v>       0.01772088      -0.00968377      -0.00278645 </v>
   <v>      -0.02299998      -0.02439831       0.00034444 </v>
   <v>       0.01026665      -0.00245290       0.00817773 </v>
   <v>      -0.00232228       0.01746921      -0.02557542 </v>
   <v>      -0.01791556       0.00387866       0.00540669 </v>
   <v>       0.00314902      -0.00996944      -0.03410508 </v>
   <v>      -0.00851645      -0.01593163       0.02171656 </v>
   <v>       0.00446452       0.01346175      -0.00031500 </v>
   <v>      -0.01444897      -0.00875496       0.00478524 </v>
   <v>      -0.00097186      -0.01377791      -0.01270832 </v>
   <v>       0.00404840      -0.00323547       0.00661588 </v>
   <v>      -0.02053265       0.01081541       0.00826714 </v>
   <v>      -0.00458143       0.00540941      -0.00578989 </v>
   <v>      -0.01880461       0.01707666      -0.00500685 </v>
   <v>       0.00841910       0.01487608      -0.01506206 </v>
   <v>       0.00473389       0.00043860       0.00457548 </v>
   <v>       0.01806587      -0.01323261       0.02311395 </v>
   <v>       0.01796970       0.01021754      -0.01308219 </v>
   <v>       0.01577999      -0.00924627      -0.01264577 </v>
   <v>      -0.00929909      -0.00274458       0.00189336 </v>
   <v>      -0.03377782      -0.02858199       0.01906940 </v>
   <v>       0.01492573       0.01914927       0.00745057 </v>
   <v>       0.03036573      -0.00655825       0.00708847 </v>
   <v>      -0.01311280      -0.01954179      -0.00341668 </v>
   <v>      -0.01140885      -0.01137247       0.01391648 </v>
   <v>      -0.00349313      -0.00445596      -0.00875073 </v>
   <v>       0.00699633       0.00331813      -0.00740329 </v>
   <v>      -0.02141980      -0.01283108      -0.01175611 </v>
   <v>      -0.01387050      -0.00730957       0.00089917 </v>
   <v>       0.00075599       0.00723806      -0.02162456 </v>
   <v>       0.01080413       0.01012886       0.01280068 </v>
   <v>      -0.00397452      -0.02563585      -0.01361813 </v>
   <v>       0.00030634       0.01812165       0.01608476 </v>
   <v>       0.00040204       0.02641269       0.00817786 </v>
   <v>       0.01710821      -0.00988299      -0.00939490 </v>
   <v>       0.00905839       0.01125650      -0.00915728 </v>
   <v>       0.01797360      -0.01703319       0.01187983 </v>
   <v>       0.00125329      -0.02504352      -0.00248180 </v>
   <v>       0.00122869       0.00181088      -0.00625037 </v>
   <v>      -0.00936268      -0.00754000       0.01146291 </v>
   <v>       0.00301464      -0.01734036       0.00706941 </v>
   <v>      -0.00939418       0.01958538       0.00321167 </v>
   <v>       0.00132516       0.00392496      -0.00528604 </v>
   <v>      -0.00876368      -0.00138223      -0.01936579 </v>
   <v>      -0.02968007       0.00979845      -0.00660850 </v>
   <v>      -0.00169416       0.01026499       0.00331432 </v>
   <v>       0.01116648       0.01433671      -0.01224930 </v>
   <v>      -0.01657573       0.01109717       0.01465021 </v>
   <v>      -0.00136298       0.02078999       0.01450686 </v>
   <v>       0.00604233      -0.00663242      -0.00525192 </v>
   <v>       0.00589299       0.00872333       0.02448395 </v>
   <v>       0.02672479       0.02725193      -0.01993137 </v>
   <v>       0.02057478       0.00087577       0.00689261 </v>
   <v>       0.01494607       0.00668101       0.00645594 </v>
   <v>       0.00098336       0.01616295      -0.00673174 </v>
   <v>       0.00440086       0.00712162       0.02672264 </v>
   <v>      -0.01430881      -0.02409979       0.00859422 </v>
   <v>       0.00434454       0.00151629       0.01803613 </v>
   <v>       0.00951842      -0.01483058      -0.01929427 </v>
   <v>      -0.00386242      -0.00365015       0.00514673 </v>
   <v>      -0.01425877       0.01326226      -0.00680485 </v>
   <v>      -0.00603054       0.01911007      -0.01229059 </v>
   <v>      -0.00453424      -0.02258188       0.02035084 </v>
   <v>       0.02432519       0.02738097      -0.00081223 </v>
   <v>       0.01562588       0.00803150       0.02540598 </v>
   <v>       0.00882231       0.01026364      -0.00940536 </v>
   <v>      -0.00107149      -0.00602752      -0.02060103 </v>
   <v>       0.01810013      -0.01118351      -0.01302559 </v>
   <v>       0.00204958      -0.01176009      -0.00970267 </v>
   <v>       0.01242666      -0.00945450       0.01146067 </v>
   <v>      -0.01487214      -0.01441277       0.03008414 </v>
   <v>      -0.01070645      -0.01943054       0.01309520 </v>
   <v>      -0.02149082      -0.00455171      -0.02031933 </v>
   <v>       0.00794448       0.00638930       0.01132457 </v>
   <v>       0.00733284      -0.02400942       0.01617654 </v>
  </varray>
  <varray name="stress" >
   <v>       1.05706113       0.03010404       0.02075981 </v>
   <v>       0.03010381       0.64247300       0.07746483 </v>
   <v>       0.02075917       0.07746524       0.62072017 </v>
  </varray>
  <energy>
   <i name="e_fr_energy">  -1121.34643619 </i>
   <i name="e_wo_entrp">  -1121.34643619 </i>
   <i name="e_0_energy">     -0.00000000 </i>
  </energy>
  <time name="totalsc"> 1040.97 1045.27</time>
 </calculation>
 <calculation>
  <scstep>
   <time name="dav">  293.52  293.57</time>
   <time name="total">  297.23  297.35</time>
   <energy>
    <i name="alphaZ">   5630.93708430 </i>
    <i name="ewald"> -61538.10112577 </i>
    <i name="hartreedc"> -15985.48284295 </i>
    <i name="XCdc">   2962.68434624 </i>
    <i name="pawpsdc"> 112470.70777682 </i>
    <i name="pawaedc">-111371.50404970 </i>
    <i name="eentropy">     -0.00000000 </i>
    <i name="bandstr">  -7074.04065987 </i>
    <i name="atom">  73783.44779670 </i>
    <i name="e_fr_energy">  -1121.35167421 </i>
    <i name="e_wo_entrp">  -1121.35167421 </i>
    <i name="e_0_energy">  -1121.35167421 </i>
   </energy>
  </scstep>
  <scstep>
   <time name="diag">   33.25   33.25</time>
   <time name="diis">   52.39   52.40</time>
   <time name="orth">   18.90   18.90</time>
   <time name="total">  108.29  108.33</time>
   <energy>
    <i name="e_fr_energy">  -1121.35011280 </i>
    <i name="e_wo_entrp">  -1121.35011280 </i>
    <i name="e_0_energy">  -1121.35011280 </i>
   </energy>
  </scstep>
  <scstep>
   <time name="diag">   33.26   33.27</time>
   <time name="diis">   53.90   53.92</time>
   <time name="orth">   18.88   18.88</time>
   <time name="total">  109.77  110.08</time>
   <energy>
    <i name="e_fr_energy">  -1121.34897320 </i>
    <i name="e_wo_entrp">  -1121.34897320 </i>
    <i name="e_0_energy">  -1121.34897320 </i>
   </energy>
  </scstep>
  <scstep>
   <time name="diag">   33.23   33.25</time>
   <time name="diis">   53.87   53.88</time>
   <time name="orth">   18.88   18.88</time>
   <time name="total">  109.72  109.81</time>
   <energy>
    <i name="e_fr_energy">  -1121.34853559 </i>
    <i name="e_wo_entrp">  -1121.34853559 </i>
    <i name="e_0_energy">  -1121.34853559 </i>
   </energy>
  </scstep>
  <scstep>
   <time name="diag">   33.25   33.28</time>
   <time name="diis">   37.28   37.27</time>
   <time name="orth">   18.90   18.90</time>
   <time name="total">   93.16   93.24</time>
   <energy>
    <i name="e_fr_energy">  -1121.34846608 </i>
    <i name="e_wo_entrp">  -1121.34846608 </i>
    <i name="e_0_energy">  -1121.34846608 </i>
   </energy>
  </scstep>
  <scstep>
   <time name="diag">   33.28   33.30</time>
   <time name="diis">   32.89   32.92</time>
   <time name="orth">   18.95   18.95</time>
   <time name="total">   88.85   88.98</time>
   <energy>
    <i name="e_fr_energy">  -1121.34844826 </i>
    <i name="e_wo_entrp">  -1121.34844826 </i>
    <i name="e_0_energy">  -1121.34844826 </i>
   </energy>
  </scstep>
  <scstep>
   <time name="diag">   33.24   33.25</time>
   <time name="diis">   32.36   32.36</time>
   <time name="orth">   18.91   18.91</time>
   <time name="total">   88.25   88.31</time>
   <energy>
    <i name="e_fr_energy">  -1121.34844161 </i>
    <i name="e_wo_entrp">  -1121.34844161 </i>
    <i name="e_0_energy">  -1121.34844161 </i>
   </energy>
  </scstep>
  <scstep>
   <time name="diag">   33.27   33.28</time>
   <time name="diis">   31.82   31.85</time>
   <time name="orth">   18.91   18.91</time>
   <time name="total">   84.59   84.70</time>
   <energy>
    <i name="alphaZ">   5630.93708430 </i>
    <i name="ewald"> -61538.10112577 </i>
    <i name="hartreedc"> -15997.92306350 </i>
    <i name="XCdc">   2963.54216242 </i>
    <i name="pawpsdc"> 112290.60015758 </i>
    <i name="pawaedc">-111191.27930592 </i>
    <i name="eentropy">     -0.00000000 </i>
    <i name="bandstr">  -7062.57214303 </i>
    <i name="atom">  73783.44779670 </i>
    <i name="e_fr_energy">  -1121.34843721 </i>
    <i name="e_wo_entrp">  -1121.34843721 </i>
    <i name="e_0_energy">  -1121.34843721 </i>
   </energy>
  </scstep>
  <structure>
   <crystal>
    <varray name="basis" >
     <v>      11.19494842       0.03904138      -0.00335664 </v>
     <v>       0.03908800      11.20768705       0.00408537 </v>
     <v>      -0.00482158       0.00592074      15.97356633 </v>
    </varray>
    <i name="volume">   2004.17020629 </i>
    <varray name="rec_basis" >
     <v>       0.08932710      -0.00031155       0.00002708 </v>
     <v>      -0.00031118       0.08922557      -0.00003317 </v>
     <v>       0.00001885      -0.00002289       0.06260344 </v>
    </varray>
   </crystal>
   <varray name="positions" >
    <v>       0.99738274       0.24824396       0.12617733 </v>
    <v>       0.99179790       0.24511550       0.62310079 </v>
    <v>       0.00061731       0.75153128       0.12706503 </v>
    <v>       0.99871026       0.75458150       0.62144892 </v>
    <v>       0.50244625       0.25220848       0.12292022 </v>
    <v>       0.50702354       0.25309131       0.62721637 </v>
    <v>       0.49903147       0.74730047       0.12382690 </v>
    <v>       0.50344099       0.74636977       0.62637628 </v>
    <v>       0.98438065       0.24826922       0.36781673 </v>
    <v>       0.99720262       0.24289224       0.87946105 </v>
    <v>       0.00180114       0.74881300       0.37316004 </v>
    <v>       0.99737519       0.76309644       0.88001816 </v>
    <v>       0.50791864       0.24756453       0.37213608 </v>
    <v>       0.50096467       0.25202089       0.87850150 </v>
    <v>       0.50027388       0.74834501       0.37226359 </v>
    <v>       0.50255228       0.74940163       0.87891496 </v>
    <v>       0.24938640       0.99843671       0.12292958 </v>
    <v>       0.25131418       0.99542537       0.62854867 </v>
    <v>       0.25258200       0.50177157       0.12380863 </v>
    <v>       0.25821222       0.50485178       0.62687970 </v>
    <v>       0.75099005       0.00269878       0.12616303 </v>
    <v>       0.74654898       0.00365025       0.62364254 </v>
    <v>       0.74752643       0.49777275       0.12707135 </v>
    <v>       0.74296933       0.49693843       0.62276387 </v>
    <v>       0.25263314       0.98690265       0.36996389 </v>
    <v>       0.24823571       0.00117718       0.87686637 </v>
    <v>       0.25280940       0.50711297       0.37053583 </v>
    <v>       0.26562332       0.50172847       0.88216473 </v>
    <v>       0.74741066       0.00061021       0.37108177 </v>
    <v>       0.74969305       0.00162956       0.87773687 </v>
    <v>       0.74903733       0.49796305       0.37149516 </v>
    <v>       0.74205650       0.50244198       0.87786315 </v>
    <v>       0.49957562       0.49627849       0.24942427 </v>
    <v>       0.49824254       0.00234975       0.24887450 </v>
    <v>       0.50128761       0.50214653       0.49876136 </v>
    <v>       0.75344573       0.75391279       0.75035807 </v>
    <v>       0.75077388       0.74599676       0.50010219 </v>
    <v>       0.74874090       0.24782431       0.75128102 </v>
    <v>       0.49995754       0.50063412       0.75195664 </v>
    <v>       0.75045468       0.74985409       0.24963750 </v>
    <v>       0.99994864       0.00100726       0.00192617 </v>
    <v>       0.75170977       0.74777906       0.00111781 </v>
    <v>       0.24913873       0.25402457       0.99881561 </v>
    <v>       0.49655505       0.99610824       0.49959455 </v>
    <v>       0.24819935       0.74632189       0.99687915 </v>
    <v>       0.24809760       0.25351371       0.75392918 </v>
    <v>       0.00189388       0.49646192       0.49611667 </v>
    <v>       0.25005320       0.74897670       0.24800289 </v>
    <v>       0.75038707       0.25364597       0.00064867 </v>
    <v>       0.00179870       0.00363743       0.25312804 </v>
    <v>       0.49954663       0.00022925       0.00034925 </v>
    <v>       0.00233521       0.00169393       0.74808871 </v>
    <v>       0.24772742       0.74828656       0.50184454 </v>
    <v>       0.75002505       0.24932863       0.49814211 </v>
    <v>       0.49907943       0.00403271       0.74993691 </v>
    <v>       0.00091485       0.49598752       0.25112557 </v>
    <v>       0.24964953       0.25039533       0.23983154 </v>
    <v>       0.25679578       0.26624030       0.51234388 </v>
    <v>       0.00035421       0.49959971       0.01017343 </v>
    <v>       0.74879580       0.25021299       0.24810943 </v>
    <v>       0.99319834       0.48376838       0.73767746 </v>
    <v>       0.26340877       0.76004976       0.75036432 </v>
    <v>       0.98657762       0.98991806       0.49961374 </v>
    <v>       0.50123044       0.49979617       0.00188412 </v>
    <v>       0.11568518       0.13969748       0.25732567 </v>
    <v>       0.10739476       0.14637207       0.75468060 </v>
    <v>       0.11283216       0.63746612       0.25230230 </v>
    <v>       0.88833591       0.13871660       0.49979592 </v>
    <v>       0.61088644       0.13507427       0.24818373 </v>
    <v>       0.60832371       0.13956933       0.74867727 </v>
    <v>       0.23818276       0.74329974       0.87052500 </v>
    <v>       0.49077598       0.00019361       0.12498592 </v>
    <v>       0.38414479       0.36107380       0.26180033 </v>
    <v>       0.38839781       0.36081006       0.74697030 </v>
    <v>       0.38662404       0.86164753       0.24950159 </v>
    <v>       0.24831288       0.74597608       0.12319405 </v>
    <v>       0.88826744       0.35784110       0.75453854 </v>
    <v>       0.88941434       0.86380884       0.25561482 </v>
    <v>       0.88930183       0.86555694       0.74263533 </v>
    <v>       0.36075363       0.11420779       0.25888666 </v>
    <v>       0.50241349       0.49877459       0.87352043 </v>
    <v>       0.36214916       0.61276410       0.24972916 </v>
    <v>       0.62299208       0.63347497       0.75164495 </v>
    <v>       0.36058818       0.88612337       0.99439062 </v>
    <v>       0.85919415       0.10896861       0.74711201 </v>
    <v>       0.75922090       0.74980738       0.12502141 </v>
    <v>       0.75876010       0.73448876       0.62738365 </v>
    <v>       0.13896957       0.38532070       0.26107879 </v>
    <v>       0.14066215       0.41154168       0.76697162 </v>
    <v>       0.13807411       0.88667996       0.24782674 </v>
    <v>       0.13609395       0.88587396       0.74919458 </v>
    <v>       0.86293584       0.61334745       0.25083136 </v>
    <v>       0.63850769       0.38665371       0.74804953 </v>
    <v>       0.63834328       0.88774846       0.24717206 </v>
    <v>       0.64008018       0.88838871       0.74162889 </v>
    <v>       0.49549893       0.49556219       0.12738429 </v>
    <v>       0.61317814       0.63851498       0.24769502 </v>
    <v>       0.36070114       0.88444486       0.50736776 </v>
    <v>       0.86589170       0.38893411       0.98818653 </v>
    <v>       0.86158964       0.38917586       0.50300200 </v>
    <v>       0.86330945       0.88840473       0.00051330 </v>
    <v>       0.85550370       0.88628666       0.50440590 </v>
    <v>       0.13721920       0.11252303       0.99770424 </v>
    <v>       0.36172153       0.61133617       0.75024034 </v>
    <v>       0.34780066       0.13154720       0.48159721 </v>
    <v>       0.14260991       0.60361291       0.49530423 </v>
    <v>       0.63682726       0.11146772       0.00229237 </v>
    <v>       0.36279983       0.38528620       0.00070304 </v>
    <v>       0.63911559       0.61490338       0.00183087 </v>
    <v>       0.64164717       0.61040065       0.50127540 </v>
    <v>       0.11099710       0.36464199       0.98892148 </v>
    <v>       0.90218954       0.61841229       0.76843114 </v>
    <v>       0.63558263       0.38791868       0.25085969 </v>
    <v>       0.11390312       0.86414475       0.50081562 </v>
    <v>       0.61440195       0.36208473       0.99912388 </v>
    <v>       0.61147753       0.36335036       0.50194706 </v>
    <v>       0.38712054       0.13668689       0.99916096 </v>
    <v>       0.60991625       0.86161148       0.50839187 </v>
    <v>       0.10936267       0.33840837       0.48301994 </v>
    <v>       0.13431542       0.61030246       0.99266776 </v>
    <v>       0.88719003       0.36469565       0.24930923 </v>
    <v>       0.39080880       0.64103197       0.50283209 </v>
    <v>       0.88788659       0.13727840       0.00027212 </v>
    <v>       0.74634076       0.24276847       0.87378255 </v>
    <v>       0.88923794       0.63580674       0.99110282 </v>
    <v>       0.89380202       0.63875840       0.49972200 </v>
    <v>       0.00170665       0.00407145       0.12678349 </v>
    <v>       0.01647466       0.01457009       0.62115740 </v>
    <v>       0.00512227       0.49629089       0.12800264 </v>
    <v>       0.01528289       0.49659429       0.62150362 </v>
    <v>       0.61166302       0.86224626       0.00279459 </v>
    <v>       0.49127888       0.01550576       0.62258730 </v>
    <v>       0.39446591       0.86370772       0.74559150 </v>
    <v>       0.50097547       0.50158947       0.62486741 </v>
    <v>       0.01182576       0.00673164       0.37948542 </v>
    <v>       0.99779110       0.99865663       0.87406419 </v>
    <v>       0.74630112       0.75113595       0.37698617 </v>
    <v>       0.36179191       0.39220129       0.49549158 </v>
    <v>       0.50190998       0.99093440       0.37647748 </v>
    <v>       0.50375901       0.99883064       0.87303629 </v>
    <v>       0.50364830       0.50723275       0.37621703 </v>
    <v>       0.86396701       0.11186345       0.25223139 </v>
    <v>       0.25635389       0.24814236       0.87444688 </v>
    <v>       0.25219370       0.75131576       0.37597695 </v>
    <v>       0.62701359       0.11653785       0.49835364 </v>
    <v>       0.74764964       0.25123173       0.37652484 </v>
    <v>       0.11190161       0.86332663       0.00215930 </v>
    <v>       0.74810420       0.75904613       0.87351478 </v>
    <v>       0.24488430       0.25370871       0.12200227 </v>
    <v>       0.23471994       0.25344457       0.62851089 </v>
    <v>       0.38602504       0.63815297       0.99778267 </v>
    <v>       0.23350939       0.73542961       0.62889648 </v>
    <v>       0.75449127       0.25441824       0.12260977 </v>
    <v>       0.74902062       0.24839474       0.62509203 </v>
    <v>       0.35610404       0.11131162       0.75029221 </v>
    <v>       0.99365180       0.50183652       0.37556486 </v>
   </varray>
  </structure>
  <varray name="forces" >
   <v>      -0.01196141       0.00771829       0.00338389 </v>
   <v>      -0.00113076       0.00381249       0.00429113 </v>
   <v>      -0.01087746      -0.00530714       0.00656210 </v>
   <v>      -0.01824523      -0.02268093      -0.01113361 </v>
   <v>      -0.00059618       0.00923869      -0.00294377 </v>
   <v>       0.01112182       0.00960156       0.00533392 </v>
   <v>       0.00615448      -0.00910544       0.00337941 </v>
   <v>       0.01286023       0.00507904       0.00219973 </v>
   <v>       0.00308255       0.00570041      -0.00743815 </v>
   <v>       0.01246754       0.01149717      -0.01029931 </v>
   <v>      -0.00781595      -0.02833915       0.01348393 </v>
   <v>      -0.01831734      -0.00080089      -0.02379966 </v>
   <v>       0.00638321       0.00968109       0.00657128 </v>
   <v>      -0.00084150       0.00814447      -0.00676069 </v>
   <v>       0.00362264      -0.01562241       0.01731925 </v>
   <v>      -0.00217239      -0.00565575      -0.00378784 </v>
   <v>       0.00510590       0.00289162      -0.00796525 </v>
   <v>       0.02152179       0.02068501       0.00495593 </v>
   <v>       0.01219520      -0.00860100      -0.01045504 </v>
   <v>       0.00330260      -0.00575427      -0.00654519 </v>
   <v>       0.00007641       0.00655317      -0.00128041 </v>
   <v>      -0.01627898      -0.00165171       0.00447270 </v>
   <v>      -0.00866211      -0.00345044       0.00111713 </v>
   <v>      -0.01064488      -0.00152651      -0.01322043 </v>
   <v>       0.01607526      -0.00159956       0.01874462 </v>
   <v>       0.00558873       0.02061350      -0.00020822 </v>
   <v>      -0.01191769      -0.00667668       0.01232319 </v>
   <v>      -0.00526305      -0.00421668       0.00383151 </v>
   <v>      -0.00365464       0.00741762       0.00364208 </v>
   <v>      -0.00634521       0.00590902      -0.02037053 </v>
   <v>       0.00754748      -0.00543121       0.00422279 </v>
   <v>      -0.00233746      -0.01019223      -0.00077035 </v>
   <v>       0.01822474      -0.02095953      -0.01661395 </v>
   <v>       0.02156831       0.02768600      -0.00546452 </v>
   <v>       0.02774461      -0.02708856       0.03734502 </v>
   <v>      -0.04550792      -0.02577143      -0.03656726 </v>
   <v>      -0.01699196      -0.02173727       0.01296202 </v>
   <v>      -0.01433151       0.02268180      -0.02488233 </v>
   <v>       0.00455446      -0.01697355      -0.02417121 </v>
   <v>       0.00764303      -0.01966434       0.01372194 </v>
   <v>      -0.00285923       0.03481110      -0.00225483 </v>
   <v>      -0.03704392      -0.03105081       0.00307753 </v>
   <v>       0.01081363       0.02016008      -0.03572054 </v>
   <v>       0.03251836       0.01775075       0.04405861 </v>
   <v>       0.03352958      -0.03300341      -0.02253669 </v>
   <v>       0.01765539       0.02677759       0.00488382 </v>
   <v>      -0.02576055      -0.01020877      -0.02094946 </v>
   <v>       0.02600987      -0.02819223      -0.00472529 </v>
   <v>      -0.01213094       0.03212563       0.00173573 </v>
   <v>      -0.02650743       0.02322029       0.01919372 </v>
   <v>      -0.00835191       0.00066471      -0.00656314 </v>
   <v>       0.01145925       0.01833366      -0.03086734 </v>
   <v>      -0.00127246      -0.02711729       0.01698321 </v>
   <v>      -0.01847994       0.01335455       0.01603291 </v>
   <v>       0.03091008       0.03758303      -0.03227970 </v>
   <v>      -0.02999413      -0.03907404       0.04942556 </v>
   <v>       0.00268062       0.00100574       0.00671348 </v>
   <v>      -0.00978587       0.00053866       0.00721006 </v>
   <v>      -0.01208880       0.00010390      -0.00715526 </v>
   <v>       0.00869290       0.00632382       0.01666832 </v>
   <v>       0.01463322      -0.00382633      -0.00185008 </v>
   <v>       0.02256867       0.00499286      -0.01293951 </v>
   <v>      -0.02776521      -0.01042376       0.01450611 </v>
   <v>      -0.00105883       0.00214504      -0.00168916 </v>
   <v>       0.00222208      -0.01920112      -0.01021010 </v>
   <v>      -0.00947975      -0.02112124      -0.00941598 </v>
   <v>       0.01949910       0.00773095      -0.01543221 </v>
   <v>       0.01348833      -0.02367314      -0.00118899 </v>
[...]
       <r>   -16.2410     0.0000    32.0000 </r>
       <r>   -16.0888     0.0000    32.0000 </r>
       <r>   -15.9366     0.0000    32.0000 </r>
       <r>   -15.7844     0.0000    32.0000 </r>
       <r>   -15.6322     0.0000    32.0000 </r>
       <r>   -15.4801     0.0000    32.0000 </r>
       <r>   -15.3279     0.0000    32.0000 </r>
       <r>   -15.1757     0.0724    32.0110 </r>
       <r>   -15.0235    16.7673    34.5626 </r>
       <r>   -14.8714    45.9205    41.5508 </r>
       <r>   -14.7192    53.9662    49.7633 </r>
       <r>   -14.5670    33.7016    54.8920 </r>
       <r>   -14.4148    28.1549    59.1766 </r>
       <r>   -14.2626    37.9650    64.9541 </r>
       <r>   -14.1105    83.4250    77.6496 </r>
       <r>   -13.9583   128.0202    97.1316 </r>
       <r>   -13.8061   118.2886   115.1327 </r>
       <r>   -13.6539    48.1155   122.4549 </r>
       <r>   -13.5017    10.1519   123.9998 </r>
       <r>   -13.3496     0.0014   124.0000 </r>
       <r>   -13.1974     0.0000   124.0000 </r>
       <r>   -13.0452     0.0000   124.0000 </r>
       <r>   -12.8930     0.0000   124.0000 </r>
       <r>   -12.7408     0.3029   124.0461 </r>
       <r>   -12.5887    40.2396   130.1697 </r>
       <r>   -12.4365   143.2320   151.9667 </r>
       <r>   -12.2843   154.6293   175.4980 </r>
       <r>   -12.1321   125.4624   194.5908 </r>
       <r>   -11.9799   102.1382   210.1341 </r>
       <r>   -11.8278    51.1218   217.9138 </r>
       <r>   -11.6756    13.6767   219.9951 </r>
       <r>   -11.5234     0.0321   220.0000 </r>
       <r>   -11.3712     0.0000   220.0000 </r>
       <r>   -11.2191     0.0000   220.0000 </r>
       <r>   -11.0669     0.0000   220.0000 </r>
       <r>   -10.9147     0.0000   220.0000 </r>
       <r>   -10.7625     0.0000   220.0000 </r>
       <r>   -10.6103     0.0000   220.0000 </r>
       <r>   -10.4582     0.0000   220.0000 </r>
       <r>   -10.3060     0.0000   220.0000 </r>
       <r>   -10.1538     0.0000   220.0000 </r>
       <r>   -10.0016     0.0000   220.0000 </r>
       <r>    -9.8494     0.0000   220.0000 </r>
       <r>    -9.6973     0.0000   220.0000 </r>
       <r>    -9.5451     0.0000   220.0000 </r>
       <r>    -9.3929     0.0000   220.0000 </r>
       <r>    -9.2407     0.0000   220.0000 </r>
       <r>    -9.0885     0.0000   220.0000 </r>
       <r>    -8.9364     0.0000   220.0000 </r>
       <r>    -8.7842     0.0000   220.0000 </r>
       <r>    -8.6320     0.0000   220.0000 </r>
       <r>    -8.4798     0.0000   220.0000 </r>
       <r>    -8.3276     0.0000   220.0000 </r>
       <r>    -8.1755     0.0000   220.0000 </r>
       <r>    -8.0233     0.0000   220.0000 </r>
       <r>    -7.8711     0.0000   220.0000 </r>
       <r>    -7.7189     0.0000   220.0000 </r>
       <r>    -7.5667     0.0000   220.0000 </r>
       <r>    -7.4146     0.0000   220.0000 </r>
       <r>    -7.2624     0.0000   220.0000 </r>
       <r>    -7.1102     0.0000   220.0000 </r>
       <r>    -6.9580     0.0000   220.0000 </r>
       <r>    -6.8059     0.0000   220.0000 </r>
       <r>    -6.6537     0.0000   220.0000 </r>
       <r>    -6.5015     0.0000   220.0000 </r>
       <r>    -6.3493     0.0000   220.0000 </r>
       <r>    -6.1971     0.0000   220.0000 </r>
       <r>    -6.0450     0.0000   220.0000 </r>
       <r>    -5.8928     0.0000   220.0000 </r>
       <r>    -5.7406     0.0000   220.0000 </r>
       <r>    -5.5884     0.0000   220.0000 </r>
       <r>    -5.4362     0.0000   220.0000 </r>
       <r>    -5.2841     0.0000   220.0000 </r>
       <r>    -5.1319     0.0000   220.0000 </r>
       <r>    -4.9797     0.0000   220.0000 </r>
       <r>    -4.8275     0.0000   220.0000 </r>
       <r>    -4.6753     0.0000   220.0000 </r>
       <r>    -4.5232     0.0000   220.0000 </r>
       <r>    -4.3710     0.0000   220.0000 </r>
       <r>    -4.2188     0.0000   220.0000 </r>
       <r>    -4.0666     0.0000   220.0000 </r>
       <r>    -3.9144     0.0000   220.0000 </r>
       <r>    -3.7623     0.0000   220.0000 </r>
       <r>    -3.6101     0.0000   220.0000 </r>
       <r>    -3.4579     0.0000   220.0000 </r>
       <r>    -3.3057     0.0000   220.0000 </r>
       <r>    -3.1535     0.0000   220.0000 </r>
       <r>    -3.0014     0.0000   220.0000 </r>
       <r>    -2.8492     0.0000   220.0000 </r>
       <r>    -2.6970     0.0000   220.0000 </r>
       <r>    -2.5448     0.0000   220.0000 </r>
       <r>    -2.3927     0.0665   220.0101 </r>
       <r>    -2.2405    10.0459   221.5389 </r>
       <r>    -2.0883    26.9740   225.6438 </r>
       <r>    -1.9361    27.6978   229.8588 </r>
       <r>    -1.7839    35.4388   235.2519 </r>
       <r>    -1.6318    52.5508   243.2490 </r>
       <r>    -1.4796    52.4530   251.2313 </r>
       <r>    -1.3274    60.7457   260.4755 </r>
       <r>    -1.1752    66.6501   270.6183 </r>
       <r>    -1.0230    76.2830   282.2270 </r>
       <r>    -0.8709    69.1793   292.7546 </r>
       <r>    -0.7187    84.4222   305.6019 </r>
       <r>    -0.5665   104.9619   321.5749 </r>
       <r>    -0.4143   108.0439   338.0170 </r>
       <r>    -0.2621    78.8388   350.0146 </r>
       <r>    -0.1100    51.8064   357.8985 </r>
       <r>     0.0422    48.1403   365.2244 </r>
       <r>     0.1944    48.5293   372.6096 </r>
       <r>     0.3466    49.2155   380.0992 </r>
       <r>     0.4988    53.2400   388.2012 </r>
       <r>     0.6509    55.3827   396.6293 </r>
       <r>     0.8031    50.6732   404.3407 </r>
       <r>     0.9553    49.7515   411.9118 </r>
       <r>     1.1075    57.9267   420.7271 </r>
       <r>     1.2596    78.7264   432.7076 </r>
       <r>     1.4118    89.0184   446.2544 </r>
       <r>     1.5640    91.8941   460.2387 </r>
       <r>     1.7162    79.8182   472.3854 </r>
       <r>     1.8684    59.5798   481.4522 </r>
       <r>     2.0205    49.8899   489.0444 </r>
       <r>     2.1727    24.5612   492.7821 </r>
       <r>     2.3249    19.8275   495.7995 </r>
       <r>     2.4771     1.3177   496.0000 </r>
       <r>     2.6293     0.0000   496.0000 </r>
       <r>     2.7814     0.0000   496.0000 </r>
       <r>     2.9336     0.0000   496.0000 </r>
       <r>     3.0858     0.0000   496.0000 </r>
       <r>     3.2380     0.0000   496.0000 </r>
       <r>     3.3902     0.0000   496.0000 </r>
       <r>     3.5423     0.0000   496.0000 </r>
       <r>     3.6945     0.0000   496.0000 </r>
       <r>     3.8467     0.0000   496.0000 </r>
       <r>     3.9989     0.0000   496.0000 </r>
       <r>     4.1511     0.0000   496.0000 </r>
       <r>     4.3032     0.0001   496.0000 </r>
       <r>     4.4554     4.6964   496.7147 </r>
       <r>     4.6076    27.0697   500.8342 </r>
       <r>     4.7598    39.3176   506.8175 </r>
       <r>     4.9120    45.1490   513.6882 </r>
       <r>     5.0641    38.1244   519.4900 </r>
       <r>     5.2163    38.7712   525.3901 </r>
       <r>     5.3685    62.2248   534.8595 </r>
       <r>     5.5207    75.2855   546.3163 </r>
       <r>     5.6728    64.5087   556.1332 </r>
       <r>     5.8250    62.1096   565.5850 </r>
       <r>     5.9772    89.8354   579.2561 </r>
       <r>     6.1294    92.9366   593.3991 </r>
       <r>     6.2816    55.2736   601.8106 </r>
       <r>     6.4337    55.8960   610.3168 </r>
       <r>     6.5859    17.2646   612.9442 </r>
       <r>     6.7381    20.1725   616.0140 </r>
       <r>     6.8903    25.4394   619.8853 </r>
       <r>     7.0425    20.4924   623.0039 </r>
       <r>     7.1946    17.6497   625.6898 </r>
       <r>     7.3468    17.2007   628.3074 </r>
       <r>     7.4990    14.4873   630.5120 </r>
       <r>     7.6512    11.4177   632.2496 </r>
       <r>     7.8034    17.0784   634.8485 </r>
       <r>     7.9555    27.1446   638.9794 </r>
       <r>     8.1077    25.7534   642.8985 </r>
       <r>     8.2599    21.0822   646.1068 </r>
       <r>     8.4121    25.1348   649.9318 </r>
       <r>     8.5643    23.4173   653.4954 </r>
       <r>     8.7164    21.8862   656.8260 </r>
       <r>     8.8686    30.7768   661.5096 </r>
       <r>     9.0208    36.6868   667.0926 </r>
       <r>     9.1730    38.8377   673.0029 </r>
       <r>     9.3251    36.6821   678.5851 </r>
       <r>     9.4773    41.5039   684.9012 </r>
       <r>     9.6295    41.1295   691.1602 </r>
       <r>     9.7817    51.3118   698.9688 </r>
       <r>     9.9339    63.8686   708.6883 </r>
       <r>    10.0860    68.8862   719.1713 </r>
       <r>    10.2382    68.5811   729.6080 </r>
       <r>    10.3904    55.8267   738.1036 </r>
       <r>    10.5426    57.9239   746.9184 </r>
       <r>    10.6948    59.5844   755.9859 </r>
       <r>    10.8469    55.9719   764.5037 </r>
       <r>    10.9991    22.9585   767.9975 </r>
       <r>    11.1513     0.0164   768.0000 </r>
       <r>    11.3035     0.0000   768.0000 </r>
       <r>    11.4557     0.0000   768.0000 </r>
       <r>    11.6078     0.0000   768.0000 </r>
       <r>    11.7600     0.0000   768.0000 </r>
       <r>    11.9122     0.0000   768.0000 </r>
       <r>    12.0644     0.0000   768.0000 </r>
       <r>    12.2166     0.0000   768.0000 </r>
       <r>    12.3687     0.0000   768.0000 </r>
       <r>    12.5209     0.0000   768.0000 </r>
       <r>    12.6731     0.0000   768.0000 </r>
       <r>    12.8253     0.0000   768.0000 </r>
       <r>    12.9775     0.0000   768.0000 </r>
      </set>
     </set>
    </array>
   </total>
  </dos>
 </calculation>
 <structure name="finalpos" >
  <crystal>
   <varray name="basis" >
    <v>      11.19473744       0.03968986      -0.00298093 </v>
    <v>       0.03974161      11.20624992       0.00435850 </v>
    <v>      -0.00428711       0.00630797      15.97118754 </v>
   </varray>
   <i name="volume">   2003.57621077 </i>
   <varray name="rec_basis" >
    <v>       0.08932882      -0.00031680       0.00002410 </v>
    <v>      -0.00031639       0.08923705      -0.00003533 </v>
    <v>       0.00001676      -0.00002441       0.06261277 </v>
   </varray>
  </crystal>
  <varray name="positions" >
   <v>       0.99723274       0.24825180       0.12615016 </v>
   <v>       0.99188649       0.24505885       0.62313801 </v>
   <v>       0.00052898       0.75152878       0.12713040 </v>
   <v>       0.99831270       0.75386974       0.62127558 </v>
   <v>       0.50233967       0.25226523       0.12287468 </v>
   <v>       0.50729892       0.25336332       0.62740238 </v>
   <v>       0.49921832       0.74723512       0.12404376 </v>
   <v>       0.50350393       0.74659499       0.62634916 </v>
   <v>       0.98477367       0.24816329       0.36762651 </v>
   <v>       0.99749948       0.24307693       0.87932383 </v>
   <v>       0.00186735       0.74816442       0.37320044 </v>
   <v>       0.99683963       0.76354409       0.87961901 </v>
   <v>       0.50789103       0.24784230       0.37211583 </v>
   <v>       0.50105991       0.25208714       0.87853858 </v>
   <v>       0.50018537       0.74799271       0.37254565 </v>
   <v>       0.50250333       0.74945477       0.87884446 </v>
   <v>       0.24934838       0.99828125       0.12278522 </v>
   <v>       0.25183121       0.99600201       0.62859486 </v>
   <v>       0.25267629       0.50162765       0.12371013 </v>
   <v>       0.25815616       0.50488238       0.62680501 </v>
   <v>       0.75102401       0.00282566       0.12599674 </v>
   <v>       0.74628565       0.00351069       0.62382932 </v>
   <v>       0.74731298       0.49777446       0.12708122 </v>
   <v>       0.74281702       0.49686677       0.62255706 </v>
   <v>       0.25306582       0.98639239       0.37021345 </v>
   <v>       0.24828528       0.00155518       0.87697758 </v>
   <v>       0.25249639       0.50697875       0.37064478 </v>
   <v>       0.26526074       0.50179725       0.88232649 </v>
   <v>       0.74719021       0.00065705       0.37104158 </v>
   <v>       0.74967959       0.00175784       0.87738960 </v>
   <v>       0.74902516       0.49786723       0.37143660 </v>
   <v>       0.74209908       0.50226529       0.87791023 </v>
   <v>       0.49950357       0.49620606       0.24947802 </v>
   <v>       0.49844023       0.00251534       0.24890027 </v>
   <v>       0.50124551       0.50186693       0.49885676 </v>
   <v>       0.75328236       0.75380505       0.75029615 </v>
   <v>       0.75041427       0.74605435       0.50009951 </v>
   <v>       0.74881783       0.24806975       0.75123679 </v>
   <v>       0.49992246       0.50075946       0.75203901 </v>
   <v>       0.75049346       0.74997615       0.24970281 </v>
   <v>       0.99988701       0.00116472       0.00191432 </v>
   <v>       0.75147769       0.74777897       0.00102114 </v>
   <v>       0.24909274       0.25412547       0.99873068 </v>
   <v>       0.49657946       0.99629112       0.49964120 </v>
   <v>       0.24811856       0.74637220       0.99663635 </v>
   <v>       0.24809875       0.25373425       0.75395728 </v>
   <v>       0.00176867       0.49636803       0.49613660 </v>
   <v>       0.25014411       0.74887193       0.24782766 </v>
   <v>       0.75045766       0.25365179       0.00062955 </v>
   <v>       0.00192641       0.00346710       0.25325943 </v>
   <v>       0.49962829       0.00011893       0.00028753 </v>
   <v>       0.00239238       0.00174153       0.74774308 </v>
   <v>       0.24763916       0.74816415       0.50206612 </v>
   <v>       0.75014133       0.24914439       0.49816654 </v>
   <v>       0.49922512       0.00421049       0.74996465 </v>
   <v>       0.00085028       0.49587698       0.25121071 </v>
   <v>       0.24968373       0.25009177       0.23985189 </v>
   <v>       0.25698802       0.26559416       0.51237450 </v>
   <v>       0.00008990       0.49991655       0.01011384 </v>
   <v>       0.74891811       0.25004289       0.24822116 </v>
   <v>       0.99309220       0.48431416       0.73771118 </v>
   <v>       0.26348072       0.76028208       0.75023353 </v>
   <v>       0.98650605       0.98974337       0.49971998 </v>
   <v>       0.50114125       0.49989665       0.00190934 </v>
   <v>       0.11583968       0.13925877       0.25714294 </v>
   <v>       0.10765526       0.14635883       0.75448140 </v>
   <v>       0.11311231       0.63696650       0.25206004 </v>
   <v>       0.88821606       0.13844698       0.49983640 </v>
   <v>       0.61101818       0.13483529       0.24869736 </v>
   <v>       0.60868793       0.13944981       0.74867810 </v>
   <v>       0.23794850       0.74354843       0.87043677 </v>
   <v>       0.49120727       0.00020399       0.12503453 </v>
   <v>       0.38387580       0.36112509       0.26179081 </v>
   <v>       0.38799840       0.36118770       0.74695702 </v>
   <v>       0.38611678       0.86199491       0.24965946 </v>
   <v>       0.24824135       0.74615938       0.12314968 </v>
   <v>       0.88806790       0.35838087       0.75461099 </v>
   <v>       0.88940391       0.86365366       0.25553376 </v>
   <v>       0.88885158       0.86614072       0.74217628 </v>
   <v>       0.36097407       0.11427044       0.25914439 </v>
   <v>       0.50212237       0.49846480       0.87369803 </v>
   <v>       0.36227647       0.61291528       0.24961240 </v>
   <v>       0.62299775       0.63355451       0.75175590 </v>
   <v>       0.36076837       0.88614389       0.99448494 </v>
   <v>       0.85965421       0.10954551       0.74654800 </v>
   <v>       0.75871856       0.74983586       0.12498072 </v>
   <v>       0.75853749       0.73406687       0.62742575 </v>
   <v>       0.13866010       0.38470181       0.26108619 </v>
   <v>       0.14044562       0.41211321       0.76678676 </v>
   <v>       0.13768570       0.88608198       0.24794263 </v>
   <v>       0.13586221       0.88583362       0.74912699 </v>
   <v>       0.86306555       0.61351285       0.25099562 </v>
   <v>       0.63823679       0.38642217       0.74837136 </v>
   <v>       0.63817807       0.88769352       0.24716714 </v>
   <v>       0.64002050       0.88831163       0.74158176 </v>
   <v>       0.49564461       0.49608762       0.12741503 </v>
   <v>       0.61330998       0.63837812       0.24798520 </v>
   <v>       0.36121006       0.88377774       0.50777815 </v>
   <v>       0.86613175       0.38884642       0.98819967 </v>
   <v>       0.86200141       0.38894230       0.50298621 </v>
   <v>       0.86332969       0.88853536       0.00043315 </v>
   <v>       0.85542288       0.88621563       0.50481411 </v>
   <v>       0.13724261       0.11277959       0.99794503 </v>
   <v>       0.36221907       0.61188099       0.75049282 </v>
   <v>       0.34773479       0.13060902       0.48150782 </v>
   <v>       0.14230153       0.60359352       0.49554965 </v>
   <v>       0.63688638       0.11147998       0.00200680 </v>
   <v>       0.36286346       0.38517676       0.00076645 </v>
   <v>       0.63897255       0.61524175       0.00143724 </v>
   <v>       0.64130868       0.61054478       0.50108664 </v>
   <v>       0.11117243       0.36507913       0.98889496 </v>
   <v>       0.90239451       0.61920200       0.76862494 </v>
   <v>       0.63519700       0.38753593       0.25067333 </v>
   <v>       0.11424534       0.86431233       0.50108592 </v>
   <v>       0.61489521       0.36239296       0.99935198 </v>
   <v>       0.61177476       0.36351915       0.50161978 </v>
   <v>       0.38727449       0.13662915       0.99888570 </v>
   <v>       0.60993333       0.86164904       0.50853973 </v>
   <v>       0.10967630       0.33768768       0.48316801 </v>
   <v>       0.13414869       0.61055508       0.99280571 </v>
   <v>       0.88700757       0.36481508       0.24921423 </v>
   <v>       0.39042354       0.64052956       0.50301288 </v>
   <v>       0.88809826       0.13745991       0.00037462 </v>
   <v>       0.74648794       0.24271158       0.87377853 </v>
   <v>       0.88899948       0.63595666       0.99081537 </v>
   <v>       0.89342647       0.63836022       0.49937017 </v>
   <v>       0.00177609       0.00407744       0.12675242 </v>
   <v>       0.01688920       0.01495640       0.62102478 </v>
   <v>       0.00471631       0.49671135       0.12795517 </v>
   <v>       0.01499729       0.49757073       0.62154616 </v>
   <v>       0.61173484       0.86228286       0.00259958 </v>
   <v>       0.49145570       0.01585886       0.62254305 </v>
   <v>       0.39437798       0.86403837       0.74522559 </v>
   <v>       0.50142581       0.50145442       0.62491489 </v>
   <v>       0.01203188       0.00651316       0.37957306 </v>
   <v>       0.99780013       0.99917584       0.87391710 </v>
   <v>       0.74625345       0.75161550       0.37697147 </v>
   <v>       0.36199068       0.39168024       0.49572464 </v>
   <v>       0.50197346       0.99063726       0.37658886 </v>
   <v>       0.50402550       0.99825894       0.87301376 </v>
   <v>       0.50345173       0.50707645       0.37622957 </v>
   <v>       0.86415075       0.11163192       0.25222160 </v>
   <v>       0.25594880       0.24846561       0.87445215 </v>
   <v>       0.25194485       0.75075931       0.37615224 </v>
   <v>       0.62697641       0.11655731       0.49820905 </v>
   <v>       0.74807958       0.25142754       0.37648359 </v>
   <v>       0.11213823       0.86380814       0.00197037 </v>
   <v>       0.74803178       0.75927695       0.87337411 </v>
   <v>       0.24543576       0.25325432       0.12198088 </v>
   <v>       0.23502724       0.25279526       0.62857823 </v>
   <v>       0.38579478       0.63824520       0.99787552 </v>
   <v>       0.23311823       0.73495047       0.62912983 </v>
   <v>       0.75419075       0.25374504       0.12262614 </v>
   <v>       0.74851948       0.24863360       0.62505118 </v>
   <v>       0.35644726       0.11161322       0.75075289 </v>
   <v>       0.99417381       0.50151227       0.37557223 </v>
  </varray>
 </structure>
</modeling>
