       N       E                     dE             d eps       ncg     rms          rms(c)
DAV:   1    -0.105316389728E+04   -0.10532E+04   -0.12028E-02 13640   0.259E-01    0.188E-02
RMM:   2    -0.105316389804E+04   -0.76029E-06   -0.19936E-05  6711   0.780E-03    0.317E-02
RMM:   3    -0.105316389844E+04   -0.40792E-06   -0.73490E-06  6380   0.536E-03    0.475E-03
RMM:   4    -0.105316389886E+04   -0.41981E-06   -0.44509E-06  5174   0.308E-03    0.363E-03
RMM:   5    -0.105316389908E+04   -0.21349E-06   -0.26959E-06  4847   0.340E-03    0.194E-03
RMM:   6    -0.105316389924E+04   -0.16429E-06   -0.15349E-06  3212   0.221E-03    0.118E-03
RMM:   7    -0.105316389931E+04   -0.68583E-07   -0.85718E-07  2941   0.235E-03    0.827E-04
RMM:   8    -0.105316389934E+04   -0.27852E-07   -0.33314E-07  2248   0.197E-03
   1 F= -.10531639E+04 E0= -.10531639E+04  d E =-.105316E+04  mag=    70.0000
       N       E                     dE             d eps       ncg     rms          rms(c)
DAV:   1    -0.105316397404E+04   -0.74731E-04   -0.76639E-01 12544   0.103E+00    0.374E-01
RMM:   2    -0.105316608562E+04   -0.21116E-02   -0.22720E-02 12354   0.208E-01    0.282E-01
RMM:   3    -0.105316614250E+04   -0.56873E-04   -0.13972E-03 12441   0.752E-02    0.178E-01
RMM:   4    -0.105316601310E+04    0.12940E-03   -0.38616E-04 10006   0.262E-02    0.100E-01
RMM:   5    -0.105316597914E+04    0.33958E-04   -0.14967E-04  7857   0.193E-02    0.665E-02
RMM:   6    -0.105316598213E+04   -0.29878E-05   -0.44009E-05  7273   0.133E-02    0.239E-02
RMM:   7    -0.105316598292E+04   -0.79555E-06   -0.15977E-05  7083   0.649E-03    0.132E-02
RMM:   8    -0.105316598296E+04   -0.39887E-07   -0.83443E-06  6913   0.556E-03
   2 F= -.10531660E+04 E0= -.10531660E+04  d E =-.208363E-02  mag=    70.0000
       N       E                     dE             d eps       ncg     rms          rms(c)
DAV:   1    -0.105316598414E+04   -0.12181E-05   -0.27640E-03 13104   0.624E-02    0.279E-02
RMM:   2    -0.105316599035E+04   -0.62071E-05   -0.72860E-05  6794   0.134E-02    0.246E-02
RMM:   3    -0.105316599152E+04   -0.11740E-05   -0.87624E-06  6346   0.638E-03    0.101E-02
RMM:   4    -0.105316599116E+04    0.36097E-06   -0.27575E-06  5428   0.307E-03    0.679E-03
RMM:   5    -0.105316599101E+04    0.15453E-06   -0.82898E-07  4081   0.240E-03    0.442E-03
RMM:   6    -0.105316599099E+04    0.20955E-07   -0.15515E-07  1834   0.186E-03    0.139E-03
RMM:   7    -0.105316599100E+04   -0.93860E-08   -0.45063E-09  1525   0.179E-03    0.653E-04
RMM:   8    -0.105316599100E+04   -0.52532E-08   -0.18886E-09  1322   0.180E-03
   3 F= -.10531660E+04 E0= -.10531660E+04  d E =-.209166E-02  mag=    70.0000
       N       E                     dE             d eps       ncg     rms          rms(c)
DAV:   1    -0.105316654298E+04   -0.55198E-03   -0.41534E-01 12736   0.765E-01    0.231E-01
RMM:   2    -0.105316772491E+04   -0.11819E-02   -0.10885E-02 12379   0.141E-01    0.151E-01
RMM:   3    -0.105316778845E+04   -0.63546E-04   -0.64251E-04 11145   0.559E-02    0.884E-02
RMM:   4    -0.105316775923E+04    0.29227E-04   -0.13858E-04  7399   0.170E-02    0.513E-02
RMM:   5    -0.105316775654E+04    0.26890E-05   -0.52427E-05  7128   0.119E-02    0.349E-02
RMM:   6    -0.105316775795E+04   -0.14129E-05   -0.17783E-05  6982   0.841E-03    0.915E-03
RMM:   7    -0.105316775866E+04   -0.70916E-06   -0.95854E-06  6740   0.481E-03    0.644E-03
RMM:   8    -0.105316775893E+04   -0.26729E-06   -0.53732E-06  6208   0.455E-03
   4 F= -.10531678E+04 E0= -.10531678E+04  d E =-.176792E-02  mag=    70.0000
       N       E                     dE             d eps       ncg     rms          rms(c)
DAV:   1    -0.105316431098E+04    0.34477E-02   -0.16293E+00 12608   0.151E+00    0.458E-01
RMM:   2    -0.105316896635E+04   -0.46554E-02   -0.42857E-02 12377   0.280E-01    0.299E-01
RMM:   3    -0.105316922430E+04   -0.25795E-03   -0.26477E-03 12357   0.111E-01    0.176E-01
RMM:   4    -0.105316911854E+04    0.10576E-03   -0.68985E-04 11401   0.328E-02    0.970E-02
RMM:   5    -0.105316909180E+04    0.26737E-04   -0.16448E-04  7721   0.217E-02    0.596E-02
RMM:   6    -0.105316909766E+04   -0.58513E-05   -0.53835E-05  7244   0.144E-02    0.194E-02
RMM:   7    -0.105316910007E+04   -0.24155E-05   -0.28400E-05  7152   0.863E-03    0.117E-02
RMM:   8    -0.105316910097E+04   -0.89598E-06   -0.15785E-05  7066   0.766E-03
   5 F= -.10531691E+04 E0= -.10531691E+04  d E =-.310996E-02  mag=    70.0000
       N       E                     dE             d eps       ncg     rms          rms(c)
DAV:   1    -0.105316907543E+04    0.24639E-04   -0.53601E-01 12640   0.863E-01    0.228E-01
RMM:   2    -0.105317047852E+04   -0.14031E-02   -0.14135E-02 12386   0.161E-01    0.160E-01
RMM:   3    -0.105317053924E+04   -0.60717E-04   -0.90896E-04 11577   0.655E-02    0.986E-02
RMM:   4    -0.105317050162E+04    0.37612E-04   -0.18417E-04  7681   0.190E-02    0.665E-02
RMM:   5    -0.105317049328E+04    0.83397E-05   -0.71804E-05  7264   0.136E-02    0.485E-02
RMM:   6    -0.105317049577E+04   -0.24871E-05   -0.26744E-05  7072   0.100E-02    0.102E-02
RMM:   7    -0.105317049734E+04   -0.15736E-05   -0.14105E-05  6877   0.588E-03    0.721E-03
RMM:   8    -0.105317049822E+04   -0.87846E-06   -0.84505E-06  6638   0.554E-03
   6 F= -.10531705E+04 E0= -.10531705E+04  d E =-.139726E-02  mag=    70.0000
       N       E                     dE             d eps       ncg     rms          rms(c)
DAV:   1    -0.105316948442E+04    0.10129E-02   -0.56343E-01 12640   0.885E-01    0.235E-01
RMM:   2    -0.105317095200E+04   -0.14676E-02   -0.14784E-02 12373   0.163E-01    0.164E-01
RMM:   3    -0.105317100819E+04   -0.56191E-04   -0.91227E-04 11678   0.659E-02    0.101E-01
RMM:   4    -0.105317096799E+04    0.40194E-04   -0.18800E-04  7746   0.193E-02    0.702E-02
RMM:   5    -0.105317095924E+04    0.87566E-05   -0.70026E-05  7286   0.134E-02    0.531E-02
RMM:   6    -0.105317096176E+04   -0.25288E-05   -0.27334E-05  7101   0.996E-03    0.104E-02
RMM:   7    -0.105317096332E+04   -0.15550E-05   -0.13609E-05  6929   0.589E-03    0.729E-03
RMM:   8    -0.105317096417E+04   -0.84718E-06   -0.80429E-06  6672   0.544E-03
   7 F= -.10531710E+04 E0= -.10531710E+04  d E =-.186320E-02  mag=    70.0000
       N       E                     dE             d eps       ncg     rms          rms(c)
DAV:   1    -0.105317101409E+04   -0.50773E-04   -0.37204E-01 12784   0.710E-01    0.191E-01
RMM:   2    -0.105317194958E+04   -0.93549E-03   -0.96330E-03 12381   0.131E-01    0.135E-01
RMM:   3    -0.105317197097E+04   -0.21396E-04   -0.57276E-04 10798   0.525E-02    0.772E-02
RMM:   4    -0.105317194650E+04    0.24478E-04   -0.12025E-04  7272   0.159E-02    0.550E-02
RMM:   5    -0.105317194143E+04    0.50622E-05   -0.44723E-05  7098   0.114E-02    0.407E-02
RMM:   6    -0.105317194447E+04   -0.30377E-05   -0.21968E-05  7014   0.813E-03    0.109E-02
RMM:   7    -0.105317194643E+04   -0.19627E-05   -0.10188E-05  6922   0.580E-03    0.809E-03
RMM:   8    -0.105317194769E+04   -0.12602E-05   -0.63275E-06  6332   0.417E-03
   8 F= -.10531719E+04 E0= -.10531719E+04  d E =-.983528E-03  mag=    70.0000
       N       E                     dE             d eps       ncg     rms          rms(c)
DAV:   1    -0.105317051823E+04    0.14282E-02   -0.78294E-01 12704   0.103E+00    0.278E-01
RMM:   2    -0.105317248095E+04   -0.19627E-02   -0.20222E-02 12374   0.190E-01    0.197E-01
RMM:   3    -0.105317253544E+04   -0.54492E-04   -0.12621E-03 11842   0.766E-02    0.113E-01
RMM:   4    -0.105317248345E+04    0.51994E-04   -0.26433E-04  8340   0.223E-02    0.798E-02
RMM:   5    -0.105317246734E+04    0.16107E-04   -0.85879E-05  7281   0.157E-02    0.606E-02
RMM:   6    -0.105317247235E+04   -0.50053E-05   -0.39757E-05  7138   0.112E-02    0.153E-02
RMM:   7    -0.105317247556E+04   -0.32059E-05   -0.16867E-05  7049   0.752E-03    0.981E-03
RMM:   8    -0.105317247799E+04   -0.24399E-05   -0.10523E-05  6973   0.567E-03
   9 F= -.10531725E+04 E0= -.10531725E+04  d E =-.151383E-02  mag=    70.0000
       N       E                     dE             d eps       ncg     rms          rms(c)
DAV:   1    -0.105317259370E+04   -0.11814E-03   -0.31072E-01 12712   0.647E-01    0.156E-01
RMM:   2    -0.105317339775E+04   -0.80405E-03   -0.79381E-03 12390   0.117E-01    0.102E-01
RMM:   3    -0.105317342450E+04   -0.26749E-04   -0.44305E-04  9855   0.472E-02    0.605E-02
RMM:   4    -0.105317340863E+04    0.15867E-04   -0.96672E-05  7193   0.142E-02    0.438E-02
RMM:   5    -0.105317340571E+04    0.29224E-05   -0.34138E-05  7030   0.104E-02    0.338E-02
RMM:   6    -0.105317340691E+04   -0.11974E-05   -0.19547E-05  6859   0.687E-03    0.815E-03
RMM:   7    -0.105317340757E+04   -0.66447E-06   -0.82734E-06  6580   0.548E-03    0.586E-03
RMM:   8    -0.105317340788E+04   -0.30552E-06   -0.53282E-06  5569   0.345E-03
  10 F= -.10531734E+04 E0= -.10531734E+04  d E =-.929880E-03  mag=    70.0000
       N       E                     dE             d eps       ncg     rms          rms(c)
DAV:   1    -0.105316726874E+04    0.61388E-02   -0.27726E+00 12544   0.193E+00    0.465E-01
RMM:   2    -0.105317437687E+04   -0.71081E-02   -0.70115E-02 12389   0.349E-01    0.305E-01
RMM:   3    -0.105317466503E+04   -0.28816E-03   -0.42868E-03 12343   0.144E-01    0.181E-01
RMM:   4    -0.105317452552E+04    0.13951E-03   -0.99456E-04 12588   0.388E-02    0.116E-01
RMM:   5    -0.105317447031E+04    0.55208E-04   -0.24185E-04  8362   0.229E-02    0.787E-02
RMM:   6    -0.105317447784E+04   -0.75308E-05   -0.79514E-05  7277   0.158E-02    0.199E-02
RMM:   7    -0.105317448106E+04   -0.32207E-05   -0.35674E-05  7164   0.102E-02    0.120E-02
RMM:   8    -0.105317448190E+04   -0.83889E-06   -0.19854E-05  7076   0.809E-03
  11 F= -.10531745E+04 E0= -.10531745E+04  d E =-.200390E-02  mag=    70.0000
       N       E                     dE             d eps       ncg     rms          rms(c)
DAV:   1    -0.105317397906E+04    0.50200E-03   -0.51172E-01 12568   0.827E-01    0.198E-01
RMM:   2    -0.105317531164E+04   -0.13326E-02   -0.12853E-02 12533   0.149E-01    0.119E-01
RMM:   3    -0.105317537099E+04   -0.59351E-04   -0.78670E-04 11182   0.611E-02    0.704E-02
RMM:   4    -0.105317534746E+04    0.23532E-04   -0.13528E-04  7351   0.170E-02    0.473E-02
RMM:   5    -0.105317534245E+04    0.50047E-05   -0.51305E-05  7135   0.121E-02    0.397E-02
RMM:   6    -0.105317534450E+04   -0.20467E-05   -0.25594E-05  7000   0.885E-03    0.871E-03
RMM:   7    -0.105317534582E+04   -0.13182E-05   -0.12764E-05  6790   0.609E-03    0.581E-03
RMM:   8    -0.105317534646E+04   -0.64367E-06   -0.78894E-06  6317   0.476E-03
  12 F= -.10531753E+04 E0= -.10531753E+04  d E =-.864564E-03  mag=    70.0000
       N       E                     dE             d eps       ncg     rms          rms(c)
DAV:   1    -0.105317162662E+04    0.37192E-02   -0.16731E+00 12504   0.149E+00    0.359E-01
RMM:   2    -0.105317591922E+04   -0.42926E-02   -0.41379E-02 12425   0.265E-01    0.216E-01
RMM:   3    -0.105317611444E+04   -0.19522E-03   -0.25309E-03 12179   0.111E-01    0.127E-01
RMM:   4    -0.105317604525E+04    0.69189E-04   -0.54656E-04 10891   0.295E-02    0.831E-02
RMM:   5    -0.105317601640E+04    0.28847E-04   -0.12124E-04  7393   0.190E-02    0.685E-02
RMM:   6    -0.105317602106E+04   -0.46584E-05   -0.62525E-05  7182   0.134E-02    0.154E-02
RMM:   7    -0.105317602394E+04   -0.28814E-05   -0.25507E-05  7089   0.908E-03    0.895E-03
RMM:   8    -0.105317602508E+04   -0.11452E-05   -0.14848E-05  6846   0.666E-03
  13 F= -.10531760E+04 E0= -.10531760E+04  d E =-.154319E-02  mag=    70.0000
       N       E                     dE             d eps       ncg     rms          rms(c)
DAV:   1    -0.105317621626E+04   -0.19232E-03   -0.18551E-01 12800   0.499E-01    0.143E-01
RMM:   2    -0.105317674580E+04   -0.52954E-03   -0.48814E-03 12325   0.931E-02    0.973E-02
RMM:   3    -0.105317676836E+04   -0.22554E-04   -0.26558E-04  8586   0.379E-02    0.552E-02
RMM:   4    -0.105317675763E+04    0.10723E-04   -0.77775E-05  7139   0.137E-02    0.376E-02
RMM:   5    -0.105317675677E+04    0.85795E-06   -0.30371E-05  7014   0.983E-03    0.284E-02
RMM:   6    -0.105317675860E+04   -0.18206E-05   -0.14156E-05  6771   0.603E-03    0.712E-03
RMM:   7    -0.105317675944E+04   -0.84848E-06   -0.66345E-06  6378   0.466E-03    0.500E-03
RMM:   8    -0.105317676003E+04   -0.58452E-06   -0.40802E-06  5177   0.320E-03
  14 F= -.10531768E+04 E0= -.10531768E+04  d E =-.734943E-03  mag=    70.0000
       N       E                     dE             d eps       ncg     rms          rms(c)
DAV:   1    -0.105317562381E+04    0.11356E-02   -0.56820E-01 12560   0.872E-01    0.250E-01
RMM:   2    -0.105317722342E+04   -0.15996E-02   -0.14761E-02 12382   0.160E-01    0.170E-01
RMM:   3    -0.105317729745E+04   -0.74031E-04   -0.89183E-04 11385   0.647E-02    0.970E-02
RMM:   4    -0.105317725367E+04    0.43783E-04   -0.18789E-04  7749   0.193E-02    0.613E-02
RMM:   5    -0.105317724742E+04    0.62523E-05   -0.67030E-05  7247   0.134E-02    0.433E-02
RMM:   6    -0.105317725040E+04   -0.29817E-05   -0.22786E-05  7097   0.938E-03    0.108E-02
RMM:   7    -0.105317725191E+04   -0.15131E-05   -0.11341E-05  6962   0.535E-03    0.734E-03
RMM:   8    -0.105317725299E+04   -0.10771E-05   -0.65623E-06  6734   0.496E-03
  15 F= -.10531773E+04 E0= -.10531773E+04  d E =-.122790E-02  mag=    70.0000
       N       E                     dE             d eps       ncg     rms          rms(c)
DAV:   1    -0.105317740776E+04   -0.15585E-03   -0.14109E-01 12416   0.435E-01    0.114E-01
RMM:   2    -0.105317779735E+04   -0.38959E-03   -0.36560E-03 12298   0.780E-02    0.714E-02
RMM:   3    -0.105317781082E+04   -0.13472E-04   -0.17754E-04  7562   0.317E-02    0.422E-02
RMM:   4    -0.105317780511E+04    0.57092E-05   -0.49719E-05  7029   0.108E-02    0.316E-02
RMM:   5    -0.105317780411E+04    0.99908E-06   -0.17595E-05  6893   0.796E-03    0.234E-02
RMM:   6    -0.105317780476E+04   -0.64682E-06   -0.10837E-05  6540   0.476E-03    0.570E-03
RMM:   7    -0.105317780509E+04   -0.33469E-06   -0.42322E-06  6081   0.421E-03    0.466E-03
RMM:   8    -0.105317780526E+04   -0.16902E-06   -0.21102E-06  4032   0.239E-03
  16 F= -.10531778E+04 E0= -.10531778E+04  d E =-.552276E-03  mag=    70.0000
       N       E                     dE             d eps       ncg     rms          rms(c)
DAV:   1    -0.105317502206E+04    0.27830E-02   -0.12689E+00 12616   0.130E+00    0.342E-01
RMM:   2    -0.105317849351E+04   -0.34714E-02   -0.32502E-02 12394   0.235E-01    0.214E-01
RMM:   3    -0.105317866579E+04   -0.17228E-03   -0.19337E-03 11981   0.959E-02    0.127E-01
RMM:   4    -0.105317860145E+04    0.64338E-04   -0.40530E-04  9870   0.266E-02    0.838E-02
RMM:   5    -0.105317857856E+04    0.22884E-04   -0.10366E-04  7364   0.176E-02    0.589E-02
RMM:   6    -0.105317858332E+04   -0.47570E-05   -0.47589E-05  7170   0.122E-02    0.122E-02
RMM:   7    -0.105317858508E+04   -0.17574E-05   -0.19212E-05  7049   0.802E-03    0.808E-03
RMM:   8    -0.105317858585E+04   -0.77530E-06   -0.11040E-05  6820   0.577E-03
  17 F= -.10531786E+04 E0= -.10531786E+04  d E =-.133287E-02  mag=    70.0000
       N       E                     dE             d eps       ncg     rms          rms(c)
DAV:   1    -0.105317869734E+04   -0.11226E-03   -0.18199E-01 12496   0.493E-01    0.127E-01
RMM:   2    -0.105317918335E+04   -0.48601E-03   -0.47370E-03 12346   0.897E-02    0.814E-02
RMM:   3    -0.105317920068E+04   -0.17329E-04   -0.24735E-04  8043   0.368E-02    0.474E-02
RMM:   4    -0.105317919120E+04    0.94842E-05   -0.68735E-05  7114   0.126E-02    0.322E-02
RMM:   5    -0.105317919009E+04    0.11082E-05   -0.25711E-05  6968   0.943E-03    0.315E-02
RMM:   6    -0.105317919093E+04   -0.84564E-06   -0.14901E-05  6741   0.580E-03    0.664E-03
RMM:   7    -0.105317919160E+04   -0.67092E-06   -0.60289E-06  6301   0.482E-03    0.475E-03
RMM:   8    -0.105317919199E+04   -0.38158E-06   -0.34657E-06  4840   0.290E-03
  18 F= -.10531792E+04 E0= -.10531792E+04  d E =-.606133E-03  mag=    70.0000
       N       E                     dE             d eps       ncg     rms          rms(c)
DAV:   1    -0.105317721101E+04    0.19806E-02   -0.92215E-01 12480   0.111E+00    0.285E-01
RMM:   2    -0.105317963783E+04   -0.24268E-02   -0.23659E-02 12362   0.200E-01    0.182E-01
RMM:   3    -0.105317974456E+04   -0.10673E-03   -0.14208E-03 11818   0.823E-02    0.108E-01
RMM:   4    -0.105317968693E+04    0.57630E-04   -0.30101E-04  8874   0.235E-02    0.811E-02
RMM:   5    -0.105317967053E+04    0.16397E-04   -0.73780E-05  7319   0.154E-02    0.605E-02
RMM:   6    -0.105317967119E+04   -0.66293E-06   -0.52034E-05  7154   0.109E-02    0.162E-02
RMM:   7    -0.105317967299E+04   -0.17959E-05   -0.16826E-05  7038   0.816E-03    0.780E-03
RMM:   8    -0.105317967418E+04   -0.11914E-05   -0.10741E-05  6784   0.494E-03
  19 F= -.10531797E+04 E0= -.10531797E+04  d E =-.108833E-02  mag=    70.0000
       N       E                     dE             d eps       ncg     rms          rms(c)
DAV:   1    -0.105317958308E+04    0.89909E-04   -0.19702E-01 12528   0.509E-01    0.126E-01
RMM:   2    -0.105318010813E+04   -0.52505E-03   -0.50393E-03 12401   0.914E-02    0.782E-02
RMM:   3    -0.105318012788E+04   -0.19748E-04   -0.25758E-04  8102   0.372E-02    0.469E-02
RMM:   4    -0.105318012088E+04    0.69949E-05   -0.65125E-05  7100   0.125E-02    0.403E-02
RMM:   5    -0.105318011986E+04    0.10251E-05   -0.22803E-05  6912   0.909E-03    0.271E-02
RMM:   6    -0.105318012051E+04   -0.65354E-06   -0.18467E-05  6729   0.561E-03    0.130E-02
RMM:   7    -0.105318012102E+04   -0.50379E-06   -0.60312E-06  6476   0.496E-03    0.504E-03
RMM:   8    -0.105318012132E+04   -0.30940E-06   -0.30204E-06  4532   0.272E-03
  20 F= -.10531801E+04 E0= -.10531801E+04  d E =-.447143E-03  mag=    70.0000
       N       E                     dE             d eps       ncg     rms          rms(c)
DAV:   1    -0.105317719596E+04    0.29251E-02   -0.12665E+00 12488   0.129E+00    0.319E-01
RMM:   2    -0.105318052485E+04   -0.33289E-02   -0.31981E-02 12349   0.230E-01    0.198E-01
RMM:   3    -0.105318068086E+04   -0.15600E-03   -0.18975E-03 11975   0.953E-02    0.118E-01
RMM:   4    -0.105318062101E+04    0.59842E-04   -0.38738E-04  9599   0.263E-02    0.886E-02
RMM:   5    -0.105318060163E+04    0.19381E-04   -0.85938E-05  7361   0.169E-02    0.678E-02
RMM:   6    -0.105318060344E+04   -0.18056E-05   -0.65360E-05  7160   0.119E-02    0.202E-02
RMM:   7    -0.105318060549E+04   -0.20474E-05   -0.19838E-05  7053   0.896E-03    0.816E-03
RMM:   8    -0.105318060695E+04   -0.14595E-05   -0.11977E-05  6863   0.523E-03
  21 F= -.10531806E+04 E0= -.10531806E+04  d E =-.932765E-03  mag=    70.0000
       N       E                     dE             d eps       ncg     rms          rms(c)
DAV:   1    -0.105318060503E+04    0.45385E-06   -0.23753E-01 12424   0.555E-01    0.143E-01
RMM:   2    -0.105318121113E+04   -0.60610E-03   -0.60814E-03 12326   0.101E-01    0.953E-02
RMM:   3    -0.105318122968E+04   -0.18549E-04   -0.32842E-04  8923   0.412E-02    0.553E-02
RMM:   4    -0.105318121408E+04    0.15597E-04   -0.83387E-05  7186   0.140E-02    0.358E-02
RMM:   5    -0.105318121204E+04    0.20467E-05   -0.33556E-05  7043   0.102E-02    0.324E-02
RMM:   6    -0.105318121312E+04   -0.10799E-05   -0.15989E-05  6865   0.660E-03    0.699E-03
RMM:   7    -0.105318121389E+04   -0.77645E-06   -0.69293E-06  6382   0.476E-03    0.566E-03
RMM:   8    -0.105318121434E+04   -0.45006E-06   -0.40695E-06  5399   0.325E-03
  22 F= -.10531812E+04 E0= -.10531812E+04  d E =-.607396E-03  mag=    70.0000
