<?xml version="1.0" encoding="ISO-8859-1"?>
<modeling>
 <generator>
  <i name="program" type="string">vasp </i>
  <i name="version" type="string">5.4.1  </i>
  <i name="subversion" type="string">05Feb16 (build Jan 25 2017 20:16:33) complex                          parallel </i>
  <i name="platform" type="string">BWXE6 </i>
  <i name="date" type="string">2019 06 30 </i>
  <i name="time" type="string">15:28:13 </i>
 </generator>
 <incar>
  <i type="string" name="SYSTEM"> STF</i>
  <i type="string" name="PREC">normal</i>
  <i type="string" name="ALGO"> Fast</i>
  <i type="int" name="ISPIN">     2</i>
  <i type="int" name="NELM">    40</i>
  <i type="int" name="NELMIN">     8</i>
  <i type="int" name="IBRION">     2</i>
  <i name="EDIFF">      0.00010000</i>
  <i name="EDIFFG">     -0.03000000</i>
  <i type="int" name="NSW">    30</i>
  <i type="int" name="ISIF">     3</i>
  <i name="ENCUT">    520.00000000</i>
  <i type="int" name="NBANDS">   768</i>
  <v name="MAGMOM">      0.60000000      0.60000000      0.60000000      0.60000000      0.60000000      0.60000000      0.60000000      0.60000000      0.60000000      0.60000000      0.60000000      0.60000000      0.60000000      0.60000000      0.60000000      0.60000000      0.60000000      0.60000000      0.60000000      0.60000000
      0.60000000      0.60000000      0.60000000      0.60000000      0.60000000      0.60000000      0.60000000      0.60000000      0.60000000      0.60000000      0.60000000      0.60000000      0.60000000      0.60000000      0.60000000      0.60000000      0.60000000      0.60000000      0.60000000      0.60000000
      0.60000000      0.60000000      0.60000000      0.60000000      0.60000000      0.60000000      0.60000000      0.60000000      5.00000000      5.00000000      5.00000000      5.00000000      5.00000000      5.00000000      5.00000000      5.00000000      5.00000000      5.00000000      5.00000000      5.00000000
      5.00000000      5.00000000      5.00000000      5.00000000      0.60000000      0.60000000      0.60000000      0.60000000      0.60000000      0.60000000      0.60000000      0.60000000      0.60000000      0.60000000      0.60000000      0.60000000      0.60000000      0.60000000      0.60000000      0.60000000
      0.60000000      0.60000000      0.60000000      0.60000000      0.60000000      0.60000000      0.60000000      0.60000000      0.60000000      0.60000000      0.60000000      0.60000000      0.60000000      0.60000000      0.60000000      0.60000000      0.60000000      0.60000000      0.60000000      0.60000000
      0.60000000      0.60000000      0.60000000      0.60000000      0.60000000      0.60000000      0.60000000      0.60000000      0.60000000      0.60000000      0.60000000      0.60000000      0.60000000      0.60000000      0.60000000      0.60000000      0.60000000      0.60000000      0.60000000      0.60000000
      0.60000000      0.60000000      0.60000000      0.60000000      0.60000000      0.60000000      0.60000000      0.60000000      0.60000000      0.60000000      0.60000000      0.60000000      0.60000000      0.60000000      0.60000000      0.60000000      0.60000000      0.60000000      0.60000000      0.60000000
      0.60000000      0.60000000      0.60000000      0.60000000      0.60000000      0.60000000      0.60000000      0.60000000      0.60000000      0.60000000      0.60000000      0.60000000</v>
  <i type="string" name="LREAL"> Auto</i>
  <i type="int" name="ISMEAR">     0</i>
  <i name="SIGMA">      0.05000000</i>
  <i type="int" name="LMAXMIX">     4</i>
  <v type="int" name="KPOINT_BSE">    -1     0     0     0</v>
  <i type="int" name="NELM">    40</i>
  <i type="logical" name="LDAU"> T  </i>
  <v type="int" name="LDAUTYPE">     2</v>
  <v type="int" name="LDAUL">     0     2     2     0</v>
  <v name="LDAUU">      0.00000000      3.00000000      5.00000000      0.00000000</v>
  <v name="LDAUJ">      0.00000000      0.00000000      0.00000000      0.00000000</v>
  <i type="int" name="LDAUPRINT">     1</i>
 </incar>
 <kpoints>
  <generation param="Monkhorst-Pack">
   <v type="int" name="divisions">       2        2        2 </v>
   <v name="usershift">      0.00000000       0.00000000       0.00000000 </v>
   <v name="genvec1">      0.50000000       0.00000000       0.00000000 </v>
   <v name="genvec2">     -0.00000000       0.50000000       0.00000000 </v>
   <v name="genvec3">      0.00000000      -0.00000000       0.50000000 </v>
   <v name="shift">      0.50000000       0.50000000       0.50000000 </v>
  </generation>
  <varray name="kpointlist" >
   <v>       0.25000000       0.25000000       0.25000000 </v>
   <v>      -0.25000000       0.25000000       0.25000000 </v>
   <v>       0.25000000      -0.25000000       0.25000000 </v>
   <v>      -0.25000000      -0.25000000       0.25000000 </v>
  </varray>
  <varray name="weights" >
   <v>       0.25000000 </v>
   <v>       0.25000000 </v>
   <v>       0.25000000 </v>
   <v>       0.25000000 </v>
  </varray>
 </kpoints>
 <parameters>
  <separator name="general" >
   <i type="string" name="SYSTEM">STF</i>
   <i type="logical" name="LCOMPAT"> F  </i>
  </separator>
  <separator name="electronic" >
   <i type="string" name="PREC">normal</i>
   <i name="ENMAX">    520.00000000</i>
   <i name="ENAUG">    605.39200000</i>
   <i name="EDIFF">      0.00010000</i>
   <i type="int" name="IALGO">    68</i>
   <i type="int" name="IWAVPR">    11</i>
   <i type="int" name="NBANDS">   768</i>
   <i name="NELECT">   1040.00000000</i>
   <i type="int" name="TURBO">     0</i>
   <i type="int" name="IRESTART">     0</i>
   <i type="int" name="NREBOOT">     0</i>
   <i type="int" name="NMIN">     0</i>
   <i name="EREF">      0.00000000</i>
   <separator name="electronic smearing" >
    <i type="int" name="ISMEAR">     0</i>
    <i name="SIGMA">      0.05000000</i>
    <i name="KSPACING">      0.50000000</i>
    <i type="logical" name="KGAMMA"> T  </i>
   </separator>
   <separator name="electronic projectors" >
    <i type="logical" name="LREAL"> T  </i>
    <v name="ROPT">     -0.00050000     -0.00050000     -0.00050000     -0.00050000</v>
    <i type="int" name="LMAXPAW">  -100</i>
    <i type="int" name="LMAXMIX">     4</i>
    <i type="logical" name="NLSPLINE"> F  </i>
   </separator>
   <separator name="electronic startup" >
    <i type="int" name="ISTART">     1</i>
    <i type="int" name="ICHARG">     0</i>
    <i type="int" name="INIWAV">     1</i>
   </separator>
   <separator name="electronic spin" >
    <i type="int" name="ISPIN">     2</i>
    <i type="logical" name="LNONCOLLINEAR"> F  </i>
    <v name="MAGMOM">      0.60000000      0.60000000      0.60000000      0.60000000      0.60000000      0.60000000      0.60000000      0.60000000      0.60000000      0.60000000      0.60000000      0.60000000      0.60000000      0.60000000      0.60000000      0.60000000      0.60000000      0.60000000      0.60000000      0.60000000
      0.60000000      0.60000000      0.60000000      0.60000000      0.60000000      0.60000000      0.60000000      0.60000000      0.60000000      0.60000000      0.60000000      0.60000000      0.60000000      0.60000000      0.60000000      0.60000000      0.60000000      0.60000000      0.60000000      0.60000000
      0.60000000      0.60000000      0.60000000      0.60000000      0.60000000      0.60000000      0.60000000      0.60000000      5.00000000      5.00000000      5.00000000      5.00000000      5.00000000      5.00000000      5.00000000      5.00000000      5.00000000      5.00000000      5.00000000      5.00000000
      5.00000000      5.00000000      5.00000000      5.00000000      0.60000000      0.60000000      0.60000000      0.60000000      0.60000000      0.60000000      0.60000000      0.60000000      0.60000000      0.60000000      0.60000000      0.60000000      0.60000000      0.60000000      0.60000000      0.60000000
      0.60000000      0.60000000      0.60000000      0.60000000      0.60000000      0.60000000      0.60000000      0.60000000      0.60000000      0.60000000      0.60000000      0.60000000      0.60000000      0.60000000      0.60000000      0.60000000      0.60000000      0.60000000      0.60000000      0.60000000
      0.60000000      0.60000000      0.60000000      0.60000000      0.60000000      0.60000000      0.60000000      0.60000000      0.60000000      0.60000000      0.60000000      0.60000000      0.60000000      0.60000000      0.60000000      0.60000000      0.60000000      0.60000000      0.60000000      0.60000000
      0.60000000      0.60000000      0.60000000      0.60000000      0.60000000      0.60000000      0.60000000      0.60000000      0.60000000      0.60000000      0.60000000      0.60000000      0.60000000      0.60000000      0.60000000      0.60000000      0.60000000      0.60000000      0.60000000      0.60000000
      0.60000000      0.60000000      0.60000000      0.60000000      0.60000000      0.60000000      0.60000000      0.60000000      0.60000000      0.60000000      0.60000000      0.60000000</v>
    <i name="NUPDOWN">     -1.00000000</i>
    <i type="logical" name="LSORBIT"> F  </i>
    <v name="SAXIS">      0.00000000      0.00000000      1.00000000</v>
    <i type="logical" name="LSPIRAL"> F  </i>
    <v name="QSPIRAL">      0.00000000      0.00000000      0.00000000</v>
    <i type="logical" name="LZEROZ"> F  </i>
   </separator>
   <separator name="electronic exchange-correlation" >
    <i type="logical" name="LASPH"> F  </i>
    <i type="logical" name="LMETAGGA"> F  </i>
   </separator>
   <separator name="electronic convergence" >
    <i type="int" name="NELM">    40</i>
    <i type="int" name="NELMDL">     0</i>
    <i type="int" name="NELMIN">     8</i>
    <i name="ENINI">    520.00000000</i>
    <separator name="electronic convergence detail" >
     <i type="logical" name="LDIAG"> T  </i>
     <i type="logical" name="LSUBROT"> F  </i>
     <i name="WEIMIN">      0.00100000</i>
     <i name="EBREAK">      0.00000003</i>
     <i name="DEPER">      0.30000000</i>
     <i type="int" name="NRMM">     4</i>
     <i name="TIME">      0.40000000</i>
    </separator>
   </separator>
   <separator name="electronic mixer" >
    <i name="AMIX">      0.40000000</i>
    <i name="BMIX">      1.00000000</i>
    <i name="AMIN">      0.10000000</i>
    <i name="AMIX_MAG">      1.60000000</i>
    <i name="BMIX_MAG">      1.00000000</i>
    <separator name="electronic mixer details" >
     <i type="int" name="IMIX">     4</i>
     <i type="logical" name="MIXFIRST"> F  </i>
     <i type="int" name="MAXMIX">   -45</i>
     <i name="WC">    100.00000000</i>
     <i type="int" name="INIMIX">     1</i>
     <i type="int" name="MIXPRE">     1</i>
     <i type="int" name="MREMOVE">     5</i>
    </separator>
   </separator>
   <separator name="electronic dipolcorrection" >
    <i type="logical" name="LDIPOL"> F  </i>
    <i type="logical" name="LMONO"> F  </i>
    <i type="int" name="IDIPOL">     0</i>
    <i name="EPSILON">      1.00000000</i>
    <v name="DIPOL">   -100.00000000   -100.00000000   -100.00000000</v>
    <i name="EFIELD">      0.00000000</i>
   </separator>
  </separator>
  <separator name="grids" >
   <i type="int" name="NGX">    64</i>
   <i type="int" name="NGY">    64</i>
   <i type="int" name="NGZ">    90</i>
   <i type="int" name="NGXF">   128</i>
   <i type="int" name="NGYF">   128</i>
   <i type="int" name="NGZF">   180</i>
   <i type="logical" name="ADDGRID"> F  </i>
  </separator>
  <separator name="ionic" >
   <i type="int" name="NSW">    30</i>
   <i type="int" name="IBRION">     2</i>
   <i type="int" name="ISIF">     3</i>
   <i name="PSTRESS">      0.00000000</i>
   <i name="EDIFFG">     -0.03000000</i>
   <i type="int" name="NFREE">     1</i>
   <i name="POTIM">      0.50000000</i>
   <i name="SMASS">     -3.00000000</i>
   <i name="SCALEE">      1.00000000</i>
  </separator>
  <separator name="ionic md" >
   <i name="TEBEG">      0.00010000</i>
   <i name="TEEND">      0.00010000</i>
   <i type="int" name="NBLOCK">     1</i>
   <i type="int" name="KBLOCK">    30</i>
   <i type="int" name="NPACO">   256</i>
   <i name="APACO">     16.00000000</i>
  </separator>
  <separator name="symmetry" >
   <i type="int" name="ISYM">     2</i>
   <i name="SYMPREC">      0.00001000</i>
  </separator>
  <separator name="dos" >
   <i type="logical" name="LORBIT"> F  </i>
   <v name="RWIGS">     -1.00000000     -1.00000000     -1.00000000     -1.00000000</v>
   <i type="int" name="NEDOS">   301</i>
   <i name="EMIN">     10.00000000</i>
   <i name="EMAX">    -10.00000000</i>
   <i name="EFERMI">      0.00000000</i>
  </separator>
  <separator name="writing" >
   <i type="int" name="NWRITE">     2</i>
   <i type="logical" name="LWAVE"> T  </i>
   <i type="logical" name="LCHARG"> T  </i>
   <i type="logical" name="LPARD"> F  </i>
   <i type="logical" name="LVTOT"> F  </i>
   <i type="logical" name="LVHAR"> F  </i>
   <i type="logical" name="LELF"> F  </i>
   <i type="logical" name="LOPTICS"> F  </i>
   <v name="STM">      0.00000000      0.00000000      0.00000000      0.00000000      0.00000000      0.00000000      0.00000000</v>
  </separator>
  <separator name="performance" >
   <i type="int" name="NPAR">     2</i>
   <i type="int" name="NSIM">     4</i>
   <i type="int" name="NBLK">    -1</i>
   <i type="logical" name="LPLANE"> T  </i>
   <i type="logical" name="LSCALAPACK"> T  </i>
   <i type="logical" name="LSCAAWARE"> F  </i>
   <i type="logical" name="LSCALU"> F  </i>
   <i type="logical" name="LASYNC"> F  </i>
   <i type="logical" name="LORBITALREAL"> F  </i>
  </separator>
  <separator name="miscellaneous" >
   <i type="int" name="IDIOT">     3</i>
   <i type="logical" name="LMUSIC"> F  </i>
   <v name="POMASS">     87.62000000     47.88000000     55.84700000     16.00000000</v>
   <v name="DARWINR">      0.00000000      0.00000000      0.00000000      0.00000000</v>
   <v name="DARWINV">      1.00000000      1.00000000      1.00000000      1.00000000</v>
   <i type="logical" name="LCORR"> T  </i>
  </separator>
  <i type="logical" name="GGA_COMPAT"> T  </i>
  <i type="logical" name="LBERRY"> F  </i>
  <i type="int" name="ICORELEVEL">     0</i>
  <i type="logical" name="LDAU"> T  </i>
  <v type="int" name="LDAUTYPE">     2</v>
  <v type="int" name="LDAUL">     0</v>
  <v name="LDAUU">      0.00000000</v>
  <v name="LDAUJ">      0.00000000</v>
  <i type="int" name="LDAUPRINT">     1</i>
  <i type="int" name="I_CONSTRAINED_M">     0</i>
  <separator name="electronic exchange-correlation" >
   <i type="string" name="GGA">--</i>
   <i type="int" name="VOSKOWN">     0</i>
   <i type="logical" name="LHFCALC"> F  </i>
   <i type="string" name="PRECFOCK"></i>
   <i type="logical" name="LSYMGRAD"> F  </i>
   <i type="logical" name="LHFONE"> F  </i>
   <i type="logical" name="LRHFCALC"> F  </i>
   <i type="logical" name="LTHOMAS"> F  </i>
   <i type="logical" name="LMODELHF"> F  </i>
   <i name="ENCUT4O">     -1.00000000</i>
   <i type="int" name="EXXOEP">     0</i>
   <i type="int" name="FOURORBIT">     0</i>
   <i name="AEXX">      0.00000000</i>
   <i name="HFALPHA">      0.00000000</i>
   <i name="MCALPHA">      0.00000000</i>
   <i name="ALDAX">      1.00000000</i>
   <i name="AGGAX">      1.00000000</i>
   <i name="ALDAC">      1.00000000</i>
   <i name="AGGAC">      1.00000000</i>
   <i type="int" name="NKREDX">     1</i>
   <i type="int" name="NKREDY">     1</i>
   <i type="int" name="NKREDZ">     1</i>
   <i type="logical" name="SHIFTRED"> F  </i>
   <i type="logical" name="ODDONLY"> F  </i>
   <i type="logical" name="EVENONLY"> F  </i>
   <i type="int" name="LMAXFOCK">     0</i>
   <i type="int" name="NMAXFOCKAE">     0</i>
   <i type="logical" name="LFOCKAEDFT"> F  </i>
   <i name="HFSCREEN">      0.00000000</i>
   <i name="HFSCREENC">      0.00000000</i>
   <i type="int" name="NBANDSGWLOW">     0</i>
  </separator>
  <separator name="vdW DFT" >
   <i type="logical" name="LUSE_VDW"> F  </i>
   <i name="Zab_VDW">     -0.84910000</i>
   <i name="PARAM1">      0.12340000</i>
   <i name="PARAM2">      1.00000000</i>
   <i name="PARAM3">      0.00000000</i>
  </separator>
  <separator name="model GW" >
   <i type="int" name="MODEL_GW">     0</i>
   <i name="MODEL_EPS0">      7.98619744</i>
   <i name="MODEL_ALPHA">      1.00000000</i>
  </separator>
  <separator name="linear response parameters" >
   <i type="logical" name="LEPSILON"> F  </i>
   <i type="logical" name="LRPA"> F  </i>
   <i type="logical" name="LNABLA"> F  </i>
   <i type="logical" name="LVEL"> F  </i>
   <i type="int" name="KINTER">     0</i>
   <i name="CSHIFT">      0.10000000</i>
   <i name="OMEGAMAX">     -1.00000000</i>
   <i name="DEG_THRESHOLD">      0.00200000</i>
  </separator>
  <separator name="orbital magnetization" >
   <i type="logical" name="NUCIND"> F  </i>
   <v name="MAGPOS">      0.00000000      0.00000000      0.00000000</v>
   <i type="logical" name="LNICSALL"> T  </i>
   <i type="logical" name="ORBITALMAG"> F  </i>
   <i type="logical" name="LMAGBLOCH"> F  </i>
   <i type="logical" name="LCHIMAG"> F  </i>
   <i type="logical" name="LGAUGE"> T  </i>
   <i type="int" name="MAGATOM">     0</i>
   <v name="MAGDIPOL">      0.00000000      0.00000000      0.00000000</v>
   <v name="AVECCONST">      0.00000000      0.00000000      0.00000000</v>
  </separator>
  <separator name="response functions" >
   <i type="logical" name="LADDER"> F  </i>
   <i type="logical" name="LFXC"> F  </i>
   <i type="logical" name="LHARTREE"> T  </i>
   <i type="int" name="IBSE">     0</i>
   <v type="int" name="KPOINT">    -1     0     0     0</v>
   <i type="logical" name="LTCTE"> F  </i>
   <i type="logical" name="LTETE"> F  </i>
   <i type="logical" name="LTRIPLET"> F  </i>
   <i type="logical" name="LFXCEPS"> F  </i>
   <i type="logical" name="LFXHEG"> F  </i>
   <i type="int" name="NATURALO">     0</i>
   <i type="logical" name="L2ORDER"> F  </i>
   <i type="logical" name="LUSEW"> F  </i>
   <i name="ENCUTGW">     -2.00000000</i>
   <i name="ENCUTGWSOFT">     -2.00000000</i>
   <i name="ENCUTLF">     -1.00000000</i>
   <i type="int" name="LMAXMP2">    -1</i>
   <i name="SCISSOR">      0.00000000</i>
   <i type="int" name="NOMEGA">     0</i>
   <i type="int" name="NOMEGAR">     0</i>
   <i type="int" name="NBANDSGW">    -1</i>
   <i type="int" name="NBANDSO">    -1</i>
   <i type="int" name="NBANDSV">    -1</i>
   <i type="int" name="NELM">    40</i>
   <i type="int" name="NELMHF">     1</i>
   <i type="int" name="DIM">     3</i>
   <i type="int" name="ANTIRES">     0</i>
   <i name="OMEGAMAX">    -30.00000000</i>
   <i name="OMEGAMIN">    -30.00000000</i>
   <i name="OMEGATL">   -200.00000000</i>
   <i type="int" name="OMEGAGRID">     0</i>
   <i name="CSHIFT">     -0.10000000</i>
   <i type="logical" name="SELFENERGY"> F  </i>
   <i type="logical" name="LSPECTRAL"> F  </i>
   <i type="logical" name="LSPECTRALGW"> F  </i>
   <i type="logical" name="LSINGLES"> F  </i>
   <i type="logical" name="LFERMIGW"> F  </i>
   <i type="logical" name="ODDONLYGW"> F  </i>
   <i type="logical" name="EVENONLYGW"> F  </i>
   <i type="int" name="NKREDLFX">     1</i>
   <i type="int" name="NKREDLFY">     1</i>
   <i type="int" name="NKREDLFZ">     1</i>
   <i type="int" name="MAXMEM">  1800</i>
   <i type="int" name="TELESCOPE">     0</i>
   <i type="int" name="TAUPAR">     1</i>
   <i type="int" name="OMEGAPAR">    -1</i>
   <i name="LAMBDA">      1.00000000</i>
  </separator>
  <separator name="External order field" >
   <i name="OFIELD_KAPPA">      0.00000000</i>
   <v name="OFIELD_K">      0.00000000      0.00000000      0.00000000</v>
   <i name="OFIELD_Q6_NEAR">      0.00000000</i>
   <i name="OFIELD_Q6_FAR">      0.00000000</i>
   <i name="OFIELD_A">      0.00000000</i>
  </separator>
 </parameters>
 <atominfo>
  <atoms>     152 </atoms>
  <types>       4 </types>
  <array name="atoms" >
   <dimension dim="1">ion</dimension>
   <field type="string">element</field>
   <field type="int">atomtype</field>
   <set>
    <rc><c>Sr</c><c>   1</c></rc>
    <rc><c>Sr</c><c>   1</c></rc>
    <rc><c>Sr</c><c>   1</c></rc>
    <rc><c>Sr</c><c>   1</c></rc>
    <rc><c>Sr</c><c>   1</c></rc>
    <rc><c>Sr</c><c>   1</c></rc>
    <rc><c>Sr</c><c>   1</c></rc>
    <rc><c>Sr</c><c>   1</c></rc>
    <rc><c>Sr</c><c>   1</c></rc>
    <rc><c>Sr</c><c>   1</c></rc>
    <rc><c>Sr</c><c>   1</c></rc>
    <rc><c>Sr</c><c>   1</c></rc>
    <rc><c>Sr</c><c>   1</c></rc>
    <rc><c>Sr</c><c>   1</c></rc>
    <rc><c>Sr</c><c>   1</c></rc>
    <rc><c>Sr</c><c>   1</c></rc>
    <rc><c>Sr</c><c>   1</c></rc>
    <rc><c>Sr</c><c>   1</c></rc>
    <rc><c>Sr</c><c>   1</c></rc>
    <rc><c>Sr</c><c>   1</c></rc>
    <rc><c>Sr</c><c>   1</c></rc>
    <rc><c>Sr</c><c>   1</c></rc>
    <rc><c>Sr</c><c>   1</c></rc>
    <rc><c>Sr</c><c>   1</c></rc>
    <rc><c>Sr</c><c>   1</c></rc>
    <rc><c>Sr</c><c>   1</c></rc>
    <rc><c>Sr</c><c>   1</c></rc>
    <rc><c>Sr</c><c>   1</c></rc>
    <rc><c>Sr</c><c>   1</c></rc>
    <rc><c>Sr</c><c>   1</c></rc>
    <rc><c>Sr</c><c>   1</c></rc>
    <rc><c>Sr</c><c>   1</c></rc>
    <rc><c>Ti</c><c>   2</c></rc>
    <rc><c>Ti</c><c>   2</c></rc>
    <rc><c>Ti</c><c>   2</c></rc>
    <rc><c>Ti</c><c>   2</c></rc>
    <rc><c>Ti</c><c>   2</c></rc>
    <rc><c>Ti</c><c>   2</c></rc>
    <rc><c>Ti</c><c>   2</c></rc>
    <rc><c>Ti</c><c>   2</c></rc>
    <rc><c>Ti</c><c>   2</c></rc>
    <rc><c>Ti</c><c>   2</c></rc>
    <rc><c>Ti</c><c>   2</c></rc>
    <rc><c>Ti</c><c>   2</c></rc>
    <rc><c>Ti</c><c>   2</c></rc>
    <rc><c>Ti</c><c>   2</c></rc>
    <rc><c>Ti</c><c>   2</c></rc>
    <rc><c>Ti</c><c>   2</c></rc>
    <rc><c>Fe</c><c>   3</c></rc>
    <rc><c>Fe</c><c>   3</c></rc>
    <rc><c>Fe</c><c>   3</c></rc>
    <rc><c>Fe</c><c>   3</c></rc>
    <rc><c>Fe</c><c>   3</c></rc>
    <rc><c>Fe</c><c>   3</c></rc>
    <rc><c>Fe</c><c>   3</c></rc>
    <rc><c>Fe</c><c>   3</c></rc>
    <rc><c>Fe</c><c>   3</c></rc>
    <rc><c>Fe</c><c>   3</c></rc>
    <rc><c>Fe</c><c>   3</c></rc>
    <rc><c>Fe</c><c>   3</c></rc>
    <rc><c>Fe</c><c>   3</c></rc>
    <rc><c>Fe</c><c>   3</c></rc>
    <rc><c>Fe</c><c>   3</c></rc>
    <rc><c>Fe</c><c>   3</c></rc>
    <rc><c>O </c><c>   4</c></rc>
    <rc><c>O </c><c>   4</c></rc>
    <rc><c>O </c><c>   4</c></rc>
    <rc><c>O </c><c>   4</c></rc>
    <rc><c>O </c><c>   4</c></rc>
    <rc><c>O </c><c>   4</c></rc>
    <rc><c>O </c><c>   4</c></rc>
    <rc><c>O </c><c>   4</c></rc>
    <rc><c>O </c><c>   4</c></rc>
    <rc><c>O </c><c>   4</c></rc>
    <rc><c>O </c><c>   4</c></rc>
    <rc><c>O </c><c>   4</c></rc>
    <rc><c>O </c><c>   4</c></rc>
    <rc><c>O </c><c>   4</c></rc>
    <rc><c>O </c><c>   4</c></rc>
    <rc><c>O </c><c>   4</c></rc>
    <rc><c>O </c><c>   4</c></rc>
    <rc><c>O </c><c>   4</c></rc>
    <rc><c>O </c><c>   4</c></rc>
    <rc><c>O </c><c>   4</c></rc>
    <rc><c>O </c><c>   4</c></rc>
    <rc><c>O </c><c>   4</c></rc>
    <rc><c>O </c><c>   4</c></rc>
    <rc><c>O </c><c>   4</c></rc>
    <rc><c>O </c><c>   4</c></rc>
    <rc><c>O </c><c>   4</c></rc>
    <rc><c>O </c><c>   4</c></rc>
    <rc><c>O </c><c>   4</c></rc>
    <rc><c>O </c><c>   4</c></rc>
    <rc><c>O </c><c>   4</c></rc>
    <rc><c>O </c><c>   4</c></rc>
    <rc><c>O </c><c>   4</c></rc>
    <rc><c>O </c><c>   4</c></rc>
    <rc><c>O </c><c>   4</c></rc>
    <rc><c>O </c><c>   4</c></rc>
    <rc><c>O </c><c>   4</c></rc>
    <rc><c>O </c><c>   4</c></rc>
    <rc><c>O </c><c>   4</c></rc>
    <rc><c>O </c><c>   4</c></rc>
    <rc><c>O </c><c>   4</c></rc>
    <rc><c>O </c><c>   4</c></rc>
    <rc><c>O </c><c>   4</c></rc>
    <rc><c>O </c><c>   4</c></rc>
    <rc><c>O </c><c>   4</c></rc>
    <rc><c>O </c><c>   4</c></rc>
    <rc><c>O </c><c>   4</c></rc>
    <rc><c>O </c><c>   4</c></rc>
    <rc><c>O </c><c>   4</c></rc>
    <rc><c>O </c><c>   4</c></rc>
    <rc><c>O </c><c>   4</c></rc>
    <rc><c>O </c><c>   4</c></rc>
    <rc><c>O </c><c>   4</c></rc>
    <rc><c>O </c><c>   4</c></rc>
    <rc><c>O </c><c>   4</c></rc>
    <rc><c>O </c><c>   4</c></rc>
    <rc><c>O </c><c>   4</c></rc>
    <rc><c>O </c><c>   4</c></rc>
    <rc><c>O </c><c>   4</c></rc>
    <rc><c>O </c><c>   4</c></rc>
    <rc><c>O </c><c>   4</c></rc>
    <rc><c>O </c><c>   4</c></rc>
    <rc><c>O </c><c>   4</c></rc>
    <rc><c>O </c><c>   4</c></rc>
    <rc><c>O </c><c>   4</c></rc>
    <rc><c>O </c><c>   4</c></rc>
    <rc><c>O </c><c>   4</c></rc>
    <rc><c>O </c><c>   4</c></rc>
    <rc><c>O </c><c>   4</c></rc>
    <rc><c>O </c><c>   4</c></rc>
    <rc><c>O </c><c>   4</c></rc>
    <rc><c>O </c><c>   4</c></rc>
    <rc><c>O </c><c>   4</c></rc>
    <rc><c>O </c><c>   4</c></rc>
    <rc><c>O </c><c>   4</c></rc>
    <rc><c>O </c><c>   4</c></rc>
    <rc><c>O </c><c>   4</c></rc>
    <rc><c>O </c><c>   4</c></rc>
    <rc><c>O </c><c>   4</c></rc>
    <rc><c>O </c><c>   4</c></rc>
    <rc><c>O </c><c>   4</c></rc>
    <rc><c>O </c><c>   4</c></rc>
    <rc><c>O </c><c>   4</c></rc>
    <rc><c>O </c><c>   4</c></rc>
    <rc><c>O </c><c>   4</c></rc>
    <rc><c>O </c><c>   4</c></rc>
    <rc><c>O </c><c>   4</c></rc>
    <rc><c>O </c><c>   4</c></rc>
    <rc><c>O </c><c>   4</c></rc>
   </set>
  </array>
  <array name="atomtypes" >
   <dimension dim="1">type</dimension>
   <field type="int">atomspertype</field>
   <field type="string">element</field>
   <field>mass</field>
   <field>valence</field>
   <field type="string">pseudopotential</field>
   <set>
    <rc><c>  32</c><c>Sr</c><c>     87.62000000</c><c>     10.00000000</c><c>  PAW_PBE Sr_sv 07Sep2000               </c></rc>
    <rc><c>  16</c><c>Ti</c><c>     47.88000000</c><c>      4.00000000</c><c>  PAW_PBE Ti 08Apr2002                  </c></rc>
    <rc><c>  16</c><c>Fe</c><c>     55.84700000</c><c>      8.00000000</c><c>  PAW_PBE Fe 06Sep2000                  </c></rc>
    <rc><c>  88</c><c>O </c><c>     16.00000000</c><c>      6.00000000</c><c>  PAW_PBE O 08Apr2002                   </c></rc>
   </set>
  </array>
 </atominfo>
 <structure name="initialpos" >
  <crystal>
   <varray name="basis" >
    <v>      11.28712701       0.03483509       0.02480417 </v>
    <v>       0.03476036      11.28226028       0.00898052 </v>
    <v>       0.03532037       0.01281384      15.88763960 </v>
   </varray>
   <i name="volume">   2023.17001924 </i>
   <varray name="rec_basis" >
    <v>       0.08859778      -0.00027281      -0.00019674 </v>
    <v>      -0.00027340       0.08863562      -0.00007088 </v>
    <v>      -0.00013817      -0.00004968       0.06294236 </v>
   </varray>
  </crystal>
  <varray name="positions" >
   <v>       0.00025308       0.24840578       0.12567176 </v>
   <v>       0.03032191       0.24644493       0.62696670 </v>
   <v>       0.00124892       0.75141582       0.11864150 </v>
   <v>       0.00539952       0.75638161       0.63126068 </v>
   <v>       0.50523670       0.24093065       0.12859441 </v>
   <v>       0.47076213       0.25128323       0.62552005 </v>
   <v>       0.49539493       0.75646929       0.11883891 </v>
   <v>       0.49628769       0.75070218       0.62984501 </v>
   <v>       0.01456903       0.25344528       0.36548615 </v>
   <v>       0.01218698       0.25114273       0.88320862 </v>
   <v>       0.00366907       0.74714109       0.36676612 </v>
   <v>       0.99575933       0.75024910       0.88119026 </v>
   <v>       0.49452907       0.24182050       0.36720217 </v>
   <v>       0.49460699       0.24697046       0.87907796 </v>
   <v>       0.48863846       0.74287489       0.36578620 </v>
   <v>       0.50257368       0.75469886       0.87882613 </v>
   <v>       0.24475332       0.98749697       0.12539826 </v>
   <v>       0.24055001       0.99662483       0.63207334 </v>
   <v>       0.23837512       0.51117604       0.12432135 </v>
   <v>       0.24709362       0.49901271       0.62843278 </v>
   <v>       0.75637366       0.99896816       0.11954478 </v>
   <v>       0.76176168       0.97783408       0.63187294 </v>
   <v>       0.75581591       0.51040928       0.12148778 </v>
   <v>       0.75037458       0.53595733       0.63027560 </v>
   <v>       0.24302564       0.99806213       0.36878849 </v>
   <v>       0.24638333       0.98397146       0.87837923 </v>
   <v>       0.24909709       0.49888129       0.36886732 </v>
   <v>       0.24140072       0.51295612       0.87703228 </v>
   <v>       0.75473284       0.99332482       0.36718557 </v>
   <v>       0.75611409       0.98949392       0.88240242 </v>
   <v>       0.75085761       0.52001746       0.36479827 </v>
   <v>       0.75777589       0.51549910       0.88204092 </v>
   <v>       0.99732759       0.99790310       0.00097692 </v>
   <v>       0.00873049       0.98787554       0.49782597 </v>
   <v>       0.00034388       0.50323311       0.49898074 </v>
   <v>       0.51131089       0.50651046       0.00274318 </v>
   <v>       0.49487485       0.50709869       0.49375638 </v>
   <v>       0.24622736       0.24177325       0.00089209 </v>
   <v>       0.25210620       0.24681524       0.49852498 </v>
   <v>       0.74569625       0.28441204       0.51667541 </v>
   <v>       0.74371680       0.75862075       0.50089170 </v>
   <v>       0.25355006       0.25337839       0.24571512 </v>
   <v>       0.24969492       0.74794783       0.24858827 </v>
   <v>       0.74863774       0.25324410       0.24277147 </v>
   <v>       0.72586635       0.24361198       0.73135919 </v>
   <v>       0.99991000       0.49908348       0.24864297 </v>
   <v>       0.00773542       0.50951877       0.74915162 </v>
   <v>       0.49420677       0.99845724       0.75958818 </v>
   <v>       0.99719985       0.50030314       0.99979846 </v>
   <v>       0.50634084       0.00034736       0.00428889 </v>
   <v>       0.48641636       0.98214975       0.48128915 </v>
   <v>       0.24944531       0.74973559       0.99800926 </v>
   <v>       0.24966185       0.74533660       0.50287598 </v>
   <v>       0.75235352       0.25238288       0.00458330 </v>
   <v>       0.74973263       0.75588539       0.00177881 </v>
   <v>       0.25129158       0.25004156       0.75191826 </v>
   <v>       0.25663771       0.74935432       0.74716618 </v>
   <v>       0.75535186       0.74416589       0.24590428 </v>
   <v>       0.74853885       0.75310491       0.75441449 </v>
   <v>       0.99757847       0.00181094       0.24895691 </v>
   <v>       0.01174635       0.99194854       0.75702334 </v>
   <v>       0.49138749       0.00617217       0.24646753 </v>
   <v>       0.49994100       0.49845737       0.24465875 </v>
   <v>       0.49182052       0.50518040       0.76321579 </v>
   <v>       0.12622160       0.13364164       0.24342210 </v>
   <v>       0.11881982       0.12987299       0.75006084 </v>
   <v>       0.11573301       0.62874553       0.24231096 </v>
   <v>       0.12268386       0.62408941       0.74339548 </v>
   <v>       0.62937712       0.12693304       0.25359028 </v>
   <v>       0.61420654       0.12394461       0.71789712 </v>
   <v>       0.61554846       0.63459342       0.24594382 </v>
   <v>       0.61483502       0.62583873       0.74425077 </v>
   <v>       0.38196457       0.36852703       0.26050056 </v>
   <v>       0.38601607       0.37491576       0.73524468 </v>
   <v>       0.38400607       0.86476968       0.24901895 </v>
   <v>       0.38260630       0.87848825       0.73686724 </v>
   <v>       0.87632070       0.37248558       0.26714421 </v>
   <v>       0.86552314       0.87808727       0.25662167 </v>
   <v>       0.87304938       0.88896434       0.75351525 </v>
   <v>       0.37120182       0.12174898       0.24519145 </v>
   <v>       0.37534040       0.11905901       0.73431057 </v>
   <v>       0.36672777       0.61567528       0.24131298 </v>
   <v>       0.37272602       0.61825273       0.72885883 </v>
   <v>       0.87246668       0.13281867       0.24744974 </v>
   <v>       0.87003201       0.62004698       0.24868128 </v>
   <v>       0.87175873       0.61651006       0.74705522 </v>
   <v>       0.13071493       0.37971926       0.25719552 </v>
   <v>       0.11639535       0.37249785       0.74849684 </v>
   <v>       0.12794824       0.87947239       0.26494704 </v>
   <v>       0.12831735       0.87362551       0.75930597 </v>
   <v>       0.63331046       0.37294179       0.27619336 </v>
   <v>       0.64461304       0.38387502       0.74727322 </v>
   <v>       0.62328092       0.88506159       0.74734885 </v>
   <v>       0.37931216       0.37690283       0.50283024 </v>
   <v>       0.37170373       0.88405342       0.00360032 </v>
   <v>       0.36421630       0.87478268       0.49425645 </v>
   <v>       0.86996858       0.37464851       0.98853878 </v>
   <v>       0.86730547       0.36848675       0.46972881 </v>
   <v>       0.87324989       0.88104253       0.99856268 </v>
   <v>       0.85989259       0.89442872       0.49528358 </v>
   <v>       0.13721753       0.12095083       0.00496175 </v>
   <v>       0.13364946       0.11539449       0.50287520 </v>
   <v>       0.12068159       0.62503839       0.99647954 </v>
   <v>       0.11941899       0.61400682       0.51747156 </v>
   <v>       0.64100542       0.12434666       0.98931837 </v>
   <v>       0.62480344       0.62246979       0.00080339 </v>
   <v>       0.61766808       0.63039210       0.51423330 </v>
   <v>       0.13916131       0.37796007       0.99510460 </v>
   <v>       0.12007327       0.36619866       0.49612253 </v>
   <v>       0.12090323       0.87490808       0.98918945 </v>
   <v>       0.10976777       0.86145145       0.48785641 </v>
   <v>       0.61687847       0.36848948       0.98049567 </v>
   <v>       0.61911241       0.38847386       0.54195384 </v>
   <v>       0.62042127       0.87235369       0.98673576 </v>
   <v>       0.61613222       0.89593757       0.52584825 </v>
   <v>       0.39360595       0.15277979       0.00834478 </v>
   <v>       0.40103380       0.12619857       0.50479129 </v>
   <v>       0.37270186       0.60933453       0.01357271 </v>
   <v>       0.37679378       0.61822701       0.52218603 </v>
   <v>       0.88534474       0.13281878       0.01268742 </v>
   <v>       0.87262196       0.62724283       0.00960979 </v>
   <v>       0.86879249       0.63052906       0.49521298 </v>
   <v>       0.00769786       0.98848159       0.12584509 </v>
   <v>       0.98973238       0.00908358       0.62078154 </v>
   <v>       0.99498912       0.48051790       0.12780147 </v>
   <v>       0.96970337       0.47102150       0.62503042 </v>
   <v>       0.52622643       0.98947525       0.12943384 </v>
   <v>       0.50900119       0.46696068       0.12186467 </v>
   <v>       0.98535118       0.03035612       0.38192832 </v>
   <v>       0.99357955       0.01882456       0.87786544 </v>
   <v>       0.01054772       0.51518461       0.37658664 </v>
   <v>       0.98884871       0.49392572       0.86845671 </v>
   <v>       0.51886493       0.98083748       0.36542474 </v>
   <v>       0.48920379       0.01339345       0.87381122 </v>
   <v>       0.50113223       0.51294194       0.37974531 </v>
   <v>       0.47040156       0.49254399       0.88129495 </v>
   <v>       0.25621905       0.23830960       0.37639631 </v>
   <v>       0.27023453       0.25702461       0.87738209 </v>
   <v>       0.25206266       0.72566735       0.37629082 </v>
   <v>       0.27227016       0.74180034       0.87175047 </v>
   <v>       0.69252549       0.17431366       0.44483621 </v>
   <v>       0.81389509       0.20964597       0.82222822 </v>
   <v>       0.72095896       0.76185360       0.37749783 </v>
   <v>       0.75352441       0.74271719       0.87460423 </v>
   <v>       0.26286660       0.27659408       0.12282110 </v>
   <v>       0.24995994       0.25155940       0.62087610 </v>
   <v>       0.23772067       0.75948334       0.12614933 </v>
   <v>       0.23554647       0.76858341       0.62352159 </v>
   <v>       0.74023108       0.27521236       0.12690378 </v>
   <v>       0.80472048       0.22510210       0.62310201 </v>
   <v>       0.73309407       0.77157291       0.12806011 </v>
   <v>       0.76040482       0.75603850       0.62443159 </v>
  </varray>
 </structure>
 <calculation>
  <scstep>
   <time name="dav">  612.39  612.38</time>
   <time name="total">  619.64  619.70</time>
   <energy>
    <i name="alphaZ">   5566.62929234 </i>
    <i name="ewald"> -61124.09962800 </i>
    <i name="hartreedc"> -18373.88401416 </i>
    <i name="XCdc">   3183.04651320 </i>
    <i name="pawpsdc"> 115525.81981968 </i>
    <i name="pawaedc">-114727.11000804 </i>
    <i name="eentropy">     -0.00000000 </i>
    <i name="bandstr">  -7153.74199866 </i>
    <i name="atom">  76050.17612637 </i>
    <i name="e_fr_energy">  -1053.16389728 </i>
    <i name="e_wo_entrp">  -1053.16389728 </i>
    <i name="e_0_energy">  -1053.16389728 </i>
   </energy>
  </scstep>
  <scstep>
   <time name="diag">   65.20   65.20</time>
   <time name="diis">   61.06   61.06</time>
   <time name="orth">   33.51   33.51</time>
   <time name="total">  167.06  167.11</time>
   <energy>
    <i name="e_fr_energy">  -1053.16389804 </i>
    <i name="e_wo_entrp">  -1053.16389804 </i>
    <i name="e_0_energy">  -1053.16389804 </i>
   </energy>
  </scstep>
  <scstep>
   <time name="diag">   65.28   65.30</time>
   <time name="diis">   58.85   58.87</time>
   <time name="orth">   33.53   33.56</time>
   <time name="total">  164.94  165.03</time>
   <energy>
    <i name="e_fr_energy">  -1053.16389844 </i>
    <i name="e_wo_entrp">  -1053.16389844 </i>
    <i name="e_0_energy">  -1053.16389844 </i>
   </energy>
  </scstep>
  <scstep>
   <time name="diag">   65.13   65.23</time>
   <time name="diis">   54.41   54.41</time>
   <time name="orth">   33.53   33.52</time>
   <time name="total">  160.34  160.52</time>
   <energy>
    <i name="e_fr_energy">  -1053.16389886 </i>
    <i name="e_wo_entrp">  -1053.16389886 </i>
    <i name="e_0_energy">  -1053.16389886 </i>
   </energy>
  </scstep>
  <scstep>
   <time name="diag">   65.17   65.19</time>
   <time name="diis">   53.43   53.43</time>
   <time name="orth">   33.49   33.49</time>
   <time name="total">  159.39  159.46</time>
   <energy>
    <i name="e_fr_energy">  -1053.16389908 </i>
    <i name="e_wo_entrp">  -1053.16389908 </i>
    <i name="e_0_energy">  -1053.16389908 </i>
   </energy>
  </scstep>
  <scstep>
   <time name="diag">   65.09   65.14</time>
   <time name="diis">   47.92   47.93</time>
   <time name="orth">   33.47   33.47</time>
   <time name="total">  153.77  153.87</time>
   <energy>
    <i name="e_fr_energy">  -1053.16389924 </i>
    <i name="e_wo_entrp">  -1053.16389924 </i>
    <i name="e_0_energy">  -1053.16389924 </i>
   </energy>
  </scstep>
  <scstep>
   <time name="diag">   65.15   65.16</time>
   <time name="diis">   47.20   47.21</time>
   <time name="orth">   33.70   33.70</time>
   <time name="total">  153.30  153.39</time>
   <energy>
    <i name="e_fr_energy">  -1053.16389931 </i>
    <i name="e_wo_entrp">  -1053.16389931 </i>
    <i name="e_0_energy">  -1053.16389931 </i>
   </energy>
  </scstep>
  <scstep>
   <time name="diag">   65.03   65.08</time>
   <time name="diis">   44.91   44.92</time>
   <time name="orth">   33.68   33.68</time>
   <time name="total">  144.66  144.82</time>
   <energy>
    <i name="alphaZ">   5566.62929234 </i>
    <i name="ewald"> -61124.09962800 </i>
    <i name="hartreedc"> -18373.88289326 </i>
    <i name="XCdc">   3183.04604029 </i>
    <i name="pawpsdc"> 115525.39888340 </i>
    <i name="pawaedc">-114726.68685968 </i>
    <i name="eentropy">     -0.00000000 </i>
    <i name="bandstr">  -7153.74486080 </i>
    <i name="atom">  76050.17612637 </i>
    <i name="e_fr_energy">  -1053.16389934 </i>
    <i name="e_wo_entrp">  -1053.16389934 </i>
    <i name="e_0_energy">  -1053.16389934 </i>
   </energy>
  </scstep>
  <structure>
   <crystal>
    <varray name="basis" >
     <v>      11.28712701       0.03483509       0.02480417 </v>
     <v>       0.03476036      11.28226028       0.00898052 </v>
     <v>       0.03532037       0.01281384      15.88763960 </v>
    </varray>
    <i name="volume">   2023.17001924 </i>
    <varray name="rec_basis" >
     <v>       0.08859778      -0.00027281      -0.00019674 </v>
     <v>      -0.00027340       0.08863562      -0.00007088 </v>
     <v>      -0.00013817      -0.00004968       0.06294236 </v>
    </varray>
   </crystal>
   <varray name="positions" >
    <v>       0.00025308       0.24840578       0.12567176 </v>
    <v>       0.03032191       0.24644493       0.62696670 </v>
    <v>       0.00124892       0.75141582       0.11864150 </v>
    <v>       0.00539952       0.75638161       0.63126068 </v>
    <v>       0.50523670       0.24093065       0.12859441 </v>
    <v>       0.47076213       0.25128323       0.62552005 </v>
    <v>       0.49539493       0.75646929       0.11883891 </v>
    <v>       0.49628769       0.75070218       0.62984501 </v>
    <v>       0.01456903       0.25344528       0.36548615 </v>
    <v>       0.01218698       0.25114273       0.88320862 </v>
    <v>       0.00366907       0.74714109       0.36676612 </v>
    <v>       0.99575933       0.75024910       0.88119026 </v>
    <v>       0.49452907       0.24182050       0.36720217 </v>
    <v>       0.49460699       0.24697046       0.87907796 </v>
    <v>       0.48863846       0.74287489       0.36578620 </v>
    <v>       0.50257368       0.75469886       0.87882613 </v>
    <v>       0.24475332       0.98749697       0.12539826 </v>
    <v>       0.24055001       0.99662483       0.63207334 </v>
    <v>       0.23837512       0.51117604       0.12432135 </v>
    <v>       0.24709362       0.49901271       0.62843278 </v>
    <v>       0.75637366       0.99896816       0.11954478 </v>
    <v>       0.76176168       0.97783408       0.63187294 </v>
    <v>       0.75581591       0.51040928       0.12148778 </v>
    <v>       0.75037458       0.53595733       0.63027560 </v>
    <v>       0.24302564       0.99806213       0.36878849 </v>
    <v>       0.24638333       0.98397146       0.87837923 </v>
    <v>       0.24909709       0.49888129       0.36886732 </v>
    <v>       0.24140072       0.51295612       0.87703228 </v>
    <v>       0.75473284       0.99332482       0.36718557 </v>
    <v>       0.75611409       0.98949392       0.88240242 </v>
    <v>       0.75085761       0.52001746       0.36479827 </v>
    <v>       0.75777589       0.51549910       0.88204092 </v>
    <v>       0.99732759       0.99790310       0.00097692 </v>
    <v>       0.00873049       0.98787554       0.49782597 </v>
    <v>       0.00034388       0.50323311       0.49898074 </v>
    <v>       0.51131089       0.50651046       0.00274318 </v>
    <v>       0.49487485       0.50709869       0.49375638 </v>
    <v>       0.24622736       0.24177325       0.00089209 </v>
    <v>       0.25210620       0.24681524       0.49852498 </v>
    <v>       0.74569625       0.28441204       0.51667541 </v>
    <v>       0.74371680       0.75862075       0.50089170 </v>
    <v>       0.25355006       0.25337839       0.24571512 </v>
    <v>       0.24969492       0.74794783       0.24858827 </v>
    <v>       0.74863774       0.25324410       0.24277147 </v>
    <v>       0.72586635       0.24361198       0.73135919 </v>
    <v>       0.99991000       0.49908348       0.24864297 </v>
    <v>       0.00773542       0.50951877       0.74915162 </v>
    <v>       0.49420677       0.99845724       0.75958818 </v>
    <v>       0.99719985       0.50030314       0.99979846 </v>
    <v>       0.50634084       0.00034736       0.00428889 </v>
    <v>       0.48641636       0.98214975       0.48128915 </v>
    <v>       0.24944531       0.74973559       0.99800926 </v>
    <v>       0.24966185       0.74533660       0.50287598 </v>
    <v>       0.75235352       0.25238288       0.00458330 </v>
    <v>       0.74973263       0.75588539       0.00177881 </v>
    <v>       0.25129158       0.25004156       0.75191826 </v>
    <v>       0.25663771       0.74935432       0.74716618 </v>
    <v>       0.75535186       0.74416589       0.24590428 </v>
    <v>       0.74853885       0.75310491       0.75441449 </v>
    <v>       0.99757847       0.00181094       0.24895691 </v>
    <v>       0.01174635       0.99194854       0.75702334 </v>
    <v>       0.49138749       0.00617217       0.24646753 </v>
    <v>       0.49994100       0.49845737       0.24465875 </v>
    <v>       0.49182052       0.50518040       0.76321579 </v>
    <v>       0.12622160       0.13364164       0.24342210 </v>
    <v>       0.11881982       0.12987299       0.75006084 </v>
    <v>       0.11573301       0.62874553       0.24231096 </v>
    <v>       0.12268386       0.62408941       0.74339548 </v>
    <v>       0.62937712       0.12693304       0.25359028 </v>
    <v>       0.61420654       0.12394461       0.71789712 </v>
    <v>       0.61554846       0.63459342       0.24594382 </v>
    <v>       0.61483502       0.62583873       0.74425077 </v>
    <v>       0.38196457       0.36852703       0.26050056 </v>
    <v>       0.38601607       0.37491576       0.73524468 </v>
    <v>       0.38400607       0.86476968       0.24901895 </v>
    <v>       0.38260630       0.87848825       0.73686724 </v>
    <v>       0.87632070       0.37248558       0.26714421 </v>
    <v>       0.86552314       0.87808727       0.25662167 </v>
    <v>       0.87304938       0.88896434       0.75351525 </v>
    <v>       0.37120182       0.12174898       0.24519145 </v>
    <v>       0.37534040       0.11905901       0.73431057 </v>
    <v>       0.36672777       0.61567528       0.24131298 </v>
    <v>       0.37272602       0.61825273       0.72885883 </v>
    <v>       0.87246668       0.13281867       0.24744974 </v>
    <v>       0.87003201       0.62004698       0.24868128 </v>
    <v>       0.87175873       0.61651006       0.74705522 </v>
    <v>       0.13071493       0.37971926       0.25719552 </v>
    <v>       0.11639535       0.37249785       0.74849684 </v>
    <v>       0.12794824       0.87947239       0.26494704 </v>
    <v>       0.12831735       0.87362551       0.75930597 </v>
    <v>       0.63331046       0.37294179       0.27619336 </v>
    <v>       0.64461304       0.38387502       0.74727322 </v>
    <v>       0.62328092       0.88506159       0.74734885 </v>
    <v>       0.37931216       0.37690283       0.50283024 </v>
    <v>       0.37170373       0.88405342       0.00360032 </v>
    <v>       0.36421630       0.87478268       0.49425645 </v>
    <v>       0.86996858       0.37464851       0.98853878 </v>
    <v>       0.86730547       0.36848675       0.46972881 </v>
    <v>       0.87324989       0.88104253       0.99856268 </v>
    <v>       0.85989259       0.89442872       0.49528358 </v>
    <v>       0.13721753       0.12095083       0.00496175 </v>
    <v>       0.13364946       0.11539449       0.50287520 </v>
    <v>       0.12068159       0.62503839       0.99647954 </v>
    <v>       0.11941899       0.61400682       0.51747156 </v>
    <v>       0.64100542       0.12434666       0.98931837 </v>
    <v>       0.62480344       0.62246979       0.00080339 </v>
    <v>       0.61766808       0.63039210       0.51423330 </v>
    <v>       0.13916131       0.37796007       0.99510460 </v>
    <v>       0.12007327       0.36619866       0.49612253 </v>
    <v>       0.12090323       0.87490808       0.98918945 </v>
    <v>       0.10976777       0.86145145       0.48785641 </v>
    <v>       0.61687847       0.36848948       0.98049567 </v>
    <v>       0.61911241       0.38847386       0.54195384 </v>
    <v>       0.62042127       0.87235369       0.98673576 </v>
    <v>       0.61613222       0.89593757       0.52584825 </v>
    <v>       0.39360595       0.15277979       0.00834478 </v>
    <v>       0.40103380       0.12619857       0.50479129 </v>
    <v>       0.37270186       0.60933453       0.01357271 </v>
    <v>       0.37679378       0.61822701       0.52218603 </v>
    <v>       0.88534474       0.13281878       0.01268742 </v>
    <v>       0.87262196       0.62724283       0.00960979 </v>
    <v>       0.86879249       0.63052906       0.49521298 </v>
    <v>       0.00769786       0.98848159       0.12584509 </v>
    <v>       0.98973238       0.00908358       0.62078154 </v>
    <v>       0.99498912       0.48051790       0.12780147 </v>
    <v>       0.96970337       0.47102150       0.62503042 </v>
    <v>       0.52622643       0.98947525       0.12943384 </v>
    <v>       0.50900119       0.46696068       0.12186467 </v>
    <v>       0.98535118       0.03035612       0.38192832 </v>
    <v>       0.99357955       0.01882456       0.87786544 </v>
    <v>       0.01054772       0.51518461       0.37658664 </v>
    <v>       0.98884871       0.49392572       0.86845671 </v>
    <v>       0.51886493       0.98083748       0.36542474 </v>
    <v>       0.48920379       0.01339345       0.87381122 </v>
    <v>       0.50113223       0.51294194       0.37974531 </v>
    <v>       0.47040156       0.49254399       0.88129495 </v>
    <v>       0.25621905       0.23830960       0.37639631 </v>
    <v>       0.27023453       0.25702461       0.87738209 </v>
    <v>       0.25206266       0.72566735       0.37629082 </v>
    <v>       0.27227016       0.74180034       0.87175047 </v>
    <v>       0.69252549       0.17431366       0.44483621 </v>
    <v>       0.81389509       0.20964597       0.82222822 </v>
    <v>       0.72095896       0.76185360       0.37749783 </v>
    <v>       0.75352441       0.74271719       0.87460423 </v>
    <v>       0.26286660       0.27659408       0.12282110 </v>
    <v>       0.24995994       0.25155940       0.62087610 </v>
    <v>       0.23772067       0.75948334       0.12614933 </v>
    <v>       0.23554647       0.76858341       0.62352159 </v>
    <v>       0.74023108       0.27521236       0.12690378 </v>
    <v>       0.80472048       0.22510210       0.62310201 </v>
    <v>       0.73309407       0.77157291       0.12806011 </v>
    <v>       0.76040482       0.75603850       0.62443159 </v>
   </varray>
  </structure>
  <varray name="forces" >
   <v>      -0.02057668      -0.00039995      -0.01156133 </v>
   <v>      -0.00918388       0.00223700       0.00028291 </v>
   <v>       0.00919488      -0.00429048      -0.00147352 </v>
   <v>      -0.00113912      -0.00637827       0.01492090 </v>
   <v>      -0.00028925      -0.00402457      -0.01443562 </v>
   <v>       0.01267113       0.03083079       0.00176739 </v>
   <v>      -0.00372826      -0.00180633       0.02073502 </v>
   <v>      -0.00043716       0.00533325       0.00755153 </v>
   <v>       0.00221611      -0.00385427       0.00303138 </v>
   <v>       0.00866998       0.00961649       0.00611214 </v>
   <v>       0.00347173       0.00969677       0.01297251 </v>
   <v>       0.00523070       0.00720234      -0.02017385 </v>
   <v>      -0.00414730       0.00186419       0.00491464 </v>
   <v>       0.02310686      -0.00099396      -0.01184133 </v>
   <v>      -0.02706120       0.01625472      -0.00133443 </v>
   <v>      -0.01465018      -0.01333147       0.00877153 </v>
   <v>      -0.00006915      -0.02209399      -0.00471829 </v>
   <v>       0.00167771      -0.00105104       0.00897644 </v>
   <v>       0.00945194       0.00278038      -0.01136864 </v>
   <v>      -0.00285683       0.00056871      -0.01415420 </v>
   <v>       0.00091464      -0.00165660      -0.00963957 </v>
   <v>       0.00472031       0.02105350      -0.01776350 </v>
   <v>       0.00486334      -0.01278104       0.00267726 </v>
   <v>       0.01283567      -0.01237759       0.00152412 </v>
   <v>       0.01122101       0.00247475      -0.00301354 </v>
   <v>      -0.00847514      -0.00781433      -0.00481184 </v>
   <v>       0.00947337       0.01000519       0.01311509 </v>
   <v>       0.00020523       0.00614060      -0.01261111 </v>
   <v>       0.00358902      -0.01418303      -0.00858196 </v>
   <v>      -0.00795851      -0.00601590       0.00789241 </v>
   <v>      -0.00317958      -0.03069305       0.00063611 </v>
   <v>       0.01885901      -0.00913463       0.00790863 </v>
   <v>      -0.00938091      -0.02274616      -0.00679428 </v>
   <v>       0.02927738       0.00763635      -0.01156635 </v>
   <v>       0.02458505       0.02677929       0.01366740 </v>
   <v>       0.03889417       0.01598798      -0.01573400 </v>
   <v>      -0.01752203       0.00980941       0.00287370 </v>
   <v>       0.01538963      -0.02033256      -0.01442497 </v>
   <v>      -0.03017656      -0.00039470      -0.00366142 </v>
   <v>      -0.02092699       0.04800923       0.04999139 </v>
   <v>      -0.00053801      -0.00450829       0.01208758 </v>
   <v>      -0.00352996      -0.03394817       0.02114663 </v>
   <v>       0.00132455       0.01582943       0.02570561 </v>
   <v>       0.02786432      -0.02265157      -0.02317364 </v>
   <v>      -0.02795604       0.04651646      -0.00167164 </v>
   <v>      -0.02371908       0.01157633      -0.03034533 </v>
   <v>      -0.01024621      -0.00138884      -0.03415161 </v>
   <v>       0.02449343       0.01324663       0.02312254 </v>
   <v>      -0.00495125       0.00768693      -0.00946980 </v>
   <v>       0.00580754      -0.00357136      -0.00236830 </v>
   <v>       0.01180218      -0.01806106      -0.01372738 </v>
   <v>       0.00473480       0.00561034      -0.01483679 </v>
   <v>      -0.00066260       0.01775773      -0.00442713 </v>
   <v>      -0.02216149      -0.00792161       0.00985839 </v>
   <v>      -0.00277875       0.00504970      -0.00732968 </v>
   <v>      -0.00422187       0.00625148       0.00458453 </v>
   <v>      -0.01770073      -0.00280633      -0.00596506 </v>
   <v>       0.00397934      -0.00308608      -0.00145240 </v>
   <v>       0.00796875       0.00475300      -0.01123953 </v>
   <v>       0.00031715       0.00308670       0.00815572 </v>
   <v>       0.00068720      -0.00981796       0.00396010 </v>
   <v>      -0.01818804       0.01786876      -0.01028388 </v>
   <v>       0.00192702      -0.00507353       0.00827615 </v>
   <v>       0.00249815       0.01015227       0.01103158 </v>
   <v>       0.01786680       0.00706888      -0.02052534 </v>
   <v>      -0.02749166       0.00166174       0.01101591 </v>
   <v>       0.00709771      -0.00483546       0.01304299 </v>
   <v>       0.02542647       0.00146837      -0.00111646 </v>
   <v>       0.02153088       0.02036584      -0.00229205 </v>
   <v>       0.02895673       0.00874671       0.00403063 </v>
   <v>      -0.00833869      -0.00642739      -0.01350299 </v>
   <v>      -0.00030845       0.00611895       0.01488048 </v>
   <v>      -0.00373199       0.00020905      -0.00789596 </v>
   <v>       0.01109914      -0.01364576       0.00453266 </v>
   <v>      -0.01774197      -0.01478266       0.00921652 </v>
   <v>      -0.01481041      -0.00866758       0.01671701 </v>
   <v>       0.01319824       0.00672604      -0.02875382 </v>
   <v>       0.00450600       0.00274789      -0.00997008 </v>
   <v>       0.00905429       0.01686140       0.00722826 </v>
   <v>      -0.00082255       0.01417606      -0.00456827 </v>
   <v>      -0.02817297      -0.02564021      -0.00419317 </v>
   <v>       0.00118847      -0.00066064       0.01003169 </v>
   <v>      -0.00250861       0.01990702       0.01155084 </v>
   <v>      -0.00775497       0.00643978      -0.01117627 </v>
   <v>       0.02215115       0.00643795       0.01922561 </v>
   <v>      -0.00412411      -0.00102303      -0.00998892 </v>
   <v>      -0.01012085       0.01581248       0.00765955 </v>
   <v>       0.01983649       0.00004256       0.00077039 </v>
   <v>       0.02091415      -0.02236112       0.02384621 </v>
   <v>      -0.00446942       0.00757508      -0.01276929 </v>
   <v>      -0.00331561      -0.00435599       0.00538539 </v>
   <v>       0.00976974      -0.01328827      -0.01717306 </v>
   <v>      -0.00343381       0.01265072      -0.02831113 </v>
   <v>      -0.00248631       0.00729281      -0.01730388 </v>
   <v>      -0.00358945       0.00815304      -0.01504720 </v>
   <v>       0.02011357       0.01013327       0.01844231 </v>
   <v>      -0.01769807      -0.01268679       0.02339997 </v>
   <v>      -0.00387595       0.00892677       0.02722791 </v>
   <v>       0.00794646       0.00847028      -0.00079302 </v>
   <v>      -0.00029887      -0.03064628       0.00318664 </v>
   <v>      -0.01206957       0.00123893      -0.00348908 </v>
   <v>      -0.00455515       0.00379358       0.00093306 </v>
   <v>       0.02098999      -0.00351046       0.00604330 </v>
   <v>       0.00065435       0.00413977      -0.02291262 </v>
   <v>       0.00211824      -0.00755096       0.00985780 </v>
   <v>      -0.01254665       0.00102755       0.01512145 </v>
   <v>      -0.00470794      -0.01088922      -0.00421995 </v>
   <v>      -0.00759895      -0.01517160      -0.01101768 </v>
   <v>      -0.01118925       0.00302568      -0.01327452 </v>
   <v>       0.00710967      -0.00989632       0.00602985 </v>
   <v>       0.00034676       0.01841340      -0.01563762 </v>
   <v>      -0.00612286       0.00830135      -0.02199707 </v>
   <v>       0.01739967      -0.04990352      -0.00844713 </v>
   <v>      -0.00381396       0.00499880       0.03983312 </v>
   <v>       0.01503652      -0.00677812      -0.03201170 </v>
   <v>       0.00835492      -0.00864435       0.01057576 </v>
   <v>      -0.01034095      -0.02192835       0.00638931 </v>
   <v>      -0.01267315       0.00093963       0.00591514 </v>
   <v>       0.00818291      -0.01843504      -0.00952991 </v>
   <v>      -0.01541034       0.00423354      -0.01191104 </v>
   <v>      -0.00132243       0.00848613      -0.02493415 </v>
   <v>      -0.00599183      -0.01427047      -0.00696997 </v>
   <v>      -0.00121694      -0.00452618      -0.00179214 </v>
   <v>       0.00607687       0.01153175       0.00228387 </v>
   <v>       0.01382931       0.01444193       0.00854201 </v>
   <v>       0.01570839       0.00283788       0.00551637 </v>
   <v>       0.01245404       0.00782819       0.00403179 </v>
   <v>      -0.01754481      -0.00577930       0.01099491 </v>
   <v>       0.00552897       0.01909613       0.00574075 </v>
   <v>      -0.01014737       0.00333761      -0.01244619 </v>
   <v>      -0.02315598      -0.00676347      -0.01988711 </v>
   <v>      -0.00620088       0.00521095      -0.00145604 </v>
   <v>       0.00087869       0.01270532       0.01730530 </v>
   <v>      -0.00233478      -0.01568784      -0.03020950 </v>
   <v>      -0.00011659      -0.01220357      -0.02635062 </v>
   <v>      -0.00105162      -0.00285800       0.02934292 </v>
   <v>      -0.00680175       0.00691336      -0.00881064 </v>
   <v>      -0.00826775       0.01681993       0.01037896 </v>
   <v>       0.00703019      -0.00973608      -0.00353725 </v>
   <v>      -0.00936944      -0.00385017       0.00462251 </v>
   <v>      -0.01798270      -0.06393845       0.04065413 </v>
   <v>       0.02216380      -0.00759305       0.01493999 </v>
   <v>      -0.00492134       0.00494035       0.00812732 </v>
   <v>      -0.00708535       0.02406696       0.00441959 </v>
   <v>      -0.00460100      -0.00708317      -0.01130904 </v>
   <v>      -0.00435257      -0.00566281       0.00840118 </v>
   <v>      -0.00324741       0.00447407       0.00796437 </v>
   <v>       0.00308093      -0.00513643      -0.00060224 </v>
   <v>      -0.00648572       0.00817034       0.00538029 </v>
   <v>      -0.02033357      -0.02273921       0.00672813 </v>
   <v>      -0.00871405       0.00149982       0.01582817 </v>
   <v>       0.00425832       0.00861373       0.01669635 </v>
  </varray>
  <varray name="stress" >
   <v>      -0.07416650       0.09320644       0.06287345 </v>
   <v>       0.09320602       0.00833463       0.06021208 </v>
   <v>       0.06287355       0.06021282       0.20711982 </v>
  </varray>
  <energy>
   <i name="e_fr_energy">  -1053.16389934 </i>
   <i name="e_wo_entrp">  -1053.16389934 </i>
   <i name="e_0_energy">     -0.00000000 </i>
  </energy>
  <time name="totalsc"> 1986.35 1988.63</time>
 </calculation>
 <calculation>
  <scstep>
   <time name="dav">  570.03  570.02</time>
   <time name="total">  577.21  577.27</time>
   <energy>
    <i name="alphaZ">   5566.31412252 </i>
    <i name="ewald"> -61123.20167010 </i>
    <i name="hartreedc"> -18373.18632350 </i>
    <i name="XCdc">   3182.97006485 </i>
    <i name="pawpsdc"> 115525.39333995 </i>
    <i name="pawaedc">-114726.68129102 </i>
    <i name="eentropy">     -0.00000000 </i>
    <i name="bandstr">  -7154.94834311 </i>
    <i name="atom">  76050.17612637 </i>
    <i name="e_fr_energy">  -1053.16397404 </i>
    <i name="e_wo_entrp">  -1053.16397404 </i>
    <i name="e_0_energy">  -1053.16397404 </i>
   </energy>
  </scstep>
  <scstep>
   <time name="diag">   65.14   65.19</time>
   <time name="diis">  104.07  104.06</time>
   <time name="orth">   33.51   33.51</time>
   <time name="total">  210.01  210.07</time>
   <energy>
    <i name="e_fr_energy">  -1053.16608562 </i>
    <i name="e_wo_entrp">  -1053.16608562 </i>
    <i name="e_0_energy">  -1053.16608562 </i>
   </energy>
  </scstep>
  <scstep>
   <time name="diag">   65.14   65.15</time>
   <time name="diis">  105.27  105.29</time>
   <time name="orth">   33.50   33.50</time>
   <time name="total">  211.19  211.31</time>
   <energy>
    <i name="e_fr_energy">  -1053.16614250 </i>
    <i name="e_wo_entrp">  -1053.16614250 </i>
    <i name="e_0_energy">  -1053.16614250 </i>
   </energy>
  </scstep>
  <scstep>
   <time name="diag">   65.20   65.19</time>
   <time name="diis">   85.29   85.29</time>
   <time name="orth">   33.58   33.58</time>
   <time name="total">  191.35  191.37</time>
   <energy>
    <i name="e_fr_energy">  -1053.16601310 </i>
    <i name="e_wo_entrp">  -1053.16601310 </i>
    <i name="e_0_energy">  -1053.16601310 </i>
   </energy>
  </scstep>
  <scstep>
   <time name="diag">   65.28   65.28</time>
   <time name="diis">   68.64   68.70</time>
   <time name="orth">   33.49   33.52</time>
   <time name="total">  174.72  174.88</time>
   <energy>
    <i name="e_fr_energy">  -1053.16597914 </i>
    <i name="e_wo_entrp">  -1053.16597914 </i>
    <i name="e_0_energy">  -1053.16597914 </i>
   </energy>
  </scstep>
  <scstep>
   <time name="diag">   65.13   65.16</time>
   <time name="diis">   64.32   64.32</time>
   <time name="orth">   33.51   33.51</time>
   <time name="total">  170.26  170.29</time>
   <energy>
    <i name="e_fr_energy">  -1053.16598213 </i>
    <i name="e_wo_entrp">  -1053.16598213 </i>
    <i name="e_0_energy">  -1053.16598213 </i>
   </energy>
  </scstep>
  <scstep>
   <time name="diag">   65.20   65.22</time>
   <time name="diis">   63.07   63.12</time>
   <time name="orth">   33.74   33.76</time>
   <time name="total">  169.21  169.34</time>
   <energy>
    <i name="e_fr_energy">  -1053.16598292 </i>
    <i name="e_wo_entrp">  -1053.16598292 </i>
    <i name="e_0_energy">  -1053.16598292 </i>
   </energy>
  </scstep>
  <scstep>
   <time name="diag">   65.26   65.25</time>
   <time name="diis">   62.37   62.39</time>
   <time name="orth">   33.73   33.72</time>
   <time name="total">  162.40  162.49</time>
   <energy>
    <i name="alphaZ">   5566.31412252 </i>
    <i name="ewald"> -61123.20167010 </i>
    <i name="hartreedc"> -18373.80975537 </i>
    <i name="XCdc">   3183.02661857 </i>
    <i name="pawpsdc"> 115507.29241856 </i>
    <i name="pawaedc">-114708.58181275 </i>
    <i name="eentropy">     -0.00000000 </i>
    <i name="bandstr">  -7154.38203075 </i>
    <i name="atom">  76050.17612637 </i>
    <i name="e_fr_energy">  -1053.16598296 </i>
    <i name="e_wo_entrp">  -1053.16598296 </i>
    <i name="e_0_energy">  -1053.16598296 </i>
   </energy>
  </scstep>
  <structure>
   <crystal>
    <varray name="basis" >
     <v>      11.28679343       0.03525745       0.02509149 </v>
     <v>       0.03518101      11.28229948       0.00925440 </v>
     <v>       0.03572014       0.01319861      15.88895963 </v>
    </varray>
    <i name="volume">   2023.28457298 </i>
    <varray name="rec_basis" >
     <v>       0.08860043      -0.00027611      -0.00019895 </v>
     <v>      -0.00027671       0.08863534      -0.00007301 </v>
     <v>      -0.00013975      -0.00005119       0.06293714 </v>
    </varray>
   </crystal>
   <varray name="positions" >
    <v>       0.00016524       0.24840438       0.12563679 </v>
    <v>       0.03028262       0.24645461       0.62696761 </v>
    <v>       0.00128829       0.75139736       0.11863698 </v>
    <v>       0.00539459       0.75635430       0.63130601 </v>
    <v>       0.50523565       0.24091349       0.12855059 </v>
    <v>       0.47081587       0.25141489       0.62552526 </v>
    <v>       0.49537882       0.75646155       0.11890191 </v>
    <v>       0.49628568       0.75072497       0.62986793 </v>
    <v>       0.01457853       0.25342876       0.36549535 </v>
    <v>       0.01222385       0.25118372       0.88322710 </v>
    <v>       0.00368366       0.74718247       0.36680546 </v>
    <v>       0.99578178       0.75027990       0.88112895 </v>
    <v>       0.49451127       0.24182851       0.36721711 </v>
    <v>       0.49470588       0.24696594       0.87904185 </v>
    <v>       0.48852260       0.74294475       0.36578229 </v>
    <v>       0.50251116       0.75464201       0.87885290 </v>
    <v>       0.24475336       0.98740251       0.12538399 </v>
    <v>       0.24055711       0.99662028       0.63210059 </v>
    <v>       0.23841559       0.51118784       0.12428676 </v>
    <v>       0.24708154       0.49901523       0.62838981 </v>
    <v>       0.75637768       0.99896110       0.11951551 </v>
    <v>       0.76178175       0.97792410       0.63181892 </v>
    <v>       0.75583684       0.51035455       0.12149591 </v>
    <v>       0.75042959       0.53590423       0.63028018 </v>
    <v>       0.24307360       0.99807257       0.36877926 </v>
    <v>       0.24634725       0.98393818       0.87836469 </v>
    <v>       0.24913732       0.49892391       0.36890706 </v>
    <v>       0.24140164       0.51298242       0.87699397 </v>
    <v>       0.75474845       0.99326416       0.36715952 </v>
    <v>       0.75608008       0.98946828       0.88242645 </v>
    <v>       0.75084442       0.51988626       0.36480030 </v>
    <v>       0.75785655       0.51545976       0.88206483 </v>
    <v>       0.99728785       0.99780598       0.00095641 </v>
    <v>       0.00885563       0.98790784       0.49779063 </v>
    <v>       0.00044848       0.50334725       0.49902201 </v>
    <v>       0.51147707       0.50657837       0.00269511 </v>
    <v>       0.49479980       0.50714086       0.49376520 </v>
    <v>       0.24629354       0.24168615       0.00084824 </v>
    <v>       0.25197726       0.24681396       0.49851406 </v>
    <v>       0.74560570       0.28461743       0.51682724 </v>
    <v>       0.74371444       0.75860144       0.50092842 </v>
    <v>       0.25353522       0.25323320       0.24577944 </v>
    <v>       0.24970013       0.74801541       0.24866628 </v>
    <v>       0.74875736       0.25314695       0.24270097 </v>
    <v>       0.72574627       0.24381126       0.73135419 </v>
    <v>       0.99980875       0.49913340       0.24855096 </v>
    <v>       0.00769196       0.50951308       0.74904799 </v>
    <v>       0.49431106       0.99851348       0.75965820 </v>
    <v>       0.99717867       0.50033610       0.99976972 </v>
    <v>       0.50636574       0.00033203       0.00428166 </v>
    <v>       0.48646717       0.98207242       0.48124743 </v>
    <v>       0.24946562       0.74975957       0.99796416 </v>
    <v>       0.24965882       0.74541256       0.50286250 </v>
    <v>       0.75225881       0.25234926       0.00461340 </v>
    <v>       0.74972076       0.75590704       0.00175656 </v>
    <v>       0.25127341       0.25006834       0.75193220 </v>
    <v>       0.25656215       0.74934257       0.74714819 </v>
    <v>       0.75536892       0.74415265       0.24589985 </v>
    <v>       0.74857296       0.75312517       0.75438029 </v>
    <v>       0.99757971       0.00182410       0.24898166 </v>
    <v>       0.01174938       0.99190654       0.75703539 </v>
    <v>       0.49130962       0.00624886       0.24643639 </v>
    <v>       0.49994923       0.49843562       0.24468388 </v>
    <v>       0.49183096       0.50522374       0.76324925 </v>
    <v>       0.12629807       0.13367170       0.24335964 </v>
    <v>       0.11870219       0.12988042       0.75009447 </v>
    <v>       0.11576328       0.62872472       0.24235053 </v>
    <v>       0.12279253       0.62409536       0.74339192 </v>
    <v>       0.62946890       0.12701985       0.25358313 </v>
    <v>       0.61433016       0.12398161       0.71790915 </v>
    <v>       0.61551303       0.63456609       0.24590289 </v>
    <v>       0.61483348       0.62586484       0.74429594 </v>
    <v>       0.38194870       0.36852800       0.26047661 </v>
    <v>       0.38606365       0.37485724       0.73525840 </v>
    <v>       0.38393034       0.86470667       0.24904709 </v>
    <v>       0.38254295       0.87845133       0.73691812 </v>
    <v>       0.87637729       0.37251426       0.26705680 </v>
    <v>       0.86554246       0.87809899       0.25659136 </v>
    <v>       0.87308779       0.88903630       0.75353710 </v>
    <v>       0.37119816       0.12180962       0.24517755 </v>
    <v>       0.37522036       0.11894976       0.73429809 </v>
    <v>       0.36673276       0.61567240       0.24134344 </v>
    <v>       0.37271493       0.61833784       0.72889387 </v>
    <v>       0.87243356       0.13284635       0.24741583 </v>
    <v>       0.87012642       0.62007415       0.24873950 </v>
    <v>       0.87174121       0.61650577       0.74702491 </v>
    <v>       0.13067139       0.37978698       0.25721881 </v>
    <v>       0.11648013       0.37249776       0.74849905 </v>
    <v>       0.12803770       0.87937642       0.26501936 </v>
    <v>       0.12829827       0.87365800       0.75926721 </v>
    <v>       0.63329629       0.37292319       0.27620975 </v>
    <v>       0.64465514       0.38381813       0.74722104 </v>
    <v>       0.62326635       0.88511582       0.74726287 </v>
    <v>       0.37930160       0.37693411       0.50277769 </v>
    <v>       0.37168842       0.88408838       0.00355463 </v>
    <v>       0.36430196       0.87482568       0.49431229 </v>
    <v>       0.86989288       0.37459442       0.98860999 </v>
    <v>       0.86728852       0.36852488       0.46981149 </v>
    <v>       0.87328375       0.88107865       0.99856020 </v>
    <v>       0.85989169       0.89429766       0.49529333 </v>
    <v>       0.13716596       0.12095630       0.00495123 </v>
    <v>       0.13362993       0.11541077       0.50287806 </v>
    <v>       0.12077130       0.62502308       0.99649776 </v>
    <v>       0.11942195       0.61402459       0.51740197 </v>
    <v>       0.64101448       0.12431431       0.98934831 </v>
    <v>       0.62474965       0.62247429       0.00084939 </v>
    <v>       0.61764814       0.63034561       0.51422055 </v>
    <v>       0.13912913       0.37789533       0.99507123 </v>
    <v>       0.12002553       0.36621179       0.49608229 </v>
    <v>       0.12093369       0.87486565       0.98920774 </v>
    <v>       0.10976916       0.86153024       0.48780888 </v>
    <v>       0.61685240       0.36852514       0.98042889 </v>
    <v>       0.61918752       0.38826027       0.54192819 </v>
    <v>       0.62040452       0.87237498       0.98685672 </v>
    <v>       0.61619688       0.89590850       0.52575096 </v>
    <v>       0.39364167       0.15274268       0.00837686 </v>
    <v>       0.40098982       0.12610492       0.50481081 </v>
    <v>       0.37264763       0.60933870       0.01359075 </v>
    <v>       0.37682909       0.61814810       0.52215708 </v>
    <v>       0.88527893       0.13283713       0.01265135 </v>
    <v>       0.87261643       0.62727922       0.00953407 </v>
    <v>       0.86876713       0.63046815       0.49519189 </v>
    <v>       0.00769273       0.98846225       0.12583967 </v>
    <v>       0.98975818       0.00913280       0.62078841 </v>
    <v>       0.99504796       0.48057945       0.12782728 </v>
    <v>       0.96977042       0.47103341       0.62504705 </v>
    <v>       0.52627952       0.98950855       0.12944598 </v>
    <v>       0.50892617       0.46693616       0.12189819 </v>
    <v>       0.98537450       0.03043769       0.38194567 </v>
    <v>       0.99353625       0.01883901       0.87782770 </v>
    <v>       0.01044902       0.51515606       0.37652642 </v>
    <v>       0.98882216       0.49394809       0.86845232 </v>
    <v>       0.51886836       0.98089174       0.36547725 </v>
    <v>       0.48919430       0.01332650       0.87371954 </v>
    <v>       0.50113215       0.51288984       0.37966532 </v>
    <v>       0.47039682       0.49253168       0.88138406 </v>
    <v>       0.25618997       0.23833928       0.37636959 </v>
    <v>       0.27019888       0.25709660       0.87741362 </v>
    <v>       0.25209287       0.72562564       0.37628005 </v>
    <v>       0.27223012       0.74178398       0.87176457 </v>
    <v>       0.69244908       0.17404036       0.44495993 </v>
    <v>       0.81398978       0.20961316       0.82227345 </v>
    <v>       0.72093778       0.76187476       0.37752253 </v>
    <v>       0.75349377       0.74282018       0.87461764 </v>
    <v>       0.26284713       0.27656389       0.12278680 </v>
    <v>       0.24994133       0.25153521       0.62090165 </v>
    <v>       0.23770666       0.75950249       0.12617352 </v>
    <v>       0.23555972       0.76856141       0.62351975 </v>
    <v>       0.74020320       0.27524736       0.12692014 </v>
    <v>       0.80463381       0.22500511       0.62312263 </v>
    <v>       0.73305665       0.77157939       0.12810823 </v>
    <v>       0.76042275       0.75607522       0.62448224 </v>
   </varray>
  </structure>
  <varray name="forces" >
   <v>      -0.00969555       0.00437909      -0.01786355 </v>
   <v>      -0.00727783      -0.00706642       0.00663989 </v>
   <v>       0.01529922      -0.00740255       0.00292210 </v>
   <v>      -0.00642517       0.00476727       0.01064633 </v>
   <v>      -0.00324499       0.00790893      -0.00282928 </v>
   <v>      -0.00434267       0.00640430      -0.00837729 </v>
   <v>      -0.00618032      -0.00885346       0.02241727 </v>
   <v>      -0.00120691       0.01180662       0.00999102 </v>
   <v>      -0.00348577       0.01458045      -0.00182856 </v>
   <v>       0.00449384       0.00501779       0.00942156 </v>
   <v>      -0.00203605      -0.00127521       0.00684825 </v>
   <v>       0.00885233       0.00376573      -0.01491183 </v>
   <v>       0.00828056       0.00521054       0.00571659 </v>
   <v>       0.01326137       0.00240660      -0.00327413 </v>
   <v>      -0.01464307       0.00691906      -0.00398518 </v>
   <v>      -0.01876632      -0.00915209       0.00762328 </v>
   <v>      -0.00207701      -0.01743960      -0.00924165 </v>
   <v>       0.00780447       0.00209366       0.01258456 </v>
   <v>       0.01182340      -0.00111069      -0.00177209 </v>
   <v>       0.00207273      -0.00084675      -0.00643573 </v>
   <v>      -0.00145185      -0.00339913      -0.00617989 </v>
   <v>       0.00424938       0.02533009      -0.02170318 </v>
   <v>       0.00236019      -0.01371042       0.00901153 </v>
   <v>       0.00747085       0.00238152      -0.00288857 </v>
   <v>       0.01435722       0.00397067      -0.00199583 </v>
   <v>      -0.00865045      -0.00712245      -0.00863837 </v>
   <v>       0.00396641       0.00369406      -0.00706640 </v>
   <v>      -0.00401705       0.00320768      -0.00342109 </v>
   <v>      -0.00480845      -0.00544768       0.00108154 </v>
   <v>       0.00055869       0.00250978       0.00198643 </v>
   <v>       0.00095873      -0.02702326      -0.00449119 </v>
   <v>       0.02346712      -0.00649056       0.01156642 </v>
   <v>       0.01455726       0.01322829      -0.01377453 </v>
   <v>      -0.02805693       0.01180691       0.00773898 </v>
   <v>      -0.02390648      -0.00657330      -0.05018780 </v>
   <v>      -0.03573415      -0.01607378       0.03362388 </v>
   <v>       0.00598753      -0.00637003      -0.04883455 </v>
   <v>      -0.01358437       0.00156929       0.01379834 </v>
   <v>       0.00263555      -0.00037736       0.00352907 </v>
   <v>       0.02225987      -0.10164641      -0.06309255 </v>
   <v>       0.00218650       0.00618495      -0.01062857 </v>
   <v>      -0.00378388       0.03151232      -0.01767909 </v>
   <v>      -0.00908933      -0.02272649      -0.00057027 </v>
   <v>      -0.00803396       0.01942214       0.01448633 </v>
   <v>       0.06441346      -0.06813089       0.03904382 </v>
   <v>       0.02185204      -0.00117966       0.01398521 </v>
   <v>       0.02589102       0.00569890       0.01190642 </v>
   <v>      -0.03301203      -0.01033192      -0.05569921 </v>
   <v>       0.00922752       0.00056604      -0.00609113 </v>
   <v>      -0.00711257       0.00218522       0.00561603 </v>
   <v>       0.01824760       0.01058597       0.00240349 </v>
   <v>       0.00729588      -0.00696895       0.00077077 </v>
   <v>       0.00584335       0.01939317      -0.00279776 </v>
   <v>      -0.00153223      -0.00386447       0.00511901 </v>
   <v>      -0.00008210       0.00217830       0.00232923 </v>
   <v>      -0.00602167      -0.00674513       0.00558062 </v>
   <v>      -0.00620868       0.00861796       0.00341195 </v>
   <v>      -0.00165933      -0.01178664       0.00782920 </v>
   <v>       0.00217408       0.01514051      -0.00464109 </v>
   <v>       0.00126498      -0.00446160      -0.00558715 </v>
   <v>      -0.00742422       0.01302744       0.00031651 </v>
   <v>       0.00166724       0.00852348       0.00206524 </v>
   <v>      -0.00245328      -0.01301151       0.00388306 </v>
   <v>      -0.01097661       0.01479066       0.01920812 </v>
   <v>      -0.00085770      -0.01410208      -0.01282922 </v>
   <v>      -0.01584633       0.00869531       0.00846582 </v>
   <v>       0.00826252       0.00697617       0.01046177 </v>
   <v>      -0.00689388      -0.01621790      -0.00605320 </v>
   <v>       0.00479227      -0.00004788      -0.00633093 </v>
   <v>       0.00332132       0.00490890       0.00898637 </v>
   <v>       0.00342555       0.00479656      -0.00992571 </v>
   <v>       0.00202205      -0.00004423       0.01133284 </v>
   <v>      -0.01068792      -0.01099281      -0.00460382 </v>
   <v>       0.01905642       0.00109841       0.00779982 </v>
   <v>       0.00287351       0.01042180       0.01098262 </v>
   <v>       0.00721365       0.00700491       0.02148901 </v>
   <v>       0.00117532      -0.00384381      -0.03021966 </v>
   <v>       0.01098592       0.00731267      -0.00760205 </v>
   <v>      -0.00299344       0.00256719       0.00413539 </v>
   <v>       0.00936902      -0.00565178       0.00198585 </v>
   <v>      -0.01231892      -0.01646462      -0.00234248 </v>
   <v>       0.00132189       0.00562040       0.01070609 </v>
   <v>       0.00898943      -0.00474839       0.01097677 </v>
   <v>       0.02069335      -0.01374679      -0.01095936 </v>
   <v>      -0.00102903       0.02106657       0.01276853 </v>
   <v>      -0.00154459       0.00141509      -0.00886614 </v>
   <v>       0.00131326      -0.00284401       0.00728131 </v>
   <v>       0.00647240       0.01578236      -0.00410706 </v>
[...]
       <r>   -17.1091     0.0000    32.0000 </r>
       <r>   -16.9558     0.0000    32.0000 </r>
       <r>   -16.8024     0.0000    32.0000 </r>
       <r>   -16.6490     0.0000    32.0000 </r>
       <r>   -16.4956     0.0000    32.0000 </r>
       <r>   -16.3422     0.0000    32.0000 </r>
       <r>   -16.1889     0.0000    32.0000 </r>
       <r>   -16.0355     0.0000    32.0000 </r>
       <r>   -15.8821     0.0000    32.0000 </r>
       <r>   -15.7287     0.1777    32.0273 </r>
       <r>   -15.5753     6.2907    32.9921 </r>
       <r>   -15.4219     0.5953    33.0834 </r>
       <r>   -15.2686     9.7208    34.5745 </r>
       <r>   -15.1152    13.5287    36.6495 </r>
       <r>   -14.9618    50.4282    44.3843 </r>
       <r>   -14.8084    31.7039    49.2471 </r>
       <r>   -14.6550    40.3820    55.4410 </r>
       <r>   -14.5016    50.4981    63.1866 </r>
       <r>   -14.3483    49.0387    70.7082 </r>
       <r>   -14.1949    51.0156    78.5331 </r>
       <r>   -14.0415    63.7551    88.3120 </r>
       <r>   -13.8881    67.7985    98.7111 </r>
       <r>   -13.7347    53.7875   106.9612 </r>
       <r>   -13.5814    38.1131   112.8071 </r>
       <r>   -13.4280    28.3698   117.1585 </r>
       <r>   -13.2746    12.9538   119.1454 </r>
       <r>   -13.1212     5.5689   119.9996 </r>
       <r>   -12.9678     0.0030   120.0000 </r>
       <r>   -12.8144     7.2734   121.1156 </r>
       <r>   -12.6611    61.9407   130.6163 </r>
       <r>   -12.5077   118.5282   148.7964 </r>
       <r>   -12.3543   121.3673   167.4120 </r>
       <r>   -12.2009   102.6191   183.1520 </r>
       <r>   -12.0475    97.9815   198.1806 </r>
       <r>   -11.8941    80.5070   210.5290 </r>
       <r>   -11.7408    34.7144   215.8535 </r>
       <r>   -11.5874     0.9548   216.0000 </r>
       <r>   -11.4340     0.0000   216.0000 </r>
       <r>   -11.2806     0.0000   216.0000 </r>
       <r>   -11.1272     0.0000   216.0000 </r>
       <r>   -10.9739     0.0000   216.0000 </r>
       <r>   -10.8205     0.0000   216.0000 </r>
       <r>   -10.6671     0.0000   216.0000 </r>
       <r>   -10.5137     0.0000   216.0000 </r>
       <r>   -10.3603     0.0000   216.0000 </r>
       <r>   -10.2069     0.0000   216.0000 </r>
       <r>   -10.0536     0.0000   216.0000 </r>
       <r>    -9.9002     0.0000   216.0000 </r>
       <r>    -9.7468     0.0000   216.0000 </r>
       <r>    -9.5934     0.0000   216.0000 </r>
       <r>    -9.4400     0.0000   216.0000 </r>
       <r>    -9.2866     0.0000   216.0000 </r>
       <r>    -9.1333     0.0000   216.0000 </r>
       <r>    -8.9799     0.0000   216.0000 </r>
       <r>    -8.8265     0.0000   216.0000 </r>
       <r>    -8.6731     0.0000   216.0000 </r>
       <r>    -8.5197     0.0000   216.0000 </r>
       <r>    -8.3664     0.0000   216.0000 </r>
       <r>    -8.2130     0.0000   216.0000 </r>
       <r>    -8.0596     0.0000   216.0000 </r>
       <r>    -7.9062     0.0000   216.0000 </r>
       <r>    -7.7528     0.0000   216.0000 </r>
       <r>    -7.5994     0.0000   216.0000 </r>
       <r>    -7.4461     0.0000   216.0000 </r>
       <r>    -7.2927     0.0000   216.0000 </r>
       <r>    -7.1393     0.0000   216.0000 </r>
       <r>    -6.9859     0.0000   216.0000 </r>
       <r>    -6.8325     0.0000   216.0000 </r>
       <r>    -6.6791     0.0000   216.0000 </r>
       <r>    -6.5258     0.0000   216.0000 </r>
       <r>    -6.3724     0.0000   216.0000 </r>
       <r>    -6.2190     0.0000   216.0000 </r>
       <r>    -6.0656     0.0000   216.0000 </r>
       <r>    -5.9122     0.0000   216.0000 </r>
       <r>    -5.7588     0.0000   216.0000 </r>
       <r>    -5.6055     0.0000   216.0000 </r>
       <r>    -5.4521     0.0000   216.0000 </r>
       <r>    -5.2987     0.0000   216.0000 </r>
       <r>    -5.1453     0.0000   216.0000 </r>
       <r>    -4.9919     0.0000   216.0000 </r>
       <r>    -4.8386     0.0000   216.0000 </r>
       <r>    -4.6852     0.3398   216.0521 </r>
       <r>    -4.5318    11.9535   217.8856 </r>
       <r>    -4.3784     5.8643   218.7851 </r>
       <r>    -4.2250     9.2510   220.2040 </r>
       <r>    -4.0716     5.1892   220.9999 </r>
       <r>    -3.9183     0.0004   221.0000 </r>
       <r>    -3.7649     0.0000   221.0000 </r>
       <r>    -3.6115     0.0000   221.0000 </r>
       <r>    -3.4581     0.0000   221.0000 </r>
       <r>    -3.3047     0.0000   221.0000 </r>
       <r>    -3.1513     0.0000   221.0000 </r>
       <r>    -2.9980     0.0000   221.0000 </r>
       <r>    -2.8446     0.0000   221.0000 </r>
       <r>    -2.6912     0.0000   221.0000 </r>
       <r>    -2.5378     2.5690   221.3940 </r>
       <r>    -2.3844     9.6362   222.8721 </r>
       <r>    -2.2311    16.9665   225.4744 </r>
       <r>    -2.0777    23.7430   229.1162 </r>
       <r>    -1.9243    34.0852   234.3443 </r>
       <r>    -1.7709    34.5371   239.6416 </r>
       <r>    -1.6175    45.1989   246.5744 </r>
       <r>    -1.4641    35.5023   252.0198 </r>
       <r>    -1.3108    52.4430   260.0636 </r>
       <r>    -1.1574    66.8809   270.3220 </r>
       <r>    -1.0040    74.0472   281.6795 </r>
       <r>    -0.8506    78.3337   293.6945 </r>
       <r>    -0.6972    82.9269   306.4140 </r>
       <r>    -0.5438    87.9530   319.9045 </r>
       <r>    -0.3905    90.1890   333.7379 </r>
       <r>    -0.2371    76.7976   345.5173 </r>
       <r>    -0.0837    59.4672   354.6385 </r>
       <r>     0.0697    54.7922   363.0427 </r>
       <r>     0.2231    53.4526   371.2414 </r>
       <r>     0.3764    50.9711   379.0594 </r>
       <r>     0.5298    55.3165   387.5440 </r>
       <r>     0.6832    53.7488   395.7881 </r>
       <r>     0.8366    56.3643   404.4334 </r>
       <r>     0.9900    51.5407   412.3389 </r>
       <r>     1.1434    57.0652   421.0917 </r>
       <r>     1.2967    65.2862   431.1054 </r>
       <r>     1.4501    68.6304   441.6321 </r>
       <r>     1.6035    65.2510   451.6405 </r>
       <r>     1.7569    66.7274   461.8753 </r>
       <r>     1.9103    57.0505   470.6258 </r>
       <r>     2.0637    39.1728   476.6342 </r>
       <r>     2.2170    35.6098   482.0962 </r>
       <r>     2.3704    18.1508   484.8802 </r>
       <r>     2.5238     0.7811   485.0000 </r>
       <r>     2.6772     0.0000   485.0000 </r>
       <r>     2.8306     0.0000   485.0000 </r>
       <r>     2.9839     0.0000   485.0000 </r>
       <r>     3.1373     0.0000   485.0000 </r>
       <r>     3.2907     0.0000   485.0000 </r>
       <r>     3.4441     0.0000   485.0000 </r>
       <r>     3.5975     0.0000   485.0000 </r>
       <r>     3.7509     0.0000   485.0000 </r>
       <r>     3.9042     0.0000   485.0000 </r>
       <r>     4.0576     0.0000   485.0000 </r>
       <r>     4.2110     0.0000   485.0000 </r>
       <r>     4.3644     0.4195   485.0643 </r>
       <r>     4.5178    12.8644   487.0375 </r>
       <r>     4.6712    49.0935   494.5676 </r>
       <r>     4.8245    57.3839   503.3693 </r>
       <r>     4.9779    57.2147   512.1450 </r>
       <r>     5.1313    65.3138   522.1630 </r>
       <r>     5.2847    72.3287   533.2569 </r>
       <r>     5.4381    73.5220   544.5339 </r>
       <r>     5.5914    72.0160   555.5799 </r>
       <r>     5.7448    78.6306   567.6405 </r>
       <r>     5.8982    56.9888   576.3815 </r>
       <r>     6.0516    69.4438   587.0330 </r>
       <r>     6.2050    70.7812   597.8896 </r>
       <r>     6.3584    56.1563   606.5030 </r>
       <r>     6.5117    30.8647   611.2371 </r>
       <r>     6.6651    28.7892   615.6528 </r>
       <r>     6.8185    19.3454   618.6201 </r>
       <r>     6.9719    17.4284   621.2933 </r>
       <r>     7.1253    18.4126   624.1175 </r>
       <r>     7.2787     9.0986   625.5130 </r>
       <r>     7.4320     7.0588   626.5957 </r>
       <r>     7.5854    12.3457   628.4893 </r>
       <r>     7.7388    14.7984   630.7592 </r>
       <r>     7.8922    18.6941   633.6265 </r>
       <r>     8.0456    20.8943   636.8313 </r>
       <r>     8.1990    23.8964   640.4966 </r>
       <r>     8.3523    24.2249   644.2123 </r>
       <r>     8.5057    28.5424   648.5902 </r>
       <r>     8.6591    28.6003   652.9770 </r>
       <r>     8.8125    36.3546   658.5531 </r>
       <r>     8.9659    27.4685   662.7663 </r>
       <r>     9.1192    36.6017   668.3804 </r>
       <r>     9.2726    43.1307   674.9959 </r>
       <r>     9.4260    43.9129   681.7313 </r>
       <r>     9.5794    50.2727   689.4423 </r>
       <r>     9.7328    50.9415   697.2558 </r>
       <r>     9.8862    53.8434   705.5144 </r>
       <r>    10.0395    60.7313   714.8296 </r>
       <r>    10.1929    53.8704   723.0923 </r>
       <r>    10.3463    53.2552   731.2608 </r>
       <r>    10.4997    52.8778   739.3713 </r>
       <r>    10.6531    54.4845   747.7283 </r>
       <r>    10.8065    52.6966   755.8110 </r>
       <r>    10.9598    61.2830   765.2107 </r>
       <r>    11.1132    18.1776   767.9989 </r>
       <r>    11.2666     0.0075   768.0000 </r>
       <r>    11.4200     0.0000   768.0000 </r>
       <r>    11.5734     0.0000   768.0000 </r>
       <r>    11.7267     0.0000   768.0000 </r>
       <r>    11.8801     0.0000   768.0000 </r>
       <r>    12.0335     0.0000   768.0000 </r>
       <r>    12.1869     0.0000   768.0000 </r>
       <r>    12.3403     0.0000   768.0000 </r>
       <r>    12.4937     0.0000   768.0000 </r>
       <r>    12.6470     0.0000   768.0000 </r>
       <r>    12.8004     0.0000   768.0000 </r>
       <r>    12.9538     0.0000   768.0000 </r>
       <r>    13.1072     0.0000   768.0000 </r>
      </set>
     </set>
    </array>
   </total>
  </dos>
 </calculation>
 <structure name="finalpos" >
  <crystal>
   <varray name="basis" >
    <v>      11.28644197       0.03866104       0.02230431 </v>
    <v>       0.03857487      11.28273568       0.01089995 </v>
    <v>       0.03179493       0.01554118      15.88750340 </v>
   </varray>
   <i name="volume">   2023.11195038 </i>
   <varray name="rec_basis" >
    <v>       0.08860327      -0.00030276      -0.00017702 </v>
    <v>      -0.00030343       0.08863211      -0.00008609 </v>
    <v>      -0.00012418      -0.00006038       0.06294286 </v>
   </varray>
  </crystal>
  <varray name="positions" >
   <v>      -0.00035688       0.24927517       0.12492979 </v>
   <v>       0.03028472       0.24694077       0.62695675 </v>
   <v>       0.00138971       0.75077267       0.11841106 </v>
   <v>       0.00514266       0.75707689       0.63116608 </v>
   <v>       0.50472331       0.24037585       0.12837249 </v>
   <v>       0.47064692       0.25129989       0.62558810 </v>
   <v>       0.49510203       0.75609229       0.11939901 </v>
   <v>       0.49627997       0.75071483       0.63010136 </v>
   <v>       0.01449094       0.25404540       0.36539260 </v>
   <v>       0.01239652       0.25113749       0.88319102 </v>
   <v>       0.00348254       0.74725652       0.36737623 </v>
   <v>       0.99605955       0.75091735       0.88068446 </v>
   <v>       0.49460111       0.24157240       0.36739986 </v>
   <v>       0.49485501       0.24677411       0.87882290 </v>
   <v>       0.48861056       0.74282286       0.36610877 </v>
   <v>       0.50158235       0.75433165       0.87961735 </v>
   <v>       0.24445889       0.98709877       0.12509090 </v>
   <v>       0.24046560       0.99645607       0.63185442 </v>
   <v>       0.23925008       0.51122418       0.12461458 </v>
   <v>       0.24700351       0.49970851       0.62819915 </v>
   <v>       0.75609821       0.99865915       0.11934935 </v>
   <v>       0.76163843       0.97863113       0.63075451 </v>
   <v>       0.75637906       0.51044694       0.12140295 </v>
   <v>       0.75055366       0.53586611       0.63041079 </v>
   <v>       0.24399975       0.99825938       0.36884355 </v>
   <v>       0.24610717       0.98361285       0.87813119 </v>
   <v>       0.24927903       0.49905575       0.36900301 </v>
   <v>       0.24123177       0.51253051       0.87647993 </v>
   <v>       0.75474636       0.99293026       0.36733134 </v>
   <v>       0.75553256       0.98948114       0.88251830 </v>
   <v>       0.75128998       0.51917024       0.36483427 </v>
   <v>       0.75847393       0.51632553       0.88214791 </v>
   <v>       0.99702753       0.99758738       0.00090700 </v>
   <v>       0.00929775       0.98852993       0.49739798 </v>
   <v>       0.00016645       0.50360816       0.49883329 </v>
   <v>       0.51159488       0.50653076       0.00283115 </v>
   <v>       0.49507347       0.50673541       0.49367992 </v>
   <v>       0.24608148       0.24143619       0.00077263 </v>
   <v>       0.25169258       0.24715337       0.49848005 </v>
   <v>       0.74540733       0.28356215       0.51786132 </v>
   <v>       0.74364984       0.75836356       0.50082624 </v>
   <v>       0.25329477       0.25315814       0.24566315 </v>
   <v>       0.24970637       0.74815555       0.24902961 </v>
   <v>       0.74884114       0.25292476       0.24209549 </v>
   <v>       0.72592219       0.24434146       0.73226736 </v>
   <v>      -0.00007344       0.49938153       0.24849984 </v>
   <v>       0.00780005       0.50995836       0.74889181 </v>
   <v>       0.49395706       0.99841018       0.75949445 </v>
   <v>       0.99746454       0.50038675       0.99957707 </v>
   <v>       0.50594612       0.00027125       0.00435209 </v>
   <v>       0.48752710       0.98247365       0.48140064 </v>
   <v>       0.24926228       0.74947461       0.99800530 </v>
   <v>       0.25037029       0.74586294       0.50269935 </v>
   <v>       0.75195504       0.25243920       0.00427874 </v>
   <v>       0.74964284       0.75605313       0.00178605 </v>
   <v>       0.25117012       0.25035225       0.75194475 </v>
   <v>       0.25638798       0.74942563       0.74707769 </v>
   <v>       0.75556581       0.74396300       0.24606103 </v>
   <v>       0.74822772       0.75391649       0.75398753 </v>
   <v>       0.99754958       0.00184183       0.24872998 </v>
   <v>       0.01125736       0.99244157       0.75680575 </v>
   <v>       0.49125647       0.00630419       0.24650844 </v>
   <v>       0.50006187       0.49799681       0.24481744 </v>
   <v>       0.49209671       0.50553958       0.76347327 </v>
   <v>       0.12644164       0.13355345       0.24281758 </v>
   <v>       0.11765352       0.13069181       0.75055694 </v>
   <v>       0.11625315       0.62876622       0.24329412 </v>
   <v>       0.12265429       0.62459503       0.74329794 </v>
   <v>       0.63009504       0.12668611       0.25398346 </v>
   <v>       0.61379472       0.12521973       0.71932396 </v>
   <v>       0.61587494       0.63359557       0.24546150 </v>
   <v>       0.61485159       0.62640870       0.74460402 </v>
   <v>       0.38189012       0.36840593       0.26054427 </v>
   <v>       0.38694737       0.37449341       0.73564055 </v>
   <v>       0.38396067       0.86482322       0.24944299 </v>
   <v>       0.38201539       0.87807890       0.73774656 </v>
   <v>       0.87642180       0.37248204       0.26565112 </v>
   <v>       0.86566827       0.87832314       0.25675657 </v>
   <v>       0.87247025       0.89000566       0.75294414 </v>
   <v>       0.37143139       0.12206785       0.24503848 </v>
   <v>       0.37412168       0.11822694       0.73432006 </v>
   <v>       0.36716928       0.61581261       0.24138615 </v>
   <v>       0.37265809       0.61826952       0.72893604 </v>
   <v>       0.87277258       0.13288448       0.24657956 </v>
   <v>       0.87068011       0.62050625       0.24912932 </v>
   <v>       0.87193730       0.61725803       0.74709505 </v>
   <v>       0.13076419       0.37994186       0.25714356 </v>
   <v>       0.11757673       0.37358730       0.74851325 </v>
   <v>       0.12815505       0.87940283       0.26577473 </v>
   <v>       0.12797687       0.87409078       0.75833349 </v>
   <v>       0.63356260       0.37204567       0.27694823 </v>
   <v>       0.64536132       0.38513976       0.74703933 </v>
   <v>       0.62285237       0.88577868       0.74482076 </v>
   <v>       0.37920570       0.37658262       0.50217585 </v>
   <v>       0.37142666       0.88409644       0.00297390 </v>
   <v>       0.36644196       0.87405635       0.49517468 </v>
   <v>       0.87003299       0.37462886       0.98969740 </v>
   <v>       0.86685637       0.36697300       0.47004433 </v>
   <v>       0.87294020       0.88099797       0.99875026 </v>
   <v>       0.86193643       0.89212143       0.49492593 </v>
   <v>       0.13687233       0.12076665       0.00449649 </v>
   <v>       0.13319224       0.11641591       0.50302386 </v>
   <v>       0.12108207       0.62468742       0.99643998 </v>
   <v>       0.11911970       0.61482265       0.51633016 </v>
   <v>       0.64070775       0.12426070       0.98940714 </v>
   <v>       0.62509603       0.62232926       0.00136496 </v>
   <v>       0.61773750       0.62969379       0.51432566 </v>
   <v>       0.13856794       0.37742839       0.99494469 </v>
   <v>       0.12003189       0.36672768       0.49581573 </v>
   <v>       0.12072461       0.87455914       0.98919408 </v>
   <v>       0.11224269       0.86371479       0.48671910 </v>
   <v>       0.61704750       0.36881728       0.97958923 </v>
   <v>       0.61862926       0.38750630       0.54236435 </v>
   <v>       0.62011224       0.87220833       0.98787960 </v>
   <v>       0.61780179       0.89489811       0.52425915 </v>
   <v>       0.39340456       0.15190549       0.00813590 </v>
   <v>       0.40017809       0.12526215       0.50523449 </v>
   <v>       0.37319980       0.61012406       0.01383923 </v>
   <v>       0.37689267       0.61761629       0.52210705 </v>
   <v>       0.88496579       0.13253131       0.01252199 </v>
   <v>       0.87272956       0.62750501       0.00853242 </v>
   <v>       0.86850643       0.62938403       0.49515728 </v>
   <v>       0.00805978       0.98769125       0.12575142 </v>
   <v>       0.98983629       0.00958148       0.62030965 </v>
   <v>       0.99571817       0.48223408       0.12763306 </v>
   <v>       0.97026289       0.47141110       0.62509624 </v>
   <v>       0.52582297       0.98965279       0.12963260 </v>
   <v>       0.50817404       0.46601527       0.12176824 </v>
   <v>       0.98438837       0.03198014       0.38199779 </v>
   <v>       0.99297671       0.01792734       0.87773360 </v>
   <v>       0.00886093       0.51404486       0.37644514 </v>
   <v>       0.98856984       0.49348713       0.86821611 </v>
   <v>       0.51832432       0.98168715       0.36554818 </v>
   <v>       0.49059987       0.01258071       0.87364535 </v>
   <v>       0.50140361       0.51272975       0.37963328 </v>
   <v>       0.47011765       0.49333400       0.88154209 </v>
   <v>       0.25586789       0.23798239       0.37628397 </v>
   <v>       0.27034344       0.25762780       0.87747084 </v>
   <v>       0.25325748       0.72562017       0.37654380 </v>
   <v>       0.27102037       0.74169452       0.87171964 </v>
   <v>       0.69080016       0.16959515       0.44951795 </v>
   <v>       0.81395174       0.21055914       0.82336476 </v>
   <v>       0.72089935       0.76130655       0.37730744 </v>
   <v>       0.75254356       0.74452822       0.87429167 </v>
   <v>       0.26288385       0.27651883       0.12250933 </v>
   <v>       0.24971400       0.25216989       0.62096266 </v>
   <v>       0.23756736       0.75964805       0.12642005 </v>
   <v>       0.23542924       0.76814217       0.62325683 </v>
   <v>       0.73885162       0.27520411       0.12649278 </v>
   <v>       0.80489642       0.22485209       0.62430076 </v>
   <v>       0.73352763       0.77105267       0.12825537 </v>
   <v>       0.76065508       0.75593589       0.62428044 </v>
  </varray>
 </structure>
</modeling>
