       N       E                     dE             d eps       ncg     rms          rms(c)
DAV:   1     0.122078800610E+05    0.12208E+05   -0.42873E+05  3072   0.133E+03
DAV:   2     0.744822393340E+03   -0.11463E+05   -0.10238E+05  3088   0.383E+02
DAV:   3    -0.134130218977E+04   -0.20861E+04   -0.20066E+04  3320   0.170E+02
DAV:   4    -0.148935722952E+04   -0.14806E+03   -0.14563E+03  4056   0.482E+01
DAV:   5    -0.149939248100E+04   -0.10035E+02   -0.99893E+01  5536   0.116E+01    0.179E+02
RMM:   6    -0.115941855658E+04    0.33997E+03   -0.16817E+03  3157   0.370E+01    0.141E+02
RMM:   7    -0.114016771919E+04    0.19251E+02   -0.65829E+01  3200   0.127E+01    0.819E+01
RMM:   8    -0.114260387586E+04   -0.24362E+01   -0.21218E+01  3493   0.498E+00    0.412E+01
RMM:   9    -0.114744655425E+04   -0.48427E+01   -0.10141E+01  3202   0.382E+00    0.138E+01
RMM:  10    -0.114834275750E+04   -0.89620E+00   -0.25949E+00  3445   0.177E+00    0.708E+00
RMM:  11    -0.114951848404E+04   -0.11757E+01   -0.13710E+00  3578   0.960E-01    0.428E+00
RMM:  12    -0.115024683451E+04   -0.72835E+00   -0.62374E-01  3491   0.757E-01    0.234E+00
RMM:  13    -0.115051869996E+04   -0.27187E+00   -0.29355E-01  3632   0.492E-01    0.132E+00
RMM:  14    -0.115058566045E+04   -0.66960E-01   -0.12645E-01  3589   0.314E-01    0.790E-01
RMM:  15    -0.115059661866E+04   -0.10958E-01   -0.41668E-02  3747   0.196E-01    0.585E-01
RMM:  16    -0.115060009923E+04   -0.34806E-02   -0.17041E-02  4088   0.102E-01    0.325E-01
RMM:  17    -0.115059993035E+04    0.16888E-03   -0.54845E-03  3434   0.655E-02    0.964E-02
RMM:  18    -0.115060016029E+04   -0.22994E-03   -0.23094E-03  3281   0.294E-02    0.478E-02
RMM:  19    -0.115060026923E+04   -0.10894E-03   -0.10352E-03  2555   0.209E-02    0.201E-02
RMM:  20    -0.115060033783E+04   -0.68601E-04   -0.62583E-04  2443   0.151E-02
   1 F= -.11506003E+04 E0= -.11506003E+04  d E =-.115060E+04  mag=    20.0006
       N       E                     dE             d eps       ncg     rms          rms(c)
DAV:   1    -0.111399037656E+04    0.36610E+02   -0.71274E+02  3728   0.253E+01    0.246E+01
RMM:   2    -0.115213809130E+04   -0.38148E+02   -0.55779E+01  3216   0.808E+00    0.408E+01
RMM:   3    -0.115255654963E+04   -0.41846E+00   -0.32719E+00  3240   0.266E+00    0.122E+01
RMM:   4    -0.115247597412E+04    0.80576E-01   -0.21089E+00  3422   0.144E+00    0.337E+00
RMM:   5    -0.115246138069E+04    0.14593E-01   -0.24359E-01  3442   0.487E-01    0.318E+00
RMM:   6    -0.115245359077E+04    0.77899E-02   -0.78757E-02  3560   0.268E-01    0.179E+00
RMM:   7    -0.115245751038E+04   -0.39196E-02   -0.28731E-02  3795   0.161E-01    0.105E+00
RMM:   8    -0.115245776712E+04   -0.25673E-03   -0.39648E-03  4318   0.596E-02    0.509E-01
RMM:   9    -0.115245709223E+04    0.67489E-03   -0.34146E-03  3454   0.498E-02    0.276E-01
RMM:  10    -0.115245706472E+04    0.27506E-04   -0.50211E-04  2669   0.260E-02
   2 F= -.11524571E+04 E0= -.11524571E+04  d E =-.185673E+01  mag=    20.0000
       N       E                     dE             d eps       ncg     rms          rms(c)
DAV:   1    -0.115245431821E+04    0.27740E-02   -0.34915E-01  3504   0.541E-01    0.571E-01
RMM:   2    -0.115245771323E+04   -0.33950E-02   -0.82974E-03  3091   0.107E-01    0.345E-01
RMM:   3    -0.115245836829E+04   -0.65506E-03   -0.58266E-04  2499   0.424E-02    0.193E-01
RMM:   4    -0.115245833940E+04    0.28885E-04   -0.36020E-04  2258   0.201E-02    0.542E-02
RMM:   5    -0.115245835423E+04   -0.14822E-04   -0.57208E-05  1905   0.117E-02    0.331E-02
RMM:   6    -0.115245835732E+04   -0.30894E-05   -0.17075E-05  1770   0.579E-03    0.191E-02
RMM:   7    -0.115245835943E+04   -0.21170E-05   -0.93181E-06  1660   0.468E-03    0.955E-03
RMM:   8    -0.115245836161E+04   -0.21771E-05   -0.55966E-06  1388   0.321E-03
   3 F= -.11524584E+04 E0= -.11524584E+04  d E =-.185802E+01  mag=    20.0000
       N       E                     dE             d eps       ncg     rms          rms(c)
DAV:   1    -0.115312054681E+04   -0.66219E+00   -0.77192E+01  3240   0.105E+01    0.633E+00
RMM:   2    -0.115286932017E+04    0.25123E+00   -0.30380E+00  3201   0.212E+00    0.469E+00
RMM:   3    -0.115274053026E+04    0.12879E+00   -0.24311E-01  3208   0.810E-01    0.232E+00
RMM:   4    -0.115270855943E+04    0.31971E-01   -0.11373E-01  3297   0.366E-01    0.159E+00
RMM:   5    -0.115270669834E+04    0.18611E-02   -0.24297E-02  3608   0.184E-01    0.921E-01
RMM:   6    -0.115270562260E+04    0.10757E-02   -0.96755E-03  4206   0.907E-02    0.424E-01
RMM:   7    -0.115270589393E+04   -0.27133E-03   -0.29626E-03  4251   0.467E-02    0.209E-01
RMM:   8    -0.115270587877E+04    0.15159E-04   -0.91746E-04  3511   0.260E-02
   4 F= -.11527059E+04 E0= -.11527059E+04  d E =-.247517E+00  mag=    20.0000
       N       E                     dE             d eps       ncg     rms          rms(c)
DAV:   1    -0.115274662825E+04   -0.40734E-01   -0.50915E+00  3432   0.269E+00    0.162E+00
RMM:   2    -0.115273038394E+04    0.16244E-01   -0.20558E-01  3179   0.548E-01    0.118E+00
RMM:   3    -0.115272184441E+04    0.85395E-02   -0.16392E-02  3198   0.215E-01    0.571E-01
RMM:   4    -0.115271993417E+04    0.19102E-02   -0.78528E-03  3383   0.939E-02    0.393E-01
RMM:   5    -0.115271984799E+04    0.86171E-04   -0.15359E-03  3436   0.476E-02    0.234E-01
RMM:   6    -0.115271976478E+04    0.83211E-04   -0.62687E-04  3132   0.238E-02    0.107E-01
RMM:   7    -0.115271975598E+04    0.88028E-05   -0.19977E-04  2001   0.164E-02    0.669E-02
RMM:   8    -0.115271974196E+04    0.14020E-04   -0.82494E-05  1852   0.120E-02
   5 F= -.11527197E+04 E0= -.11527197E+04  d E =-.261380E+00  mag=    20.0000
       N       E                     dE             d eps       ncg     rms          rms(c)
DAV:   1    -0.115280885855E+04   -0.89103E-01   -0.85499E+01  3112   0.107E+01    0.437E+00
RMM:   2    -0.115295642202E+04   -0.14756E+00   -0.24914E+00  3199   0.199E+00    0.285E+00
RMM:   3    -0.115293527849E+04    0.21144E-01   -0.14101E-01  3265   0.653E-01    0.141E+00
RMM:   4    -0.115292430001E+04    0.10978E-01   -0.52617E-02  3466   0.254E-01    0.848E-01
RMM:   5    -0.115292268134E+04    0.16187E-02   -0.98828E-03  3821   0.116E-01    0.729E-01
RMM:   6    -0.115292293990E+04   -0.25856E-03   -0.26317E-03  4409   0.439E-02    0.300E-01
RMM:   7    -0.115292314971E+04   -0.20981E-03   -0.13002E-03  3715   0.357E-02    0.167E-01
RMM:   8    -0.115292327476E+04   -0.12505E-03   -0.49165E-04  2804   0.201E-02    0.440E-02
RMM:   9    -0.115292328861E+04   -0.13847E-04   -0.19388E-04  2052   0.136E-02
   6 F= -.11529233E+04 E0= -.11529233E+04  d E =-.203547E+00  mag=    20.0000
       N       E                     dE             d eps       ncg     rms          rms(c)
DAV:   1    -0.115285580677E+04    0.67468E-01   -0.10663E+02  3072   0.120E+01    0.489E+00
RMM:   2    -0.115304069401E+04   -0.18489E+00   -0.31071E+00  3184   0.223E+00    0.318E+00
RMM:   3    -0.115301584003E+04    0.24854E-01   -0.17632E-01  3253   0.739E-01    0.159E+00
RMM:   4    -0.115300203754E+04    0.13802E-01   -0.62897E-02  3459   0.282E-01    0.973E-01
RMM:   5    -0.115299996291E+04    0.20746E-02   -0.11532E-02  3889   0.126E-01    0.797E-01
RMM:   6    -0.115300026143E+04   -0.29852E-03   -0.34033E-03  4567   0.501E-02    0.334E-01
RMM:   7    -0.115300050258E+04   -0.24115E-03   -0.16355E-03  3894   0.395E-02    0.188E-01
RMM:   8    -0.115300065305E+04   -0.15047E-03   -0.63717E-04  3167   0.220E-02    0.446E-02
RMM:   9    -0.115300067171E+04   -0.18656E-04   -0.26572E-04  2203   0.151E-02
   7 F= -.11530007E+04 E0= -.11530007E+04  d E =-.280930E+00  mag=    20.0000
       N       E                     dE             d eps       ncg     rms          rms(c)
DAV:   1    -0.115295284446E+04    0.47809E-01   -0.80903E+01  3104   0.102E+01    0.233E+00
RMM:   2    -0.115311573418E+04   -0.16289E+00   -0.19170E+00  3147   0.175E+00    0.163E+00
RMM:   3    -0.115311285444E+04    0.28797E-02   -0.10288E-01  3355   0.547E-01    0.106E+00
RMM:   4    -0.115310488855E+04    0.79659E-02   -0.30036E-02  3573   0.188E-01    0.515E-01
RMM:   5    -0.115310404895E+04    0.83959E-03   -0.68284E-03  3782   0.853E-02    0.151E-01
RMM:   6    -0.115310409105E+04   -0.42094E-04   -0.12004E-03  3589   0.304E-02    0.820E-02
RMM:   7    -0.115310413650E+04   -0.45448E-04   -0.57791E-04  2803   0.185E-02    0.491E-02
RMM:   8    -0.115310415848E+04   -0.21983E-04   -0.28518E-04  2297   0.149E-02
   8 F= -.11531042E+04 E0= -.11531042E+04  d E =-.103487E+00  mag=    20.0000
       N       E                     dE             d eps       ncg     rms          rms(c)
DAV:   1    -0.115305895038E+04    0.45186E-01   -0.36719E+01  3120   0.689E+00    0.157E+00
RMM:   2    -0.115313282196E+04   -0.73872E-01   -0.86934E-01  3146   0.118E+00    0.110E+00
RMM:   3    -0.115313142089E+04    0.14011E-02   -0.46584E-02  3355   0.370E-01    0.705E-01
RMM:   4    -0.115312789851E+04    0.35224E-02   -0.13550E-02  3629   0.125E-01    0.341E-01
RMM:   5    -0.115312751683E+04    0.38168E-03   -0.32375E-03  3735   0.572E-02    0.977E-02
RMM:   6    -0.115312753340E+04   -0.16570E-04   -0.54709E-04  2834   0.215E-02    0.578E-02
RMM:   7    -0.115312755544E+04   -0.22043E-04   -0.28339E-04  2272   0.141E-02    0.322E-02
RMM:   8    -0.115312756705E+04   -0.11610E-04   -0.16770E-04  2079   0.125E-02
   9 F= -.11531276E+04 E0= -.11531276E+04  d E =-.126895E+00  mag=    20.0000
       N       E                     dE             d eps       ncg     rms          rms(c)
DAV:   1    -0.115309969219E+04    0.27863E-01   -0.74164E+01  3072   0.981E+00    0.247E+00
RMM:   2    -0.115321183396E+04   -0.11214E+00   -0.18217E+00  3097   0.167E+00    0.194E+00
RMM:   3    -0.115319821297E+04    0.13621E-01   -0.99551E-02  3262   0.570E-01    0.115E+00
RMM:   4    -0.115318848102E+04    0.97319E-02   -0.31492E-02  3728   0.189E-01    0.745E-01
RMM:   5    -0.115318539367E+04    0.30874E-02   -0.94936E-03  3603   0.103E-01    0.324E-01
RMM:   6    -0.115318527049E+04    0.12318E-03   -0.23074E-03  3999   0.451E-02    0.178E-01
RMM:   7    -0.115318528989E+04   -0.19400E-04   -0.83739E-04  3375   0.248E-02    0.980E-02
RMM:   8    -0.115318528628E+04    0.36121E-05   -0.38918E-04  2663   0.190E-02
  10 F= -.11531853E+04 E0= -.11531853E+04  d E =-.577192E-01  mag=    20.0000
       N       E                     dE             d eps       ncg     rms          rms(c)
DAV:   1    -0.115318524485E+04    0.45039E-04   -0.23951E-01  3512   0.558E-01    0.142E-01
RMM:   2    -0.115318560882E+04   -0.36398E-03   -0.60471E-03  3122   0.971E-02    0.110E-01
RMM:   3    -0.115318555141E+04    0.57414E-04   -0.29461E-04  2209   0.333E-02    0.664E-02
RMM:   4    -0.115318551816E+04    0.33252E-04   -0.99548E-05  1775   0.129E-02    0.402E-02
RMM:   5    -0.115318551173E+04    0.64309E-05   -0.31934E-05  1760   0.850E-03    0.274E-02
RMM:   6    -0.115318551247E+04   -0.73764E-06   -0.10814E-05  1613   0.502E-03    0.124E-02
RMM:   7    -0.115318551376E+04   -0.12964E-05   -0.48952E-06  1154   0.322E-03    0.678E-03
RMM:   8    -0.115318551520E+04   -0.14364E-05   -0.28877E-06   981   0.267E-03
  11 F= -.11531855E+04 E0= -.11531855E+04  d E =-.579481E-01  mag=    20.0000
       N       E                     dE             d eps       ncg     rms          rms(c)
DAV:   1    -0.115312025819E+04    0.65256E-01   -0.62217E+01  3104   0.893E+00    0.185E+00
RMM:   2    -0.115324785053E+04   -0.12759E+00   -0.14828E+00  3089   0.147E+00    0.130E+00
RMM:   3    -0.115324446931E+04    0.33812E-02   -0.75457E-02  3178   0.517E-01    0.780E-01
RMM:   4    -0.115324156285E+04    0.29065E-02   -0.19754E-02  3900   0.149E-01    0.437E-01
RMM:   5    -0.115324095695E+04    0.60591E-03   -0.51562E-03  3954   0.671E-02    0.144E-01
RMM:   6    -0.115324108140E+04   -0.12445E-03   -0.10355E-03  3436   0.288E-02    0.849E-02
RMM:   7    -0.115324114644E+04   -0.65048E-04   -0.46858E-04  2605   0.183E-02    0.545E-02
RMM:   8    -0.115324117440E+04   -0.27955E-04   -0.26835E-04  2264   0.146E-02
  12 F= -.11532412E+04 E0= -.11532412E+04  d E =-.556592E-01  mag=    20.0000
       N       E                     dE             d eps       ncg     rms          rms(c)
DAV:   1    -0.115320557147E+04    0.35575E-01   -0.25271E+01  3136   0.569E+00    0.118E+00
RMM:   2    -0.115325742105E+04   -0.51850E-01   -0.59973E-01  3093   0.932E-01    0.827E-01
RMM:   3    -0.115325610096E+04    0.13201E-02   -0.31012E-02  3194   0.331E-01    0.503E-01
RMM:   4    -0.115325497130E+04    0.11297E-02   -0.81137E-03  3987   0.946E-02    0.291E-01
RMM:   5    -0.115325474987E+04    0.22142E-03   -0.22188E-03  3888   0.430E-02    0.975E-02
RMM:   6    -0.115325480744E+04   -0.57569E-04   -0.48423E-04  2787   0.201E-02    0.541E-02
RMM:   7    -0.115325484449E+04   -0.37043E-04   -0.25500E-04  2229   0.141E-02    0.317E-02
RMM:   8    -0.115325485823E+04   -0.13747E-04   -0.13273E-04  2027   0.114E-02
  13 F= -.11532549E+04 E0= -.11532549E+04  d E =-.693430E-01  mag=    20.0000
       N       E                     dE             d eps       ncg     rms          rms(c)
DAV:   1    -0.115323831674E+04    0.16528E-01   -0.24928E+01  3072   0.578E+00    0.163E+00
RMM:   2    -0.115328530728E+04   -0.46991E-01   -0.63223E-01  3075   0.101E+00    0.141E+00
RMM:   3    -0.115328278963E+04    0.25176E-02   -0.30852E-02  3217   0.315E-01    0.846E-01
RMM:   4    -0.115327939487E+04    0.33948E-02   -0.10410E-02  3632   0.113E-01    0.419E-01
RMM:   5    -0.115327885091E+04    0.54396E-03   -0.37564E-03  3482   0.635E-02    0.236E-01
RMM:   6    -0.115327886210E+04   -0.11190E-04   -0.59840E-04  2917   0.277E-02    0.806E-02
RMM:   7    -0.115327885341E+04    0.86919E-05   -0.22517E-04  2229   0.134E-02    0.368E-02
RMM:   8    -0.115327885526E+04   -0.18570E-05   -0.12480E-04  1963   0.118E-02
  14 F= -.11532789E+04 E0= -.11532789E+04  d E =-.239970E-01  mag=    20.0000
       N       E                     dE             d eps       ncg     rms          rms(c)
DAV:   1    -0.115327883608E+04    0.17322E-04   -0.18147E-02  3464   0.156E-01    0.448E-02
RMM:   2    -0.115327887039E+04   -0.34304E-04   -0.45432E-04  2398   0.288E-02    0.395E-02
RMM:   3    -0.115327887040E+04   -0.16647E-07   -0.34223E-05  1731   0.111E-02    0.235E-02
RMM:   4    -0.115327886903E+04    0.13745E-05   -0.14302E-05  1683   0.525E-03    0.119E-02
RMM:   5    -0.115327886900E+04    0.27896E-07   -0.62121E-06  1240   0.371E-03    0.452E-03
RMM:   6    -0.115327886931E+04   -0.30876E-06   -0.36349E-06   922   0.274E-03    0.124E-03
RMM:   7    -0.115327886952E+04   -0.21407E-06   -0.22915E-06   788   0.258E-03    0.114E-03
RMM:   8    -0.115327886964E+04   -0.11912E-06   -0.14359E-06   638   0.223E-03
  15 F= -.11532789E+04 E0= -.11532789E+04  d E =-.240114E-01  mag=    20.0000
       N       E                     dE             d eps       ncg     rms          rms(c)
DAV:   1    -0.115326683359E+04    0.12036E-01   -0.12674E+01  3088   0.408E+00    0.896E-01
RMM:   2    -0.115329398802E+04   -0.27154E-01   -0.30675E-01  3079   0.676E-01    0.649E-01
RMM:   3    -0.115329331827E+04    0.66975E-03   -0.14681E-02  3103   0.224E-01    0.405E-01
RMM:   4    -0.115329229767E+04    0.10206E-02   -0.49798E-03  3628   0.734E-02    0.184E-01
RMM:   5    -0.115329221617E+04    0.81504E-04   -0.10315E-03  3319   0.332E-02    0.648E-02
RMM:   6    -0.115329223350E+04   -0.17331E-04   -0.19700E-04  2071   0.137E-02    0.370E-02
RMM:   7    -0.115329224536E+04   -0.11865E-04   -0.90757E-05  1902   0.109E-02    0.201E-02
RMM:   8    -0.115329225473E+04   -0.93643E-05   -0.62400E-05  1836   0.859E-03
  16 F= -.11532923E+04 E0= -.11532923E+04  d E =-.133851E-01  mag=    20.0000
       N       E                     dE             d eps       ncg     rms          rms(c)
DAV:   1    -0.115328752532E+04    0.47200E-02   -0.34141E+00  3104   0.212E+00    0.462E-01
RMM:   2    -0.115329490026E+04   -0.73749E-02   -0.83062E-02  3085   0.350E-01    0.334E-01
RMM:   3    -0.115329469980E+04    0.20046E-03   -0.39865E-03  3098   0.115E-01    0.209E-01
RMM:   4    -0.115329443183E+04    0.26797E-03   -0.14006E-03  3369   0.385E-02    0.944E-02
RMM:   5    -0.115329441081E+04    0.21017E-04   -0.27071E-04  2394   0.192E-02    0.342E-02
RMM:   6    -0.115329441761E+04   -0.68039E-05   -0.56260E-05  1823   0.108E-02    0.199E-02
RMM:   7    -0.115329442445E+04   -0.68338E-05   -0.50755E-05  1783   0.832E-03    0.116E-02
RMM:   8    -0.115329442894E+04   -0.44956E-05   -0.29069E-05  1694   0.685E-03
  17 F= -.11532944E+04 E0= -.11532944E+04  d E =-.155593E-01  mag=    20.0000
       N       E                     dE             d eps       ncg     rms          rms(c)
DAV:   1    -0.115329505836E+04   -0.63391E-03   -0.60505E+00  3088   0.287E+00    0.844E-01
RMM:   2    -0.115330303453E+04   -0.79762E-02   -0.14814E-01  3103   0.502E-01    0.579E-01
RMM:   3    -0.115330171622E+04    0.13183E-02   -0.84428E-03  3269   0.158E-01    0.410E-01
RMM:   4    -0.115330085371E+04    0.86251E-03   -0.26151E-03  3608   0.563E-02    0.210E-01
RMM:   5    -0.115330066655E+04    0.18716E-03   -0.72085E-04  3095   0.307E-02    0.908E-02
RMM:   6    -0.115330067300E+04   -0.64491E-05   -0.14048E-04  1964   0.151E-02    0.677E-02
RMM:   7    -0.115330067211E+04    0.89538E-06   -0.60349E-05  1815   0.102E-02    0.261E-02
RMM:   8    -0.115330067158E+04    0.52928E-06   -0.38128E-05  1782   0.825E-03
  18 F= -.11533007E+04 E0= -.11533007E+04  d E =-.624263E-02  mag=    20.0000
       N       E                     dE             d eps       ncg     rms          rms(c)
DAV:   1    -0.115330068173E+04   -0.96204E-05   -0.80410E-03  3568   0.105E-01    0.310E-02
RMM:   2    -0.115330069215E+04   -0.10419E-04   -0.19917E-04  1896   0.195E-02    0.255E-02
RMM:   3    -0.115330069300E+04   -0.85535E-06   -0.27592E-05  1699   0.921E-03    0.212E-02
RMM:   4    -0.115330069270E+04    0.30700E-06   -0.12218E-05  1571   0.459E-03    0.139E-02
RMM:   5    -0.115330069184E+04    0.85155E-06   -0.67156E-06  1307   0.400E-03    0.560E-03
RMM:   6    -0.115330069173E+04    0.11778E-06   -0.40509E-06   993   0.271E-03    0.389E-03
RMM:   7    -0.115330069170E+04    0.22454E-07   -0.25032E-06   877   0.278E-03    0.299E-03
RMM:   8    -0.115330069168E+04    0.19703E-07   -0.15265E-06   690   0.219E-03
  19 F= -.11533007E+04 E0= -.11533007E+04  d E =-.626274E-02  mag=    20.0000
       N       E                     dE             d eps       ncg     rms          rms(c)
DAV:   1    -0.115329396468E+04    0.67270E-02   -0.60688E+00  3072   0.282E+00    0.831E-01
RMM:   2    -0.115330549215E+04   -0.11527E-01   -0.13782E-01  3091   0.472E-01    0.544E-01
RMM:   3    -0.115330521551E+04    0.27663E-03   -0.76179E-03  3194   0.152E-01    0.305E-01
RMM:   4    -0.115330420401E+04    0.10115E-02   -0.25937E-03  3542   0.570E-02    0.143E-01
RMM:   5    -0.115330405418E+04    0.14984E-03   -0.67762E-04  2925   0.300E-02    0.112E-01
RMM:   6    -0.115330405940E+04   -0.52238E-05   -0.13649E-04  1965   0.148E-02    0.465E-02
RMM:   7    -0.115330406609E+04   -0.66877E-05   -0.53511E-05  1816   0.972E-03    0.237E-02
RMM:   8    -0.115330407245E+04   -0.63616E-05   -0.35785E-05  1783   0.689E-03
  20 F= -.11533041E+04 E0= -.11533041E+04  d E =-.338077E-02  mag=    20.0000
       N       E                     dE             d eps       ncg     rms          rms(c)
DAV:   1    -0.115330399127E+04    0.74820E-04   -0.10920E-01  3360   0.378E-01    0.112E-01
RMM:   2    -0.115330419400E+04   -0.20273E-03   -0.24478E-03  3046   0.642E-02    0.732E-02
RMM:   3    -0.115330418796E+04    0.60347E-05   -0.10389E-04  1765   0.203E-02    0.405E-02
RMM:   4    -0.115330417057E+04    0.17386E-04   -0.44757E-05  1726   0.947E-03    0.212E-02
RMM:   5    -0.115330416767E+04    0.29005E-05   -0.15474E-05  1647   0.613E-03    0.322E-02
RMM:   6    -0.115330416767E+04    0.56316E-08   -0.63209E-06  1445   0.401E-03    0.631E-03
RMM:   7    -0.115330416765E+04    0.17360E-07   -0.14811E-06   888   0.223E-03    0.472E-03
RMM:   8    -0.115330416755E+04    0.98938E-07   -0.74056E-07   709   0.198E-03
  21 F= -.11533042E+04 E0= -.11533042E+04  d E =-.347587E-02  mag=    20.0000
       N       E                     dE             d eps       ncg     rms          rms(c)
DAV:   1    -0.115329303419E+04    0.11133E-01   -0.59329E+00  3072   0.269E+00    0.641E-01
RMM:   2    -0.115330752903E+04   -0.14495E-01   -0.13609E-01  3114   0.451E-01    0.445E-01
RMM:   3    -0.115330794255E+04   -0.41352E-03   -0.67207E-03  3116   0.144E-01    0.259E-01
RMM:   4    -0.115330760626E+04    0.33630E-03   -0.17123E-03  3298   0.441E-02    0.127E-01
RMM:   5    -0.115330758532E+04    0.20940E-04   -0.46536E-04  2696   0.224E-02    0.971E-02
RMM:   6    -0.115330759405E+04   -0.87359E-05   -0.87529E-05  1864   0.112E-02    0.252E-02
RMM:   7    -0.115330759689E+04   -0.28340E-05   -0.34922E-05  1765   0.730E-03    0.165E-02
RMM:   8    -0.115330760053E+04   -0.36475E-05   -0.34175E-05  1730   0.623E-03
  22 F= -.11533076E+04 E0= -.11533076E+04  d E =-.343298E-02  mag=    20.0000
       N       E                     dE             d eps       ncg     rms          rms(c)
DAV:   1    -0.115330688114E+04    0.71575E-03   -0.34633E-01  3104   0.651E-01    0.154E-01
RMM:   2    -0.115330775245E+04   -0.87132E-03   -0.81730E-03  3089   0.110E-01    0.107E-01
RMM:   3    -0.115330776552E+04   -0.13066E-04   -0.37158E-04  2266   0.333E-02    0.632E-02
RMM:   4    -0.115330774620E+04    0.19320E-04   -0.98420E-05  1784   0.121E-02    0.316E-02
RMM:   5    -0.115330774771E+04   -0.15103E-05   -0.36626E-05  1645   0.827E-03    0.380E-02
RMM:   6    -0.115330774954E+04   -0.18349E-05   -0.16994E-05  1551   0.555E-03    0.745E-03
RMM:   7    -0.115330775047E+04   -0.92058E-06   -0.84058E-06  1303   0.394E-03    0.752E-03
RMM:   8    -0.115330775112E+04   -0.65312E-06   -0.59521E-06  1140   0.336E-03
  23 F= -.11533078E+04 E0= -.11533078E+04  d E =-.358357E-02  mag=    20.0000
       N       E                     dE             d eps       ncg     rms          rms(c)
DAV:   1    -0.115330150310E+04    0.62474E-02   -0.49134E+00  3072   0.247E+00    0.514E-01
RMM:   2    -0.115331180171E+04   -0.10299E-01   -0.11258E-01  3099   0.405E-01    0.348E-01
RMM:   3    -0.115331167165E+04    0.13005E-03   -0.55580E-03  3075   0.135E-01    0.218E-01
RMM:   4    -0.115331144852E+04    0.22314E-03   -0.16965E-03  3233   0.444E-02    0.136E-01
RMM:   5    -0.115331143640E+04    0.12118E-04   -0.24911E-04  2294   0.188E-02    0.576E-02
RMM:   6    -0.115331144621E+04   -0.98088E-05   -0.95165E-05  1875   0.106E-02    0.214E-02
RMM:   7    -0.115331144957E+04   -0.33634E-05   -0.39552E-05  1803   0.792E-03    0.138E-02
RMM:   8    -0.115331145085E+04   -0.12812E-05   -0.29793E-05  1640   0.568E-03
  24 F= -.11533115E+04 E0= -.11533115E+04  d E =-.369973E-02  mag=    20.0000
       N       E                     dE             d eps       ncg     rms          rms(c)
DAV:   1    -0.115330228289E+04    0.91667E-02   -0.53413E+00  3072   0.257E+00    0.533E-01
RMM:   2    -0.115331354176E+04   -0.11259E-01   -0.12296E-01  3107   0.423E-01    0.361E-01
RMM:   3    -0.115331339340E+04    0.14836E-03   -0.61085E-03  3106   0.140E-01    0.226E-01
RMM:   4    -0.115331315067E+04    0.24273E-03   -0.18504E-03  3312   0.460E-02    0.127E-01
RMM:   5    -0.115331314054E+04    0.10130E-04   -0.29276E-04  2431   0.196E-02    0.661E-02
RMM:   6    -0.115331315231E+04   -0.11772E-04   -0.10308E-04  1917   0.107E-02    0.213E-02
RMM:   7    -0.115331315582E+04   -0.35119E-05   -0.42820E-05  1819   0.803E-03    0.132E-02
RMM:   8    -0.115331315747E+04   -0.16438E-05   -0.36091E-05  1676   0.599E-03
  25 F= -.11533132E+04 E0= -.11533132E+04  d E =-.540635E-02  mag=    20.0000
