<?xml version="1.0" encoding="ISO-8859-1"?>
<modeling>
 <generator>
  <i name="program" type="string">vasp </i>
  <i name="version" type="string">5.4.1  </i>
  <i name="subversion" type="string">05Feb16 (build Jan 25 2017 20:16:33) complex                          parallel </i>
  <i name="platform" type="string">BWXE6 </i>
  <i name="date" type="string">2019 08 10 </i>
  <i name="time" type="string">23:04:27 </i>
 </generator>
 <incar>
  <i type="string" name="SYSTEM"> STF</i>
  <i type="string" name="PREC">normal</i>
  <i type="string" name="ALGO"> Fast</i>
  <i type="int" name="ISPIN">     2</i>
  <i type="int" name="NELM">    40</i>
  <i type="int" name="NELMIN">     8</i>
  <i type="int" name="IBRION">     2</i>
  <i name="EDIFF">      0.00010000</i>
  <i name="EDIFFG">     -0.03000000</i>
  <i type="int" name="NSW">    30</i>
  <i type="int" name="ISIF">     3</i>
  <i name="ENCUT">    520.00000000</i>
  <i type="int" name="NBANDS">   768</i>
  <v name="MAGMOM">      0.60000000      0.60000000      0.60000000      0.60000000      0.60000000      0.60000000      0.60000000      0.60000000      0.60000000      0.60000000      0.60000000      0.60000000      0.60000000      0.60000000      0.60000000      0.60000000      0.60000000      0.60000000      0.60000000      0.60000000
      0.60000000      0.60000000      0.60000000      0.60000000      0.60000000      0.60000000      0.60000000      0.60000000      0.60000000      0.60000000      0.60000000      0.60000000      0.60000000      0.60000000      0.60000000      0.60000000      0.60000000      0.60000000      0.60000000      0.60000000
      0.60000000      0.60000000      0.60000000      0.60000000      0.60000000      0.60000000      0.60000000      0.60000000      0.60000000      0.60000000      0.60000000      0.60000000      0.60000000      0.60000000      0.60000000      0.60000000      0.60000000      0.60000000      0.60000000      0.60000000
      5.00000000      5.00000000      5.00000000      5.00000000      0.60000000      0.60000000      0.60000000      0.60000000      0.60000000      0.60000000      0.60000000      0.60000000      0.60000000      0.60000000      0.60000000      0.60000000      0.60000000      0.60000000      0.60000000      0.60000000
      0.60000000      0.60000000      0.60000000      0.60000000      0.60000000      0.60000000      0.60000000      0.60000000      0.60000000      0.60000000      0.60000000      0.60000000      0.60000000      0.60000000      0.60000000      0.60000000      0.60000000      0.60000000      0.60000000      0.60000000
      0.60000000      0.60000000      0.60000000      0.60000000      0.60000000      0.60000000      0.60000000      0.60000000      0.60000000      0.60000000      0.60000000      0.60000000      0.60000000      0.60000000      0.60000000      0.60000000      0.60000000      0.60000000      0.60000000      0.60000000
      0.60000000      0.60000000      0.60000000      0.60000000      0.60000000      0.60000000      0.60000000      0.60000000      0.60000000      0.60000000      0.60000000      0.60000000      0.60000000      0.60000000      0.60000000      0.60000000      0.60000000      0.60000000      0.60000000      0.60000000
      0.60000000      0.60000000      0.60000000      0.60000000      0.60000000      0.60000000      0.60000000      0.60000000      0.60000000      0.60000000      0.60000000      0.60000000      0.60000000      0.60000000      0.60000000      0.60000000      0.60000000      0.60000000</v>
  <i type="string" name="LREAL"> Auto</i>
  <i type="int" name="ISMEAR">     0</i>
  <i name="SIGMA">      0.05000000</i>
  <i type="int" name="LMAXMIX">     4</i>
  <v type="int" name="KPOINT_BSE">    -1     0     0     0</v>
  <i type="int" name="NELM">    40</i>
  <i type="logical" name="LDAU"> T  </i>
  <v type="int" name="LDAUTYPE">     2</v>
  <v type="int" name="LDAUL">     0     2     2     0</v>
  <v name="LDAUU">      0.00000000      3.00000000      5.00000000      0.00000000</v>
  <v name="LDAUJ">      0.00000000      0.00000000      0.00000000      0.00000000</v>
  <i type="int" name="LDAUPRINT">     1</i>
 </incar>
 <kpoints>
  <generation param="Monkhorst-Pack">
   <v type="int" name="divisions">       2        2        2 </v>
   <v name="usershift">      0.00000000       0.00000000       0.00000000 </v>
   <v name="genvec1">      0.50000000       0.00000000       0.00000000 </v>
   <v name="genvec2">      0.00000000       0.50000000       0.00000000 </v>
   <v name="genvec3">      0.00000000       0.00000000       0.50000000 </v>
   <v name="shift">      0.50000000       0.50000000       0.50000000 </v>
  </generation>
  <varray name="kpointlist" >
   <v>       0.25000000       0.25000000       0.25000000 </v>
  </varray>
  <varray name="weights" >
   <v>       1.00000000 </v>
  </varray>
 </kpoints>
 <parameters>
  <separator name="general" >
   <i type="string" name="SYSTEM">STF</i>
   <i type="logical" name="LCOMPAT"> F  </i>
  </separator>
  <separator name="electronic" >
   <i type="string" name="PREC">normal</i>
   <i name="ENMAX">    520.00000000</i>
   <i name="ENAUG">    605.39200000</i>
   <i name="EDIFF">      0.00010000</i>
   <i type="int" name="IALGO">    68</i>
   <i type="int" name="IWAVPR">    11</i>
   <i type="int" name="NBANDS">   768</i>
   <i name="NELECT">   1028.00000000</i>
   <i type="int" name="TURBO">     0</i>
   <i type="int" name="IRESTART">     0</i>
   <i type="int" name="NREBOOT">     0</i>
   <i type="int" name="NMIN">     0</i>
   <i name="EREF">      0.00000000</i>
   <separator name="electronic smearing" >
    <i type="int" name="ISMEAR">     0</i>
    <i name="SIGMA">      0.05000000</i>
    <i name="KSPACING">      0.50000000</i>
    <i type="logical" name="KGAMMA"> T  </i>
   </separator>
   <separator name="electronic projectors" >
    <i type="logical" name="LREAL"> T  </i>
    <v name="ROPT">     -0.00050000     -0.00050000     -0.00050000     -0.00050000</v>
    <i type="int" name="LMAXPAW">  -100</i>
    <i type="int" name="LMAXMIX">     4</i>
    <i type="logical" name="NLSPLINE"> F  </i>
   </separator>
   <separator name="electronic startup" >
    <i type="int" name="ISTART">     0</i>
    <i type="int" name="ICHARG">     2</i>
    <i type="int" name="INIWAV">     1</i>
   </separator>
   <separator name="electronic spin" >
    <i type="int" name="ISPIN">     2</i>
    <i type="logical" name="LNONCOLLINEAR"> F  </i>
    <v name="MAGMOM">      0.60000000      0.60000000      0.60000000      0.60000000      0.60000000      0.60000000      0.60000000      0.60000000      0.60000000      0.60000000      0.60000000      0.60000000      0.60000000      0.60000000      0.60000000      0.60000000      0.60000000      0.60000000      0.60000000      0.60000000
      0.60000000      0.60000000      0.60000000      0.60000000      0.60000000      0.60000000      0.60000000      0.60000000      0.60000000      0.60000000      0.60000000      0.60000000      0.60000000      0.60000000      0.60000000      0.60000000      0.60000000      0.60000000      0.60000000      0.60000000
      0.60000000      0.60000000      0.60000000      0.60000000      0.60000000      0.60000000      0.60000000      0.60000000      0.60000000      0.60000000      0.60000000      0.60000000      0.60000000      0.60000000      0.60000000      0.60000000      0.60000000      0.60000000      0.60000000      0.60000000
      5.00000000      5.00000000      5.00000000      5.00000000      0.60000000      0.60000000      0.60000000      0.60000000      0.60000000      0.60000000      0.60000000      0.60000000      0.60000000      0.60000000      0.60000000      0.60000000      0.60000000      0.60000000      0.60000000      0.60000000
      0.60000000      0.60000000      0.60000000      0.60000000      0.60000000      0.60000000      0.60000000      0.60000000      0.60000000      0.60000000      0.60000000      0.60000000      0.60000000      0.60000000      0.60000000      0.60000000      0.60000000      0.60000000      0.60000000      0.60000000
      0.60000000      0.60000000      0.60000000      0.60000000      0.60000000      0.60000000      0.60000000      0.60000000      0.60000000      0.60000000      0.60000000      0.60000000      0.60000000      0.60000000      0.60000000      0.60000000      0.60000000      0.60000000      0.60000000      0.60000000
      0.60000000      0.60000000      0.60000000      0.60000000      0.60000000      0.60000000      0.60000000      0.60000000      0.60000000      0.60000000      0.60000000      0.60000000      0.60000000      0.60000000      0.60000000      0.60000000      0.60000000      0.60000000      0.60000000      0.60000000
      0.60000000      0.60000000      0.60000000      0.60000000      0.60000000      0.60000000      0.60000000      0.60000000      0.60000000      0.60000000      0.60000000      0.60000000      0.60000000      0.60000000      0.60000000      0.60000000      0.60000000      0.60000000</v>
    <i name="NUPDOWN">     -1.00000000</i>
    <i type="logical" name="LSORBIT"> F  </i>
    <v name="SAXIS">      0.00000000      0.00000000      1.00000000</v>
    <i type="logical" name="LSPIRAL"> F  </i>
    <v name="QSPIRAL">      0.00000000      0.00000000      0.00000000</v>
    <i type="logical" name="LZEROZ"> F  </i>
   </separator>
   <separator name="electronic exchange-correlation" >
    <i type="logical" name="LASPH"> F  </i>
    <i type="logical" name="LMETAGGA"> F  </i>
   </separator>
   <separator name="electronic convergence" >
    <i type="int" name="NELM">    40</i>
    <i type="int" name="NELMDL">    -5</i>
    <i type="int" name="NELMIN">     8</i>
    <i name="ENINI">    520.00000000</i>
    <separator name="electronic convergence detail" >
     <i type="logical" name="LDIAG"> T  </i>
     <i type="logical" name="LSUBROT"> F  </i>
     <i name="WEIMIN">      0.00100000</i>
     <i name="EBREAK">      0.00000003</i>
     <i name="DEPER">      0.30000000</i>
     <i type="int" name="NRMM">     4</i>
     <i name="TIME">      0.40000000</i>
    </separator>
   </separator>
   <separator name="electronic mixer" >
    <i name="AMIX">      0.40000000</i>
    <i name="BMIX">      1.00000000</i>
    <i name="AMIN">      0.10000000</i>
    <i name="AMIX_MAG">      1.60000000</i>
    <i name="BMIX_MAG">      1.00000000</i>
    <separator name="electronic mixer details" >
     <i type="int" name="IMIX">     4</i>
     <i type="logical" name="MIXFIRST"> F  </i>
     <i type="int" name="MAXMIX">   -45</i>
     <i name="WC">    100.00000000</i>
     <i type="int" name="INIMIX">     1</i>
     <i type="int" name="MIXPRE">     1</i>
     <i type="int" name="MREMOVE">     5</i>
    </separator>
   </separator>
   <separator name="electronic dipolcorrection" >
    <i type="logical" name="LDIPOL"> F  </i>
    <i type="logical" name="LMONO"> F  </i>
    <i type="int" name="IDIPOL">     0</i>
    <i name="EPSILON">      1.00000000</i>
    <v name="DIPOL">   -100.00000000   -100.00000000   -100.00000000</v>
    <i name="EFIELD">      0.00000000</i>
   </separator>
  </separator>
  <separator name="grids" >
   <i type="int" name="NGX">    64</i>
   <i type="int" name="NGY">    64</i>
   <i type="int" name="NGZ">    90</i>
   <i type="int" name="NGXF">   128</i>
   <i type="int" name="NGYF">   128</i>
   <i type="int" name="NGZF">   180</i>
   <i type="logical" name="ADDGRID"> F  </i>
  </separator>
  <separator name="ionic" >
   <i type="int" name="NSW">    30</i>
   <i type="int" name="IBRION">     2</i>
   <i type="int" name="ISIF">     3</i>
   <i name="PSTRESS">      0.00000000</i>
   <i name="EDIFFG">     -0.03000000</i>
   <i type="int" name="NFREE">     1</i>
   <i name="POTIM">      0.50000000</i>
   <i name="SMASS">     -3.00000000</i>
   <i name="SCALEE">      1.00000000</i>
  </separator>
  <separator name="ionic md" >
   <i name="TEBEG">      0.00010000</i>
   <i name="TEEND">      0.00010000</i>
   <i type="int" name="NBLOCK">     1</i>
   <i type="int" name="KBLOCK">    30</i>
   <i type="int" name="NPACO">   256</i>
   <i name="APACO">     16.00000000</i>
  </separator>
  <separator name="symmetry" >
   <i type="int" name="ISYM">     2</i>
   <i name="SYMPREC">      0.00001000</i>
  </separator>
  <separator name="dos" >
   <i type="logical" name="LORBIT"> F  </i>
   <v name="RWIGS">     -1.00000000     -1.00000000     -1.00000000     -1.00000000</v>
   <i type="int" name="NEDOS">   301</i>
   <i name="EMIN">     10.00000000</i>
   <i name="EMAX">    -10.00000000</i>
   <i name="EFERMI">      0.00000000</i>
  </separator>
  <separator name="writing" >
   <i type="int" name="NWRITE">     2</i>
   <i type="logical" name="LWAVE"> T  </i>
   <i type="logical" name="LCHARG"> T  </i>
   <i type="logical" name="LPARD"> F  </i>
   <i type="logical" name="LVTOT"> F  </i>
   <i type="logical" name="LVHAR"> F  </i>
   <i type="logical" name="LELF"> F  </i>
   <i type="logical" name="LOPTICS"> F  </i>
   <v name="STM">      0.00000000      0.00000000      0.00000000      0.00000000      0.00000000      0.00000000      0.00000000</v>
  </separator>
  <separator name="performance" >
   <i type="int" name="NPAR">     2</i>
   <i type="int" name="NSIM">     4</i>
   <i type="int" name="NBLK">    -1</i>
   <i type="logical" name="LPLANE"> T  </i>
   <i type="logical" name="LSCALAPACK"> T  </i>
   <i type="logical" name="LSCAAWARE"> F  </i>
   <i type="logical" name="LSCALU"> F  </i>
   <i type="logical" name="LASYNC"> F  </i>
   <i type="logical" name="LORBITALREAL"> F  </i>
  </separator>
  <separator name="miscellaneous" >
   <i type="int" name="IDIOT">     3</i>
   <i type="logical" name="LMUSIC"> F  </i>
   <v name="POMASS">     87.62000000     47.88000000     55.84700000     16.00000000</v>
   <v name="DARWINR">      0.00000000      0.00000000      0.00000000      0.00000000</v>
   <v name="DARWINV">      1.00000000      1.00000000      1.00000000      1.00000000</v>
   <i type="logical" name="LCORR"> T  </i>
  </separator>
  <i type="logical" name="GGA_COMPAT"> T  </i>
  <i type="logical" name="LBERRY"> F  </i>
  <i type="int" name="ICORELEVEL">     0</i>
  <i type="logical" name="LDAU"> T  </i>
  <v type="int" name="LDAUTYPE">     2</v>
  <v type="int" name="LDAUL">     0</v>
  <v name="LDAUU">      0.00000000</v>
  <v name="LDAUJ">      0.00000000</v>
  <i type="int" name="LDAUPRINT">     1</i>
  <i type="int" name="I_CONSTRAINED_M">     0</i>
  <separator name="electronic exchange-correlation" >
   <i type="string" name="GGA">--</i>
   <i type="int" name="VOSKOWN">     0</i>
   <i type="logical" name="LHFCALC"> F  </i>
   <i type="string" name="PRECFOCK"></i>
   <i type="logical" name="LSYMGRAD"> F  </i>
   <i type="logical" name="LHFONE"> F  </i>
   <i type="logical" name="LRHFCALC"> F  </i>
   <i type="logical" name="LTHOMAS"> F  </i>
   <i type="logical" name="LMODELHF"> F  </i>
   <i name="ENCUT4O">     -1.00000000</i>
   <i type="int" name="EXXOEP">     0</i>
   <i type="int" name="FOURORBIT">     0</i>
   <i name="AEXX">      0.00000000</i>
   <i name="HFALPHA">      0.00000000</i>
   <i name="MCALPHA">      0.00000000</i>
   <i name="ALDAX">      1.00000000</i>
   <i name="AGGAX">      1.00000000</i>
   <i name="ALDAC">      1.00000000</i>
   <i name="AGGAC">      1.00000000</i>
   <i type="int" name="NKREDX">     1</i>
   <i type="int" name="NKREDY">     1</i>
   <i type="int" name="NKREDZ">     1</i>
   <i type="logical" name="SHIFTRED"> F  </i>
   <i type="logical" name="ODDONLY"> F  </i>
   <i type="logical" name="EVENONLY"> F  </i>
   <i type="int" name="LMAXFOCK">     0</i>
   <i type="int" name="NMAXFOCKAE">     0</i>
   <i type="logical" name="LFOCKAEDFT"> F  </i>
   <i name="HFSCREEN">      0.00000000</i>
   <i name="HFSCREENC">      0.00000000</i>
   <i type="int" name="NBANDSGWLOW">     0</i>
  </separator>
  <separator name="vdW DFT" >
   <i type="logical" name="LUSE_VDW"> F  </i>
   <i name="Zab_VDW">     -0.84910000</i>
   <i name="PARAM1">      0.12340000</i>
   <i name="PARAM2">      1.00000000</i>
   <i name="PARAM3">      0.00000000</i>
  </separator>
  <separator name="model GW" >
   <i type="int" name="MODEL_GW">     0</i>
   <i name="MODEL_EPS0">      7.61221335</i>
   <i name="MODEL_ALPHA">      1.00000000</i>
  </separator>
  <separator name="linear response parameters" >
   <i type="logical" name="LEPSILON"> F  </i>
   <i type="logical" name="LRPA"> F  </i>
   <i type="logical" name="LNABLA"> F  </i>
   <i type="logical" name="LVEL"> F  </i>
   <i type="int" name="KINTER">     0</i>
   <i name="CSHIFT">      0.10000000</i>
   <i name="OMEGAMAX">     -1.00000000</i>
   <i name="DEG_THRESHOLD">      0.00200000</i>
  </separator>
  <separator name="orbital magnetization" >
   <i type="logical" name="NUCIND"> F  </i>
   <v name="MAGPOS">      0.00000000      0.00000000      0.00000000</v>
   <i type="logical" name="LNICSALL"> T  </i>
   <i type="logical" name="ORBITALMAG"> F  </i>
   <i type="logical" name="LMAGBLOCH"> F  </i>
   <i type="logical" name="LCHIMAG"> F  </i>
   <i type="logical" name="LGAUGE"> T  </i>
   <i type="int" name="MAGATOM">     0</i>
   <v name="MAGDIPOL">      0.00000000      0.00000000      0.00000000</v>
   <v name="AVECCONST">      0.00000000      0.00000000      0.00000000</v>
  </separator>
  <separator name="response functions" >
   <i type="logical" name="LADDER"> F  </i>
   <i type="logical" name="LFXC"> F  </i>
   <i type="logical" name="LHARTREE"> T  </i>
   <i type="int" name="IBSE">     0</i>
   <v type="int" name="KPOINT">    -1     0     0     0</v>
   <i type="logical" name="LTCTE"> F  </i>
   <i type="logical" name="LTETE"> F  </i>
   <i type="logical" name="LTRIPLET"> F  </i>
   <i type="logical" name="LFXCEPS"> F  </i>
   <i type="logical" name="LFXHEG"> F  </i>
   <i type="int" name="NATURALO">     0</i>
   <i type="logical" name="L2ORDER"> F  </i>
   <i type="logical" name="LUSEW"> F  </i>
   <i name="ENCUTGW">     -2.00000000</i>
   <i name="ENCUTGWSOFT">     -2.00000000</i>
   <i name="ENCUTLF">     -1.00000000</i>
   <i type="int" name="LMAXMP2">    -1</i>
   <i name="SCISSOR">      0.00000000</i>
   <i type="int" name="NOMEGA">     0</i>
   <i type="int" name="NOMEGAR">     0</i>
   <i type="int" name="NBANDSGW">    -1</i>
   <i type="int" name="NBANDSO">    -1</i>
   <i type="int" name="NBANDSV">    -1</i>
   <i type="int" name="NELM">    40</i>
   <i type="int" name="NELMHF">     1</i>
   <i type="int" name="DIM">     3</i>
   <i type="int" name="ANTIRES">     0</i>
   <i name="OMEGAMAX">    -30.00000000</i>
   <i name="OMEGAMIN">    -30.00000000</i>
   <i name="OMEGATL">   -200.00000000</i>
   <i type="int" name="OMEGAGRID">     0</i>
   <i name="CSHIFT">     -0.10000000</i>
   <i type="logical" name="SELFENERGY"> F  </i>
   <i type="logical" name="LSPECTRAL"> F  </i>
   <i type="logical" name="LSPECTRALGW"> F  </i>
   <i type="logical" name="LSINGLES"> F  </i>
   <i type="logical" name="LFERMIGW"> F  </i>
   <i type="logical" name="ODDONLYGW"> F  </i>
   <i type="logical" name="EVENONLYGW"> F  </i>
   <i type="int" name="NKREDLFX">     1</i>
   <i type="int" name="NKREDLFY">     1</i>
   <i type="int" name="NKREDLFZ">     1</i>
   <i type="int" name="MAXMEM">  1800</i>
   <i type="int" name="TELESCOPE">     0</i>
   <i type="int" name="TAUPAR">     1</i>
   <i type="int" name="OMEGAPAR">    -1</i>
   <i name="LAMBDA">      1.00000000</i>
  </separator>
  <separator name="External order field" >
   <i name="OFIELD_KAPPA">      0.00000000</i>
   <v name="OFIELD_K">      0.00000000      0.00000000      0.00000000</v>
   <i name="OFIELD_Q6_NEAR">      0.00000000</i>
   <i name="OFIELD_Q6_FAR">      0.00000000</i>
   <i name="OFIELD_A">      0.00000000</i>
  </separator>
 </parameters>
 <atominfo>
  <atoms>     158 </atoms>
  <types>       4 </types>
  <array name="atoms" >
   <dimension dim="1">ion</dimension>
   <field type="string">element</field>
   <field type="int">atomtype</field>
   <set>
    <rc><c>Sr</c><c>   1</c></rc>
    <rc><c>Sr</c><c>   1</c></rc>
    <rc><c>Sr</c><c>   1</c></rc>
    <rc><c>Sr</c><c>   1</c></rc>
    <rc><c>Sr</c><c>   1</c></rc>
    <rc><c>Sr</c><c>   1</c></rc>
    <rc><c>Sr</c><c>   1</c></rc>
    <rc><c>Sr</c><c>   1</c></rc>
    <rc><c>Sr</c><c>   1</c></rc>
    <rc><c>Sr</c><c>   1</c></rc>
    <rc><c>Sr</c><c>   1</c></rc>
    <rc><c>Sr</c><c>   1</c></rc>
    <rc><c>Sr</c><c>   1</c></rc>
    <rc><c>Sr</c><c>   1</c></rc>
    <rc><c>Sr</c><c>   1</c></rc>
    <rc><c>Sr</c><c>   1</c></rc>
    <rc><c>Sr</c><c>   1</c></rc>
    <rc><c>Sr</c><c>   1</c></rc>
    <rc><c>Sr</c><c>   1</c></rc>
    <rc><c>Sr</c><c>   1</c></rc>
    <rc><c>Sr</c><c>   1</c></rc>
    <rc><c>Sr</c><c>   1</c></rc>
    <rc><c>Sr</c><c>   1</c></rc>
    <rc><c>Sr</c><c>   1</c></rc>
    <rc><c>Sr</c><c>   1</c></rc>
    <rc><c>Sr</c><c>   1</c></rc>
    <rc><c>Sr</c><c>   1</c></rc>
    <rc><c>Sr</c><c>   1</c></rc>
    <rc><c>Sr</c><c>   1</c></rc>
    <rc><c>Sr</c><c>   1</c></rc>
    <rc><c>Sr</c><c>   1</c></rc>
    <rc><c>Sr</c><c>   1</c></rc>
    <rc><c>Ti</c><c>   2</c></rc>
    <rc><c>Ti</c><c>   2</c></rc>
    <rc><c>Ti</c><c>   2</c></rc>
    <rc><c>Ti</c><c>   2</c></rc>
    <rc><c>Ti</c><c>   2</c></rc>
    <rc><c>Ti</c><c>   2</c></rc>
    <rc><c>Ti</c><c>   2</c></rc>
    <rc><c>Ti</c><c>   2</c></rc>
    <rc><c>Ti</c><c>   2</c></rc>
    <rc><c>Ti</c><c>   2</c></rc>
    <rc><c>Ti</c><c>   2</c></rc>
    <rc><c>Ti</c><c>   2</c></rc>
    <rc><c>Ti</c><c>   2</c></rc>
    <rc><c>Ti</c><c>   2</c></rc>
    <rc><c>Ti</c><c>   2</c></rc>
    <rc><c>Ti</c><c>   2</c></rc>
    <rc><c>Ti</c><c>   2</c></rc>
    <rc><c>Ti</c><c>   2</c></rc>
    <rc><c>Ti</c><c>   2</c></rc>
    <rc><c>Ti</c><c>   2</c></rc>
    <rc><c>Ti</c><c>   2</c></rc>
    <rc><c>Ti</c><c>   2</c></rc>
    <rc><c>Ti</c><c>   2</c></rc>
    <rc><c>Ti</c><c>   2</c></rc>
    <rc><c>Ti</c><c>   2</c></rc>
    <rc><c>Ti</c><c>   2</c></rc>
    <rc><c>Ti</c><c>   2</c></rc>
    <rc><c>Ti</c><c>   2</c></rc>
    <rc><c>Fe</c><c>   3</c></rc>
    <rc><c>Fe</c><c>   3</c></rc>
    <rc><c>Fe</c><c>   3</c></rc>
    <rc><c>Fe</c><c>   3</c></rc>
    <rc><c>O </c><c>   4</c></rc>
    <rc><c>O </c><c>   4</c></rc>
    <rc><c>O </c><c>   4</c></rc>
    <rc><c>O </c><c>   4</c></rc>
    <rc><c>O </c><c>   4</c></rc>
    <rc><c>O </c><c>   4</c></rc>
    <rc><c>O </c><c>   4</c></rc>
    <rc><c>O </c><c>   4</c></rc>
    <rc><c>O </c><c>   4</c></rc>
    <rc><c>O </c><c>   4</c></rc>
    <rc><c>O </c><c>   4</c></rc>
    <rc><c>O </c><c>   4</c></rc>
    <rc><c>O </c><c>   4</c></rc>
    <rc><c>O </c><c>   4</c></rc>
    <rc><c>O </c><c>   4</c></rc>
    <rc><c>O </c><c>   4</c></rc>
    <rc><c>O </c><c>   4</c></rc>
    <rc><c>O </c><c>   4</c></rc>
    <rc><c>O </c><c>   4</c></rc>
    <rc><c>O </c><c>   4</c></rc>
    <rc><c>O </c><c>   4</c></rc>
    <rc><c>O </c><c>   4</c></rc>
    <rc><c>O </c><c>   4</c></rc>
    <rc><c>O </c><c>   4</c></rc>
    <rc><c>O </c><c>   4</c></rc>
    <rc><c>O </c><c>   4</c></rc>
    <rc><c>O </c><c>   4</c></rc>
    <rc><c>O </c><c>   4</c></rc>
    <rc><c>O </c><c>   4</c></rc>
    <rc><c>O </c><c>   4</c></rc>
    <rc><c>O </c><c>   4</c></rc>
    <rc><c>O </c><c>   4</c></rc>
    <rc><c>O </c><c>   4</c></rc>
    <rc><c>O </c><c>   4</c></rc>
    <rc><c>O </c><c>   4</c></rc>
    <rc><c>O </c><c>   4</c></rc>
    <rc><c>O </c><c>   4</c></rc>
    <rc><c>O </c><c>   4</c></rc>
    <rc><c>O </c><c>   4</c></rc>
    <rc><c>O </c><c>   4</c></rc>
    <rc><c>O </c><c>   4</c></rc>
    <rc><c>O </c><c>   4</c></rc>
    <rc><c>O </c><c>   4</c></rc>
    <rc><c>O </c><c>   4</c></rc>
    <rc><c>O </c><c>   4</c></rc>
    <rc><c>O </c><c>   4</c></rc>
    <rc><c>O </c><c>   4</c></rc>
    <rc><c>O </c><c>   4</c></rc>
    <rc><c>O </c><c>   4</c></rc>
    <rc><c>O </c><c>   4</c></rc>
    <rc><c>O </c><c>   4</c></rc>
    <rc><c>O </c><c>   4</c></rc>
    <rc><c>O </c><c>   4</c></rc>
    <rc><c>O </c><c>   4</c></rc>
    <rc><c>O </c><c>   4</c></rc>
    <rc><c>O </c><c>   4</c></rc>
    <rc><c>O </c><c>   4</c></rc>
    <rc><c>O </c><c>   4</c></rc>
    <rc><c>O </c><c>   4</c></rc>
    <rc><c>O </c><c>   4</c></rc>
    <rc><c>O </c><c>   4</c></rc>
    <rc><c>O </c><c>   4</c></rc>
    <rc><c>O </c><c>   4</c></rc>
    <rc><c>O </c><c>   4</c></rc>
    <rc><c>O </c><c>   4</c></rc>
    <rc><c>O </c><c>   4</c></rc>
    <rc><c>O </c><c>   4</c></rc>
    <rc><c>O </c><c>   4</c></rc>
    <rc><c>O </c><c>   4</c></rc>
    <rc><c>O </c><c>   4</c></rc>
    <rc><c>O </c><c>   4</c></rc>
    <rc><c>O </c><c>   4</c></rc>
    <rc><c>O </c><c>   4</c></rc>
    <rc><c>O </c><c>   4</c></rc>
    <rc><c>O </c><c>   4</c></rc>
    <rc><c>O </c><c>   4</c></rc>
    <rc><c>O </c><c>   4</c></rc>
    <rc><c>O </c><c>   4</c></rc>
    <rc><c>O </c><c>   4</c></rc>
    <rc><c>O </c><c>   4</c></rc>
    <rc><c>O </c><c>   4</c></rc>
    <rc><c>O </c><c>   4</c></rc>
    <rc><c>O </c><c>   4</c></rc>
    <rc><c>O </c><c>   4</c></rc>
    <rc><c>O </c><c>   4</c></rc>
    <rc><c>O </c><c>   4</c></rc>
    <rc><c>O </c><c>   4</c></rc>
    <rc><c>O </c><c>   4</c></rc>
    <rc><c>O </c><c>   4</c></rc>
    <rc><c>O </c><c>   4</c></rc>
    <rc><c>O </c><c>   4</c></rc>
    <rc><c>O </c><c>   4</c></rc>
    <rc><c>O </c><c>   4</c></rc>
    <rc><c>O </c><c>   4</c></rc>
   </set>
  </array>
  <array name="atomtypes" >
   <dimension dim="1">type</dimension>
   <field type="int">atomspertype</field>
   <field type="string">element</field>
   <field>mass</field>
   <field>valence</field>
   <field type="string">pseudopotential</field>
   <set>
    <rc><c>  32</c><c>Sr</c><c>     87.62000000</c><c>     10.00000000</c><c>  PAW_PBE Sr_sv 07Sep2000               </c></rc>
    <rc><c>  28</c><c>Ti</c><c>     47.88000000</c><c>      4.00000000</c><c>  PAW_PBE Ti 08Apr2002                  </c></rc>
    <rc><c>   4</c><c>Fe</c><c>     55.84700000</c><c>      8.00000000</c><c>  PAW_PBE Fe 06Sep2000                  </c></rc>
    <rc><c>  94</c><c>O </c><c>     16.00000000</c><c>      6.00000000</c><c>  PAW_PBE O 08Apr2002                   </c></rc>
   </set>
  </array>
 </atominfo>
 <structure name="initialpos" >
  <crystal>
   <varray name="basis" >
    <v>      11.19900000       0.00000000       0.00000000 </v>
    <v>       0.00000000      11.19900000       0.00000000 </v>
    <v>       0.00000000       0.00000000      15.98300000 </v>
   </varray>
   <i name="volume">   2004.54951678 </i>
   <varray name="rec_basis" >
    <v>       0.08929369       0.00000000       0.00000000 </v>
    <v>       0.00000000       0.08929369       0.00000000 </v>
    <v>       0.00000000       0.00000000       0.06256648 </v>
   </varray>
  </crystal>
  <varray name="positions" >
   <v>       0.00000000       0.25000000       0.12500000 </v>
   <v>       0.00000000       0.25000000       0.62500000 </v>
   <v>       0.00000000       0.75000000       0.12500000 </v>
   <v>       0.00000000       0.75000000       0.62500000 </v>
   <v>       0.50000000       0.25000000       0.12500000 </v>
   <v>       0.50000000       0.25000000       0.62500000 </v>
   <v>       0.50000000       0.75000000       0.12500000 </v>
   <v>       0.50000000       0.75000000       0.62500000 </v>
   <v>       0.00000000       0.25000000       0.37500000 </v>
   <v>       0.00000000       0.25000000       0.87500000 </v>
   <v>       0.00000000       0.75000000       0.37500000 </v>
   <v>       0.00000000       0.75000000       0.87500000 </v>
   <v>       0.50000000       0.25000000       0.37500000 </v>
   <v>       0.50000000       0.25000000       0.87500000 </v>
   <v>       0.50000000       0.75000000       0.37500000 </v>
   <v>       0.50000000       0.75000000       0.87500000 </v>
   <v>       0.25000000       0.00000000       0.12500000 </v>
   <v>       0.25000000       0.00000000       0.62500000 </v>
   <v>       0.25000000       0.50000000       0.12500000 </v>
   <v>       0.25000000       0.50000000       0.62500000 </v>
   <v>       0.75000000       0.00000000       0.12500000 </v>
   <v>       0.75000000       0.00000000       0.62500000 </v>
   <v>       0.75000000       0.50000000       0.12500000 </v>
   <v>       0.75000000       0.50000000       0.62500000 </v>
   <v>       0.25000000       0.00000000       0.37500000 </v>
   <v>       0.25000000       0.00000000       0.87500000 </v>
   <v>       0.25000000       0.50000000       0.37500000 </v>
   <v>       0.25000000       0.50000000       0.87500000 </v>
   <v>       0.75000000       0.00000000       0.37500000 </v>
   <v>       0.75000000       0.00000000       0.87500000 </v>
   <v>       0.75000000       0.50000000       0.37500000 </v>
   <v>       0.75000000       0.50000000       0.87500000 </v>
   <v>       0.00000000       0.50000000       0.00000000 </v>
   <v>       0.00000000       0.50000000       0.50000000 </v>
   <v>       0.50000000       0.00000000       0.00000000 </v>
   <v>       0.50000000       0.00000000       0.50000000 </v>
   <v>       0.50000000       0.50000000       0.00000000 </v>
   <v>       0.50000000       0.50000000       0.50000000 </v>
   <v>       0.25000000       0.25000000       0.00000000 </v>
   <v>       0.25000000       0.25000000       0.50000000 </v>
   <v>       0.25000000       0.75000000       0.00000000 </v>
   <v>       0.25000000       0.75000000       0.50000000 </v>
   <v>       0.75000000       0.25000000       0.00000000 </v>
   <v>       0.75000000       0.25000000       0.50000000 </v>
   <v>       0.75000000       0.75000000       0.00000000 </v>
   <v>       0.75000000       0.75000000       0.50000000 </v>
   <v>       0.25000000       0.25000000       0.25000000 </v>
   <v>       0.25000000       0.25000000       0.75000000 </v>
   <v>       0.25000000       0.75000000       0.25000000 </v>
   <v>       0.25000000       0.75000000       0.75000000 </v>
   <v>       0.75000000       0.25000000       0.25000000 </v>
   <v>       0.75000000       0.25000000       0.75000000 </v>
   <v>       0.75000000       0.75000000       0.25000000 </v>
   <v>       0.75000000       0.75000000       0.75000000 </v>
   <v>       0.00000000       0.50000000       0.25000000 </v>
   <v>       0.00000000       0.50000000       0.75000000 </v>
   <v>       0.50000000       0.00000000       0.25000000 </v>
   <v>       0.50000000       0.00000000       0.75000000 </v>
   <v>       0.50000000       0.50000000       0.25000000 </v>
   <v>       0.50000000       0.50000000       0.75000000 </v>
   <v>       0.00000000       0.00000000       0.00000000 </v>
   <v>       0.00000000       0.00000000       0.25000000 </v>
   <v>       0.00000000       0.00000000       0.75000000 </v>
   <v>       0.00000000       0.00000000       0.50000000 </v>
   <v>       0.00000000       0.50000000       0.12500000 </v>
   <v>       0.00000000       0.50000000       0.62500000 </v>
   <v>       0.50000000       0.00000000       0.12500000 </v>
   <v>       0.50000000       0.00000000       0.62500000 </v>
   <v>       0.50000000       0.50000000       0.12500000 </v>
   <v>       0.50000000       0.50000000       0.62500000 </v>
   <v>       0.00000000       0.00000000       0.37500000 </v>
   <v>       0.00000000       0.00000000       0.87500000 </v>
   <v>       0.00000000       0.50000000       0.37500000 </v>
   <v>       0.00000000       0.50000000       0.87500000 </v>
   <v>       0.50000000       0.00000000       0.37500000 </v>
   <v>       0.50000000       0.00000000       0.87500000 </v>
   <v>       0.50000000       0.50000000       0.37500000 </v>
   <v>       0.50000000       0.50000000       0.87500000 </v>
   <v>       0.25000000       0.25000000       0.37500000 </v>
   <v>       0.25000000       0.25000000       0.87500000 </v>
   <v>       0.25000000       0.75000000       0.37500000 </v>
   <v>       0.25000000       0.75000000       0.87500000 </v>
   <v>       0.75000000       0.25000000       0.37500000 </v>
   <v>       0.75000000       0.25000000       0.87500000 </v>
   <v>       0.75000000       0.75000000       0.37500000 </v>
   <v>       0.75000000       0.75000000       0.87500000 </v>
   <v>       0.25000000       0.25000000       0.12500000 </v>
   <v>       0.25000000       0.25000000       0.62500000 </v>
   <v>       0.25000000       0.75000000       0.12500000 </v>
   <v>       0.25000000       0.75000000       0.62500000 </v>
   <v>       0.75000000       0.25000000       0.12500000 </v>
   <v>       0.75000000       0.25000000       0.62500000 </v>
   <v>       0.75000000       0.75000000       0.12500000 </v>
   <v>       0.75000000       0.75000000       0.62500000 </v>
   <v>       0.10900000       0.14100000       0.25000000 </v>
   <v>       0.35900000       0.10900000       0.25000000 </v>
   <v>       0.60900000       0.14100000       0.25000000 </v>
   <v>       0.85900000       0.10900000       0.25000000 </v>
   <v>       0.14100000       0.39100000       0.25000000 </v>
   <v>       0.39100000       0.35900000       0.25000000 </v>
   <v>       0.64100000       0.39100000       0.25000000 </v>
   <v>       0.89100000       0.35900000       0.25000000 </v>
   <v>       0.10900000       0.64100000       0.25000000 </v>
   <v>       0.35900000       0.60900000       0.25000000 </v>
   <v>       0.60900000       0.64100000       0.25000000 </v>
   <v>       0.85900000       0.60900000       0.25000000 </v>
   <v>       0.14100000       0.89100000       0.25000000 </v>
   <v>       0.39100000       0.85900000       0.25000000 </v>
   <v>       0.64100000       0.89100000       0.25000000 </v>
   <v>       0.89100000       0.85900000       0.25000000 </v>
   <v>       0.14100000       0.10900000       0.50000000 </v>
   <v>       0.39100000       0.14100000       0.50000000 </v>
   <v>       0.64100000       0.10900000       0.50000000 </v>
   <v>       0.89100000       0.14100000       0.50000000 </v>
   <v>       0.10900000       0.35900000       0.50000000 </v>
   <v>       0.35900000       0.39100000       0.50000000 </v>
   <v>       0.60900000       0.35900000       0.50000000 </v>
   <v>       0.85900000       0.39100000       0.50000000 </v>
   <v>       0.14100000       0.60900000       0.50000000 </v>
   <v>       0.39100000       0.64100000       0.50000000 </v>
   <v>       0.64100000       0.60900000       0.50000000 </v>
   <v>       0.89100000       0.64100000       0.50000000 </v>
   <v>       0.10900000       0.85900000       0.50000000 </v>
   <v>       0.35900000       0.89100000       0.50000000 </v>
   <v>       0.60900000       0.85900000       0.50000000 </v>
   <v>       0.85900000       0.89100000       0.50000000 </v>
   <v>       0.10900000       0.14100000       0.75000000 </v>
   <v>       0.35900000       0.10900000       0.75000000 </v>
   <v>       0.60900000       0.14100000       0.75000000 </v>
   <v>       0.85900000       0.10900000       0.75000000 </v>
   <v>       0.14100000       0.39100000       0.75000000 </v>
   <v>       0.39100000       0.35900000       0.75000000 </v>
   <v>       0.64100000       0.39100000       0.75000000 </v>
   <v>       0.89100000       0.35900000       0.75000000 </v>
   <v>       0.10900000       0.64100000       0.75000000 </v>
   <v>       0.35900000       0.60900000       0.75000000 </v>
   <v>       0.60900000       0.64100000       0.75000000 </v>
   <v>       0.85900000       0.60900000       0.75000000 </v>
   <v>       0.14100000       0.89100000       0.75000000 </v>
   <v>       0.39100000       0.85900000       0.75000000 </v>
   <v>       0.64100000       0.89100000       0.75000000 </v>
   <v>       0.89100000       0.85900000       0.75000000 </v>
   <v>       0.14100000       0.10900000       0.00000000 </v>
   <v>       0.39100000       0.14100000       0.00000000 </v>
   <v>       0.64100000       0.10900000       0.00000000 </v>
   <v>       0.89100000       0.14100000       0.00000000 </v>
   <v>       0.10900000       0.35900000       0.00000000 </v>
   <v>       0.35900000       0.39100000       0.00000000 </v>
   <v>       0.60900000       0.35900000       0.00000000 </v>
   <v>       0.85900000       0.39100000       0.00000000 </v>
   <v>       0.14100000       0.60900000       0.00000000 </v>
   <v>       0.39100000       0.64100000       0.00000000 </v>
   <v>       0.64100000       0.60900000       0.00000000 </v>
   <v>       0.89100000       0.64100000       0.00000000 </v>
   <v>       0.10900000       0.85900000       0.00000000 </v>
   <v>       0.35900000       0.89100000       0.00000000 </v>
   <v>       0.60900000       0.85900000       0.00000000 </v>
   <v>       0.85900000       0.89100000       0.00000000 </v>
  </varray>
 </structure>
 <calculation>
  <scstep>
   <time name="dav">   70.64   70.70</time>
   <time name="total">   71.22   71.29</time>
   <energy>
    <i name="alphaZ">   5635.31984428 </i>
    <i name="ewald"> -61335.64758651 </i>
    <i name="hartreedc"> -14047.33567634 </i>
    <i name="XCdc">   2738.00125073 </i>
    <i name="pawpsdc">  58487.96789684 </i>
    <i name="pawaedc"> -57024.96744451 </i>
    <i name="eentropy">     -0.07115786 </i>
    <i name="bandstr">   5104.52930256 </i>
    <i name="atom">  72650.08363186 </i>
    <i name="e_fr_energy">  12207.88006105 </i>
    <i name="e_wo_entrp">  12207.95121891 </i>
    <i name="e_0_energy">  12207.91563998 </i>
   </energy>
  </scstep>
  <scstep>
   <time name="dav">   71.04   71.04</time>
   <time name="total">   71.05   71.08</time>
   <energy>
    <i name="e_fr_energy">    744.82239334 </i>
    <i name="e_wo_entrp">    744.82239379 </i>
    <i name="e_0_energy">    744.82239357 </i>
   </energy>
  </scstep>
  <scstep>
   <time name="dav">   75.44   75.44</time>
   <time name="total">   75.44   75.46</time>
   <energy>
    <i name="e_fr_energy">  -1341.30218977 </i>
    <i name="e_wo_entrp">  -1341.30218977 </i>
    <i name="e_0_energy">  -1341.30218977 </i>
   </energy>
  </scstep>
  <scstep>
   <time name="dav">   89.51   89.53</time>
   <time name="total">   89.51   89.54</time>
   <energy>
    <i name="e_fr_energy">  -1489.35722952 </i>
    <i name="e_wo_entrp">  -1489.35722952 </i>
    <i name="e_0_energy">  -1489.35722952 </i>
   </energy>
  </scstep>
  <scstep>
   <time name="dav">  117.63  117.70</time>
   <time name="total">  118.81  118.92</time>
   <energy>
    <i name="e_fr_energy">  -1499.39248100 </i>
    <i name="e_wo_entrp">  -1499.39248100 </i>
    <i name="e_0_energy">  -1499.39248100 </i>
   </energy>
  </scstep>
  <scstep>
   <time name="diag">    8.28    8.29</time>
   <time name="diis">   13.18   13.20</time>
   <time name="orth">    4.73    4.73</time>
   <time name="total">   27.94   28.49</time>
   <energy>
    <i name="e_fr_energy">  -1159.41855658 </i>
    <i name="e_wo_entrp">  -1159.41855658 </i>
    <i name="e_0_energy">  -1159.41855658 </i>
   </energy>
  </scstep>
  <scstep>
   <time name="diag">    8.28    8.28</time>
   <time name="diis">   13.42   13.41</time>
   <time name="orth">    4.73    4.73</time>
   <time name="total">   28.17   28.18</time>
   <energy>
    <i name="e_fr_energy">  -1140.16771919 </i>
    <i name="e_wo_entrp">  -1140.16771919 </i>
    <i name="e_0_energy">  -1140.16771919 </i>
   </energy>
  </scstep>
  <scstep>
   <time name="diag">    8.29    8.29</time>
   <time name="diis">   14.55   14.56</time>
   <time name="orth">    4.72    4.72</time>
   <time name="total">   29.30   29.32</time>
   <energy>
    <i name="e_fr_energy">  -1142.60387586 </i>
    <i name="e_wo_entrp">  -1142.60387586 </i>
    <i name="e_0_energy">  -1142.60387586 </i>
   </energy>
  </scstep>
  <scstep>
   <time name="diag">    8.28    8.29</time>
   <time name="diis">   13.42   13.42</time>
   <time name="orth">    4.72    4.72</time>
   <time name="total">   28.17   28.19</time>
   <energy>
    <i name="e_fr_energy">  -1147.44655425 </i>
    <i name="e_wo_entrp">  -1147.44655425 </i>
    <i name="e_0_energy">  -1147.44655425 </i>
   </energy>
  </scstep>
  <scstep>
   <time name="diag">    8.24    8.25</time>
   <time name="diis">   14.44   14.44</time>
   <time name="orth">    4.73    4.73</time>
   <time name="total">   29.15   29.22</time>
   <energy>
    <i name="e_fr_energy">  -1148.34275750 </i>
    <i name="e_wo_entrp">  -1148.34275750 </i>
    <i name="e_0_energy">  -1148.34275750 </i>
   </energy>
  </scstep>
  <scstep>
   <time name="diag">    8.27    8.27</time>
   <time name="diis">   14.92   14.93</time>
   <time name="orth">    4.71    4.71</time>
   <time name="total">   29.65   29.71</time>
   <energy>
    <i name="e_fr_energy">  -1149.51848404 </i>
    <i name="e_wo_entrp">  -1149.51848404 </i>
    <i name="e_0_energy">  -1149.51848404 </i>
   </energy>
  </scstep>
  <scstep>
   <time name="diag">    8.27    8.28</time>
   <time name="diis">   14.56   14.57</time>
   <time name="orth">    4.73    4.73</time>
   <time name="total">   29.32   29.33</time>
   <energy>
    <i name="e_fr_energy">  -1150.24683451 </i>
    <i name="e_wo_entrp">  -1150.24683451 </i>
    <i name="e_0_energy">  -1150.24683451 </i>
   </energy>
  </scstep>
  <scstep>
   <time name="diag">    8.28    8.28</time>
   <time name="diis">   15.20   15.20</time>
   <time name="orth">    4.72    4.72</time>
   <time name="total">   29.93   29.99</time>
   <energy>
    <i name="e_fr_energy">  -1150.51869996 </i>
    <i name="e_wo_entrp">  -1150.51869996 </i>
    <i name="e_0_energy">  -1150.51869996 </i>
   </energy>
  </scstep>
  <scstep>
   <time name="diag">    8.28    8.28</time>
   <time name="diis">   15.00   15.02</time>
   <time name="orth">    4.70    4.71</time>
   <time name="total">   29.73   29.77</time>
   <energy>
    <i name="e_fr_energy">  -1150.58566045 </i>
    <i name="e_wo_entrp">  -1150.58566045 </i>
    <i name="e_0_energy">  -1150.58566045 </i>
   </energy>
  </scstep>
  <scstep>
   <time name="diag">    8.30    8.30</time>
   <time name="diis">   15.70   15.71</time>
   <time name="orth">    4.73    4.73</time>
   <time name="total">   30.49   30.55</time>
   <energy>
    <i name="e_fr_energy">  -1150.59661866 </i>
    <i name="e_wo_entrp">  -1150.59661866 </i>
    <i name="e_0_energy">  -1150.59661866 </i>
   </energy>
  </scstep>
  <scstep>
   <time name="diag">    8.27    8.28</time>
   <time name="diis">   16.97   16.98</time>
   <time name="orth">    4.70    4.70</time>
   <time name="total">   31.69   31.74</time>
   <energy>
    <i name="e_fr_energy">  -1150.60009923 </i>
    <i name="e_wo_entrp">  -1150.60009923 </i>
    <i name="e_0_energy">  -1150.60009923 </i>
   </energy>
  </scstep>
  <scstep>
   <time name="diag">    8.27    8.28</time>
   <time name="diis">   14.44   14.46</time>
   <time name="orth">    4.72    4.73</time>
   <time name="total">   29.19   29.22</time>
   <energy>
    <i name="e_fr_energy">  -1150.59993035 </i>
    <i name="e_wo_entrp">  -1150.59993035 </i>
    <i name="e_0_energy">  -1150.59993035 </i>
   </energy>
  </scstep>
  <scstep>
   <time name="diag">    8.27    8.27</time>
   <time name="diis">   13.85   13.87</time>
   <time name="orth">    4.72    4.72</time>
   <time name="total">   28.59   28.63</time>
   <energy>
    <i name="e_fr_energy">  -1150.60016029 </i>
    <i name="e_wo_entrp">  -1150.60016029 </i>
    <i name="e_0_energy">  -1150.60016029 </i>
   </energy>
  </scstep>
  <scstep>
   <time name="diag">    8.29    8.30</time>
   <time name="diis">   10.94   10.94</time>
   <time name="orth">    4.71    4.71</time>
   <time name="total">   25.71   25.72</time>
   <energy>
    <i name="e_fr_energy">  -1150.60026923 </i>
    <i name="e_wo_entrp">  -1150.60026923 </i>
    <i name="e_0_energy">  -1150.60026923 </i>
   </energy>
  </scstep>
  <scstep>
   <time name="diag">    8.28    8.29</time>
   <time name="diis">   10.50   10.51</time>
   <time name="orth">    4.71    4.71</time>
   <time name="total">   24.08   24.09</time>
   <energy>
    <i name="alphaZ">   5635.31984428 </i>
    <i name="ewald"> -61335.64758651 </i>
    <i name="hartreedc"> -15171.78408566 </i>
    <i name="XCdc">   2850.83549662 </i>
    <i name="pawpsdc"> 111063.11089871 </i>
    <i name="pawaedc">-109811.30219276 </i>
    <i name="eentropy">     -0.00000000 </i>
    <i name="bandstr">  -7031.21634437 </i>
    <i name="atom">  72650.08363186 </i>
    <i name="e_fr_energy">  -1150.60033783 </i>
    <i name="e_wo_entrp">  -1150.60033783 </i>
    <i name="e_0_energy">  -1150.60033783 </i>
   </energy>
  </scstep>
  <structure>
   <crystal>
    <varray name="basis" >
     <v>      11.19900000       0.00000000       0.00000000 </v>
     <v>       0.00000000      11.19900000       0.00000000 </v>
     <v>       0.00000000       0.00000000      15.98300000 </v>
    </varray>
    <i name="volume">   2004.54951678 </i>
    <varray name="rec_basis" >
     <v>       0.08929369       0.00000000       0.00000000 </v>
     <v>       0.00000000       0.08929369       0.00000000 </v>
     <v>       0.00000000       0.00000000       0.06256648 </v>
    </varray>
   </crystal>
   <varray name="positions" >
    <v>       0.00000000       0.25000000       0.12500000 </v>
    <v>       0.00000000       0.25000000       0.62500000 </v>
    <v>       0.00000000       0.75000000       0.12500000 </v>
    <v>       0.00000000       0.75000000       0.62500000 </v>
    <v>       0.50000000       0.25000000       0.12500000 </v>
    <v>       0.50000000       0.25000000       0.62500000 </v>
    <v>       0.50000000       0.75000000       0.12500000 </v>
    <v>       0.50000000       0.75000000       0.62500000 </v>
    <v>       0.00000000       0.25000000       0.37500000 </v>
    <v>       0.00000000       0.25000000       0.87500000 </v>
    <v>       0.00000000       0.75000000       0.37500000 </v>
    <v>       0.00000000       0.75000000       0.87500000 </v>
    <v>       0.50000000       0.25000000       0.37500000 </v>
    <v>       0.50000000       0.25000000       0.87500000 </v>
    <v>       0.50000000       0.75000000       0.37500000 </v>
    <v>       0.50000000       0.75000000       0.87500000 </v>
    <v>       0.25000000       0.00000000       0.12500000 </v>
    <v>       0.25000000       0.00000000       0.62500000 </v>
    <v>       0.25000000       0.50000000       0.12500000 </v>
    <v>       0.25000000       0.50000000       0.62500000 </v>
    <v>       0.75000000       0.00000000       0.12500000 </v>
    <v>       0.75000000       0.00000000       0.62500000 </v>
    <v>       0.75000000       0.50000000       0.12500000 </v>
    <v>       0.75000000       0.50000000       0.62500000 </v>
    <v>       0.25000000       0.00000000       0.37500000 </v>
    <v>       0.25000000       0.00000000       0.87500000 </v>
    <v>       0.25000000       0.50000000       0.37500000 </v>
    <v>       0.25000000       0.50000000       0.87500000 </v>
    <v>       0.75000000       0.00000000       0.37500000 </v>
    <v>       0.75000000       0.00000000       0.87500000 </v>
    <v>       0.75000000       0.50000000       0.37500000 </v>
    <v>       0.75000000       0.50000000       0.87500000 </v>
    <v>       0.00000000       0.50000000       0.00000000 </v>
    <v>       0.00000000       0.50000000       0.50000000 </v>
    <v>       0.50000000       0.00000000       0.00000000 </v>
    <v>       0.50000000       0.00000000       0.50000000 </v>
    <v>       0.50000000       0.50000000       0.00000000 </v>
    <v>       0.50000000       0.50000000       0.50000000 </v>
    <v>       0.25000000       0.25000000       0.00000000 </v>
    <v>       0.25000000       0.25000000       0.50000000 </v>
    <v>       0.25000000       0.75000000       0.00000000 </v>
    <v>       0.25000000       0.75000000       0.50000000 </v>
    <v>       0.75000000       0.25000000       0.00000000 </v>
    <v>       0.75000000       0.25000000       0.50000000 </v>
    <v>       0.75000000       0.75000000       0.00000000 </v>
    <v>       0.75000000       0.75000000       0.50000000 </v>
    <v>       0.25000000       0.25000000       0.25000000 </v>
    <v>       0.25000000       0.25000000       0.75000000 </v>
    <v>       0.25000000       0.75000000       0.25000000 </v>
    <v>       0.25000000       0.75000000       0.75000000 </v>
    <v>       0.75000000       0.25000000       0.25000000 </v>
    <v>       0.75000000       0.25000000       0.75000000 </v>
    <v>       0.75000000       0.75000000       0.25000000 </v>
    <v>       0.75000000       0.75000000       0.75000000 </v>
    <v>       0.00000000       0.50000000       0.25000000 </v>
    <v>       0.00000000       0.50000000       0.75000000 </v>
    <v>       0.50000000       0.00000000       0.25000000 </v>
    <v>       0.50000000       0.00000000       0.75000000 </v>
    <v>       0.50000000       0.50000000       0.25000000 </v>
    <v>       0.50000000       0.50000000       0.75000000 </v>
    <v>       0.00000000       0.00000000       0.00000000 </v>
    <v>       0.00000000       0.00000000       0.25000000 </v>
    <v>       0.00000000       0.00000000       0.75000000 </v>
    <v>       0.00000000       0.00000000       0.50000000 </v>
    <v>       0.00000000       0.50000000       0.12500000 </v>
    <v>       0.00000000       0.50000000       0.62500000 </v>
    <v>       0.50000000       0.00000000       0.12500000 </v>
    <v>       0.50000000       0.00000000       0.62500000 </v>
    <v>       0.50000000       0.50000000       0.12500000 </v>
    <v>       0.50000000       0.50000000       0.62500000 </v>
    <v>       0.00000000       0.00000000       0.37500000 </v>
    <v>       0.00000000       0.00000000       0.87500000 </v>
    <v>       0.00000000       0.50000000       0.37500000 </v>
    <v>       0.00000000       0.50000000       0.87500000 </v>
    <v>       0.50000000       0.00000000       0.37500000 </v>
    <v>       0.50000000       0.00000000       0.87500000 </v>
    <v>       0.50000000       0.50000000       0.37500000 </v>
    <v>       0.50000000       0.50000000       0.87500000 </v>
    <v>       0.25000000       0.25000000       0.37500000 </v>
    <v>       0.25000000       0.25000000       0.87500000 </v>
    <v>       0.25000000       0.75000000       0.37500000 </v>
    <v>       0.25000000       0.75000000       0.87500000 </v>
    <v>       0.75000000       0.25000000       0.37500000 </v>
    <v>       0.75000000       0.25000000       0.87500000 </v>
    <v>       0.75000000       0.75000000       0.37500000 </v>
    <v>       0.75000000       0.75000000       0.87500000 </v>
    <v>       0.25000000       0.25000000       0.12500000 </v>
    <v>       0.25000000       0.25000000       0.62500000 </v>
    <v>       0.25000000       0.75000000       0.12500000 </v>
    <v>       0.25000000       0.75000000       0.62500000 </v>
    <v>       0.75000000       0.25000000       0.12500000 </v>
    <v>       0.75000000       0.25000000       0.62500000 </v>
    <v>       0.75000000       0.75000000       0.12500000 </v>
    <v>       0.75000000       0.75000000       0.62500000 </v>
    <v>       0.10900000       0.14100000       0.25000000 </v>
    <v>       0.35900000       0.10900000       0.25000000 </v>
    <v>       0.60900000       0.14100000       0.25000000 </v>
    <v>       0.85900000       0.10900000       0.25000000 </v>
    <v>       0.14100000       0.39100000       0.25000000 </v>
    <v>       0.39100000       0.35900000       0.25000000 </v>
    <v>       0.64100000       0.39100000       0.25000000 </v>
    <v>       0.89100000       0.35900000       0.25000000 </v>
    <v>       0.10900000       0.64100000       0.25000000 </v>
    <v>       0.35900000       0.60900000       0.25000000 </v>
    <v>       0.60900000       0.64100000       0.25000000 </v>
    <v>       0.85900000       0.60900000       0.25000000 </v>
    <v>       0.14100000       0.89100000       0.25000000 </v>
    <v>       0.39100000       0.85900000       0.25000000 </v>
    <v>       0.64100000       0.89100000       0.25000000 </v>
    <v>       0.89100000       0.85900000       0.25000000 </v>
    <v>       0.14100000       0.10900000       0.50000000 </v>
    <v>       0.39100000       0.14100000       0.50000000 </v>
    <v>       0.64100000       0.10900000       0.50000000 </v>
    <v>       0.89100000       0.14100000       0.50000000 </v>
    <v>       0.10900000       0.35900000       0.50000000 </v>
    <v>       0.35900000       0.39100000       0.50000000 </v>
    <v>       0.60900000       0.35900000       0.50000000 </v>
    <v>       0.85900000       0.39100000       0.50000000 </v>
    <v>       0.14100000       0.60900000       0.50000000 </v>
    <v>       0.39100000       0.64100000       0.50000000 </v>
    <v>       0.64100000       0.60900000       0.50000000 </v>
    <v>       0.89100000       0.64100000       0.50000000 </v>
    <v>       0.10900000       0.85900000       0.50000000 </v>
    <v>       0.35900000       0.89100000       0.50000000 </v>
    <v>       0.60900000       0.85900000       0.50000000 </v>
    <v>       0.85900000       0.89100000       0.50000000 </v>
    <v>       0.10900000       0.14100000       0.75000000 </v>
    <v>       0.35900000       0.10900000       0.75000000 </v>
    <v>       0.60900000       0.14100000       0.75000000 </v>
    <v>       0.85900000       0.10900000       0.75000000 </v>
    <v>       0.14100000       0.39100000       0.75000000 </v>
    <v>       0.39100000       0.35900000       0.75000000 </v>
    <v>       0.64100000       0.39100000       0.75000000 </v>
    <v>       0.89100000       0.35900000       0.75000000 </v>
    <v>       0.10900000       0.64100000       0.75000000 </v>
    <v>       0.35900000       0.60900000       0.75000000 </v>
    <v>       0.60900000       0.64100000       0.75000000 </v>
    <v>       0.85900000       0.60900000       0.75000000 </v>
    <v>       0.14100000       0.89100000       0.75000000 </v>
    <v>       0.39100000       0.85900000       0.75000000 </v>
    <v>       0.64100000       0.89100000       0.75000000 </v>
    <v>       0.89100000       0.85900000       0.75000000 </v>
    <v>       0.14100000       0.10900000       0.00000000 </v>
    <v>       0.39100000       0.14100000       0.00000000 </v>
    <v>       0.64100000       0.10900000       0.00000000 </v>
    <v>       0.89100000       0.14100000       0.00000000 </v>
    <v>       0.10900000       0.35900000       0.00000000 </v>
    <v>       0.35900000       0.39100000       0.00000000 </v>
    <v>       0.60900000       0.35900000       0.00000000 </v>
    <v>       0.85900000       0.39100000       0.00000000 </v>
    <v>       0.14100000       0.60900000       0.00000000 </v>
    <v>       0.39100000       0.64100000       0.00000000 </v>
    <v>       0.64100000       0.60900000       0.00000000 </v>
    <v>       0.89100000       0.64100000       0.00000000 </v>
    <v>       0.10900000       0.85900000       0.00000000 </v>
    <v>       0.35900000       0.89100000       0.00000000 </v>
    <v>       0.60900000       0.85900000       0.00000000 </v>
    <v>       0.85900000       0.89100000       0.00000000 </v>
   </varray>
  </structure>
  <varray name="forces" >
   <v>       0.00000000       0.80073100      -0.00000000 </v>
   <v>       0.00000000       0.80073100      -0.00000000 </v>
   <v>       0.00000000      -0.80073100      -0.00000000 </v>
   <v>       0.00000000      -0.80073100      -0.00000000 </v>
   <v>       0.00000000       0.01295452      -0.00000000 </v>
   <v>       0.00000000       0.01295452      -0.00000000 </v>
   <v>       0.00000000      -0.01295452      -0.00000000 </v>
   <v>       0.00000000      -0.01295452      -0.00000000 </v>
   <v>       0.00000000      -0.34404666      -0.00000000 </v>
   <v>       0.00000000      -0.34404666      -0.00000000 </v>
   <v>       0.00000000       0.34404666      -0.00000000 </v>
   <v>       0.00000000       0.34404666      -0.00000000 </v>
   <v>       0.00000000      -0.00298584      -0.00000000 </v>
   <v>       0.00000000      -0.00298584      -0.00000000 </v>
   <v>       0.00000000       0.00298584      -0.00000000 </v>
   <v>       0.00000000       0.00298584      -0.00000000 </v>
   <v>       0.80073100       0.00000000      -0.00000000 </v>
   <v>       0.80073100       0.00000000      -0.00000000 </v>
   <v>       0.01295452       0.00000000      -0.00000000 </v>
   <v>       0.01295452       0.00000000      -0.00000000 </v>
   <v>      -0.80073100       0.00000000      -0.00000000 </v>
   <v>      -0.80073100       0.00000000      -0.00000000 </v>
   <v>      -0.01295452       0.00000000      -0.00000000 </v>
   <v>      -0.01295452       0.00000000      -0.00000000 </v>
   <v>      -0.34404666       0.00000000      -0.00000000 </v>
   <v>      -0.34404666       0.00000000      -0.00000000 </v>
   <v>      -0.00298584       0.00000000      -0.00000000 </v>
   <v>      -0.00298584       0.00000000      -0.00000000 </v>
   <v>       0.34404666       0.00000000      -0.00000000 </v>
   <v>       0.34404666       0.00000000      -0.00000000 </v>
   <v>       0.00298584       0.00000000      -0.00000000 </v>
   <v>       0.00298584       0.00000000      -0.00000000 </v>
   <v>       0.00000000       0.00000000      -0.08568925 </v>
   <v>       0.00000000       0.00000000      -0.08568925 </v>
   <v>       0.00000000       0.00000000      -0.08568925 </v>
   <v>       0.00000000       0.00000000      -0.08568925 </v>
   <v>       0.00000000       0.00000000       0.00016555 </v>
   <v>       0.00000000       0.00000000       0.00016555 </v>
   <v>      -0.07345694      -0.06289506       0.01388611 </v>
   <v>      -0.07345694      -0.06289506       0.01388611 </v>
   <v>      -0.06289506       0.07345694       0.01388611 </v>
   <v>      -0.06289506       0.07345694       0.01388611 </v>
   <v>       0.06289506      -0.07345694       0.01388611 </v>
   <v>       0.06289506      -0.07345694       0.01388611 </v>
   <v>       0.07345694       0.06289506       0.01388611 </v>
   <v>       0.07345694       0.06289506       0.01388611 </v>
   <v>      -0.06289506      -0.07345694      -0.01388611 </v>
   <v>      -0.06289506      -0.07345694      -0.01388611 </v>
   <v>      -0.07345694       0.06289506      -0.01388611 </v>
   <v>      -0.07345694       0.06289506      -0.01388611 </v>
   <v>       0.07345694      -0.06289506      -0.01388611 </v>
   <v>       0.07345694      -0.06289506      -0.01388611 </v>
   <v>       0.06289506       0.07345694      -0.01388611 </v>
   <v>       0.06289506       0.07345694      -0.01388611 </v>
   <v>       0.00000000       0.00000000       0.08568925 </v>
   <v>       0.00000000       0.00000000       0.08568925 </v>
   <v>       0.00000000       0.00000000       0.08568925 </v>
   <v>       0.00000000       0.00000000       0.08568925 </v>
   <v>       0.00000000       0.00000000      -0.00016555 </v>
   <v>       0.00000000       0.00000000      -0.00016555 </v>
   <v>       0.00000000       0.00000000      -3.32836012 </v>
   <v>       0.00000000       0.00000000       3.32836012 </v>
   <v>       0.00000000       0.00000000       3.32836012 </v>
   <v>       0.00000000       0.00000000      -3.32836012 </v>
   <v>       0.00000000       0.00000000      -0.00000000 </v>
   <v>       0.00000000       0.00000000      -0.00000000 </v>
   <v>       0.00000000       0.00000000      -0.00000000 </v>
   <v>       0.00000000       0.00000000      -0.00000000 </v>
   <v>       0.00000000       0.00000000      -0.00000000 </v>
   <v>       0.00000000       0.00000000      -0.00000000 </v>
   <v>       0.00000000       0.00000000      -0.00000000 </v>
   <v>       0.00000000       0.00000000      -0.00000000 </v>
   <v>       0.00000000       0.00000000      -0.00000000 </v>
   <v>       0.00000000       0.00000000      -0.00000000 </v>
   <v>       0.00000000       0.00000000      -0.00000000 </v>
   <v>       0.00000000       0.00000000      -0.00000000 </v>
   <v>       0.00000000       0.00000000      -0.00000000 </v>
   <v>       0.00000000       0.00000000      -0.00000000 </v>
   <v>      -0.02240695      -0.02240695      -0.00000000 </v>
   <v>      -0.02240695      -0.02240695      -0.00000000 </v>
   <v>      -0.02240695       0.02240695      -0.00000000 </v>
   <v>      -0.02240695       0.02240695      -0.00000000 </v>
   <v>       0.02240695      -0.02240695      -0.00000000 </v>
   <v>       0.02240695      -0.02240695      -0.00000000 </v>
   <v>       0.02240695       0.02240695      -0.00000000 </v>
   <v>       0.02240695       0.02240695      -0.00000000 </v>
   <v>      -0.00877308      -0.00877308      -0.00000000 </v>
   <v>      -0.00877308      -0.00877308      -0.00000000 </v>
   <v>      -0.00877308       0.00877308      -0.00000000 </v>
   <v>      -0.00877308       0.00877308      -0.00000000 </v>
   <v>       0.00877308      -0.00877308      -0.00000000 </v>
   <v>       0.00877308      -0.00877308      -0.00000000 </v>
   <v>       0.00877308       0.00877308      -0.00000000 </v>
   <v>       0.00877308       0.00877308      -0.00000000 </v>
   <v>      -0.25929782      -0.34508023      -0.95594196 </v>
   <v>       0.04290762      -0.02097237      -0.05225744 </v>
   <v>      -0.02449497      -0.00591249      -0.01753581 </v>
   <v>       0.34508023      -0.25929782      -0.95594196 </v>
   <v>      -0.00591249       0.02449497      -0.01753581 </v>
   <v>       0.01207718       0.00719775      -0.00547727 </v>
   <v>      -0.00719775       0.01207718      -0.00547727 </v>
   <v>       0.02097237       0.04290762      -0.05225744 </v>
   <v>      -0.02097237      -0.04290762      -0.05225744 </v>
   <v>       0.00719775      -0.01207718      -0.00547727 </v>
   <v>      -0.01207718      -0.00719775      -0.00547727 </v>
   <v>       0.00591249      -0.02449497      -0.01753581 </v>
   <v>      -0.34508023       0.25929782      -0.95594196 </v>
   <v>       0.02449497       0.00591249      -0.01753581 </v>
   <v>      -0.04290762       0.02097237      -0.05225744 </v>
   <v>       0.25929782       0.34508023      -0.95594196 </v>
   <v>      -0.34508023      -0.25929782       0.95594196 </v>
   <v>       0.02449497      -0.00591249       0.01753581 </v>
   <v>      -0.04290762      -0.02097237       0.05225744 </v>
   <v>       0.25929782      -0.34508023       0.95594196 </v>
   <v>      -0.02097237       0.04290762       0.05225744 </v>
   <v>       0.00719775       0.01207718       0.00547727 </v>
   <v>      -0.01207718       0.00719775       0.00547727 </v>
   <v>       0.00591249       0.02449497       0.01753581 </v>
   <v>      -0.00591249      -0.02449497       0.01753581 </v>
   <v>       0.01207718      -0.00719775       0.00547727 </v>
   <v>      -0.00719775      -0.01207718       0.00547727 </v>
   <v>       0.02097237      -0.04290762       0.05225744 </v>
   <v>      -0.25929782       0.34508023       0.95594196 </v>
   <v>       0.04290762       0.02097237       0.05225744 </v>
   <v>      -0.02449497       0.00591249       0.01753581 </v>
   <v>       0.34508023       0.25929782       0.95594196 </v>
   <v>      -0.25929782      -0.34508023      -0.95594196 </v>
   <v>       0.04290762      -0.02097237      -0.05225744 </v>
   <v>      -0.02449497      -0.00591249      -0.01753581 </v>
   <v>       0.34508023      -0.25929782      -0.95594196 </v>
   <v>      -0.00591249       0.02449497      -0.01753581 </v>
   <v>       0.01207718       0.00719775      -0.00547727 </v>
   <v>      -0.00719775       0.01207718      -0.00547727 </v>
   <v>       0.02097237       0.04290762      -0.05225744 </v>
   <v>      -0.02097237      -0.04290762      -0.05225744 </v>
   <v>       0.00719775      -0.01207718      -0.00547727 </v>
   <v>      -0.01207718      -0.00719775      -0.00547727 </v>
   <v>       0.00591249      -0.02449497      -0.01753581 </v>
   <v>      -0.34508023       0.25929782      -0.95594196 </v>
   <v>       0.02449497       0.00591249      -0.01753581 </v>
   <v>      -0.04290762       0.02097237      -0.05225744 </v>
   <v>       0.25929782       0.34508023      -0.95594196 </v>
   <v>      -0.34508023      -0.25929782       0.95594196 </v>
   <v>       0.02449497      -0.00591249       0.01753581 </v>
   <v>      -0.04290762      -0.02097237       0.05225744 </v>
   <v>       0.25929782      -0.34508023       0.95594196 </v>
   <v>      -0.02097237       0.04290762       0.05225744 </v>
   <v>       0.00719775       0.01207718       0.00547727 </v>
   <v>      -0.01207718       0.00719775       0.00547727 </v>
   <v>       0.00591249       0.02449497       0.01753581 </v>
   <v>      -0.00591249      -0.02449497       0.01753581 </v>
   <v>       0.01207718      -0.00719775       0.00547727 </v>
   <v>      -0.00719775      -0.01207718       0.00547727 </v>
   <v>       0.02097237      -0.04290762       0.05225744 </v>
   <v>      -0.25929782       0.34508023       0.95594196 </v>
   <v>       0.04290762       0.02097237       0.05225744 </v>
   <v>      -0.02449497       0.00591249       0.01753581 </v>
   <v>       0.34508023       0.25929782       0.95594196 </v>
  </varray>
  <varray name="stress" >
   <v>      -2.08582374       0.00000000       0.00000000 </v>
   <v>       0.00000000      -2.08582374      -0.00000000 </v>
   <v>       0.00000000       0.00000000     -10.95857505 </v>
  </varray>
  <energy>
   <i name="e_fr_energy">  -1150.60033783 </i>
   <i name="e_wo_entrp">  -1150.60033783 </i>
   <i name="e_0_energy">     -0.00000000 </i>
  </energy>
  <time name="totalsc">  918.52  921.05</time>
 </calculation>
 <calculation>
  <scstep>
   <time name="dav">   83.22   83.23</time>
   <time name="total">   84.95   84.98</time>
   <energy>
    <i name="alphaZ">   5668.03954823 </i>
    <i name="ewald"> -61344.35415817 </i>
    <i name="hartreedc"> -15307.35585335 </i>
    <i name="XCdc">   2887.44765135 </i>
    <i name="pawpsdc"> 111063.07338490 </i>
    <i name="pawaedc">-109811.23094975 </i>
    <i name="eentropy">     -0.00000000 </i>
    <i name="bandstr">  -6919.69363163 </i>
    <i name="atom">  72650.08363186 </i>
    <i name="e_fr_energy">  -1113.99037656 </i>
    <i name="e_wo_entrp">  -1113.99037656 </i>
    <i name="e_0_energy">  -1113.99037656 </i>
   </energy>
  </scstep>
  <scstep>
   <time name="diag">    8.25    8.26</time>
   <time name="diis">   13.48   13.50</time>
   <time name="orth">    4.71    4.71</time>
   <time name="total">   28.18   28.20</time>
   <energy>
    <i name="e_fr_energy">  -1152.13809130 </i>
    <i name="e_wo_entrp">  -1152.13809130 </i>
    <i name="e_0_energy">  -1152.13809130 </i>
   </energy>
  </scstep>
  <scstep>
   <time name="diag">    8.26    8.26</time>
   <time name="diis">   13.65   13.65</time>
   <time name="orth">    4.73    4.73</time>
   <time name="total">   28.36   28.37</time>
   <energy>
    <i name="e_fr_energy">  -1152.55654963 </i>
    <i name="e_wo_entrp">  -1152.55654963 </i>
    <i name="e_0_energy">  -1152.55654963 </i>
   </energy>
  </scstep>
  <scstep>
   <time name="diag">    8.28    8.28</time>
   <time name="diis">   14.37   14.38</time>
   <time name="orth">    4.72    4.72</time>
   <time name="total">   29.10   29.14</time>
   <energy>
    <i name="e_fr_energy">  -1152.47597412 </i>
    <i name="e_wo_entrp">  -1152.47597412 </i>
    <i name="e_0_energy">  -1152.47597412 </i>
   </energy>
  </scstep>
  <scstep>
   <time name="diag">    8.26    8.27</time>
   <time name="diis">   14.53   14.54</time>
   <time name="orth">    4.72    4.73</time>
   <time name="total">   29.24   29.28</time>
   <energy>
    <i name="e_fr_energy">  -1152.46138069 </i>
    <i name="e_wo_entrp">  -1152.46138069 </i>
    <i name="e_0_energy">  -1152.46138069 </i>
   </energy>
  </scstep>
  <scstep>
   <time name="diag">    8.24    8.25</time>
   <time name="diis">   15.00   15.00</time>
   <time name="orth">    4.72    4.72</time>
   <time name="total">   29.69   29.76</time>
   <energy>
    <i name="e_fr_energy">  -1152.45359077 </i>
    <i name="e_wo_entrp">  -1152.45359077 </i>
    <i name="e_0_energy">  -1152.45359077 </i>
   </energy>
  </scstep>
  <scstep>
   <time name="diag">    8.26    8.26</time>
   <time name="diis">   15.88   15.90</time>
   <time name="orth">    4.71    4.71</time>
   <time name="total">   30.59   30.72</time>
   <energy>
    <i name="e_fr_energy">  -1152.45751038 </i>
    <i name="e_wo_entrp">  -1152.45751038 </i>
    <i name="e_0_energy">  -1152.45751038 </i>
   </energy>
  </scstep>
  <scstep>
   <time name="diag">    8.27    8.27</time>
   <time name="diis">   18.13   18.13</time>
   <time name="orth">    4.71    4.71</time>
   <time name="total">   32.85   32.91</time>
   <energy>
    <i name="e_fr_energy">  -1152.45776712 </i>
    <i name="e_wo_entrp">  -1152.45776712 </i>
    <i name="e_0_energy">  -1152.45776712 </i>
   </energy>
  </scstep>
  <scstep>
   <time name="diag">    8.25    8.26</time>
   <time name="diis">   14.61   14.61</time>
   <time name="orth">    4.72    4.72</time>
   <time name="total">   29.33   29.35</time>
   <energy>
    <i name="e_fr_energy">  -1152.45709223 </i>
    <i name="e_wo_entrp">  -1152.45709223 </i>
    <i name="e_0_energy">  -1152.45709223 </i>
   </energy>
  </scstep>
  <scstep>
   <time name="diag">    8.25    8.26</time>
   <time name="diis">   11.60   11.60</time>
   <time name="orth">    4.71    4.71</time>
   <time name="total">   25.14   25.18</time>
   <energy>
    <i name="alphaZ">   5668.03954823 </i>
    <i name="ewald"> -61344.35415817 </i>
    <i name="hartreedc"> -15228.81044593 </i>
    <i name="XCdc">   2854.53518083 </i>
    <i name="pawpsdc"> 112638.38089109 </i>
    <i name="pawaedc">-111387.51945223 </i>
    <i name="eentropy">     -0.00000000 </i>
    <i name="bandstr">  -7002.81226040 </i>
    <i name="atom">  72650.08363186 </i>
    <i name="e_fr_energy">  -1152.45706472 </i>
    <i name="e_wo_entrp">  -1152.45706472 </i>
    <i name="e_0_energy">  -1152.45706472 </i>
   </energy>
  </scstep>
  <structure>
   <crystal>
    <varray name="basis" >
     <v>      11.19007646       0.00000000       0.00000000 </v>
     <v>       0.00000000      11.19007646      -0.00000000 </v>
     <v>       0.00000000       0.00000000      15.91608974 </v>
    </varray>
    <i name="volume">   1992.97792026 </i>
    <varray name="rec_basis" >
     <v>       0.08936489       0.00000000       0.00000000 </v>
     <v>       0.00000000       0.08936489      -0.00000000 </v>
     <v>       0.00000000       0.00000000       0.06282950 </v>
    </varray>
   </crystal>
   <varray name="positions" >
    <v>       0.00000000       0.25344936       0.12500000 </v>
    <v>       0.00000000       0.25344936       0.62500000 </v>
    <v>       0.00000000       0.74655064       0.12500000 </v>
    <v>       0.00000000       0.74655064       0.62500000 </v>
    <v>       0.50000000       0.25005581       0.12500000 </v>
    <v>       0.50000000       0.25005581       0.62500000 </v>
    <v>       0.50000000       0.74994419       0.12500000 </v>
    <v>       0.50000000       0.74994419       0.62500000 </v>
    <v>       0.00000000       0.24851793       0.37500000 </v>
    <v>       0.00000000       0.24851793       0.87500000 </v>
    <v>       0.00000000       0.75148207       0.37500000 </v>
    <v>       0.00000000       0.75148207       0.87500000 </v>
    <v>       0.50000000       0.24998714       0.37500000 </v>
    <v>       0.50000000       0.24998714       0.87500000 </v>
    <v>       0.50000000       0.75001286       0.37500000 </v>
    <v>       0.50000000       0.75001286       0.87500000 </v>
    <v>       0.25344936       0.00000000       0.12500000 </v>
    <v>       0.25344936       0.00000000       0.62500000 </v>
    <v>       0.25005581       0.50000000       0.12500000 </v>
    <v>       0.25005581       0.50000000       0.62500000 </v>
    <v>       0.74655064       0.00000000       0.12500000 </v>
    <v>       0.74655064       0.00000000       0.62500000 </v>
    <v>       0.74994419       0.50000000       0.12500000 </v>
    <v>       0.74994419       0.50000000       0.62500000 </v>
    <v>       0.24851793       0.00000000       0.37500000 </v>
    <v>       0.24851793       0.00000000       0.87500000 </v>
    <v>       0.24998714       0.50000000       0.37500000 </v>
    <v>       0.24998714       0.50000000       0.87500000 </v>
    <v>       0.75148207       0.00000000       0.37500000 </v>
    <v>       0.75148207       0.00000000       0.87500000 </v>
    <v>       0.75001286       0.50000000       0.37500000 </v>
    <v>       0.75001286       0.50000000       0.87500000 </v>
    <v>       0.00000000       0.50000000      -0.00025864 </v>
    <v>       0.00000000       0.50000000       0.49974136 </v>
    <v>       0.50000000       0.00000000      -0.00025864 </v>
    <v>       0.50000000       0.00000000       0.49974136 </v>
    <v>       0.50000000       0.50000000       0.00000050 </v>
    <v>       0.50000000       0.50000000       0.50000050 </v>
    <v>       0.24968356       0.24972906       0.00004191 </v>
    <v>       0.24968356       0.24972906       0.50004191 </v>
    <v>       0.24972906       0.75031644       0.00004191 </v>
    <v>       0.24972906       0.75031644       0.50004191 </v>
    <v>       0.75027094       0.24968356       0.00004191 </v>
    <v>       0.75027094       0.24968356       0.50004191 </v>
    <v>       0.75031644       0.75027094       0.00004191 </v>
    <v>       0.75031644       0.75027094       0.50004191 </v>
    <v>       0.24972906       0.24968356       0.24995809 </v>
    <v>       0.24972906       0.24968356       0.74995809 </v>
    <v>       0.24968356       0.75027094       0.24995809 </v>
    <v>       0.24968356       0.75027094       0.74995809 </v>
    <v>       0.75031644       0.24972906       0.24995809 </v>
    <v>       0.75031644       0.24972906       0.74995809 </v>
    <v>       0.75027094       0.75031644       0.24995809 </v>
    <v>       0.75027094       0.75031644       0.74995809 </v>
    <v>       0.00000000       0.50000000       0.25025864 </v>
    <v>       0.00000000       0.50000000       0.75025864 </v>
    <v>       0.50000000       0.00000000       0.25025864 </v>
    <v>       0.50000000       0.00000000       0.75025864 </v>
    <v>       0.50000000       0.50000000       0.24999950 </v>
    <v>       0.50000000       0.50000000       0.74999950 </v>
    <v>       0.00000000       0.00000000      -0.01004623 </v>
    <v>       0.00000000       0.00000000       0.26004623 </v>
    <v>       0.00000000       0.00000000       0.76004623 </v>
    <v>       0.00000000       0.00000000       0.48995377 </v>
    <v>       0.00000000       0.50000000       0.12500000 </v>
    <v>       0.00000000       0.50000000       0.62500000 </v>
    <v>       0.50000000       0.00000000       0.12500000 </v>
    <v>       0.50000000       0.00000000       0.62500000 </v>
    <v>       0.50000000       0.50000000       0.12500000 </v>
    <v>       0.50000000       0.50000000       0.62500000 </v>
    <v>       0.00000000       0.00000000       0.37500000 </v>
    <v>       0.00000000       0.00000000       0.87500000 </v>
    <v>       0.00000000       0.50000000       0.37500000 </v>
    <v>       0.00000000       0.50000000       0.87500000 </v>
    <v>       0.50000000       0.00000000       0.37500000 </v>
    <v>       0.50000000       0.00000000       0.87500000 </v>
    <v>       0.50000000       0.50000000       0.37500000 </v>
    <v>       0.50000000       0.50000000       0.87500000 </v>
    <v>       0.24990348       0.24990348       0.37500000 </v>
    <v>       0.24990348       0.24990348       0.87500000 </v>
    <v>       0.24990348       0.75009652       0.37500000 </v>
    <v>       0.24990348       0.75009652       0.87500000 </v>
    <v>       0.75009652       0.24990348       0.37500000 </v>
    <v>       0.75009652       0.24990348       0.87500000 </v>
    <v>       0.75009652       0.75009652       0.37500000 </v>
    <v>       0.75009652       0.75009652       0.87500000 </v>
    <v>       0.24996221       0.24996221       0.12500000 </v>
    <v>       0.24996221       0.24996221       0.62500000 </v>
    <v>       0.24996221       0.75003779       0.12500000 </v>
    <v>       0.24996221       0.75003779       0.62500000 </v>
    <v>       0.75003779       0.24996221       0.12500000 </v>
    <v>       0.75003779       0.24996221       0.62500000 </v>
    <v>       0.75003779       0.75003779       0.12500000 </v>
    <v>       0.75003779       0.75003779       0.62500000 </v>
    <v>       0.10788301       0.13951348       0.24711461 </v>
    <v>       0.35918484       0.10890966       0.24984227 </v>
    <v>       0.60889448       0.14097453       0.24994707 </v>
    <v>       0.86048652       0.10788301       0.24711461 </v>
    <v>       0.14097453       0.39110552       0.24994707 </v>
    <v>       0.39105203       0.35903101       0.24998347 </v>
    <v>       0.64096899       0.39105203       0.24998347 </v>
    <v>       0.89109034       0.35918484       0.24984227 </v>
    <v>       0.10890966       0.64081516       0.24984227 </v>
    <v>       0.35903101       0.60894797       0.24998347 </v>
    <v>       0.60894797       0.64096899       0.24998347 </v>
    <v>       0.85902547       0.60889448       0.24994707 </v>
    <v>       0.13951348       0.89211699       0.24711461 </v>
    <v>       0.39110552       0.85902547       0.24994707 </v>
    <v>       0.64081516       0.89109034       0.24984227 </v>
    <v>       0.89211699       0.86048652       0.24711461 </v>
    <v>       0.13951348       0.10788301       0.50288539 </v>
    <v>       0.39110552       0.14097453       0.50005293 </v>
    <v>       0.64081516       0.10890966       0.50015773 </v>
    <v>       0.89211699       0.13951348       0.50288539 </v>
    <v>       0.10890966       0.35918484       0.50015773 </v>
    <v>       0.35903101       0.39105203       0.50001653 </v>
    <v>       0.60894797       0.35903101       0.50001653 </v>
    <v>       0.85902547       0.39110552       0.50005293 </v>
    <v>       0.14097453       0.60889448       0.50005293 </v>
    <v>       0.39105203       0.64096899       0.50001653 </v>
    <v>       0.64096899       0.60894797       0.50001653 </v>
    <v>       0.89109034       0.64081516       0.50015773 </v>
    <v>       0.10788301       0.86048652       0.50288539 </v>
    <v>       0.35918484       0.89109034       0.50015773 </v>
    <v>       0.60889448       0.85902547       0.50005293 </v>
    <v>       0.86048652       0.89211699       0.50288539 </v>
    <v>       0.10788301       0.13951348       0.74711461 </v>
    <v>       0.35918484       0.10890966       0.74984227 </v>
    <v>       0.60889448       0.14097453       0.74994707 </v>
    <v>       0.86048652       0.10788301       0.74711461 </v>
    <v>       0.14097453       0.39110552       0.74994707 </v>
    <v>       0.39105203       0.35903101       0.74998347 </v>
    <v>       0.64096899       0.39105203       0.74998347 </v>
    <v>       0.89109034       0.35918484       0.74984227 </v>
    <v>       0.10890966       0.64081516       0.74984227 </v>
    <v>       0.35903101       0.60894797       0.74998347 </v>
    <v>       0.60894797       0.64096899       0.74998347 </v>
    <v>       0.85902547       0.60889448       0.74994707 </v>
    <v>       0.13951348       0.89211699       0.74711461 </v>
    <v>       0.39110552       0.85902547       0.74994707 </v>
    <v>       0.64081516       0.89109034       0.74984227 </v>
    <v>       0.89211699       0.86048652       0.74711461 </v>
    <v>       0.13951348       0.10788301       0.00288539 </v>
    <v>       0.39110552       0.14097453       0.00005293 </v>
    <v>       0.64081516       0.10890966       0.00015773 </v>
[...]
       <r>   -15.7891     0.0000    32.0000 </r>
       <r>   -15.6372     0.0000    32.0000 </r>
       <r>   -15.4852     0.0000    32.0000 </r>
       <r>   -15.3333     0.0000    32.0000 </r>
       <r>   -15.1814     0.0017    32.0003 </r>
       <r>   -15.0295    12.1247    33.8422 </r>
       <r>   -14.8776    48.9687    41.2812 </r>
       <r>   -14.7257    59.3014    50.2900 </r>
       <r>   -14.5738    30.2202    54.8808 </r>
       <r>   -14.4218    23.3766    58.4321 </r>
       <r>   -14.2699    29.8275    62.9633 </r>
       <r>   -14.1180    87.2041    76.2109 </r>
       <r>   -13.9661   148.5381    98.7760 </r>
       <r>   -13.8142   145.8001   120.9251 </r>
       <r>   -13.6623    24.4349   124.6371 </r>
       <r>   -13.5104     8.9694   125.9997 </r>
       <r>   -13.3584     0.0018   126.0000 </r>
       <r>   -13.2065     0.0000   126.0000 </r>
       <r>   -13.0546     0.0000   126.0000 </r>
       <r>   -12.9027     0.0000   126.0000 </r>
       <r>   -12.7508     0.0080   126.0012 </r>
       <r>   -12.5989    18.7388   128.8479 </r>
       <r>   -12.4470   109.1303   145.4264 </r>
       <r>   -12.2950   156.2196   169.1584 </r>
       <r>   -12.1431   135.4700   189.7383 </r>
       <r>   -11.9912   124.4425   208.6429 </r>
       <r>   -11.8393    79.9589   220.7898 </r>
       <r>   -11.6874     7.9644   221.9997 </r>
       <r>   -11.5355     0.0019   222.0000 </r>
       <r>   -11.3835     0.0000   222.0000 </r>
       <r>   -11.2316     0.0000   222.0000 </r>
       <r>   -11.0797     0.0000   222.0000 </r>
       <r>   -10.9278     0.0000   222.0000 </r>
       <r>   -10.7759     0.0000   222.0000 </r>
       <r>   -10.6240     0.0000   222.0000 </r>
       <r>   -10.4721     0.0000   222.0000 </r>
       <r>   -10.3201     0.0000   222.0000 </r>
       <r>   -10.1682     0.0000   222.0000 </r>
       <r>   -10.0163     0.0000   222.0000 </r>
       <r>    -9.8644     0.0000   222.0000 </r>
       <r>    -9.7125     0.0000   222.0000 </r>
       <r>    -9.5606     0.0000   222.0000 </r>
       <r>    -9.4087     0.0000   222.0000 </r>
       <r>    -9.2567     0.0000   222.0000 </r>
       <r>    -9.1048     0.0000   222.0000 </r>
       <r>    -8.9529     0.0000   222.0000 </r>
       <r>    -8.8010     0.0000   222.0000 </r>
       <r>    -8.6491     0.0000   222.0000 </r>
       <r>    -8.4972     0.0000   222.0000 </r>
       <r>    -8.3453     0.0000   222.0000 </r>
       <r>    -8.1933     0.0000   222.0000 </r>
       <r>    -8.0414     0.0000   222.0000 </r>
       <r>    -7.8895     0.0000   222.0000 </r>
       <r>    -7.7376     0.0000   222.0000 </r>
       <r>    -7.5857     0.0000   222.0000 </r>
       <r>    -7.4338     0.0000   222.0000 </r>
       <r>    -7.2819     0.0000   222.0000 </r>
       <r>    -7.1299     0.0000   222.0000 </r>
       <r>    -6.9780     0.0000   222.0000 </r>
       <r>    -6.8261     0.0000   222.0000 </r>
       <r>    -6.6742     0.0000   222.0000 </r>
       <r>    -6.5223     0.0000   222.0000 </r>
       <r>    -6.3704     0.0000   222.0000 </r>
       <r>    -6.2185     0.0000   222.0000 </r>
       <r>    -6.0665     0.0000   222.0000 </r>
       <r>    -5.9146     0.0000   222.0000 </r>
       <r>    -5.7627     0.0000   222.0000 </r>
       <r>    -5.6108     0.0000   222.0000 </r>
       <r>    -5.4589     0.0000   222.0000 </r>
       <r>    -5.3070     0.0000   222.0000 </r>
       <r>    -5.1551     0.0000   222.0000 </r>
       <r>    -5.0031     0.0000   222.0000 </r>
       <r>    -4.8512     0.0000   222.0000 </r>
       <r>    -4.6993     0.0000   222.0000 </r>
       <r>    -4.5474     0.0000   222.0000 </r>
       <r>    -4.3955     0.0000   222.0000 </r>
       <r>    -4.2436     0.0000   222.0000 </r>
       <r>    -4.0917     0.0000   222.0000 </r>
       <r>    -3.9397     0.0000   222.0000 </r>
       <r>    -3.7878     0.0000   222.0000 </r>
       <r>    -3.6359     0.0000   222.0000 </r>
       <r>    -3.4840     0.0000   222.0000 </r>
       <r>    -3.3321     0.0000   222.0000 </r>
       <r>    -3.1802     0.0000   222.0000 </r>
       <r>    -3.0282     0.0000   222.0000 </r>
       <r>    -2.8763     0.0000   222.0000 </r>
       <r>    -2.7244     0.0000   222.0000 </r>
       <r>    -2.5725     0.0000   222.0000 </r>
       <r>    -2.4206     0.0000   222.0000 </r>
       <r>    -2.2687     2.3592   222.3584 </r>
       <r>    -2.1168    15.0992   224.6522 </r>
       <r>    -1.9648    34.9241   229.9577 </r>
       <r>    -1.8129    44.0746   236.6532 </r>
       <r>    -1.6610    60.0172   245.7707 </r>
       <r>    -1.5091    50.3761   253.4236 </r>
       <r>    -1.3572    62.8261   262.9678 </r>
       <r>    -1.2053    74.7665   274.3259 </r>
       <r>    -1.0534    68.5041   284.7327 </r>
       <r>    -0.9014    68.9136   295.2017 </r>
       <r>    -0.7495    77.8757   307.0321 </r>
       <r>    -0.5976    95.4318   321.5296 </r>
       <r>    -0.4457   141.2774   342.9917 </r>
       <r>    -0.2938    74.8855   354.3679 </r>
       <r>    -0.1419    55.4745   362.7952 </r>
       <r>     0.0100    44.3419   369.5314 </r>
       <r>     0.1620    38.5587   375.3891 </r>
       <r>     0.3139    46.9506   382.5215 </r>
       <r>     0.4658    49.2893   390.0093 </r>
       <r>     0.6177    63.1410   399.6013 </r>
       <r>     0.7696    42.4594   406.0515 </r>
       <r>     0.9215    45.7813   413.0064 </r>
       <r>     1.0734    61.9845   422.4227 </r>
       <r>     1.2254    80.6221   434.6704 </r>
       <r>     1.3773    78.4036   446.5810 </r>
       <r>     1.5292   118.6938   464.6124 </r>
       <r>     1.6811    74.0484   475.8614 </r>
       <r>     1.8330    73.9584   487.0967 </r>
       <r>     1.9849    51.9105   494.9827 </r>
       <r>     2.1368    35.7720   500.4170 </r>
       <r>     2.2888    23.5778   503.9988 </r>
       <r>     2.4407     0.0081   504.0000 </r>
       <r>     2.5926     0.0000   504.0000 </r>
       <r>     2.7445     0.0000   504.0000 </r>
       <r>     2.8964     0.0000   504.0000 </r>
       <r>     3.0483     0.0000   504.0000 </r>
       <r>     3.2002     0.0000   504.0000 </r>
       <r>     3.3522     0.0000   504.0000 </r>
       <r>     3.5041     0.0000   504.0000 </r>
       <r>     3.6560     0.0000   504.0000 </r>
       <r>     3.8079     0.0000   504.0000 </r>
       <r>     3.9598     0.0000   504.0000 </r>
       <r>     4.1117     0.4409   504.0670 </r>
       <r>     4.2636     6.1248   504.9974 </r>
       <r>     4.4156     2.3154   505.3492 </r>
       <r>     4.5675    18.5782   508.1715 </r>
       <r>     4.7194    31.7623   512.9966 </r>
       <r>     4.8713    33.8985   518.1463 </r>
       <r>     5.0232    15.6153   520.5185 </r>
       <r>     5.1751    28.0558   524.7806 </r>
       <r>     5.3270    58.2868   533.6352 </r>
       <r>     5.4790    69.6322   544.2133 </r>
       <r>     5.6309    42.4678   550.6648 </r>
       <r>     5.7828    68.5024   561.0713 </r>
       <r>     5.9347    91.7609   575.0111 </r>
       <r>     6.0866   102.1745   590.5329 </r>
       <r>     6.2385    83.1763   603.1686 </r>
       <r>     6.3905    43.8010   609.8226 </r>
       <r>     6.5424    37.4669   615.5143 </r>
       <r>     6.6943    24.3510   619.2136 </r>
       <r>     6.8462    33.2395   624.2632 </r>
       <r>     6.9981    18.4784   627.0703 </r>
       <r>     7.1500    11.6424   628.8390 </r>
       <r>     7.3019    21.9814   632.1783 </r>
       <r>     7.4539    16.1315   634.6289 </r>
       <r>     7.6058     8.7463   635.9576 </r>
       <r>     7.7577    13.6377   638.0293 </r>
       <r>     7.9096    15.0171   640.3106 </r>
       <r>     8.0615    30.2777   644.9102 </r>
       <r>     8.2134    28.2916   649.2082 </r>
       <r>     8.3653    12.3569   651.0854 </r>
       <r>     8.5173    23.3029   654.6254 </r>
       <r>     8.6692    26.5201   658.6542 </r>
       <r>     8.8211    35.4689   664.0424 </r>
       <r>     8.9730    21.1294   667.2523 </r>
       <r>     9.1249    32.1839   672.1415 </r>
       <r>     9.2768    46.0051   679.1303 </r>
       <r>     9.4287    35.8112   684.5706 </r>
       <r>     9.5807    46.4548   691.6277 </r>
       <r>     9.7326    41.1827   697.8840 </r>
       <r>     9.8845    59.5187   706.9257 </r>
       <r>    10.0364    72.8179   717.9878 </r>
       <r>    10.1883    75.2705   729.4225 </r>
       <r>    10.3402    68.9668   739.8996 </r>
       <r>    10.4921    53.2426   747.9879 </r>
       <r>    10.6441    61.4985   757.3304 </r>
       <r>    10.7960    53.8038   765.5040 </r>
       <r>    10.9479    16.4096   767.9968 </r>
       <r>    11.0998     0.0208   768.0000 </r>
       <r>    11.2517     0.0000   768.0000 </r>
       <r>    11.4036     0.0000   768.0000 </r>
       <r>    11.5555     0.0000   768.0000 </r>
       <r>    11.7075     0.0000   768.0000 </r>
       <r>    11.8594     0.0000   768.0000 </r>
       <r>    12.0113     0.0000   768.0000 </r>
       <r>    12.1632     0.0000   768.0000 </r>
       <r>    12.3151     0.0000   768.0000 </r>
       <r>    12.4670     0.0000   768.0000 </r>
       <r>    12.6189     0.0000   768.0000 </r>
       <r>    12.7709     0.0000   768.0000 </r>
       <r>    12.9228     0.0000   768.0000 </r>
      </set>
     </set>
    </array>
   </total>
  </dos>
 </calculation>
 <structure name="finalpos" >
  <crystal>
   <varray name="basis" >
    <v>      11.19477450       0.00000000       0.00000000 </v>
    <v>       0.00000000      11.19477450      -0.00000000 </v>
    <v>       0.00000000      -0.00000000      15.96158464 </v>
   </varray>
   <i name="volume">   2000.35329024 </i>
   <varray name="rec_basis" >
    <v>       0.08932739       0.00000000       0.00000000 </v>
    <v>       0.00000000       0.08932739       0.00000000 </v>
    <v>       0.00000000       0.00000000       0.06265042 </v>
   </varray>
  </crystal>
  <varray name="positions" >
   <v>      -0.00000000       0.25695557       0.12500000 </v>
   <v>      -0.00000000       0.25695557       0.62500000 </v>
   <v>      -0.00000000       0.74304443       0.12500000 </v>
   <v>      -0.00000000       0.74304443       0.62500000 </v>
   <v>       0.50000000       0.25204897       0.12500000 </v>
   <v>       0.50000000       0.25204897       0.62500000 </v>
   <v>       0.50000000       0.74795103       0.12500000 </v>
   <v>       0.50000000       0.74795103       0.62500000 </v>
   <v>      -0.00000000       0.25077698       0.37500000 </v>
   <v>      -0.00000000       0.25077698       0.87500000 </v>
   <v>      -0.00000000       0.74922302       0.37500000 </v>
   <v>      -0.00000000       0.74922302       0.87500000 </v>
   <v>       0.50000000       0.25045631       0.37500000 </v>
   <v>       0.50000000       0.25045631       0.87500000 </v>
   <v>       0.50000000       0.74954369       0.37500000 </v>
   <v>       0.50000000       0.74954369       0.87500000 </v>
   <v>       0.25695557       0.00000000       0.12500000 </v>
   <v>       0.25695557       0.00000000       0.62500000 </v>
   <v>       0.25204897       0.50000000       0.12500000 </v>
   <v>       0.25204897       0.50000000       0.62500000 </v>
   <v>       0.74304443       0.00000000       0.12500000 </v>
   <v>       0.74304443       0.00000000       0.62500000 </v>
   <v>       0.74795103       0.50000000       0.12500000 </v>
   <v>       0.74795103       0.50000000       0.62500000 </v>
   <v>       0.25077698       0.00000000       0.37500000 </v>
   <v>       0.25077698       0.00000000       0.87500000 </v>
   <v>       0.25045631       0.50000000       0.37500000 </v>
   <v>       0.25045631       0.50000000       0.87500000 </v>
   <v>       0.74922302       0.00000000       0.37500000 </v>
   <v>       0.74922302       0.00000000       0.87500000 </v>
   <v>       0.74954369       0.50000000       0.37500000 </v>
   <v>       0.74954369       0.50000000       0.87500000 </v>
   <v>      -0.00000000       0.50000000      -0.00040076 </v>
   <v>      -0.00000000       0.50000000       0.49959924 </v>
   <v>       0.50000000       0.00000000      -0.00040076 </v>
   <v>       0.50000000       0.00000000       0.49959924 </v>
   <v>       0.50000000       0.50000000      -0.00157697 </v>
   <v>       0.50000000       0.50000000       0.49842303 </v>
   <v>       0.24791424       0.24794278       0.00089908 </v>
   <v>       0.24791424       0.24794278       0.50089908 </v>
   <v>       0.24794278       0.75208576       0.00089908 </v>
   <v>       0.24794278       0.75208576       0.50089908 </v>
   <v>       0.75205722       0.24791424       0.00089908 </v>
   <v>       0.75205722       0.24791424       0.50089908 </v>
   <v>       0.75208576       0.75205722       0.00089908 </v>
   <v>       0.75208576       0.75205722       0.50089908 </v>
   <v>       0.24794278       0.24791424       0.24910092 </v>
   <v>       0.24794278       0.24791424       0.74910092 </v>
   <v>       0.24791424       0.75205722       0.24910092 </v>
   <v>       0.24791424       0.75205722       0.74910092 </v>
   <v>       0.75208576       0.24794278       0.24910092 </v>
   <v>       0.75208576       0.24794278       0.74910092 </v>
   <v>       0.75205722       0.75208576       0.24910092 </v>
   <v>       0.75205722       0.75208576       0.74910092 </v>
   <v>      -0.00000000       0.50000000       0.25040076 </v>
   <v>      -0.00000000       0.50000000       0.75040076 </v>
   <v>       0.50000000       0.00000000       0.25040076 </v>
   <v>       0.50000000       0.00000000       0.75040076 </v>
   <v>       0.50000000       0.50000000       0.25157697 </v>
   <v>       0.50000000       0.50000000       0.75157697 </v>
   <v>      -0.00000000       0.00000000      -0.00662865 </v>
   <v>      -0.00000000       0.00000000       0.25662865 </v>
   <v>      -0.00000000       0.00000000       0.75662865 </v>
   <v>      -0.00000000       0.00000000       0.49337135 </v>
   <v>      -0.00000000       0.50000000       0.12500000 </v>
   <v>      -0.00000000       0.50000000       0.62500000 </v>
   <v>       0.50000000       0.00000000       0.12500000 </v>
   <v>       0.50000000       0.00000000       0.62500000 </v>
   <v>       0.50000000       0.50000000       0.12500000 </v>
   <v>       0.50000000       0.50000000       0.62500000 </v>
   <v>      -0.00000000       0.00000000       0.37500000 </v>
   <v>      -0.00000000       0.00000000       0.87500000 </v>
   <v>      -0.00000000       0.50000000       0.37500000 </v>
   <v>      -0.00000000       0.50000000       0.87500000 </v>
   <v>       0.50000000       0.00000000       0.37500000 </v>
   <v>       0.50000000       0.00000000       0.87500000 </v>
   <v>       0.50000000       0.50000000       0.37500000 </v>
   <v>       0.50000000       0.50000000       0.87500000 </v>
   <v>       0.24012172       0.24012172       0.37500000 </v>
   <v>       0.24012172       0.24012172       0.87500000 </v>
   <v>       0.24012172       0.75987828       0.37500000 </v>
   <v>       0.24012172       0.75987828       0.87500000 </v>
   <v>       0.75987828       0.24012172       0.37500000 </v>
   <v>       0.75987828       0.24012172       0.87500000 </v>
   <v>       0.75987828       0.75987828       0.37500000 </v>
   <v>       0.75987828       0.75987828       0.87500000 </v>
   <v>       0.25720793       0.25720793       0.12500000 </v>
   <v>       0.25720793       0.25720793       0.62500000 </v>
   <v>       0.25720793       0.74279207       0.12500000 </v>
   <v>       0.25720793       0.74279207       0.62500000 </v>
   <v>       0.74279207       0.25720793       0.12500000 </v>
   <v>       0.74279207       0.25720793       0.62500000 </v>
   <v>       0.74279207       0.74279207       0.12500000 </v>
   <v>       0.74279207       0.74279207       0.62500000 </v>
   <v>       0.11081100       0.13546277       0.23739506 </v>
   <v>       0.36151518       0.11080676       0.25038063 </v>
   <v>       0.61188992       0.13840551       0.25046329 </v>
   <v>       0.86453723       0.11081100       0.23739506 </v>
   <v>       0.13840551       0.38811008       0.25046329 </v>
   <v>       0.38834538       0.36044103       0.25362506 </v>
   <v>       0.63955897       0.38834538       0.25362506 </v>
   <v>       0.88919324       0.36151518       0.25038063 </v>
   <v>       0.11080676       0.63848482       0.25038063 </v>
   <v>       0.36044103       0.61165462       0.25362506 </v>
   <v>       0.61165462       0.63955897       0.25362506 </v>
   <v>       0.86159449       0.61188992       0.25046329 </v>
   <v>       0.13546277       0.88918900       0.23739506 </v>
   <v>       0.38811008       0.86159449       0.25046329 </v>
   <v>       0.63848482       0.88919324       0.25038063 </v>
   <v>       0.88918900       0.86453723       0.23739506 </v>
   <v>       0.13546277       0.11081100       0.51260494 </v>
   <v>       0.38811008       0.13840551       0.49953671 </v>
   <v>       0.63848482       0.11080676       0.49961937 </v>
   <v>       0.88918900       0.13546277       0.51260494 </v>
   <v>       0.11080676       0.36151518       0.49961937 </v>
   <v>       0.36044103       0.38834538       0.49637494 </v>
   <v>       0.61165462       0.36044103       0.49637494 </v>
   <v>       0.86159449       0.38811008       0.49953671 </v>
   <v>       0.13840551       0.61188992       0.49953671 </v>
   <v>       0.38834538       0.63955897       0.49637494 </v>
   <v>       0.63955897       0.61165462       0.49637494 </v>
   <v>       0.88919324       0.63848482       0.49961937 </v>
   <v>       0.11081100       0.86453723       0.51260494 </v>
   <v>       0.36151518       0.88919324       0.49961937 </v>
   <v>       0.61188992       0.86159449       0.49953671 </v>
   <v>       0.86453723       0.88918900       0.51260494 </v>
   <v>       0.11081100       0.13546277       0.73739506 </v>
   <v>       0.36151518       0.11080676       0.75038063 </v>
   <v>       0.61188992       0.13840551       0.75046329 </v>
   <v>       0.86453723       0.11081100       0.73739506 </v>
   <v>       0.13840551       0.38811008       0.75046329 </v>
   <v>       0.38834538       0.36044103       0.75362506 </v>
   <v>       0.63955897       0.38834538       0.75362506 </v>
   <v>       0.88919324       0.36151518       0.75038063 </v>
   <v>       0.11080676       0.63848482       0.75038063 </v>
   <v>       0.36044103       0.61165462       0.75362506 </v>
   <v>       0.61165462       0.63955897       0.75362506 </v>
   <v>       0.86159449       0.61188992       0.75046329 </v>
   <v>       0.13546277       0.88918900       0.73739506 </v>
   <v>       0.38811008       0.86159449       0.75046329 </v>
   <v>       0.63848482       0.88919324       0.75038063 </v>
   <v>       0.88918900       0.86453723       0.73739506 </v>
   <v>       0.13546277       0.11081100       0.01260494 </v>
   <v>       0.38811008       0.13840551      -0.00046329 </v>
   <v>       0.63848482       0.11080676      -0.00038063 </v>
   <v>       0.88918900       0.13546277       0.01260494 </v>
   <v>       0.11080676       0.36151518      -0.00038063 </v>
   <v>       0.36044103       0.38834538      -0.00362506 </v>
   <v>       0.61165462       0.36044103      -0.00362506 </v>
   <v>       0.86159449       0.38811008      -0.00046329 </v>
   <v>       0.13840551       0.61188992      -0.00046329 </v>
   <v>       0.38834538       0.63955897      -0.00362506 </v>
   <v>       0.63955897       0.61165462      -0.00362506 </v>
   <v>       0.88919324       0.63848482      -0.00038063 </v>
   <v>       0.11081100       0.86453723       0.01260494 </v>
   <v>       0.36151518       0.88919324      -0.00038063 </v>
   <v>       0.61188992       0.86159449      -0.00046329 </v>
   <v>       0.86453723       0.88918900       0.01260494 </v>
  </varray>
 </structure>
</modeling>
