<?xml version="1.0" encoding="ISO-8859-1"?>
<modeling>
 <generator>
  <i name="program" type="string">vasp </i>
  <i name="version" type="string">5.4.1  </i>
  <i name="subversion" type="string">05Feb16 (build Jan 25 2017 20:16:33) complex                          parallel </i>
  <i name="platform" type="string">BWXE6 </i>
  <i name="date" type="string">2019 07 13 </i>
  <i name="time" type="string">11:30:45 </i>
 </generator>
 <incar>
  <i type="string" name="SYSTEM"> STF</i>
  <i type="string" name="PREC">normal</i>
  <i type="string" name="ALGO"> Fast</i>
  <i type="int" name="ISPIN">     2</i>
  <i type="int" name="NELM">    40</i>
  <i type="int" name="NELMIN">     8</i>
  <i type="int" name="IBRION">     2</i>
  <i name="EDIFF">      0.00010000</i>
  <i name="EDIFFG">     -0.03000000</i>
  <i type="int" name="NSW">    30</i>
  <i type="int" name="ISIF">     3</i>
  <i name="ENCUT">    520.00000000</i>
  <i type="int" name="NBANDS">   768</i>
  <v name="MAGMOM">      0.60000000      0.60000000      0.60000000      0.60000000      0.60000000      0.60000000      0.60000000      0.60000000      0.60000000      0.60000000      0.60000000      0.60000000      0.60000000      0.60000000      0.60000000      0.60000000      0.60000000      0.60000000      0.60000000      0.60000000
      0.60000000      0.60000000      0.60000000      0.60000000      0.60000000      0.60000000      0.60000000      0.60000000      0.60000000      0.60000000      0.60000000      0.60000000      0.60000000      0.60000000      0.60000000      0.60000000      0.60000000      0.60000000      0.60000000      0.60000000
      5.00000000      5.00000000      5.00000000      5.00000000      5.00000000      5.00000000      5.00000000      5.00000000      5.00000000      5.00000000      5.00000000      5.00000000      5.00000000      5.00000000      5.00000000      5.00000000      5.00000000      5.00000000      5.00000000      5.00000000
      5.00000000      5.00000000      5.00000000      5.00000000      0.60000000      0.60000000      0.60000000      0.60000000      0.60000000      0.60000000      0.60000000      0.60000000      0.60000000      0.60000000      0.60000000      0.60000000      0.60000000      0.60000000      0.60000000      0.60000000
      0.60000000      0.60000000      0.60000000      0.60000000      0.60000000      0.60000000      0.60000000      0.60000000      0.60000000      0.60000000      0.60000000      0.60000000      0.60000000      0.60000000      0.60000000      0.60000000      0.60000000      0.60000000      0.60000000      0.60000000
      0.60000000      0.60000000      0.60000000      0.60000000      0.60000000      0.60000000      0.60000000      0.60000000      0.60000000      0.60000000      0.60000000      0.60000000      0.60000000      0.60000000      0.60000000      0.60000000      0.60000000      0.60000000      0.60000000      0.60000000
      0.60000000      0.60000000      0.60000000      0.60000000      0.60000000      0.60000000      0.60000000      0.60000000      0.60000000      0.60000000      0.60000000      0.60000000      0.60000000      0.60000000      0.60000000      0.60000000      0.60000000      0.60000000      0.60000000      0.60000000
      0.60000000      0.60000000      0.60000000      0.60000000      0.60000000      0.60000000      0.60000000      0.60000000</v>
  <i type="string" name="LREAL"> Auto</i>
  <i type="int" name="ISMEAR">     0</i>
  <i name="SIGMA">      0.05000000</i>
  <i type="int" name="LMAXMIX">     4</i>
  <v type="int" name="KPOINT_BSE">    -1     0     0     0</v>
  <i type="int" name="NELM">    40</i>
  <i type="logical" name="LDAU"> T  </i>
  <v type="int" name="LDAUTYPE">     2</v>
  <v type="int" name="LDAUL">     0     2     2     0</v>
  <v name="LDAUU">      0.00000000      3.00000000      5.00000000      0.00000000</v>
  <v name="LDAUJ">      0.00000000      0.00000000      0.00000000      0.00000000</v>
  <i type="int" name="LDAUPRINT">     1</i>
 </incar>
 <kpoints>
  <generation param="Monkhorst-Pack">
   <v type="int" name="divisions">       2        2        2 </v>
   <v name="usershift">      0.00000000       0.00000000       0.00000000 </v>
   <v name="genvec1">      0.50000000       0.00000000       0.00000000 </v>
   <v name="genvec2">     -0.00000000       0.50000000       0.00000000 </v>
   <v name="genvec3">      0.00000000       0.00000000       0.50000000 </v>
   <v name="shift">      0.50000000       0.50000000       0.50000000 </v>
  </generation>
  <varray name="kpointlist" >
   <v>       0.25000000       0.25000000       0.25000000 </v>
   <v>      -0.25000000       0.25000000       0.25000000 </v>
   <v>       0.25000000      -0.25000000       0.25000000 </v>
   <v>      -0.25000000      -0.25000000       0.25000000 </v>
  </varray>
  <varray name="weights" >
   <v>       0.25000000 </v>
   <v>       0.25000000 </v>
   <v>       0.25000000 </v>
   <v>       0.25000000 </v>
  </varray>
 </kpoints>
 <parameters>
  <separator name="general" >
   <i type="string" name="SYSTEM">STF</i>
   <i type="logical" name="LCOMPAT"> F  </i>
  </separator>
  <separator name="electronic" >
   <i type="string" name="PREC">normal</i>
   <i name="ENMAX">    520.00000000</i>
   <i name="ENAUG">    605.39200000</i>
   <i name="EDIFF">      0.00010000</i>
   <i type="int" name="IALGO">    68</i>
   <i type="int" name="IWAVPR">    11</i>
   <i type="int" name="NBANDS">   768</i>
   <i name="NELECT">   1048.00000000</i>
   <i type="int" name="TURBO">     0</i>
   <i type="int" name="IRESTART">     0</i>
   <i type="int" name="NREBOOT">     0</i>
   <i type="int" name="NMIN">     0</i>
   <i name="EREF">      0.00000000</i>
   <separator name="electronic smearing" >
    <i type="int" name="ISMEAR">     0</i>
    <i name="SIGMA">      0.05000000</i>
    <i name="KSPACING">      0.50000000</i>
    <i type="logical" name="KGAMMA"> T  </i>
   </separator>
   <separator name="electronic projectors" >
    <i type="logical" name="LREAL"> T  </i>
    <v name="ROPT">     -0.00050000     -0.00050000     -0.00050000     -0.00050000</v>
    <i type="int" name="LMAXPAW">  -100</i>
    <i type="int" name="LMAXMIX">     4</i>
    <i type="logical" name="NLSPLINE"> F  </i>
   </separator>
   <separator name="electronic startup" >
    <i type="int" name="ISTART">     1</i>
    <i type="int" name="ICHARG">     0</i>
    <i type="int" name="INIWAV">     1</i>
   </separator>
   <separator name="electronic spin" >
    <i type="int" name="ISPIN">     2</i>
    <i type="logical" name="LNONCOLLINEAR"> F  </i>
    <v name="MAGMOM">      0.60000000      0.60000000      0.60000000      0.60000000      0.60000000      0.60000000      0.60000000      0.60000000      0.60000000      0.60000000      0.60000000      0.60000000      0.60000000      0.60000000      0.60000000      0.60000000      0.60000000      0.60000000      0.60000000      0.60000000
      0.60000000      0.60000000      0.60000000      0.60000000      0.60000000      0.60000000      0.60000000      0.60000000      0.60000000      0.60000000      0.60000000      0.60000000      0.60000000      0.60000000      0.60000000      0.60000000      0.60000000      0.60000000      0.60000000      0.60000000
      5.00000000      5.00000000      5.00000000      5.00000000      5.00000000      5.00000000      5.00000000      5.00000000      5.00000000      5.00000000      5.00000000      5.00000000      5.00000000      5.00000000      5.00000000      5.00000000      5.00000000      5.00000000      5.00000000      5.00000000
      5.00000000      5.00000000      5.00000000      5.00000000      0.60000000      0.60000000      0.60000000      0.60000000      0.60000000      0.60000000      0.60000000      0.60000000      0.60000000      0.60000000      0.60000000      0.60000000      0.60000000      0.60000000      0.60000000      0.60000000
      0.60000000      0.60000000      0.60000000      0.60000000      0.60000000      0.60000000      0.60000000      0.60000000      0.60000000      0.60000000      0.60000000      0.60000000      0.60000000      0.60000000      0.60000000      0.60000000      0.60000000      0.60000000      0.60000000      0.60000000
      0.60000000      0.60000000      0.60000000      0.60000000      0.60000000      0.60000000      0.60000000      0.60000000      0.60000000      0.60000000      0.60000000      0.60000000      0.60000000      0.60000000      0.60000000      0.60000000      0.60000000      0.60000000      0.60000000      0.60000000
      0.60000000      0.60000000      0.60000000      0.60000000      0.60000000      0.60000000      0.60000000      0.60000000      0.60000000      0.60000000      0.60000000      0.60000000      0.60000000      0.60000000      0.60000000      0.60000000      0.60000000      0.60000000      0.60000000      0.60000000
      0.60000000      0.60000000      0.60000000      0.60000000      0.60000000      0.60000000      0.60000000      0.60000000</v>
    <i name="NUPDOWN">     -1.00000000</i>
    <i type="logical" name="LSORBIT"> F  </i>
    <v name="SAXIS">      0.00000000      0.00000000      1.00000000</v>
    <i type="logical" name="LSPIRAL"> F  </i>
    <v name="QSPIRAL">      0.00000000      0.00000000      0.00000000</v>
    <i type="logical" name="LZEROZ"> F  </i>
   </separator>
   <separator name="electronic exchange-correlation" >
    <i type="logical" name="LASPH"> F  </i>
    <i type="logical" name="LMETAGGA"> F  </i>
   </separator>
   <separator name="electronic convergence" >
    <i type="int" name="NELM">    40</i>
    <i type="int" name="NELMDL">     0</i>
    <i type="int" name="NELMIN">     8</i>
    <i name="ENINI">    520.00000000</i>
    <separator name="electronic convergence detail" >
     <i type="logical" name="LDIAG"> T  </i>
     <i type="logical" name="LSUBROT"> F  </i>
     <i name="WEIMIN">      0.00100000</i>
     <i name="EBREAK">      0.00000003</i>
     <i name="DEPER">      0.30000000</i>
     <i type="int" name="NRMM">     4</i>
     <i name="TIME">      0.40000000</i>
    </separator>
   </separator>
   <separator name="electronic mixer" >
    <i name="AMIX">      0.40000000</i>
    <i name="BMIX">      1.00000000</i>
    <i name="AMIN">      0.10000000</i>
    <i name="AMIX_MAG">      1.60000000</i>
    <i name="BMIX_MAG">      1.00000000</i>
    <separator name="electronic mixer details" >
     <i type="int" name="IMIX">     4</i>
     <i type="logical" name="MIXFIRST"> F  </i>
     <i type="int" name="MAXMIX">   -45</i>
     <i name="WC">    100.00000000</i>
     <i type="int" name="INIMIX">     1</i>
     <i type="int" name="MIXPRE">     1</i>
     <i type="int" name="MREMOVE">     5</i>
    </separator>
   </separator>
   <separator name="electronic dipolcorrection" >
    <i type="logical" name="LDIPOL"> F  </i>
    <i type="logical" name="LMONO"> F  </i>
    <i type="int" name="IDIPOL">     0</i>
    <i name="EPSILON">      1.00000000</i>
    <v name="DIPOL">   -100.00000000   -100.00000000   -100.00000000</v>
    <i name="EFIELD">      0.00000000</i>
   </separator>
  </separator>
  <separator name="grids" >
   <i type="int" name="NGX">    64</i>
   <i type="int" name="NGY">    64</i>
   <i type="int" name="NGZ">    90</i>
   <i type="int" name="NGXF">   128</i>
   <i type="int" name="NGYF">   128</i>
   <i type="int" name="NGZF">   180</i>
   <i type="logical" name="ADDGRID"> F  </i>
  </separator>
  <separator name="ionic" >
   <i type="int" name="NSW">    30</i>
   <i type="int" name="IBRION">     2</i>
   <i type="int" name="ISIF">     3</i>
   <i name="PSTRESS">      0.00000000</i>
   <i name="EDIFFG">     -0.03000000</i>
   <i type="int" name="NFREE">     1</i>
   <i name="POTIM">      0.50000000</i>
   <i name="SMASS">     -3.00000000</i>
   <i name="SCALEE">      1.00000000</i>
  </separator>
  <separator name="ionic md" >
   <i name="TEBEG">      0.00010000</i>
   <i name="TEEND">      0.00010000</i>
   <i type="int" name="NBLOCK">     1</i>
   <i type="int" name="KBLOCK">    30</i>
   <i type="int" name="NPACO">   256</i>
   <i name="APACO">     16.00000000</i>
  </separator>
  <separator name="symmetry" >
   <i type="int" name="ISYM">     2</i>
   <i name="SYMPREC">      0.00001000</i>
  </separator>
  <separator name="dos" >
   <i type="logical" name="LORBIT"> F  </i>
   <v name="RWIGS">     -1.00000000     -1.00000000     -1.00000000     -1.00000000</v>
   <i type="int" name="NEDOS">   301</i>
   <i name="EMIN">     10.00000000</i>
   <i name="EMAX">    -10.00000000</i>
   <i name="EFERMI">      0.00000000</i>
  </separator>
  <separator name="writing" >
   <i type="int" name="NWRITE">     2</i>
   <i type="logical" name="LWAVE"> T  </i>
   <i type="logical" name="LCHARG"> T  </i>
   <i type="logical" name="LPARD"> F  </i>
   <i type="logical" name="LVTOT"> F  </i>
   <i type="logical" name="LVHAR"> F  </i>
   <i type="logical" name="LELF"> F  </i>
   <i type="logical" name="LOPTICS"> F  </i>
   <v name="STM">      0.00000000      0.00000000      0.00000000      0.00000000      0.00000000      0.00000000      0.00000000</v>
  </separator>
  <separator name="performance" >
   <i type="int" name="NPAR">     2</i>
   <i type="int" name="NSIM">     4</i>
   <i type="int" name="NBLK">    -1</i>
   <i type="logical" name="LPLANE"> T  </i>
   <i type="logical" name="LSCALAPACK"> T  </i>
   <i type="logical" name="LSCAAWARE"> F  </i>
   <i type="logical" name="LSCALU"> F  </i>
   <i type="logical" name="LASYNC"> F  </i>
   <i type="logical" name="LORBITALREAL"> F  </i>
  </separator>
  <separator name="miscellaneous" >
   <i type="int" name="IDIOT">     3</i>
   <i type="logical" name="LMUSIC"> F  </i>
   <v name="POMASS">     87.62000000     47.88000000     55.84700000     16.00000000</v>
   <v name="DARWINR">      0.00000000      0.00000000      0.00000000      0.00000000</v>
   <v name="DARWINV">      1.00000000      1.00000000      1.00000000      1.00000000</v>
   <i type="logical" name="LCORR"> T  </i>
  </separator>
  <i type="logical" name="GGA_COMPAT"> T  </i>
  <i type="logical" name="LBERRY"> F  </i>
  <i type="int" name="ICORELEVEL">     0</i>
  <i type="logical" name="LDAU"> T  </i>
  <v type="int" name="LDAUTYPE">     2</v>
  <v type="int" name="LDAUL">     0</v>
  <v name="LDAUU">      0.00000000</v>
  <v name="LDAUJ">      0.00000000</v>
  <i type="int" name="LDAUPRINT">     1</i>
  <i type="int" name="I_CONSTRAINED_M">     0</i>
  <separator name="electronic exchange-correlation" >
   <i type="string" name="GGA">--</i>
   <i type="int" name="VOSKOWN">     0</i>
   <i type="logical" name="LHFCALC"> F  </i>
   <i type="string" name="PRECFOCK"></i>
   <i type="logical" name="LSYMGRAD"> F  </i>
   <i type="logical" name="LHFONE"> F  </i>
   <i type="logical" name="LRHFCALC"> F  </i>
   <i type="logical" name="LTHOMAS"> F  </i>
   <i type="logical" name="LMODELHF"> F  </i>
   <i name="ENCUT4O">     -1.00000000</i>
   <i type="int" name="EXXOEP">     0</i>
   <i type="int" name="FOURORBIT">     0</i>
   <i name="AEXX">      0.00000000</i>
   <i name="HFALPHA">      0.00000000</i>
   <i name="MCALPHA">      0.00000000</i>
   <i name="ALDAX">      1.00000000</i>
   <i name="AGGAX">      1.00000000</i>
   <i name="ALDAC">      1.00000000</i>
   <i name="AGGAC">      1.00000000</i>
   <i type="int" name="NKREDX">     1</i>
   <i type="int" name="NKREDY">     1</i>
   <i type="int" name="NKREDZ">     1</i>
   <i type="logical" name="SHIFTRED"> F  </i>
   <i type="logical" name="ODDONLY"> F  </i>
   <i type="logical" name="EVENONLY"> F  </i>
   <i type="int" name="LMAXFOCK">     0</i>
   <i type="int" name="NMAXFOCKAE">     0</i>
   <i type="logical" name="LFOCKAEDFT"> F  </i>
   <i name="HFSCREEN">      0.00000000</i>
   <i name="HFSCREENC">      0.00000000</i>
   <i type="int" name="NBANDSGWLOW">     0</i>
  </separator>
  <separator name="vdW DFT" >
   <i type="logical" name="LUSE_VDW"> F  </i>
   <i name="Zab_VDW">     -0.84910000</i>
   <i name="PARAM1">      0.12340000</i>
   <i name="PARAM2">      1.00000000</i>
   <i name="PARAM3">      0.00000000</i>
  </separator>
  <separator name="model GW" >
   <i type="int" name="MODEL_GW">     0</i>
   <i name="MODEL_EPS0">      8.07253850</i>
   <i name="MODEL_ALPHA">      1.00000000</i>
  </separator>
  <separator name="linear response parameters" >
   <i type="logical" name="LEPSILON"> F  </i>
   <i type="logical" name="LRPA"> F  </i>
   <i type="logical" name="LNABLA"> F  </i>
   <i type="logical" name="LVEL"> F  </i>
   <i type="int" name="KINTER">     0</i>
   <i name="CSHIFT">      0.10000000</i>
   <i name="OMEGAMAX">     -1.00000000</i>
   <i name="DEG_THRESHOLD">      0.00200000</i>
  </separator>
  <separator name="orbital magnetization" >
   <i type="logical" name="NUCIND"> F  </i>
   <v name="MAGPOS">      0.00000000      0.00000000      0.00000000</v>
   <i type="logical" name="LNICSALL"> T  </i>
   <i type="logical" name="ORBITALMAG"> F  </i>
   <i type="logical" name="LMAGBLOCH"> F  </i>
   <i type="logical" name="LCHIMAG"> F  </i>
   <i type="logical" name="LGAUGE"> T  </i>
   <i type="int" name="MAGATOM">     0</i>
   <v name="MAGDIPOL">      0.00000000      0.00000000      0.00000000</v>
   <v name="AVECCONST">      0.00000000      0.00000000      0.00000000</v>
  </separator>
  <separator name="response functions" >
   <i type="logical" name="LADDER"> F  </i>
   <i type="logical" name="LFXC"> F  </i>
   <i type="logical" name="LHARTREE"> T  </i>
   <i type="int" name="IBSE">     0</i>
   <v type="int" name="KPOINT">    -1     0     0     0</v>
   <i type="logical" name="LTCTE"> F  </i>
   <i type="logical" name="LTETE"> F  </i>
   <i type="logical" name="LTRIPLET"> F  </i>
   <i type="logical" name="LFXCEPS"> F  </i>
   <i type="logical" name="LFXHEG"> F  </i>
   <i type="int" name="NATURALO">     0</i>
   <i type="logical" name="L2ORDER"> F  </i>
   <i type="logical" name="LUSEW"> F  </i>
   <i name="ENCUTGW">     -2.00000000</i>
   <i name="ENCUTGWSOFT">     -2.00000000</i>
   <i name="ENCUTLF">     -1.00000000</i>
   <i type="int" name="LMAXMP2">    -1</i>
   <i name="SCISSOR">      0.00000000</i>
   <i type="int" name="NOMEGA">     0</i>
   <i type="int" name="NOMEGAR">     0</i>
   <i type="int" name="NBANDSGW">    -1</i>
   <i type="int" name="NBANDSO">    -1</i>
   <i type="int" name="NBANDSV">    -1</i>
   <i type="int" name="NELM">    40</i>
   <i type="int" name="NELMHF">     1</i>
   <i type="int" name="DIM">     3</i>
   <i type="int" name="ANTIRES">     0</i>
   <i name="OMEGAMAX">    -30.00000000</i>
   <i name="OMEGAMIN">    -30.00000000</i>
   <i name="OMEGATL">   -200.00000000</i>
   <i type="int" name="OMEGAGRID">     0</i>
   <i name="CSHIFT">     -0.10000000</i>
   <i type="logical" name="SELFENERGY"> F  </i>
   <i type="logical" name="LSPECTRAL"> F  </i>
   <i type="logical" name="LSPECTRALGW"> F  </i>
   <i type="logical" name="LSINGLES"> F  </i>
   <i type="logical" name="LFERMIGW"> F  </i>
   <i type="logical" name="ODDONLYGW"> F  </i>
   <i type="logical" name="EVENONLYGW"> F  </i>
   <i type="int" name="NKREDLFX">     1</i>
   <i type="int" name="NKREDLFY">     1</i>
   <i type="int" name="NKREDLFZ">     1</i>
   <i type="int" name="MAXMEM">  1800</i>
   <i type="int" name="TELESCOPE">     0</i>
   <i type="int" name="TAUPAR">     1</i>
   <i type="int" name="OMEGAPAR">    -1</i>
   <i name="LAMBDA">      1.00000000</i>
  </separator>
  <separator name="External order field" >
   <i name="OFIELD_KAPPA">      0.00000000</i>
   <v name="OFIELD_K">      0.00000000      0.00000000      0.00000000</v>
   <i name="OFIELD_Q6_NEAR">      0.00000000</i>
   <i name="OFIELD_Q6_FAR">      0.00000000</i>
   <i name="OFIELD_A">      0.00000000</i>
  </separator>
 </parameters>
 <atominfo>
  <atoms>     148 </atoms>
  <types>       4 </types>
  <array name="atoms" >
   <dimension dim="1">ion</dimension>
   <field type="string">element</field>
   <field type="int">atomtype</field>
   <set>
    <rc><c>Sr</c><c>   1</c></rc>
    <rc><c>Sr</c><c>   1</c></rc>
    <rc><c>Sr</c><c>   1</c></rc>
    <rc><c>Sr</c><c>   1</c></rc>
    <rc><c>Sr</c><c>   1</c></rc>
    <rc><c>Sr</c><c>   1</c></rc>
    <rc><c>Sr</c><c>   1</c></rc>
    <rc><c>Sr</c><c>   1</c></rc>
    <rc><c>Sr</c><c>   1</c></rc>
    <rc><c>Sr</c><c>   1</c></rc>
    <rc><c>Sr</c><c>   1</c></rc>
    <rc><c>Sr</c><c>   1</c></rc>
    <rc><c>Sr</c><c>   1</c></rc>
    <rc><c>Sr</c><c>   1</c></rc>
    <rc><c>Sr</c><c>   1</c></rc>
    <rc><c>Sr</c><c>   1</c></rc>
    <rc><c>Sr</c><c>   1</c></rc>
    <rc><c>Sr</c><c>   1</c></rc>
    <rc><c>Sr</c><c>   1</c></rc>
    <rc><c>Sr</c><c>   1</c></rc>
    <rc><c>Sr</c><c>   1</c></rc>
    <rc><c>Sr</c><c>   1</c></rc>
    <rc><c>Sr</c><c>   1</c></rc>
    <rc><c>Sr</c><c>   1</c></rc>
    <rc><c>Sr</c><c>   1</c></rc>
    <rc><c>Sr</c><c>   1</c></rc>
    <rc><c>Sr</c><c>   1</c></rc>
    <rc><c>Sr</c><c>   1</c></rc>
    <rc><c>Sr</c><c>   1</c></rc>
    <rc><c>Sr</c><c>   1</c></rc>
    <rc><c>Sr</c><c>   1</c></rc>
    <rc><c>Sr</c><c>   1</c></rc>
    <rc><c>Ti</c><c>   2</c></rc>
    <rc><c>Ti</c><c>   2</c></rc>
    <rc><c>Ti</c><c>   2</c></rc>
    <rc><c>Ti</c><c>   2</c></rc>
    <rc><c>Ti</c><c>   2</c></rc>
    <rc><c>Ti</c><c>   2</c></rc>
    <rc><c>Ti</c><c>   2</c></rc>
    <rc><c>Ti</c><c>   2</c></rc>
    <rc><c>Fe</c><c>   3</c></rc>
    <rc><c>Fe</c><c>   3</c></rc>
    <rc><c>Fe</c><c>   3</c></rc>
    <rc><c>Fe</c><c>   3</c></rc>
    <rc><c>Fe</c><c>   3</c></rc>
    <rc><c>Fe</c><c>   3</c></rc>
    <rc><c>Fe</c><c>   3</c></rc>
    <rc><c>Fe</c><c>   3</c></rc>
    <rc><c>Fe</c><c>   3</c></rc>
    <rc><c>Fe</c><c>   3</c></rc>
    <rc><c>Fe</c><c>   3</c></rc>
    <rc><c>Fe</c><c>   3</c></rc>
    <rc><c>Fe</c><c>   3</c></rc>
    <rc><c>Fe</c><c>   3</c></rc>
    <rc><c>Fe</c><c>   3</c></rc>
    <rc><c>Fe</c><c>   3</c></rc>
    <rc><c>Fe</c><c>   3</c></rc>
    <rc><c>Fe</c><c>   3</c></rc>
    <rc><c>Fe</c><c>   3</c></rc>
    <rc><c>Fe</c><c>   3</c></rc>
    <rc><c>Fe</c><c>   3</c></rc>
    <rc><c>Fe</c><c>   3</c></rc>
    <rc><c>Fe</c><c>   3</c></rc>
    <rc><c>Fe</c><c>   3</c></rc>
    <rc><c>O </c><c>   4</c></rc>
    <rc><c>O </c><c>   4</c></rc>
    <rc><c>O </c><c>   4</c></rc>
    <rc><c>O </c><c>   4</c></rc>
    <rc><c>O </c><c>   4</c></rc>
    <rc><c>O </c><c>   4</c></rc>
    <rc><c>O </c><c>   4</c></rc>
    <rc><c>O </c><c>   4</c></rc>
    <rc><c>O </c><c>   4</c></rc>
    <rc><c>O </c><c>   4</c></rc>
    <rc><c>O </c><c>   4</c></rc>
    <rc><c>O </c><c>   4</c></rc>
    <rc><c>O </c><c>   4</c></rc>
    <rc><c>O </c><c>   4</c></rc>
    <rc><c>O </c><c>   4</c></rc>
    <rc><c>O </c><c>   4</c></rc>
    <rc><c>O </c><c>   4</c></rc>
    <rc><c>O </c><c>   4</c></rc>
    <rc><c>O </c><c>   4</c></rc>
    <rc><c>O </c><c>   4</c></rc>
    <rc><c>O </c><c>   4</c></rc>
    <rc><c>O </c><c>   4</c></rc>
    <rc><c>O </c><c>   4</c></rc>
    <rc><c>O </c><c>   4</c></rc>
    <rc><c>O </c><c>   4</c></rc>
    <rc><c>O </c><c>   4</c></rc>
    <rc><c>O </c><c>   4</c></rc>
    <rc><c>O </c><c>   4</c></rc>
    <rc><c>O </c><c>   4</c></rc>
    <rc><c>O </c><c>   4</c></rc>
    <rc><c>O </c><c>   4</c></rc>
    <rc><c>O </c><c>   4</c></rc>
    <rc><c>O </c><c>   4</c></rc>
    <rc><c>O </c><c>   4</c></rc>
    <rc><c>O </c><c>   4</c></rc>
    <rc><c>O </c><c>   4</c></rc>
    <rc><c>O </c><c>   4</c></rc>
    <rc><c>O </c><c>   4</c></rc>
    <rc><c>O </c><c>   4</c></rc>
    <rc><c>O </c><c>   4</c></rc>
    <rc><c>O </c><c>   4</c></rc>
    <rc><c>O </c><c>   4</c></rc>
    <rc><c>O </c><c>   4</c></rc>
    <rc><c>O </c><c>   4</c></rc>
    <rc><c>O </c><c>   4</c></rc>
    <rc><c>O </c><c>   4</c></rc>
    <rc><c>O </c><c>   4</c></rc>
    <rc><c>O </c><c>   4</c></rc>
    <rc><c>O </c><c>   4</c></rc>
    <rc><c>O </c><c>   4</c></rc>
    <rc><c>O </c><c>   4</c></rc>
    <rc><c>O </c><c>   4</c></rc>
    <rc><c>O </c><c>   4</c></rc>
    <rc><c>O </c><c>   4</c></rc>
    <rc><c>O </c><c>   4</c></rc>
    <rc><c>O </c><c>   4</c></rc>
    <rc><c>O </c><c>   4</c></rc>
    <rc><c>O </c><c>   4</c></rc>
    <rc><c>O </c><c>   4</c></rc>
    <rc><c>O </c><c>   4</c></rc>
    <rc><c>O </c><c>   4</c></rc>
    <rc><c>O </c><c>   4</c></rc>
    <rc><c>O </c><c>   4</c></rc>
    <rc><c>O </c><c>   4</c></rc>
    <rc><c>O </c><c>   4</c></rc>
    <rc><c>O </c><c>   4</c></rc>
    <rc><c>O </c><c>   4</c></rc>
    <rc><c>O </c><c>   4</c></rc>
    <rc><c>O </c><c>   4</c></rc>
    <rc><c>O </c><c>   4</c></rc>
    <rc><c>O </c><c>   4</c></rc>
    <rc><c>O </c><c>   4</c></rc>
    <rc><c>O </c><c>   4</c></rc>
    <rc><c>O </c><c>   4</c></rc>
    <rc><c>O </c><c>   4</c></rc>
    <rc><c>O </c><c>   4</c></rc>
    <rc><c>O </c><c>   4</c></rc>
    <rc><c>O </c><c>   4</c></rc>
    <rc><c>O </c><c>   4</c></rc>
    <rc><c>O </c><c>   4</c></rc>
    <rc><c>O </c><c>   4</c></rc>
    <rc><c>O </c><c>   4</c></rc>
    <rc><c>O </c><c>   4</c></rc>
    <rc><c>O </c><c>   4</c></rc>
   </set>
  </array>
  <array name="atomtypes" >
   <dimension dim="1">type</dimension>
   <field type="int">atomspertype</field>
   <field type="string">element</field>
   <field>mass</field>
   <field>valence</field>
   <field type="string">pseudopotential</field>
   <set>
    <rc><c>  32</c><c>Sr</c><c>     87.62000000</c><c>     10.00000000</c><c>  PAW_PBE Sr_sv 07Sep2000               </c></rc>
    <rc><c>   8</c><c>Ti</c><c>     47.88000000</c><c>      4.00000000</c><c>  PAW_PBE Ti 08Apr2002                  </c></rc>
    <rc><c>  24</c><c>Fe</c><c>     55.84700000</c><c>      8.00000000</c><c>  PAW_PBE Fe 06Sep2000                  </c></rc>
    <rc><c>  84</c><c>O </c><c>     16.00000000</c><c>      6.00000000</c><c>  PAW_PBE O 08Apr2002                   </c></rc>
   </set>
  </array>
 </atominfo>
 <structure name="initialpos" >
  <crystal>
   <varray name="basis" >
    <v>      11.17729202       0.04217389       0.00814446 </v>
    <v>       0.04214399      11.19047510      -0.00508783 </v>
    <v>       0.01189669      -0.00738023      15.91995983 </v>
   </varray>
   <i name="volume">   1991.22616243 </i>
   <varray name="rec_basis" >
    <v>       0.08946843      -0.00033697      -0.00006701 </v>
    <v>      -0.00033721       0.08936300       0.00004168 </v>
    <v>      -0.00004588       0.00002873       0.06281428 </v>
   </varray>
  </crystal>
  <varray name="positions" >
   <v>       0.99301752       0.24410538       0.12425171 </v>
   <v>       0.00177575       0.23946692       0.62450754 </v>
   <v>       0.99801950       0.75604674       0.12644424 </v>
   <v>       0.99322969       0.74967013       0.62511036 </v>
   <v>       0.51169276       0.25991401       0.12549827 </v>
   <v>       0.50213643       0.24878097       0.62474826 </v>
   <v>       0.51135266       0.73827502       0.12316409 </v>
   <v>       0.50065783       0.75499334       0.62814830 </v>
   <v>       0.00261160       0.24102745       0.37494293 </v>
   <v>       0.99598309       0.24170192       0.87430572 </v>
   <v>       0.98953977       0.75738858       0.36739436 </v>
   <v>       0.99318689       0.74997142       0.87725884 </v>
   <v>       0.50114155       0.25027932       0.38125251 </v>
   <v>       0.51062704       0.24971596       0.87095526 </v>
   <v>       0.49966995       0.75446492       0.38108972 </v>
   <v>       0.50172394       0.75830023       0.86977838 </v>
   <v>       0.22689961       0.01982879       0.12336022 </v>
   <v>       0.25576023       0.01160061       0.62906052 </v>
   <v>       0.24951124       0.49450108       0.13003239 </v>
   <v>       0.25920116       0.49633200       0.62501313 </v>
   <v>       0.76056759       0.00732897       0.12587266 </v>
   <v>       0.74501876       0.00283824       0.62341420 </v>
   <v>       0.75839377       0.49415575       0.12162246 </v>
   <v>       0.74919104       0.49436350       0.62305625 </v>
   <v>       0.24753210       0.00712560       0.37771562 </v>
   <v>       0.24535217       0.00721928       0.87018987 </v>
   <v>       0.25045614       0.49214841       0.38020147 </v>
   <v>       0.25332014       0.49589721       0.87116539 </v>
   <v>       0.75996235       0.00411794       0.37843403 </v>
   <v>       0.75264301       0.00681408       0.87147380 </v>
   <v>       0.74205512       0.49605572       0.37284354 </v>
   <v>       0.75566470       0.49512064       0.87614648 </v>
   <v>       0.25528514       0.25702240       0.75249255 </v>
   <v>       0.99864179       0.00157638       0.99976874 </v>
   <v>       0.49511762       0.00307560       0.50470719 </v>
   <v>       0.74434160       0.75040327       0.99879019 </v>
   <v>       0.50422977       0.49955327       0.49736414 </v>
   <v>       0.74907510       0.24781301       0.74965704 </v>
   <v>       0.24656278       0.24930992       0.25049905 </v>
   <v>       0.75539074       0.25457470       0.25265820 </v>
   <v>       0.51596579       0.01383617       0.98997918 </v>
   <v>       0.01362745       0.49123259       0.51404273 </v>
   <v>       0.73934410       0.73725934       0.75104229 </v>
   <v>       0.23703684       0.73579750       0.26674115 </v>
   <v>       0.75833064       0.75456961       0.24828946 </v>
   <v>       0.23435583       0.73416933       0.98452371 </v>
   <v>       0.25688959       0.74325847       0.50320278 </v>
   <v>       0.75503356       0.25458189       0.99822287 </v>
   <v>       0.74628392       0.24915925       0.49851071 </v>
   <v>       0.49992550       0.49984578       0.73969957 </v>
   <v>       0.99320849       0.00724298       0.50013233 </v>
   <v>       0.50269082       0.00196842       0.74842502 </v>
   <v>       0.99488891       0.49035817       0.75472305 </v>
   <v>       0.25339871       0.24777556       0.50072987 </v>
   <v>       0.73749181       0.75687417       0.50077907 </v>
   <v>       0.50984387       0.01309483       0.26054711 </v>
   <v>       0.99149399       0.50813748       0.99786652 </v>
   <v>       0.25332639       0.75748556       0.74463430 </v>
   <v>       0.00234421       0.00110963       0.24989559 </v>
   <v>       0.99796148       0.49343677       0.23834328 </v>
   <v>       0.50329936       0.50535563       0.01106226 </v>
   <v>       0.00975832       0.00423070       0.74677545 </v>
   <v>       0.49200005       0.49135037       0.25094983 </v>
   <v>       0.26448303       0.23906600       0.00085020 </v>
   <v>       0.12240595       0.12933430       0.24914819 </v>
   <v>       0.13238666       0.38026058       0.26731365 </v>
   <v>       0.11594370       0.62123528       0.25634647 </v>
   <v>       0.63591377       0.10904970       0.49930368 </v>
   <v>       0.62228221       0.13204923       0.23874642 </v>
   <v>       0.62289828       0.38320058       0.98705473 </v>
   <v>       0.61191826       0.62726879       0.76722119 </v>
   <v>       0.76040322       0.26381517       0.12639247 </v>
   <v>       0.39094984       0.37058000       0.76580180 </v>
   <v>       0.75073078       0.23869827       0.87339569 </v>
   <v>       0.37441483       0.87248018       0.74490436 </v>
   <v>       0.88795060       0.36713528       0.26650067 </v>
   <v>       0.73259935       0.74229511       0.36895878 </v>
   <v>       0.61650610       0.13585087       0.74854594 </v>
   <v>       0.37192002       0.10097272       0.22751210 </v>
   <v>       0.36739764       0.12345941       0.75668141 </v>
   <v>       0.38031036       0.64947783       0.23938604 </v>
   <v>       0.35989610       0.61252341       0.75089088 </v>
   <v>       0.86392468       0.10193141       0.74614833 </v>
   <v>       0.86422238       0.60984695       0.25520704 </v>
   <v>       0.88845083       0.63741082       0.76107351 </v>
   <v>       0.14426816       0.39751130       0.74836247 </v>
   <v>       0.15748953       0.87000175       0.22510187 </v>
   <v>       0.09910128       0.85280344       0.74974779 </v>
   <v>       0.02930062       0.50829697       0.87760287 </v>
   <v>       0.63527930       0.38542943       0.75910309 </v>
   <v>       0.59183267       0.86744487       0.23695633 </v>
   <v>       0.64456999       0.88381927       0.74340226 </v>
   <v>       0.36772830       0.39307900       0.99709007 </v>
   <v>       0.36899698       0.38862141       0.49354848 </v>
   <v>       0.38365839       0.66113345       0.00565159 </v>
   <v>       0.35095288       0.88970061       0.51158835 </v>
   <v>       0.89307409       0.36705312       0.98833577 </v>
   <v>       0.86702523       0.42011559       0.48882599 </v>
   <v>       0.87630679       0.86828188       0.01235195 </v>
   <v>       0.11754139       0.13380282       0.99726552 </v>
   <v>       0.13953145       0.10474794       0.50490339 </v>
   <v>       0.13044637       0.61494034       0.02220641 </v>
   <v>       0.62401344       0.13185030       0.01392822 </v>
   <v>       0.61987201       0.62800353       0.97719288 </v>
   <v>       0.64412498       0.60968210       0.50124675 </v>
   <v>       0.88801693       0.36141395       0.75452771 </v>
   <v>       0.99656517       0.98286049       0.62246266 </v>
   <v>       0.14998557       0.87842103       0.00921930 </v>
   <v>       0.12117411       0.13223940       0.74972465 </v>
   <v>       0.50305687       0.51902566       0.36958811 </v>
   <v>       0.61347857       0.36432901       0.49608596 </v>
   <v>       0.60626144       0.87581898       0.01844201 </v>
   <v>       0.60679512       0.86318571       0.50469929 </v>
   <v>       0.37159584       0.10104884       0.01412614 </v>
   <v>       0.87063213       0.11858242       0.25449248 </v>
   <v>       0.09488472       0.63205959       0.47728810 </v>
   <v>       0.38495618       0.63443449       0.50160563 </v>
   <v>       0.87134692       0.11669750       0.99960472 </v>
   <v>       0.88556865       0.13799888       0.49559869 </v>
   <v>       0.86794556       0.62403678       0.99759701 </v>
   <v>       0.11957830       0.36576865       0.48755266 </v>
   <v>       0.99992700       0.00397228       0.12420963 </v>
   <v>       0.88137838       0.85755908       0.49244418 </v>
   <v>       0.00504548       0.47314201       0.12081836 </v>
   <v>       0.00734850       0.51687589       0.63096079 </v>
   <v>       0.38090737       0.36737792       0.24482840 </v>
   <v>       0.49919551       0.00584694       0.62603113 </v>
   <v>       0.52062203       0.51396342       0.12945931 </v>
   <v>       0.50325480       0.49668704       0.62225216 </v>
   <v>       0.01720631       0.98199475       0.37540292 </v>
   <v>       0.99458808       0.98622294       0.87526899 </v>
   <v>       0.87920311       0.87015063       0.24442280 </v>
   <v>       0.48662769       0.99473834       0.37647515 </v>
   <v>       0.49536646       0.98908340       0.87578988 </v>
   <v>       0.63710213       0.39293895       0.25051695 </v>
   <v>       0.73400844       0.72408630       0.12761454 </v>
   <v>       0.26661109       0.23615804       0.37034996 </v>
   <v>       0.24039814       0.25626288       0.88104015 </v>
   <v>       0.24817092       0.77441188       0.38117076 </v>
   <v>       0.23072965       0.73528333       0.86768357 </v>
   <v>       0.74050507       0.24468736       0.37407216 </v>
   <v>       0.75619596       0.77747992       0.87698353 </v>
   <v>       0.23206619       0.26812061       0.12019335 </v>
   <v>       0.25688899       0.25913145       0.62831108 </v>
   <v>       0.38991875       0.13953221       0.50377396 </v>
   <v>       0.22111263       0.73214797       0.62233677 </v>
   <v>       0.75502487       0.25864108       0.62427349 </v>
   <v>       0.76269266       0.73631211       0.62539754 </v>
  </varray>
 </structure>
 <calculation>
  <scstep>
   <time name="dav">  306.70  306.71</time>
   <time name="total">  310.42  310.46</time>
   <energy>
    <i name="alphaZ">   5643.46596403 </i>
    <i name="ewald"> -63463.30351514 </i>
    <i name="hartreedc"> -18286.21833248 </i>
    <i name="XCdc">   3408.66777895 </i>
    <i name="pawpsdc"> 115942.25221298 </i>
    <i name="pawaedc">-115450.66424164 </i>
    <i name="eentropy">     -0.00000000 </i>
    <i name="bandstr">  -7103.43497449 </i>
    <i name="atom">  78316.90445604 </i>
    <i name="e_fr_energy">   -992.33065173 </i>
    <i name="e_wo_entrp">   -992.33065173 </i>
    <i name="e_0_energy">   -992.33065173 </i>
   </energy>
  </scstep>
  <scstep>
   <time name="diag">   33.06   33.07</time>
   <time name="diis">   30.17   30.17</time>
   <time name="orth">   18.77   18.78</time>
   <time name="total">   85.75   85.82</time>
   <energy>
    <i name="e_fr_energy">   -992.33064955 </i>
    <i name="e_wo_entrp">   -992.33064955 </i>
    <i name="e_0_energy">   -992.33064955 </i>
   </energy>
  </scstep>
  <scstep>
   <time name="diag">   33.04   33.05</time>
   <time name="diis">   28.55   28.56</time>
   <time name="orth">   18.78   18.78</time>
   <time name="total">   84.10   84.19</time>
   <energy>
    <i name="e_fr_energy">   -992.33064967 </i>
    <i name="e_wo_entrp">   -992.33064967 </i>
    <i name="e_0_energy">   -992.33064967 </i>
   </energy>
  </scstep>
  <scstep>
   <time name="diag">   33.04   33.06</time>
   <time name="diis">   23.21   23.22</time>
   <time name="orth">   18.75   18.75</time>
   <time name="total">   78.71   78.78</time>
   <energy>
    <i name="e_fr_energy">   -992.33064941 </i>
    <i name="e_wo_entrp">   -992.33064941 </i>
    <i name="e_0_energy">   -992.33064941 </i>
   </energy>
  </scstep>
  <scstep>
   <time name="diag">   32.97   33.00</time>
   <time name="diis">   23.41   23.43</time>
   <time name="orth">   18.79   18.79</time>
   <time name="total">   78.89   78.97</time>
   <energy>
    <i name="e_fr_energy">   -992.33064934 </i>
    <i name="e_wo_entrp">   -992.33064934 </i>
    <i name="e_0_energy">   -992.33064934 </i>
   </energy>
  </scstep>
  <scstep>
   <time name="diag">   33.01   33.03</time>
   <time name="diis">   22.60   22.60</time>
   <time name="orth">   18.79   18.79</time>
   <time name="total">   78.12   78.20</time>
   <energy>
    <i name="e_fr_energy">   -992.33064930 </i>
    <i name="e_wo_entrp">   -992.33064930 </i>
    <i name="e_0_energy">   -992.33064930 </i>
   </energy>
  </scstep>
  <scstep>
   <time name="diag">   33.08   33.08</time>
   <time name="diis">   21.91   21.94</time>
   <time name="orth">   18.74   18.75</time>
   <time name="total">   77.54   77.66</time>
   <energy>
    <i name="e_fr_energy">   -992.33064927 </i>
    <i name="e_wo_entrp">   -992.33064927 </i>
    <i name="e_0_energy">   -992.33064927 </i>
   </energy>
  </scstep>
  <scstep>
   <time name="diag">   33.09   33.11</time>
   <time name="diis">   21.60   21.63</time>
   <time name="orth">   18.74   18.76</time>
   <time name="total">   74.01   74.12</time>
   <energy>
    <i name="alphaZ">   5643.46596403 </i>
    <i name="ewald"> -63463.30351514 </i>
    <i name="hartreedc"> -18286.24233450 </i>
    <i name="XCdc">   3408.66661767 </i>
    <i name="pawpsdc"> 115942.12317587 </i>
    <i name="pawaedc">-115450.54866885 </i>
    <i name="eentropy">     -0.00000000 </i>
    <i name="bandstr">  -7103.39634439 </i>
    <i name="atom">  78316.90445604 </i>
    <i name="e_fr_energy">   -992.33064926 </i>
    <i name="e_wo_entrp">   -992.33064926 </i>
    <i name="e_0_energy">   -992.33064926 </i>
   </energy>
  </scstep>
  <structure>
   <crystal>
    <varray name="basis" >
     <v>      11.17729202       0.04217389       0.00814446 </v>
     <v>       0.04214399      11.19047510      -0.00508783 </v>
     <v>       0.01189669      -0.00738023      15.91995983 </v>
    </varray>
    <i name="volume">   1991.22616243 </i>
    <varray name="rec_basis" >
     <v>       0.08946843      -0.00033697      -0.00006701 </v>
     <v>      -0.00033721       0.08936300       0.00004168 </v>
     <v>      -0.00004588       0.00002873       0.06281428 </v>
    </varray>
   </crystal>
   <varray name="positions" >
    <v>       0.99301752       0.24410538       0.12425171 </v>
    <v>       0.00177575       0.23946692       0.62450754 </v>
    <v>       0.99801950       0.75604674       0.12644424 </v>
    <v>       0.99322969       0.74967013       0.62511036 </v>
    <v>       0.51169276       0.25991401       0.12549827 </v>
    <v>       0.50213643       0.24878097       0.62474826 </v>
    <v>       0.51135266       0.73827502       0.12316409 </v>
    <v>       0.50065783       0.75499334       0.62814830 </v>
    <v>       0.00261160       0.24102745       0.37494293 </v>
    <v>       0.99598309       0.24170192       0.87430572 </v>
    <v>       0.98953977       0.75738858       0.36739436 </v>
    <v>       0.99318689       0.74997142       0.87725884 </v>
    <v>       0.50114155       0.25027932       0.38125251 </v>
    <v>       0.51062704       0.24971596       0.87095526 </v>
    <v>       0.49966995       0.75446492       0.38108972 </v>
    <v>       0.50172394       0.75830023       0.86977838 </v>
    <v>       0.22689961       0.01982879       0.12336022 </v>
    <v>       0.25576023       0.01160061       0.62906052 </v>
    <v>       0.24951124       0.49450108       0.13003239 </v>
    <v>       0.25920116       0.49633200       0.62501313 </v>
    <v>       0.76056759       0.00732897       0.12587266 </v>
    <v>       0.74501876       0.00283824       0.62341420 </v>
    <v>       0.75839377       0.49415575       0.12162246 </v>
    <v>       0.74919104       0.49436350       0.62305625 </v>
    <v>       0.24753210       0.00712560       0.37771562 </v>
    <v>       0.24535217       0.00721928       0.87018987 </v>
    <v>       0.25045614       0.49214841       0.38020147 </v>
    <v>       0.25332014       0.49589721       0.87116539 </v>
    <v>       0.75996235       0.00411794       0.37843403 </v>
    <v>       0.75264301       0.00681408       0.87147380 </v>
    <v>       0.74205512       0.49605572       0.37284354 </v>
    <v>       0.75566470       0.49512064       0.87614648 </v>
    <v>       0.25528514       0.25702240       0.75249255 </v>
    <v>       0.99864179       0.00157638       0.99976874 </v>
    <v>       0.49511762       0.00307560       0.50470719 </v>
    <v>       0.74434160       0.75040327       0.99879019 </v>
    <v>       0.50422977       0.49955327       0.49736414 </v>
    <v>       0.74907510       0.24781301       0.74965704 </v>
    <v>       0.24656278       0.24930992       0.25049905 </v>
    <v>       0.75539074       0.25457470       0.25265820 </v>
    <v>       0.51596579       0.01383617       0.98997918 </v>
    <v>       0.01362745       0.49123259       0.51404273 </v>
    <v>       0.73934410       0.73725934       0.75104229 </v>
    <v>       0.23703684       0.73579750       0.26674115 </v>
    <v>       0.75833064       0.75456961       0.24828946 </v>
    <v>       0.23435583       0.73416933       0.98452371 </v>
    <v>       0.25688959       0.74325847       0.50320278 </v>
    <v>       0.75503356       0.25458189       0.99822287 </v>
    <v>       0.74628392       0.24915925       0.49851071 </v>
    <v>       0.49992550       0.49984578       0.73969957 </v>
    <v>       0.99320849       0.00724298       0.50013233 </v>
    <v>       0.50269082       0.00196842       0.74842502 </v>
    <v>       0.99488891       0.49035817       0.75472305 </v>
    <v>       0.25339871       0.24777556       0.50072987 </v>
    <v>       0.73749181       0.75687417       0.50077907 </v>
    <v>       0.50984387       0.01309483       0.26054711 </v>
    <v>       0.99149399       0.50813748       0.99786652 </v>
    <v>       0.25332639       0.75748556       0.74463430 </v>
    <v>       0.00234421       0.00110963       0.24989559 </v>
    <v>       0.99796148       0.49343677       0.23834328 </v>
    <v>       0.50329936       0.50535563       0.01106226 </v>
    <v>       0.00975832       0.00423070       0.74677545 </v>
    <v>       0.49200005       0.49135037       0.25094983 </v>
    <v>       0.26448303       0.23906600       0.00085020 </v>
    <v>       0.12240595       0.12933430       0.24914819 </v>
    <v>       0.13238666       0.38026058       0.26731365 </v>
    <v>       0.11594370       0.62123528       0.25634647 </v>
    <v>       0.63591377       0.10904970       0.49930368 </v>
    <v>       0.62228221       0.13204923       0.23874642 </v>
    <v>       0.62289828       0.38320058       0.98705473 </v>
    <v>       0.61191826       0.62726879       0.76722119 </v>
    <v>       0.76040322       0.26381517       0.12639247 </v>
    <v>       0.39094984       0.37058000       0.76580180 </v>
    <v>       0.75073078       0.23869827       0.87339569 </v>
    <v>       0.37441483       0.87248018       0.74490436 </v>
    <v>       0.88795060       0.36713528       0.26650067 </v>
    <v>       0.73259935       0.74229511       0.36895878 </v>
    <v>       0.61650610       0.13585087       0.74854594 </v>
    <v>       0.37192002       0.10097272       0.22751210 </v>
    <v>       0.36739764       0.12345941       0.75668141 </v>
    <v>       0.38031036       0.64947783       0.23938604 </v>
    <v>       0.35989610       0.61252341       0.75089088 </v>
    <v>       0.86392468       0.10193141       0.74614833 </v>
    <v>       0.86422238       0.60984695       0.25520704 </v>
    <v>       0.88845083       0.63741082       0.76107351 </v>
    <v>       0.14426816       0.39751130       0.74836247 </v>
    <v>       0.15748953       0.87000175       0.22510187 </v>
    <v>       0.09910128       0.85280344       0.74974779 </v>
    <v>       0.02930062       0.50829697       0.87760287 </v>
    <v>       0.63527930       0.38542943       0.75910309 </v>
    <v>       0.59183267       0.86744487       0.23695633 </v>
    <v>       0.64456999       0.88381927       0.74340226 </v>
    <v>       0.36772830       0.39307900       0.99709007 </v>
    <v>       0.36899698       0.38862141       0.49354848 </v>
    <v>       0.38365839       0.66113345       0.00565159 </v>
    <v>       0.35095288       0.88970061       0.51158835 </v>
    <v>       0.89307409       0.36705312       0.98833577 </v>
    <v>       0.86702523       0.42011559       0.48882599 </v>
    <v>       0.87630679       0.86828188       0.01235195 </v>
    <v>       0.11754139       0.13380282       0.99726552 </v>
    <v>       0.13953145       0.10474794       0.50490339 </v>
    <v>       0.13044637       0.61494034       0.02220641 </v>
    <v>       0.62401344       0.13185030       0.01392822 </v>
    <v>       0.61987201       0.62800353       0.97719288 </v>
    <v>       0.64412498       0.60968210       0.50124675 </v>
    <v>       0.88801693       0.36141395       0.75452771 </v>
    <v>       0.99656517       0.98286049       0.62246266 </v>
    <v>       0.14998557       0.87842103       0.00921930 </v>
    <v>       0.12117411       0.13223940       0.74972465 </v>
    <v>       0.50305687       0.51902566       0.36958811 </v>
    <v>       0.61347857       0.36432901       0.49608596 </v>
    <v>       0.60626144       0.87581898       0.01844201 </v>
    <v>       0.60679512       0.86318571       0.50469929 </v>
    <v>       0.37159584       0.10104884       0.01412614 </v>
    <v>       0.87063213       0.11858242       0.25449248 </v>
    <v>       0.09488472       0.63205959       0.47728810 </v>
    <v>       0.38495618       0.63443449       0.50160563 </v>
    <v>       0.87134692       0.11669750       0.99960472 </v>
    <v>       0.88556865       0.13799888       0.49559869 </v>
    <v>       0.86794556       0.62403678       0.99759701 </v>
    <v>       0.11957830       0.36576865       0.48755266 </v>
    <v>       0.99992700       0.00397228       0.12420963 </v>
    <v>       0.88137838       0.85755908       0.49244418 </v>
    <v>       0.00504548       0.47314201       0.12081836 </v>
    <v>       0.00734850       0.51687589       0.63096079 </v>
    <v>       0.38090737       0.36737792       0.24482840 </v>
    <v>       0.49919551       0.00584694       0.62603113 </v>
    <v>       0.52062203       0.51396342       0.12945931 </v>
    <v>       0.50325480       0.49668704       0.62225216 </v>
    <v>       0.01720631       0.98199475       0.37540292 </v>
    <v>       0.99458808       0.98622294       0.87526899 </v>
    <v>       0.87920311       0.87015063       0.24442280 </v>
    <v>       0.48662769       0.99473834       0.37647515 </v>
    <v>       0.49536646       0.98908340       0.87578988 </v>
    <v>       0.63710213       0.39293895       0.25051695 </v>
    <v>       0.73400844       0.72408630       0.12761454 </v>
    <v>       0.26661109       0.23615804       0.37034996 </v>
    <v>       0.24039814       0.25626288       0.88104015 </v>
    <v>       0.24817092       0.77441188       0.38117076 </v>
    <v>       0.23072965       0.73528333       0.86768357 </v>
    <v>       0.74050507       0.24468736       0.37407216 </v>
    <v>       0.75619596       0.77747992       0.87698353 </v>
    <v>       0.23206619       0.26812061       0.12019335 </v>
    <v>       0.25688899       0.25913145       0.62831108 </v>
    <v>       0.38991875       0.13953221       0.50377396 </v>
    <v>       0.22111263       0.73214797       0.62233677 </v>
    <v>       0.75502487       0.25864108       0.62427349 </v>
    <v>       0.76269266       0.73631211       0.62539754 </v>
   </varray>
  </structure>
  <varray name="forces" >
   <v>      -0.00327350      -0.00375502       0.00317051 </v>
   <v>       0.00046624       0.00354085       0.00386858 </v>
   <v>      -0.01463001      -0.00429018      -0.00122450 </v>
   <v>       0.00752010       0.00551417       0.00006440 </v>
   <v>       0.00186554       0.00408262      -0.01218712 </v>
   <v>      -0.00185464       0.00004928      -0.00750204 </v>
   <v>      -0.00071437      -0.00868778      -0.00691725 </v>
   <v>      -0.00580310       0.00934089      -0.00000378 </v>
   <v>       0.00123270       0.00103302       0.00283300 </v>
   <v>      -0.00230909       0.00066665      -0.00687362 </v>
   <v>       0.00442144      -0.00367616      -0.00526898 </v>
   <v>       0.00166734       0.01320482       0.01280019 </v>
   <v>      -0.00440674       0.00931587       0.00690120 </v>
   <v>       0.00524116      -0.00470912       0.00489493 </v>
   <v>      -0.00334664       0.00252001      -0.00834395 </v>
   <v>       0.00286614       0.01348277      -0.01057627 </v>
   <v>       0.00614800       0.01931612       0.01454799 </v>
   <v>       0.00477328       0.00708687      -0.00546888 </v>
   <v>       0.00601290      -0.00087987       0.00018327 </v>
   <v>       0.00173367      -0.00452165      -0.00545499 </v>
   <v>       0.00985926       0.00245981      -0.01363503 </v>
   <v>      -0.00696859       0.00234601       0.00294821 </v>
   <v>       0.00349711      -0.00630551       0.00349551 </v>
   <v>       0.00507090       0.00056030       0.00485958 </v>
   <v>       0.00538607      -0.00683063       0.00268296 </v>
   <v>       0.00147586       0.00157153       0.00198600 </v>
   <v>       0.00411803      -0.00659302      -0.00857786 </v>
   <v>      -0.00384337      -0.00141973       0.00020625 </v>
   <v>       0.00120216       0.00213113      -0.00461696 </v>
   <v>      -0.00649447       0.00446793      -0.00471568 </v>
   <v>      -0.00592565       0.00447494      -0.01030789 </v>
   <v>      -0.00004778      -0.00192094      -0.00036528 </v>
   <v>       0.00624036       0.00253515      -0.00163845 </v>
   <v>      -0.00678971      -0.00105616       0.01023483 </v>
   <v>      -0.00758719      -0.00672951       0.01922155 </v>
   <v>       0.00412884       0.00837500       0.00058637 </v>
   <v>      -0.00978336       0.00746023       0.01219670 </v>
   <v>      -0.00072452      -0.00900944      -0.00226676 </v>
   <v>      -0.01612673       0.00302968       0.00768059 </v>
   <v>       0.01052892       0.01090639      -0.01859680 </v>
   <v>      -0.00327778      -0.00633446      -0.00428691 </v>
   <v>       0.00584420       0.00439407       0.00636419 </v>
   <v>      -0.00054968      -0.00315666      -0.00201520 </v>
   <v>       0.01026636      -0.01204220       0.01518595 </v>
   <v>       0.00892715       0.01083403       0.00274679 </v>
   <v>      -0.00120925      -0.00354406      -0.01308196 </v>
   <v>       0.01649522      -0.00579924      -0.00409875 </v>
   <v>      -0.01401868      -0.00629094       0.00801108 </v>
   <v>      -0.00483311      -0.00144165       0.00837870 </v>
   <v>      -0.00239320       0.00087862      -0.02355648 </v>
   <v>       0.00001250       0.00744359       0.00396720 </v>
   <v>       0.00401277       0.00343270      -0.00000081 </v>
   <v>      -0.00106352      -0.00690356      -0.00351239 </v>
   <v>       0.01109158       0.00353304      -0.00590411 </v>
   <v>      -0.01479836      -0.00294467       0.00930687 </v>
   <v>       0.00813622      -0.00425155       0.00318081 </v>
   <v>      -0.01534348       0.00542290       0.00814877 </v>
   <v>      -0.00167376       0.00286785      -0.00114652 </v>
   <v>      -0.00378048      -0.00217480      -0.00501473 </v>
   <v>      -0.00485541       0.00218451      -0.00278860 </v>
   <v>      -0.00463645      -0.00870371       0.01138059 </v>
   <v>      -0.00882657       0.00454708       0.00273709 </v>
   <v>       0.00412750       0.00247606      -0.00213528 </v>
   <v>       0.00447208      -0.00392251       0.00109027 </v>
   <v>       0.00590700       0.00618187      -0.00053322 </v>
   <v>       0.00573557      -0.00907508      -0.00219466 </v>
   <v>      -0.00936071      -0.00334697      -0.00629642 </v>
   <v>       0.00909216       0.00338709      -0.00032135 </v>
   <v>       0.00038121      -0.00310876      -0.00114326 </v>
   <v>      -0.00188269       0.00168646      -0.00198754 </v>
   <v>       0.01394118      -0.00146298       0.00879670 </v>
   <v>       0.00213171      -0.00006377       0.00884341 </v>
   <v>      -0.01080682       0.00360493       0.01535717 </v>
   <v>       0.00136597       0.01385784      -0.00228071 </v>
   <v>       0.00424836      -0.00241228      -0.00251333 </v>
   <v>      -0.01154500      -0.00055288       0.00516792 </v>
   <v>      -0.00105364       0.00119924       0.00818264 </v>
   <v>       0.01879052       0.00915480      -0.00329088 </v>
   <v>       0.01201966      -0.00034029      -0.00495519 </v>
   <v>       0.00127928      -0.00326348       0.00176349 </v>
   <v>       0.00240230       0.00917877      -0.00619402 </v>
   <v>      -0.00366617      -0.00666227      -0.01006433 </v>
   <v>       0.00226914      -0.01152963       0.01114696 </v>
   <v>      -0.00524093       0.00675673       0.00793112 </v>
   <v>      -0.01043918      -0.00146119       0.00780168 </v>
   <v>      -0.00271588       0.00875289      -0.00429750 </v>
   <v>      -0.00640145      -0.00589678       0.00276240 </v>
   <v>      -0.00867662      -0.00377536       0.00366742 </v>
   <v>       0.00211063      -0.00175941      -0.00428282 </v>
   <v>      -0.01062337      -0.00159420      -0.00207138 </v>
   <v>      -0.01116166       0.00423855       0.00982521 </v>
   <v>      -0.00585721      -0.00347386      -0.00808260 </v>
   <v>      -0.00530224      -0.00569231      -0.01148777 </v>
   <v>      -0.00337684      -0.00000096      -0.00734584 </v>
   <v>      -0.00604438      -0.00651075       0.00787803 </v>
   <v>      -0.00136036       0.00455524      -0.00746624 </v>
   <v>      -0.00214467      -0.00291909       0.01128852 </v>
   <v>       0.00245509      -0.00358694      -0.00651147 </v>
   <v>       0.02172617      -0.00034003      -0.00630639 </v>
   <v>      -0.00542267      -0.00296264      -0.00164952 </v>
   <v>       0.00032005      -0.01040389       0.00277786 </v>
   <v>      -0.00257924       0.00462876       0.00219411 </v>
   <v>       0.00158708       0.00777082       0.01179070 </v>
   <v>      -0.00708305       0.00329876       0.00459791 </v>
   <v>       0.00814475       0.00541269       0.00440707 </v>
   <v>      -0.00847089      -0.00237507      -0.00098559 </v>
   <v>       0.00110976       0.00017068       0.00161017 </v>
   <v>      -0.01356651       0.00178763      -0.00904126 </v>
   <v>       0.01043372       0.00962652      -0.00223367 </v>
   <v>      -0.00253067       0.01139508      -0.00537227 </v>
   <v>       0.00866506      -0.01301519      -0.00031019 </v>
   <v>       0.00438992       0.01007935       0.00092564 </v>
   <v>       0.00943695      -0.01333921       0.00158369 </v>
   <v>      -0.00128894      -0.00890557      -0.00359021 </v>
   <v>       0.00650729       0.00436184       0.00094060 </v>
   <v>      -0.00217916       0.00146418       0.02160573 </v>
   <v>       0.00069902      -0.00519283       0.00021931 </v>
   <v>       0.00217445       0.00510906       0.00335308 </v>
   <v>      -0.00092542       0.00564671      -0.00140689 </v>
   <v>      -0.00877523      -0.00030798       0.00948237 </v>
   <v>      -0.00637635      -0.00185875       0.01171383 </v>
   <v>      -0.00475811      -0.00909426      -0.00670905 </v>
   <v>      -0.00764363       0.00520644      -0.00499823 </v>
   <v>       0.00793239      -0.00462558      -0.00911097 </v>
   <v>      -0.00117612       0.00202629      -0.00282673 </v>
   <v>      -0.00350302       0.01081428       0.00501302 </v>
   <v>      -0.02332080      -0.00529103      -0.00243217 </v>
   <v>      -0.00024653      -0.00301873      -0.00066101 </v>
   <v>      -0.00307062      -0.00270856      -0.00084355 </v>
   <v>       0.00625653      -0.00405828      -0.00158386 </v>
   <v>       0.00328054      -0.00807110       0.00190991 </v>
   <v>      -0.00541378       0.00260766      -0.00020009 </v>
   <v>       0.01370437      -0.00077684      -0.01754276 </v>
   <v>       0.02701521      -0.00371501      -0.01060426 </v>
   <v>      -0.00232501      -0.00094719       0.00010300 </v>
   <v>       0.00795126      -0.01232993      -0.00654880 </v>
   <v>       0.00018523      -0.00098591      -0.00126887 </v>
   <v>      -0.00235611      -0.00527707      -0.00535623 </v>
   <v>       0.00464328      -0.00022581      -0.00354374 </v>
   <v>      -0.00654284      -0.00976006       0.00565795 </v>
   <v>      -0.00451067      -0.00449876       0.01964064 </v>
   <v>      -0.00364801      -0.00082122      -0.00500762 </v>
   <v>       0.01086368      -0.00190792       0.00086952 </v>
   <v>       0.00825681      -0.00389553       0.00471699 </v>
   <v>       0.00977119      -0.01243747      -0.01010014 </v>
   <v>      -0.00493759       0.01574482       0.00157472 </v>
   <v>      -0.00059678      -0.00309498      -0.00910102 </v>
   <v>       0.00477067       0.00543387       0.00177801 </v>
  </varray>
  <varray name="stress" >
   <v>      -0.05821849      -0.00764491       0.01079690 </v>
   <v>      -0.00764490      -0.01739915      -0.02235933 </v>
   <v>       0.01079743      -0.02235897      -0.17220104 </v>
  </varray>
  <energy>
   <i name="e_fr_energy">   -992.33064926 </i>
   <i name="e_wo_entrp">   -992.33064926 </i>
   <i name="e_0_energy">     -0.00000000 </i>
  </energy>
  <time name="totalsc"> 1039.59 1082.55</time>
  <eigenvalues>
   <array>
    <dimension dim="1">band</dimension>
    <dimension dim="2">kpoint</dimension>
    <dimension dim="3">spin</dimension>
    <field>eigene</field>
    <field>occ</field>
    <set>
     <set comment="spin 1">
      <set comment="kpoint 1">
       <r>  -30.9126    1.0000 </r>
       <r>  -30.8526    1.0000 </r>
       <r>  -30.8312    1.0000 </r>
       <r>  -30.7373    1.0000 </r>
       <r>  -30.7113    1.0000 </r>
       <r>  -30.7089    1.0000 </r>
       <r>  -30.7039    1.0000 </r>
       <r>  -30.6949    1.0000 </r>
       <r>  -30.5857    1.0000 </r>
       <r>  -30.5839    1.0000 </r>
       <r>  -30.5344    1.0000 </r>
       <r>  -30.5332    1.0000 </r>
       <r>  -30.5300    1.0000 </r>
       <r>  -30.5232    1.0000 </r>
       <r>  -30.4772    1.0000 </r>
       <r>  -30.4426    1.0000 </r>
       <r>  -30.4421    1.0000 </r>
       <r>  -30.4303    1.0000 </r>
       <r>  -30.4301    1.0000 </r>
       <r>  -30.4184    1.0000 </r>
       <r>  -30.4073    1.0000 </r>
       <r>  -30.3871    1.0000 </r>
       <r>  -30.3804    1.0000 </r>
       <r>  -30.3425    1.0000 </r>
       <r>  -30.3177    1.0000 </r>
       <r>  -30.2945    1.0000 </r>
       <r>  -30.2820    1.0000 </r>
       <r>  -30.2339    1.0000 </r>
       <r>  -30.2323    1.0000 </r>
       <r>  -30.1660    1.0000 </r>
       <r>  -30.0847    1.0000 </r>
       <r>  -30.0095    1.0000 </r>
       <r>  -15.2968    1.0000 </r>
       <r>  -15.2392    1.0000 </r>
       <r>  -15.1940    1.0000 </r>
       <r>  -15.1786    1.0000 </r>
       <r>  -15.1638    1.0000 </r>
       <r>  -15.1484    1.0000 </r>
       <r>  -15.1472    1.0000 </r>
       <r>  -15.1112    1.0000 </r>
       <r>  -15.0900    1.0000 </r>
       <r>  -15.0745    1.0000 </r>
       <r>  -15.0409    1.0000 </r>
       <r>  -15.0175    1.0000 </r>
       <r>  -15.0120    1.0000 </r>
       <r>  -15.0076    1.0000 </r>
       <r>  -14.9799    1.0000 </r>
       <r>  -14.9730    1.0000 </r>
       <r>  -14.9633    1.0000 </r>
       <r>  -14.9294    1.0000 </r>
       <r>  -14.8947    1.0000 </r>
       <r>  -14.8477    1.0000 </r>
       <r>  -14.8248    1.0000 </r>
       <r>  -14.7976    1.0000 </r>
       <r>  -14.7608    1.0000 </r>
       <r>  -14.7336    1.0000 </r>
       <r>  -14.7167    1.0000 </r>
       <r>  -14.6946    1.0000 </r>
       <r>  -14.6776    1.0000 </r>
       <r>  -14.6701    1.0000 </r>
       <r>  -14.6240    1.0000 </r>
       <r>  -14.6084    1.0000 </r>
       <r>  -14.5974    1.0000 </r>
       <r>  -14.5796    1.0000 </r>
       <r>  -14.5605    1.0000 </r>
       <r>  -14.5355    1.0000 </r>
       <r>  -14.5182    1.0000 </r>
       <r>  -14.5103    1.0000 </r>
       <r>  -14.4910    1.0000 </r>
       <r>  -14.4848    1.0000 </r>
       <r>  -14.4731    1.0000 </r>
       <r>  -14.4576    1.0000 </r>
       <r>  -14.4426    1.0000 </r>
       <r>  -14.4223    1.0000 </r>
       <r>  -14.4041    1.0000 </r>
       <r>  -14.3880    1.0000 </r>
       <r>  -14.3721    1.0000 </r>
       <r>  -14.3547    1.0000 </r>
       <r>  -14.3437    1.0000 </r>
       <r>  -14.3290    1.0000 </r>
       <r>  -14.3096    1.0000 </r>
       <r>  -14.2885    1.0000 </r>
       <r>  -14.2830    1.0000 </r>
       <r>  -14.2765    1.0000 </r>
       <r>  -14.2654    1.0000 </r>
       <r>  -14.2490    1.0000 </r>
       <r>  -14.2404    1.0000 </r>
       <r>  -14.2332    1.0000 </r>
       <r>  -14.2224    1.0000 </r>
       <r>  -14.2125    1.0000 </r>
       <r>  -14.2035    1.0000 </r>
       <r>  -14.1975    1.0000 </r>
       <r>  -14.1851    1.0000 </r>
       <r>  -14.1747    1.0000 </r>
       <r>  -14.1636    1.0000 </r>
       <r>  -14.1535    1.0000 </r>
       <r>  -14.1414    1.0000 </r>
       <r>  -14.1321    1.0000 </r>
       <r>  -14.1135    1.0000 </r>
       <r>  -14.1060    1.0000 </r>
       <r>  -14.1038    1.0000 </r>
       <r>  -14.0803    1.0000 </r>
       <r>  -14.0691    1.0000 </r>
       <r>  -14.0517    1.0000 </r>
       <r>  -14.0416    1.0000 </r>
       <r>  -14.0354    1.0000 </r>
       <r>  -14.0199    1.0000 </r>
       <r>  -14.0119    1.0000 </r>
       <r>  -14.0000    1.0000 </r>
       <r>  -13.9841    1.0000 </r>
       <r>  -13.9777    1.0000 </r>
       <r>  -13.9605    1.0000 </r>
       <r>  -13.9519    1.0000 </r>
       <r>  -13.9428    1.0000 </r>
       <r>  -13.9312    1.0000 </r>
       <r>  -13.8906    1.0000 </r>
       <r>  -12.9228    1.0000 </r>
       <r>  -12.8742    1.0000 </r>
       <r>  -12.8617    1.0000 </r>
       <r>  -12.8276    1.0000 </r>
       <r>  -12.7741    1.0000 </r>
       <r>  -12.7483    1.0000 </r>
       <r>  -12.7367    1.0000 </r>
       <r>  -12.7144    1.0000 </r>
       <r>  -12.7030    1.0000 </r>
       <r>  -12.6906    1.0000 </r>
       <r>  -12.6843    1.0000 </r>
       <r>  -12.6802    1.0000 </r>
       <r>  -12.6719    1.0000 </r>
       <r>  -12.6617    1.0000 </r>
       <r>  -12.6519    1.0000 </r>
       <r>  -12.6376    1.0000 </r>
       <r>  -12.6266    1.0000 </r>
       <r>  -12.6249    1.0000 </r>
       <r>  -12.6118    1.0000 </r>
       <r>  -12.6023    1.0000 </r>
       <r>  -12.5938    1.0000 </r>
       <r>  -12.5796    1.0000 </r>
       <r>  -12.5707    1.0000 </r>
       <r>  -12.5649    1.0000 </r>
       <r>  -12.5493    1.0000 </r>
       <r>  -12.5377    1.0000 </r>
       <r>  -12.5256    1.0000 </r>
       <r>  -12.5154    1.0000 </r>
       <r>  -12.5101    1.0000 </r>
       <r>  -12.5018    1.0000 </r>
       <r>  -12.4872    1.0000 </r>
       <r>  -12.4823    1.0000 </r>
       <r>  -12.4671    1.0000 </r>
       <r>  -12.4619    1.0000 </r>
       <r>  -12.4479    1.0000 </r>
       <r>  -12.4436    1.0000 </r>
       <r>  -12.4398    1.0000 </r>
       <r>  -12.4301    1.0000 </r>
       <r>  -12.4263    1.0000 </r>
       <r>  -12.4163    1.0000 </r>
       <r>  -12.4122    1.0000 </r>
       <r>  -12.4034    1.0000 </r>
       <r>  -12.3949    1.0000 </r>
       <r>  -12.3907    1.0000 </r>
       <r>  -12.3819    1.0000 </r>
       <r>  -12.3756    1.0000 </r>
       <r>  -12.3676    1.0000 </r>
       <r>  -12.3618    1.0000 </r>
       <r>  -12.3520    1.0000 </r>
       <r>  -12.3426    1.0000 </r>
       <r>  -12.3324    1.0000 </r>
       <r>  -12.3239    1.0000 </r>
       <r>  -12.3113    1.0000 </r>
       <r>  -12.3035    1.0000 </r>
       <r>  -12.2933    1.0000 </r>
       <r>  -12.2886    1.0000 </r>
       <r>  -12.2720    1.0000 </r>
       <r>  -12.2551    1.0000 </r>
       <r>  -12.2487    1.0000 </r>
       <r>  -12.2373    1.0000 </r>
       <r>  -12.2333    1.0000 </r>
       <r>  -12.2158    1.0000 </r>
       <r>  -12.2071    1.0000 </r>
       <r>  -12.2014    1.0000 </r>
       <r>  -12.1874    1.0000 </r>
       <r>  -12.1770    1.0000 </r>
       <r>  -12.1675    1.0000 </r>
       <r>  -12.1507    1.0000 </r>
       <r>  -12.1470    1.0000 </r>
       <r>  -12.1378    1.0000 </r>
       <r>  -12.1286    1.0000 </r>
       <r>  -12.1183    1.0000 </r>
       <r>  -12.0943    1.0000 </r>
       <r>  -12.0805    1.0000 </r>
       <r>  -12.0701    1.0000 </r>
       <r>  -12.0631    1.0000 </r>
       <r>  -12.0512    1.0000 </r>
       <r>  -12.0408    1.0000 </r>
       <r>  -12.0366    1.0000 </r>
       <r>  -12.0248    1.0000 </r>
       <r>  -12.0021    1.0000 </r>
       <r>  -11.9967    1.0000 </r>
       <r>  -11.9807    1.0000 </r>
       <r>  -11.9638    1.0000 </r>
       <r>  -11.9540    1.0000 </r>
       <r>  -11.9432    1.0000 </r>
       <r>  -11.9365    1.0000 </r>
       <r>  -11.9254    1.0000 </r>
       <r>  -11.9111    1.0000 </r>
       <r>  -11.9046    1.0000 </r>
       <r>  -11.8672    1.0000 </r>
       <r>  -11.8321    1.0000 </r>
       <r>  -11.7952    1.0000 </r>
       <r>  -11.7777    1.0000 </r>
       <r>  -11.6990    1.0000 </r>
       <r>  -11.6619    1.0000 </r>
       <r>   -5.5189    1.0000 </r>
       <r>   -5.4243    1.0000 </r>
       <r>   -5.4089    1.0000 </r>
       <r>   -5.3899    1.0000 </r>
       <r>   -5.3829    1.0000 </r>
       <r>   -5.3333    1.0000 </r>
       <r>   -5.3274    1.0000 </r>
       <r>   -5.2955    1.0000 </r>
       <r>   -5.2721    1.0000 </r>
       <r>   -5.2333    1.0000 </r>
       <r>   -5.2143    1.0000 </r>
       <r>   -5.1986    1.0000 </r>
       <r>   -5.1711    1.0000 </r>
       <r>   -5.1459    1.0000 </r>
       <r>   -5.1024    1.0000 </r>
       <r>   -5.0761    1.0000 </r>
       <r>   -5.0332    1.0000 </r>
       <r>   -4.9989    1.0000 </r>
       <r>   -4.9672    1.0000 </r>
       <r>   -4.9523    1.0000 </r>
       <r>   -4.9196    1.0000 </r>
       <r>   -4.9067    1.0000 </r>
       <r>   -4.8698    1.0000 </r>
       <r>   -4.8454    1.0000 </r>
       <r>   -4.8421    1.0000 </r>
       <r>   -4.8225    1.0000 </r>
       <r>   -4.7893    1.0000 </r>
       <r>   -4.7825    1.0000 </r>
       <r>   -4.7575    1.0000 </r>
       <r>   -4.7357    1.0000 </r>
       <r>   -4.7293    1.0000 </r>
       <r>   -4.7052    1.0000 </r>
       <r>   -4.6864    1.0000 </r>
       <r>   -4.6784    1.0000 </r>
       <r>   -4.6671    1.0000 </r>
       <r>   -4.6507    1.0000 </r>
       <r>   -4.6378    1.0000 </r>
       <r>   -4.6324    1.0000 </r>
       <r>   -4.6170    1.0000 </r>
       <r>   -4.6016    1.0000 </r>
       <r>   -4.5881    1.0000 </r>
       <r>   -4.5734    1.0000 </r>
       <r>   -4.5691    1.0000 </r>
       <r>   -4.5574    1.0000 </r>
       <r>   -4.5537    1.0000 </r>
       <r>   -4.5475    1.0000 </r>
       <r>   -4.5426    1.0000 </r>
       <r>   -4.5346    1.0000 </r>
       <r>   -4.5291    1.0000 </r>
       <r>   -4.5211    1.0000 </r>
       <r>   -4.5095    1.0000 </r>
       <r>   -4.5040    1.0000 </r>
       <r>   -4.4985    1.0000 </r>
       <r>   -4.4914    1.0000 </r>
       <r>   -4.4855    1.0000 </r>
       <r>   -4.4768    1.0000 </r>
       <r>   -4.4703    1.0000 </r>
       <r>   -4.4643    1.0000 </r>
       <r>   -4.4570    1.0000 </r>
       <r>   -4.4536    1.0000 </r>
       <r>   -4.4477    1.0000 </r>
       <r>   -4.4418    1.0000 </r>
       <r>   -4.4373    1.0000 </r>
       <r>   -4.4294    1.0000 </r>
       <r>   -4.4249    1.0000 </r>
       <r>   -4.4196    1.0000 </r>
       <r>   -4.4124    1.0000 </r>
       <r>   -4.4084    1.0000 </r>
       <r>   -4.4027    1.0000 </r>
       <r>   -4.3962    1.0000 </r>
       <r>   -4.3927    1.0000 </r>
       <r>   -4.3881    1.0000 </r>
       <r>   -4.3820    1.0000 </r>
       <r>   -4.3772    1.0000 </r>
       <r>   -4.3691    1.0000 </r>
       <r>   -4.3653    1.0000 </r>
       <r>   -4.3555    1.0000 </r>
       <r>   -4.3510    1.0000 </r>
       <r>   -4.3408    1.0000 </r>
       <r>   -4.3362    1.0000 </r>
       <r>   -4.3289    1.0000 </r>
       <r>   -4.3241    1.0000 </r>
       <r>   -4.3152    1.0000 </r>
       <r>   -4.3105    1.0000 </r>
       <r>   -4.2948    1.0000 </r>
       <r>   -4.2897    1.0000 </r>
       <r>   -4.2802    1.0000 </r>
       <r>   -4.2720    1.0000 </r>
       <r>   -4.2652    1.0000 </r>
       <r>   -4.2578    1.0000 </r>
       <r>   -4.2551    1.0000 </r>
       <r>   -4.2466    1.0000 </r>
       <r>   -4.2383    1.0000 </r>
       <r>   -4.2305    1.0000 </r>
       <r>   -4.2171    1.0000 </r>
       <r>   -4.2091    1.0000 </r>
       <r>   -4.2049    1.0000 </r>
       <r>   -4.2026    1.0000 </r>
       <r>   -4.1893    1.0000 </r>
       <r>   -4.1734    1.0000 </r>
       <r>   -4.1647    1.0000 </r>
       <r>   -4.1569    1.0000 </r>
       <r>   -4.1469    1.0000 </r>
       <r>   -4.1349    1.0000 </r>
       <r>   -4.1270    1.0000 </r>
       <r>   -4.1128    1.0000 </r>
       <r>   -4.1025    1.0000 </r>
       <r>   -4.0976    1.0000 </r>
       <r>   -4.0818    1.0000 </r>
       <r>   -4.0741    1.0000 </r>
       <r>   -4.0548    1.0000 </r>
       <r>   -4.0480    1.0000 </r>
       <r>   -4.0258    1.0000 </r>
       <r>   -4.0164    1.0000 </r>
       <r>   -3.9929    1.0000 </r>
       <r>   -3.9777    1.0000 </r>
       <r>   -3.9604    1.0000 </r>
       <r>   -3.9355    1.0000 </r>
       <r>   -3.8857    1.0000 </r>
       <r>   -3.7925    1.0000 </r>
       <r>   -2.7943    1.0000 </r>
       <r>   -2.6097    1.0000 </r>
       <r>   -2.5270    1.0000 </r>
       <r>   -2.4223    1.0000 </r>
       <r>   -2.3393    1.0000 </r>
       <r>   -2.2567    1.0000 </r>
       <r>   -2.2173    1.0000 </r>
       <r>   -2.1720    1.0000 </r>
       <r>   -2.1365    1.0000 </r>
       <r>   -2.0890    1.0000 </r>
       <r>   -2.0349    1.0000 </r>
       <r>   -1.9536    1.0000 </r>
       <r>   -1.9033    1.0000 </r>
       <r>   -1.8509    1.0000 </r>
       <r>   -1.7935    1.0000 </r>
       <r>   -1.7555    1.0000 </r>
       <r>   -1.7028    1.0000 </r>
       <r>   -1.6694    1.0000 </r>
       <r>   -1.5872    1.0000 </r>
       <r>   -1.5495    1.0000 </r>
       <r>   -1.5106    1.0000 </r>
       <r>   -1.4117    1.0000 </r>
       <r>   -1.2940    1.0000 </r>
       <r>   -1.2367    1.0000 </r>
       <r>   -1.2296    1.0000 </r>
       <r>   -1.2054    1.0000 </r>
       <r>   -1.1469    1.0000 </r>
       <r>   -1.1069    1.0000 </r>
       <r>   -1.0831    1.0000 </r>
       <r>   -1.0480    1.0000 </r>
       <r>   -1.0109    1.0000 </r>
       <r>   -0.9800    1.0000 </r>
       <r>   -0.9496    1.0000 </r>
       <r>   -0.9287    1.0000 </r>
       <r>   -0.9238    1.0000 </r>
       <r>   -0.9064    1.0000 </r>
       <r>   -0.8881    1.0000 </r>
       <r>   -0.8567    1.0000 </r>
       <r>   -0.8371    1.0000 </r>
       <r>   -0.8189    1.0000 </r>
       <r>   -0.8130    1.0000 </r>
       <r>   -0.7919    1.0000 </r>
       <r>   -0.7851    1.0000 </r>
       <r>   -0.7711    1.0000 </r>
       <r>   -0.7534    1.0000 </r>
       <r>   -0.7377    1.0000 </r>
       <r>   -0.7156    1.0000 </r>
       <r>   -0.6993    1.0000 </r>
       <r>   -0.6936    1.0000 </r>
       <r>   -0.6658    1.0000 </r>
       <r>   -0.6579    1.0000 </r>
       <r>   -0.6431    1.0000 </r>
       <r>   -0.6232    1.0000 </r>
       <r>   -0.6078    1.0000 </r>
       <r>   -0.5802    1.0000 </r>
       <r>   -0.5778    1.0000 </r>
       <r>   -0.5464    1.0000 </r>
       <r>   -0.5318    1.0000 </r>
       <r>   -0.4979    1.0000 </r>
       <r>   -0.4825    1.0000 </r>
       <r>   -0.4605    1.0000 </r>
       <r>   -0.4506    1.0000 </r>
       <r>   -0.4267    1.0000 </r>
       <r>   -0.4136    1.0000 </r>
       <r>   -0.3849    1.0000 </r>
       <r>   -0.3670    1.0000 </r>
       <r>   -0.3450    1.0000 </r>
       <r>   -0.3299    1.0000 </r>
       <r>   -0.3176    1.0000 </r>
       <r>   -0.2982    1.0000 </r>
       <r>   -0.2695    1.0000 </r>
       <r>   -0.2637    1.0000 </r>
       <r>   -0.2392    1.0000 </r>
       <r>   -0.2156    1.0000 </r>
       <r>   -0.2050    1.0000 </r>
       <r>   -0.1877    1.0000 </r>
       <r>   -0.1760    1.0000 </r>
       <r>   -0.1480    1.0000 </r>
       <r>   -0.1295    1.0000 </r>
       <r>   -0.0972    1.0000 </r>
       <r>   -0.0755    1.0000 </r>
       <r>   -0.0573    1.0000 </r>
       <r>   -0.0266    1.0000 </r>
       <r>    0.0149    1.0000 </r>
       <r>    0.0205    1.0000 </r>
       <r>    0.0486    1.0000 </r>
       <r>    0.0745    1.0000 </r>
       <r>    0.0914    1.0000 </r>
       <r>    0.1248    1.0000 </r>
       <r>    0.1522    1.0000 </r>
       <r>    0.1709    1.0000 </r>
       <r>    0.1990    1.0000 </r>
       <r>    0.2100    1.0000 </r>
       <r>    0.2290    1.0000 </r>
       <r>    0.2836    1.0000 </r>
       <r>    0.3066    1.0000 </r>
       <r>    0.3134    1.0000 </r>
       <r>    0.3376    1.0000 </r>
       <r>    0.3531    1.0000 </r>
       <r>    0.3770    1.0000 </r>
       <r>    0.3998    1.0000 </r>
       <r>    0.4104    1.0000 </r>
       <r>    0.4222    1.0000 </r>
       <r>    0.4300    1.0000 </r>
       <r>    0.4476    1.0000 </r>
       <r>    0.4609    1.0000 </r>
       <r>    0.4825    1.0000 </r>
       <r>    0.4913    1.0000 </r>
       <r>    0.5046    1.0000 </r>
       <r>    0.5220    1.0000 </r>
       <r>    0.5411    1.0000 </r>
       <r>    0.5553    1.0000 </r>
       <r>    0.5810    1.0000 </r>
       <r>    0.5892    1.0000 </r>
       <r>    0.6099    1.0000 </r>
       <r>    0.6233    1.0000 </r>
       <r>    0.6361    1.0000 </r>
       <r>    0.6404    1.0000 </r>
       <r>    0.6534    1.0000 </r>
       <r>    0.6709    1.0000 </r>
       <r>    0.6853    1.0000 </r>
       <r>    0.6953    1.0000 </r>
       <r>    0.6998    1.0000 </r>
       <r>    0.7170    1.0000 </r>
       <r>    0.7283    1.0000 </r>
       <r>    0.7299    1.0000 </r>
       <r>    0.7528    1.0000 </r>
       <r>    0.7599    1.0000 </r>
       <r>    0.7730    1.0000 </r>
       <r>    0.7818    1.0000 </r>
       <r>    0.7911    1.0000 </r>
       <r>    0.8002    1.0000 </r>
       <r>    0.8115    1.0000 </r>
       <r>    0.8291    1.0000 </r>
       <r>    0.8324    1.0000 </r>
       <r>    0.8461    1.0000 </r>
       <r>    0.8631    1.0000 </r>
       <r>    0.8685    1.0000 </r>
       <r>    0.8794    1.0000 </r>
       <r>    0.8923    1.0000 </r>
       <r>    0.9059    1.0000 </r>
       <r>    0.9199    1.0000 </r>
       <r>    0.9303    1.0000 </r>
       <r>    0.9393    1.0000 </r>
       <r>    0.9481    1.0000 </r>
       <r>    0.9575    1.0000 </r>
       <r>    0.9721    1.0000 </r>
       <r>    0.9871    1.0000 </r>
       <r>    0.9992    1.0000 </r>
       <r>    1.0178    1.0000 </r>
       <r>    1.0334    1.0000 </r>
       <r>    1.0458    1.0000 </r>
       <r>    1.0603    1.0000 </r>
       <r>    1.0696    1.0000 </r>
       <r>    1.0770    1.0000 </r>
       <r>    1.0887    1.0000 </r>
       <r>    1.1034    1.0000 </r>
       <r>    1.1113    1.0000 </r>
       <r>    1.1208    1.0000 </r>
       <r>    1.1353    1.0000 </r>
       <r>    1.1423    1.0000 </r>
       <r>    1.1516    1.0000 </r>
       <r>    1.1641    1.0000 </r>
       <r>    1.1771    1.0000 </r>
       <r>    1.1869    1.0000 </r>
       <r>    1.2009    1.0000 </r>
       <r>    1.2140    1.0000 </r>
       <r>    1.2302    1.0000 </r>
       <r>    1.2372    1.0000 </r>
       <r>    1.2451    1.0000 </r>
       <r>    1.2518    1.0000 </r>
       <r>    1.2752    1.0000 </r>
       <r>    1.2855    1.0000 </r>
       <r>    1.2957    1.0000 </r>
       <r>    1.3052    1.0000 </r>
       <r>    1.3188    1.0000 </r>
       <r>    1.3278    1.0000 </r>
       <r>    1.3442    1.0000 </r>
       <r>    1.3497    1.0000 </r>
       <r>    1.3579    1.0000 </r>
       <r>    1.3730    1.0000 </r>
       <r>    1.3843    1.0000 </r>
       <r>    1.3946    1.0000 </r>
       <r>    1.4087    1.0000 </r>
       <r>    1.4233    1.0000 </r>
       <r>    1.4332    1.0000 </r>
       <r>    1.4437    1.0000 </r>
       <r>    1.4587    1.0000 </r>
       <r>    1.4687    1.0000 </r>
       <r>    1.4785    1.0000 </r>
       <r>    1.4921    1.0000 </r>
       <r>    1.5038    1.0000 </r>
       <r>    1.5213    1.0000 </r>
       <r>    1.5284    1.0000 </r>
       <r>    1.5376    1.0000 </r>
       <r>    1.5553    1.0000 </r>
       <r>    1.5669    1.0000 </r>
       <r>    1.5777    1.0000 </r>
       <r>    1.5857    1.0000 </r>
       <r>    1.5959    1.0000 </r>
       <r>    1.6096    1.0000 </r>
       <r>    1.6217    1.0000 </r>
       <r>    1.6399    1.0000 </r>
       <r>    1.6506    1.0000 </r>
       <r>    1.6685    1.0000 </r>
       <r>    1.6902    1.0000 </r>
       <r>    1.7005    1.0000 </r>
       <r>    1.7107    1.0000 </r>
       <r>    1.7295    1.0000 </r>
       <r>    1.7436    1.0000 </r>
       <r>    1.7549    1.0000 </r>
       <r>    1.7617    1.0000 </r>
       <r>    1.7792    1.0000 </r>
       <r>    1.7929    1.0000 </r>
       <r>    1.7979    1.0000 </r>
       <r>    1.8165    1.0000 </r>
       <r>    1.8273    1.0000 </r>
       <r>    1.8319    1.0000 </r>
       <r>    1.8593    1.0000 </r>
       <r>    1.8645    1.0000 </r>
       <r>    1.8833    1.0000 </r>
       <r>    1.8963    1.0000 </r>
       <r>    1.9001    1.0000 </r>
       <r>    1.9253    1.0000 </r>
       <r>    1.9398    1.0000 </r>
       <r>    1.9538    1.0000 </r>
       <r>    1.9696    1.0000 </r>
       <r>    1.9747    1.0000 </r>
       <r>    1.9917    1.0000 </r>
       <r>    2.0067    1.0000 </r>
       <r>    2.0267    1.0000 </r>
       <r>    2.0458    1.0000 </r>
       <r>    2.0706    1.0000 </r>
       <r>    2.0832    1.0000 </r>
       <r>    2.0914    1.0000 </r>
[...]
       <r>   -17.8419     0.0000    32.0000 </r>
       <r>   -17.6869     0.0000    32.0000 </r>
       <r>   -17.5319     0.0000    32.0000 </r>
       <r>   -17.3770     0.0000    32.0000 </r>
       <r>   -17.2220     0.0000    32.0000 </r>
       <r>   -17.0671     0.0000    32.0000 </r>
       <r>   -16.9121     0.0000    32.0000 </r>
       <r>   -16.7572     0.0000    32.0000 </r>
       <r>   -16.6022     0.0000    32.0000 </r>
       <r>   -16.4473     0.0000    32.0000 </r>
       <r>   -16.2923     0.0000    32.0000 </r>
       <r>   -16.1374     0.0000    32.0000 </r>
       <r>   -15.9824     0.0000    32.0000 </r>
       <r>   -15.8274     0.0000    32.0000 </r>
       <r>   -15.6725     0.0000    32.0000 </r>
       <r>   -15.5175     0.0000    32.0000 </r>
       <r>   -15.3626     0.0000    32.0000 </r>
       <r>   -15.2076     0.0000    32.0000 </r>
       <r>   -15.0527     0.1569    32.0243 </r>
       <r>   -14.8977    25.3099    35.9462 </r>
       <r>   -14.7428    42.6522    42.5554 </r>
       <r>   -14.5878    44.4298    49.4400 </r>
       <r>   -14.4328    35.5417    54.9474 </r>
       <r>   -14.2779    39.4918    61.0669 </r>
       <r>   -14.1229    54.1369    69.4557 </r>
       <r>   -13.9680    79.3725    81.7548 </r>
       <r>   -13.8130    80.6666    94.2546 </r>
       <r>   -13.6581    70.8481   105.2328 </r>
       <r>   -13.5031    44.3740   112.1088 </r>
       <r>   -13.3482    21.9366   115.5080 </r>
       <r>   -13.1932     3.1750   116.0000 </r>
       <r>   -13.0382     0.0003   116.0000 </r>
       <r>   -12.8833     5.9065   116.9153 </r>
       <r>   -12.7283    31.7031   121.8278 </r>
       <r>   -12.5734    87.4788   135.3831 </r>
       <r>   -12.4184   102.1205   151.2073 </r>
       <r>   -12.2635   111.8528   168.5394 </r>
       <r>   -12.1085    87.6495   182.1212 </r>
       <r>   -11.9536    79.8114   194.4884 </r>
       <r>   -11.7986    72.5515   205.7306 </r>
       <r>   -11.6436    28.1534   210.0931 </r>
       <r>   -11.4887    12.2578   211.9925 </r>
       <r>   -11.3337     0.0481   212.0000 </r>
       <r>   -11.1788     0.0000   212.0000 </r>
       <r>   -11.0238     0.0000   212.0000 </r>
       <r>   -10.8689     0.0000   212.0000 </r>
       <r>   -10.7139     0.0000   212.0000 </r>
       <r>   -10.5590     0.0000   212.0000 </r>
       <r>   -10.4040     0.0000   212.0000 </r>
       <r>   -10.2491     0.0000   212.0000 </r>
       <r>   -10.0941     0.0000   212.0000 </r>
       <r>    -9.9391     0.0000   212.0000 </r>
       <r>    -9.7842     0.0000   212.0000 </r>
       <r>    -9.6292     0.0000   212.0000 </r>
       <r>    -9.4743     0.0000   212.0000 </r>
       <r>    -9.3193     0.0000   212.0000 </r>
       <r>    -9.1644     0.0000   212.0000 </r>
       <r>    -9.0094     0.0000   212.0000 </r>
       <r>    -8.8545     0.0000   212.0000 </r>
       <r>    -8.6995     0.0000   212.0000 </r>
       <r>    -8.5445     0.0000   212.0000 </r>
       <r>    -8.3896     0.0000   212.0000 </r>
       <r>    -8.2346     0.0000   212.0000 </r>
       <r>    -8.0797     0.0000   212.0000 </r>
       <r>    -7.9247     0.0000   212.0000 </r>
       <r>    -7.7698     0.0000   212.0000 </r>
       <r>    -7.6148     0.0000   212.0000 </r>
       <r>    -7.4599     0.0000   212.0000 </r>
       <r>    -7.3049     0.0000   212.0000 </r>
       <r>    -7.1499     0.0000   212.0000 </r>
       <r>    -6.9950     0.0000   212.0000 </r>
       <r>    -6.8400     0.0000   212.0000 </r>
       <r>    -6.6851     0.0000   212.0000 </r>
       <r>    -6.5301     0.0000   212.0000 </r>
       <r>    -6.3752     0.0000   212.0000 </r>
       <r>    -6.2202     0.0000   212.0000 </r>
       <r>    -6.0653     0.0000   212.0000 </r>
       <r>    -5.9103     0.0000   212.0000 </r>
       <r>    -5.7554     0.0000   212.0000 </r>
       <r>    -5.6004     0.0000   212.0000 </r>
       <r>    -5.4454     0.0000   212.0000 </r>
       <r>    -5.2905     0.0000   212.0000 </r>
       <r>    -5.1355     0.0000   212.0000 </r>
       <r>    -4.9806     0.0000   212.0000 </r>
       <r>    -4.8256     0.0000   212.0000 </r>
       <r>    -4.6707     0.0000   212.0000 </r>
       <r>    -4.5157     0.0000   212.0000 </r>
       <r>    -4.3608     0.0000   212.0000 </r>
       <r>    -4.2058     0.0000   212.0000 </r>
       <r>    -4.0508     0.0000   212.0000 </r>
       <r>    -3.8959     0.0000   212.0000 </r>
       <r>    -3.7409     0.0000   212.0000 </r>
       <r>    -3.5860     0.0000   212.0000 </r>
       <r>    -3.4310     0.0000   212.0000 </r>
       <r>    -3.2761     0.0000   212.0000 </r>
       <r>    -3.1211     0.0000   212.0000 </r>
       <r>    -2.9662     0.0000   212.0000 </r>
       <r>    -2.8112     0.0000   212.0000 </r>
       <r>    -2.6562     0.0000   212.0000 </r>
       <r>    -2.5013     0.2138   212.0331 </r>
       <r>    -2.3463     8.8562   213.4054 </r>
       <r>    -2.1914    17.3270   216.0904 </r>
       <r>    -2.0364    25.8308   220.0930 </r>
       <r>    -1.8815    23.0423   223.6635 </r>
       <r>    -1.7265    24.0494   227.3901 </r>
       <r>    -1.5716    26.4272   231.4851 </r>
       <r>    -1.4166    30.5910   236.2253 </r>
       <r>    -1.2616    40.3568   242.4788 </r>
       <r>    -1.1067    53.5333   250.7741 </r>
       <r>    -0.9517    66.7130   261.1116 </r>
       <r>    -0.7968    80.9675   273.6580 </r>
       <r>    -0.6418    89.2038   287.4806 </r>
       <r>    -0.4869    95.8370   302.3310 </r>
       <r>    -0.3319    91.2857   316.4762 </r>
       <r>    -0.1770    64.0259   326.3974 </r>
       <r>    -0.0220    55.2542   334.9593 </r>
       <r>     0.1329    54.2944   343.3725 </r>
       <r>     0.2879    59.9389   352.6603 </r>
       <r>     0.4429    58.3716   361.7053 </r>
       <r>     0.5978    56.6759   370.4876 </r>
       <r>     0.7528    57.0051   379.3208 </r>
       <r>     0.9077    54.2234   387.7230 </r>
       <r>     1.0627    48.6898   395.2677 </r>
       <r>     1.2176    58.1378   404.2765 </r>
       <r>     1.3726    61.9346   413.8736 </r>
       <r>     1.5275    72.3964   425.0918 </r>
       <r>     1.6825    73.9439   436.5498 </r>
       <r>     1.8375    61.6460   446.1021 </r>
       <r>     1.9924    41.7590   452.5729 </r>
       <r>     2.1474    43.1079   459.2527 </r>
       <r>     2.3023    27.1974   463.4671 </r>
       <r>     2.4573     3.4391   464.0000 </r>
       <r>     2.6122     0.0002   464.0000 </r>
       <r>     2.7672     0.0000   464.0000 </r>
       <r>     2.9221     0.0000   464.0000 </r>
       <r>     3.0771     0.0000   464.0000 </r>
       <r>     3.2321     0.0000   464.0000 </r>
       <r>     3.3870     0.0000   464.0000 </r>
       <r>     3.5420     0.0000   464.0000 </r>
       <r>     3.6969     0.0000   464.0000 </r>
       <r>     3.8519     0.0000   464.0000 </r>
       <r>     4.0068     0.0000   464.0000 </r>
       <r>     4.1618     0.2295   464.0356 </r>
       <r>     4.3167    14.5052   466.2832 </r>
       <r>     4.4717    27.3000   470.5135 </r>
       <r>     4.6267    62.6210   480.2170 </r>
       <r>     4.7816    74.1990   491.7145 </r>
       <r>     4.9366    67.8379   502.2263 </r>
       <r>     5.0915    64.6401   512.2426 </r>
       <r>     5.2465    77.6464   524.2743 </r>
       <r>     5.4014    87.4736   537.8288 </r>
       <r>     5.5564    84.8102   550.9706 </r>
       <r>     5.7113    72.9641   562.2768 </r>
       <r>     5.8663    56.5099   571.0333 </r>
       <r>     6.0212    59.1985   580.2064 </r>
       <r>     6.1762    75.4522   591.8981 </r>
       <r>     6.3312    54.9630   600.4149 </r>
       <r>     6.4861    22.5219   603.9048 </r>
       <r>     6.6411    12.6596   605.8665 </r>
       <r>     6.7960    13.4949   607.9576 </r>
       <r>     6.9510     7.4787   609.1164 </r>
       <r>     7.1059    10.9063   610.8064 </r>
       <r>     7.2609     6.6014   611.8294 </r>
       <r>     7.4158    12.5223   613.7697 </r>
       <r>     7.5708    12.2502   615.6680 </r>
       <r>     7.7258    15.6231   618.0889 </r>
       <r>     7.8807    21.1598   621.3677 </r>
       <r>     8.0357    25.2623   625.2822 </r>
       <r>     8.1906    24.1733   629.0280 </r>
       <r>     8.3456    27.5878   633.3029 </r>
       <r>     8.5005    28.9104   637.7827 </r>
       <r>     8.6555    28.5503   642.2067 </r>
       <r>     8.8104    22.4721   645.6889 </r>
       <r>     8.9654    27.2454   649.9107 </r>
       <r>     9.1204    33.7570   655.1415 </r>
       <r>     9.2753    37.9084   661.0156 </r>
       <r>     9.4303    41.0966   667.3837 </r>
       <r>     9.5852    47.2032   674.6981 </r>
       <r>     9.7402    53.9381   683.0561 </r>
       <r>     9.8951    55.7112   691.6889 </r>
       <r>    10.0501    54.5119   700.1358 </r>
       <r>    10.2050    53.3095   708.3963 </r>
       <r>    10.3600    54.1191   716.7824 </r>
       <r>    10.5149    56.3874   725.5199 </r>
       <r>    10.6699    52.9001   733.7171 </r>
       <r>    10.8249    50.7371   741.5790 </r>
       <r>    10.9798    53.6210   749.8879 </r>
       <r>    11.1348    51.3590   757.8462 </r>
       <r>    11.2897    49.0161   765.4415 </r>
       <r>    11.4447    16.5006   767.9984 </r>
       <r>    11.5996     0.0104   768.0000 </r>
       <r>    11.7546     0.0000   768.0000 </r>
       <r>    11.9095     0.0000   768.0000 </r>
       <r>    12.0645     0.0000   768.0000 </r>
       <r>    12.2195     0.0000   768.0000 </r>
       <r>    12.3744     0.0000   768.0000 </r>
       <r>    12.5294     0.0000   768.0000 </r>
       <r>    12.6843     0.0000   768.0000 </r>
       <r>    12.8393     0.0000   768.0000 </r>
       <r>    12.9942     0.0000   768.0000 </r>
       <r>    13.1492     0.0000   768.0000 </r>
       <r>    13.3041     0.0000   768.0000 </r>
       <r>    13.4591     0.0000   768.0000 </r>
      </set>
     </set>
    </array>
   </total>
  </dos>
 </calculation>
 <structure name="finalpos" >
  <crystal>
   <varray name="basis" >
    <v>      11.17729202       0.04217389       0.00814446 </v>
    <v>       0.04214399      11.19047510      -0.00508783 </v>
    <v>       0.01189669      -0.00738023      15.91995983 </v>
   </varray>
   <i name="volume">   1991.22616243 </i>
   <varray name="rec_basis" >
    <v>       0.08946843      -0.00033697      -0.00006701 </v>
    <v>      -0.00033721       0.08936300       0.00004168 </v>
    <v>      -0.00004588       0.00002873       0.06281428 </v>
   </varray>
  </crystal>
  <varray name="positions" >
   <v>       0.99301752       0.24410538       0.12425171 </v>
   <v>       0.00177575       0.23946692       0.62450754 </v>
   <v>       0.99801950       0.75604674       0.12644424 </v>
   <v>       0.99322969       0.74967013       0.62511036 </v>
   <v>       0.51169276       0.25991401       0.12549827 </v>
   <v>       0.50213643       0.24878097       0.62474826 </v>
   <v>       0.51135266       0.73827502       0.12316409 </v>
   <v>       0.50065783       0.75499334       0.62814830 </v>
   <v>       0.00261160       0.24102745       0.37494293 </v>
   <v>       0.99598309       0.24170192       0.87430572 </v>
   <v>       0.98953977       0.75738858       0.36739436 </v>
   <v>       0.99318689       0.74997142       0.87725884 </v>
   <v>       0.50114155       0.25027932       0.38125251 </v>
   <v>       0.51062704       0.24971596       0.87095526 </v>
   <v>       0.49966995       0.75446492       0.38108972 </v>
   <v>       0.50172394       0.75830023       0.86977838 </v>
   <v>       0.22689961       0.01982879       0.12336022 </v>
   <v>       0.25576023       0.01160061       0.62906052 </v>
   <v>       0.24951124       0.49450108       0.13003239 </v>
   <v>       0.25920116       0.49633200       0.62501313 </v>
   <v>       0.76056759       0.00732897       0.12587266 </v>
   <v>       0.74501876       0.00283824       0.62341420 </v>
   <v>       0.75839377       0.49415575       0.12162246 </v>
   <v>       0.74919104       0.49436350       0.62305625 </v>
   <v>       0.24753210       0.00712560       0.37771562 </v>
   <v>       0.24535217       0.00721928       0.87018987 </v>
   <v>       0.25045614       0.49214841       0.38020147 </v>
   <v>       0.25332014       0.49589721       0.87116539 </v>
   <v>       0.75996235       0.00411794       0.37843403 </v>
   <v>       0.75264301       0.00681408       0.87147380 </v>
   <v>       0.74205512       0.49605572       0.37284354 </v>
   <v>       0.75566470       0.49512064       0.87614648 </v>
   <v>       0.25528514       0.25702240       0.75249255 </v>
   <v>       0.99864179       0.00157638       0.99976874 </v>
   <v>       0.49511762       0.00307560       0.50470719 </v>
   <v>       0.74434160       0.75040327       0.99879019 </v>
   <v>       0.50422977       0.49955327       0.49736414 </v>
   <v>       0.74907510       0.24781301       0.74965704 </v>
   <v>       0.24656278       0.24930992       0.25049905 </v>
   <v>       0.75539074       0.25457470       0.25265820 </v>
   <v>       0.51596579       0.01383617       0.98997918 </v>
   <v>       0.01362745       0.49123259       0.51404273 </v>
   <v>       0.73934410       0.73725934       0.75104229 </v>
   <v>       0.23703684       0.73579750       0.26674115 </v>
   <v>       0.75833064       0.75456961       0.24828946 </v>
   <v>       0.23435583       0.73416933       0.98452371 </v>
   <v>       0.25688959       0.74325847       0.50320278 </v>
   <v>       0.75503356       0.25458189       0.99822287 </v>
   <v>       0.74628392       0.24915925       0.49851071 </v>
   <v>       0.49992550       0.49984578       0.73969957 </v>
   <v>       0.99320849       0.00724298       0.50013233 </v>
   <v>       0.50269082       0.00196842       0.74842502 </v>
   <v>       0.99488891       0.49035817       0.75472305 </v>
   <v>       0.25339871       0.24777556       0.50072987 </v>
   <v>       0.73749181       0.75687417       0.50077907 </v>
   <v>       0.50984387       0.01309483       0.26054711 </v>
   <v>       0.99149399       0.50813748       0.99786652 </v>
   <v>       0.25332639       0.75748556       0.74463430 </v>
   <v>       0.00234421       0.00110963       0.24989559 </v>
   <v>       0.99796148       0.49343677       0.23834328 </v>
   <v>       0.50329936       0.50535563       0.01106226 </v>
   <v>       0.00975832       0.00423070       0.74677545 </v>
   <v>       0.49200005       0.49135037       0.25094983 </v>
   <v>       0.26448303       0.23906600       0.00085020 </v>
   <v>       0.12240595       0.12933430       0.24914819 </v>
   <v>       0.13238666       0.38026058       0.26731365 </v>
   <v>       0.11594370       0.62123528       0.25634647 </v>
   <v>       0.63591377       0.10904970       0.49930368 </v>
   <v>       0.62228221       0.13204923       0.23874642 </v>
   <v>       0.62289828       0.38320058       0.98705473 </v>
   <v>       0.61191826       0.62726879       0.76722119 </v>
   <v>       0.76040322       0.26381517       0.12639247 </v>
   <v>       0.39094984       0.37058000       0.76580180 </v>
   <v>       0.75073078       0.23869827       0.87339569 </v>
   <v>       0.37441483       0.87248018       0.74490436 </v>
   <v>       0.88795060       0.36713528       0.26650067 </v>
   <v>       0.73259935       0.74229511       0.36895878 </v>
   <v>       0.61650610       0.13585087       0.74854594 </v>
   <v>       0.37192002       0.10097272       0.22751210 </v>
   <v>       0.36739764       0.12345941       0.75668141 </v>
   <v>       0.38031036       0.64947783       0.23938604 </v>
   <v>       0.35989610       0.61252341       0.75089088 </v>
   <v>       0.86392468       0.10193141       0.74614833 </v>
   <v>       0.86422238       0.60984695       0.25520704 </v>
   <v>       0.88845083       0.63741082       0.76107351 </v>
   <v>       0.14426816       0.39751130       0.74836247 </v>
   <v>       0.15748953       0.87000175       0.22510187 </v>
   <v>       0.09910128       0.85280344       0.74974779 </v>
   <v>       0.02930062       0.50829697       0.87760287 </v>
   <v>       0.63527930       0.38542943       0.75910309 </v>
   <v>       0.59183267       0.86744487       0.23695633 </v>
   <v>       0.64456999       0.88381927       0.74340226 </v>
   <v>       0.36772830       0.39307900       0.99709007 </v>
   <v>       0.36899698       0.38862141       0.49354848 </v>
   <v>       0.38365839       0.66113345       0.00565159 </v>
   <v>       0.35095288       0.88970061       0.51158835 </v>
   <v>       0.89307409       0.36705312       0.98833577 </v>
   <v>       0.86702523       0.42011559       0.48882599 </v>
   <v>       0.87630679       0.86828188       0.01235195 </v>
   <v>       0.11754139       0.13380282       0.99726552 </v>
   <v>       0.13953145       0.10474794       0.50490339 </v>
   <v>       0.13044637       0.61494034       0.02220641 </v>
   <v>       0.62401344       0.13185030       0.01392822 </v>
   <v>       0.61987201       0.62800353       0.97719288 </v>
   <v>       0.64412498       0.60968210       0.50124675 </v>
   <v>       0.88801693       0.36141395       0.75452771 </v>
   <v>       0.99656517       0.98286049       0.62246266 </v>
   <v>       0.14998557       0.87842103       0.00921930 </v>
   <v>       0.12117411       0.13223940       0.74972465 </v>
   <v>       0.50305687       0.51902566       0.36958811 </v>
   <v>       0.61347857       0.36432901       0.49608596 </v>
   <v>       0.60626144       0.87581898       0.01844201 </v>
   <v>       0.60679512       0.86318571       0.50469929 </v>
   <v>       0.37159584       0.10104884       0.01412614 </v>
   <v>       0.87063213       0.11858242       0.25449248 </v>
   <v>       0.09488472       0.63205959       0.47728810 </v>
   <v>       0.38495618       0.63443449       0.50160563 </v>
   <v>       0.87134692       0.11669750       0.99960472 </v>
   <v>       0.88556865       0.13799888       0.49559869 </v>
   <v>       0.86794556       0.62403678       0.99759701 </v>
   <v>       0.11957830       0.36576865       0.48755266 </v>
   <v>       0.99992700       0.00397228       0.12420963 </v>
   <v>       0.88137838       0.85755908       0.49244418 </v>
   <v>       0.00504548       0.47314201       0.12081836 </v>
   <v>       0.00734850       0.51687589       0.63096079 </v>
   <v>       0.38090737       0.36737792       0.24482840 </v>
   <v>       0.49919551       0.00584694       0.62603113 </v>
   <v>       0.52062203       0.51396342       0.12945931 </v>
   <v>       0.50325480       0.49668704       0.62225216 </v>
   <v>       0.01720631       0.98199475       0.37540292 </v>
   <v>       0.99458808       0.98622294       0.87526899 </v>
   <v>       0.87920311       0.87015063       0.24442280 </v>
   <v>       0.48662769       0.99473834       0.37647515 </v>
   <v>       0.49536646       0.98908340       0.87578988 </v>
   <v>       0.63710213       0.39293895       0.25051695 </v>
   <v>       0.73400844       0.72408630       0.12761454 </v>
   <v>       0.26661109       0.23615804       0.37034996 </v>
   <v>       0.24039814       0.25626288       0.88104015 </v>
   <v>       0.24817092       0.77441188       0.38117076 </v>
   <v>       0.23072965       0.73528333       0.86768357 </v>
   <v>       0.74050507       0.24468736       0.37407216 </v>
   <v>       0.75619596       0.77747992       0.87698353 </v>
   <v>       0.23206619       0.26812061       0.12019335 </v>
   <v>       0.25688899       0.25913145       0.62831108 </v>
   <v>       0.38991875       0.13953221       0.50377396 </v>
   <v>       0.22111263       0.73214797       0.62233677 </v>
   <v>       0.75502487       0.25864108       0.62427349 </v>
   <v>       0.76269266       0.73631211       0.62539754 </v>
  </varray>
 </structure>
</modeling>
