       N       E                     dE             d eps       ncg     rms          rms(c)
DAV:   1    -0.105380819168E+04   -0.10538E+04   -0.30074E-02 13432   0.410E-01    0.129E-02
RMM:   2    -0.105380819300E+04   -0.13206E-05   -0.17561E-05  6878   0.773E-03    0.186E-02
RMM:   3    -0.105380819331E+04   -0.31103E-06   -0.65950E-06  6395   0.513E-03    0.348E-03
RMM:   4    -0.105380819383E+04   -0.52007E-06   -0.36603E-06  5078   0.310E-03    0.316E-03
RMM:   5    -0.105380819417E+04   -0.34057E-06   -0.22293E-06  4638   0.311E-03    0.203E-03
RMM:   6    -0.105380819448E+04   -0.30908E-06   -0.13669E-06  3253   0.226E-03    0.124E-03
RMM:   7    -0.105380819466E+04   -0.17458E-06   -0.86749E-07  3045   0.233E-03    0.106E-03
RMM:   8    -0.105380819475E+04   -0.97076E-07   -0.38546E-07  2227   0.200E-03
   1 F= -.10538082E+04 E0= -.10538082E+04  d E =-.105381E+04  mag=    72.0000
       N       E                     dE             d eps       ncg     rms          rms(c)
DAV:   1    -0.105380798943E+04    0.20522E-03   -0.46551E-01 12808   0.805E-01    0.290E-01
RMM:   2    -0.105380946684E+04   -0.14774E-02   -0.13543E-02 12397   0.163E-01    0.219E-01
RMM:   3    -0.105380954268E+04   -0.75838E-04   -0.80123E-04 11364   0.584E-02    0.127E-01
RMM:   4    -0.105380947881E+04    0.63871E-04   -0.19120E-04  7945   0.195E-02    0.774E-02
RMM:   5    -0.105380946374E+04    0.15067E-04   -0.92750E-05  7547   0.149E-02    0.468E-02
RMM:   6    -0.105380946388E+04   -0.13287E-06   -0.28207E-05  7147   0.107E-02    0.156E-02
RMM:   7    -0.105380946436E+04   -0.48702E-06   -0.11402E-05  7021   0.509E-03    0.105E-02
RMM:   8    -0.105380946448E+04   -0.11500E-06   -0.58945E-06  6780   0.478E-03
   2 F= -.10538095E+04 E0= -.10538095E+04  d E =-.126972E-02  mag=    72.0000
       N       E                     dE             d eps       ncg     rms          rms(c)
DAV:   1    -0.105380946291E+04    0.14552E-05   -0.31350E-03 13064   0.662E-02    0.241E-02
RMM:   2    -0.105380947204E+04   -0.91290E-05   -0.87496E-05  6793   0.140E-02    0.205E-02
RMM:   3    -0.105380947374E+04   -0.17067E-05   -0.11565E-05  6323   0.701E-03    0.117E-02
RMM:   4    -0.105380947363E+04    0.11668E-06   -0.42084E-06  5466   0.355E-03    0.114E-02
RMM:   5    -0.105380947339E+04    0.23951E-06   -0.19794E-06  4733   0.297E-03    0.400E-03
RMM:   6    -0.105380947334E+04    0.45024E-07   -0.77203E-07  3047   0.209E-03    0.157E-03
RMM:   7    -0.105380947337E+04   -0.31549E-07   -0.41708E-07  2758   0.207E-03    0.986E-04
RMM:   8    -0.105380947337E+04   -0.16007E-08   -0.27251E-08  1676   0.181E-03
   3 F= -.10538095E+04 E0= -.10538095E+04  d E =-.127862E-02  mag=    72.0000
       N       E                     dE             d eps       ncg     rms          rms(c)
DAV:   1    -0.105380969645E+04   -0.22308E-03   -0.24483E-01 12784   0.581E-01    0.169E-01
RMM:   2    -0.105381036632E+04   -0.66987E-03   -0.65279E-03 12413   0.110E-01    0.118E-01
RMM:   3    -0.105381038647E+04   -0.20152E-04   -0.35315E-04  9389   0.415E-02    0.688E-02
RMM:   4    -0.105381037056E+04    0.15918E-04   -0.92718E-05  7157   0.145E-02    0.421E-02
RMM:   5    -0.105381036979E+04    0.76296E-06   -0.37974E-05  7021   0.109E-02    0.349E-02
RMM:   6    -0.105381037186E+04   -0.20657E-05   -0.15503E-05  6822   0.709E-03    0.806E-03
RMM:   7    -0.105381037322E+04   -0.13588E-05   -0.73905E-06  6551   0.473E-03    0.532E-03
RMM:   8    -0.105381037437E+04   -0.11568E-05   -0.45653E-06  5657   0.361E-03
   4 F= -.10538104E+04 E0= -.10538104E+04  d E =-.900999E-03  mag=    72.0000
       N       E                     dE             d eps       ncg     rms          rms(c)
DAV:   1    -0.105380945592E+04    0.91730E-03   -0.53645E-01 12656   0.860E-01    0.250E-01
RMM:   2    -0.105381092215E+04   -0.14662E-02   -0.14295E-02 12426   0.163E-01    0.175E-01
RMM:   3    -0.105381097981E+04   -0.57660E-04   -0.89419E-04 11540   0.632E-02    0.102E-01
RMM:   4    -0.105381094042E+04    0.39397E-04   -0.18418E-04  7655   0.189E-02    0.612E-02
RMM:   5    -0.105381093519E+04    0.52278E-05   -0.73573E-05  7224   0.141E-02    0.352E-02
RMM:   6    -0.105381093873E+04   -0.35405E-05   -0.24552E-05  7100   0.101E-02    0.128E-02
RMM:   7    -0.105381094098E+04   -0.22548E-05   -0.13959E-05  7007   0.563E-03    0.800E-03
RMM:   8    -0.105381094279E+04   -0.18082E-05   -0.79337E-06  6897   0.567E-03
   5 F= -.10538109E+04 E0= -.10538109E+04  d E =-.146942E-02  mag=    72.0000
       N       E                     dE             d eps       ncg     rms          rms(c)
DAV:   1    -0.105381091530E+04    0.25686E-04   -0.42183E-01 12736   0.753E-01    0.191E-01
RMM:   2    -0.105381196271E+04   -0.10474E-02   -0.10784E-02 12502   0.137E-01    0.124E-01
RMM:   3    -0.105381198224E+04   -0.19537E-04   -0.59763E-04 10607   0.513E-02    0.743E-02
RMM:   4    -0.105381195604E+04    0.26207E-04   -0.13234E-04  7283   0.162E-02    0.449E-02
RMM:   5    -0.105381195130E+04    0.47387E-05   -0.49318E-05  7144   0.119E-02    0.299E-02
RMM:   6    -0.105381195307E+04   -0.17720E-05   -0.20451E-05  7027   0.854E-03    0.850E-03
RMM:   7    -0.105381195368E+04   -0.60804E-06   -0.11622E-05  6898   0.550E-03    0.632E-03
RMM:   8    -0.105381195375E+04   -0.68379E-07   -0.70325E-06  6416   0.487E-03
   6 F= -.10538120E+04 E0= -.10538120E+04  d E =-.101095E-02  mag=    72.0000
