<?xml version="1.0" encoding="ISO-8859-1"?>
<modeling>
 <generator>
  <i name="program" type="string">vasp </i>
  <i name="version" type="string">5.4.1  </i>
  <i name="subversion" type="string">05Feb16 (build Jan 25 2017 20:16:33) complex                          parallel </i>
  <i name="platform" type="string">BWXE6 </i>
  <i name="date" type="string">2019 06 26 </i>
  <i name="time" type="string">08:59:47 </i>
 </generator>
 <incar>
  <i type="string" name="SYSTEM"> STF</i>
  <i type="string" name="PREC">normal</i>
  <i type="string" name="ALGO"> Fast</i>
  <i type="int" name="ISPIN">     2</i>
  <i type="int" name="NELM">    40</i>
  <i type="int" name="NELMIN">     8</i>
  <i type="int" name="IBRION">     2</i>
  <i name="EDIFF">      0.00010000</i>
  <i name="EDIFFG">     -0.03000000</i>
  <i type="int" name="NSW">    30</i>
  <i type="int" name="ISIF">     3</i>
  <i name="ENCUT">    520.00000000</i>
  <i type="int" name="NBANDS">   768</i>
  <v name="MAGMOM">      0.60000000      0.60000000      0.60000000      0.60000000      0.60000000      0.60000000      0.60000000      0.60000000      0.60000000      0.60000000      0.60000000      0.60000000      0.60000000      0.60000000      0.60000000      0.60000000      0.60000000      0.60000000      0.60000000      0.60000000
      0.60000000      0.60000000      0.60000000      0.60000000      0.60000000      0.60000000      0.60000000      0.60000000      0.60000000      0.60000000      0.60000000      0.60000000      0.60000000      0.60000000      0.60000000      0.60000000      0.60000000      0.60000000      0.60000000      0.60000000
      0.60000000      0.60000000      0.60000000      0.60000000      0.60000000      0.60000000      0.60000000      0.60000000      5.00000000      5.00000000      5.00000000      5.00000000      5.00000000      5.00000000      5.00000000      5.00000000      5.00000000      5.00000000      5.00000000      5.00000000
      5.00000000      5.00000000      5.00000000      5.00000000      0.60000000      0.60000000      0.60000000      0.60000000      0.60000000      0.60000000      0.60000000      0.60000000      0.60000000      0.60000000      0.60000000      0.60000000      0.60000000      0.60000000      0.60000000      0.60000000
      0.60000000      0.60000000      0.60000000      0.60000000      0.60000000      0.60000000      0.60000000      0.60000000      0.60000000      0.60000000      0.60000000      0.60000000      0.60000000      0.60000000      0.60000000      0.60000000      0.60000000      0.60000000      0.60000000      0.60000000
      0.60000000      0.60000000      0.60000000      0.60000000      0.60000000      0.60000000      0.60000000      0.60000000      0.60000000      0.60000000      0.60000000      0.60000000      0.60000000      0.60000000      0.60000000      0.60000000      0.60000000      0.60000000      0.60000000      0.60000000
      0.60000000      0.60000000      0.60000000      0.60000000      0.60000000      0.60000000      0.60000000      0.60000000      0.60000000      0.60000000      0.60000000      0.60000000      0.60000000      0.60000000      0.60000000      0.60000000      0.60000000      0.60000000      0.60000000      0.60000000
      0.60000000      0.60000000      0.60000000      0.60000000      0.60000000      0.60000000      0.60000000      0.60000000      0.60000000      0.60000000      0.60000000      0.60000000</v>
  <i type="string" name="LREAL"> Auto</i>
  <i type="int" name="ISMEAR">     0</i>
  <i name="SIGMA">      0.05000000</i>
  <i type="int" name="LMAXMIX">     4</i>
  <v type="int" name="KPOINT_BSE">    -1     0     0     0</v>
  <i type="int" name="NELM">    40</i>
  <i type="logical" name="LDAU"> T  </i>
  <v type="int" name="LDAUTYPE">     2</v>
  <v type="int" name="LDAUL">     0     2     2     0</v>
  <v name="LDAUU">      0.00000000      3.00000000      5.00000000      0.00000000</v>
  <v name="LDAUJ">      0.00000000      0.00000000      0.00000000      0.00000000</v>
  <i type="int" name="LDAUPRINT">     1</i>
 </incar>
 <kpoints>
  <generation param="Monkhorst-Pack">
   <v type="int" name="divisions">       2        2        2 </v>
   <v name="usershift">      0.00000000       0.00000000       0.00000000 </v>
   <v name="genvec1">      0.50000000      -0.00000000      -0.00000000 </v>
   <v name="genvec2">      0.00000000       0.50000000       0.00000000 </v>
   <v name="genvec3">      0.00000000      -0.00000000       0.50000000 </v>
   <v name="shift">      0.50000000       0.50000000       0.50000000 </v>
  </generation>
  <varray name="kpointlist" >
   <v>       0.25000000       0.25000000       0.25000000 </v>
   <v>      -0.25000000       0.25000000       0.25000000 </v>
   <v>       0.25000000      -0.25000000       0.25000000 </v>
   <v>      -0.25000000      -0.25000000       0.25000000 </v>
  </varray>
  <varray name="weights" >
   <v>       0.25000000 </v>
   <v>       0.25000000 </v>
   <v>       0.25000000 </v>
   <v>       0.25000000 </v>
  </varray>
 </kpoints>
 <parameters>
  <separator name="general" >
   <i type="string" name="SYSTEM">STF</i>
   <i type="logical" name="LCOMPAT"> F  </i>
  </separator>
  <separator name="electronic" >
   <i type="string" name="PREC">normal</i>
   <i name="ENMAX">    520.00000000</i>
   <i name="ENAUG">    605.39200000</i>
   <i name="EDIFF">      0.00010000</i>
   <i type="int" name="IALGO">    68</i>
   <i type="int" name="IWAVPR">    11</i>
   <i type="int" name="NBANDS">   768</i>
   <i name="NELECT">   1040.00000000</i>
   <i type="int" name="TURBO">     0</i>
   <i type="int" name="IRESTART">     0</i>
   <i type="int" name="NREBOOT">     0</i>
   <i type="int" name="NMIN">     0</i>
   <i name="EREF">      0.00000000</i>
   <separator name="electronic smearing" >
    <i type="int" name="ISMEAR">     0</i>
    <i name="SIGMA">      0.05000000</i>
    <i name="KSPACING">      0.50000000</i>
    <i type="logical" name="KGAMMA"> T  </i>
   </separator>
   <separator name="electronic projectors" >
    <i type="logical" name="LREAL"> T  </i>
    <v name="ROPT">     -0.00050000     -0.00050000     -0.00050000     -0.00050000</v>
    <i type="int" name="LMAXPAW">  -100</i>
    <i type="int" name="LMAXMIX">     4</i>
    <i type="logical" name="NLSPLINE"> F  </i>
   </separator>
   <separator name="electronic startup" >
    <i type="int" name="ISTART">     1</i>
    <i type="int" name="ICHARG">     0</i>
    <i type="int" name="INIWAV">     1</i>
   </separator>
   <separator name="electronic spin" >
    <i type="int" name="ISPIN">     2</i>
    <i type="logical" name="LNONCOLLINEAR"> F  </i>
    <v name="MAGMOM">      0.60000000      0.60000000      0.60000000      0.60000000      0.60000000      0.60000000      0.60000000      0.60000000      0.60000000      0.60000000      0.60000000      0.60000000      0.60000000      0.60000000      0.60000000      0.60000000      0.60000000      0.60000000      0.60000000      0.60000000
      0.60000000      0.60000000      0.60000000      0.60000000      0.60000000      0.60000000      0.60000000      0.60000000      0.60000000      0.60000000      0.60000000      0.60000000      0.60000000      0.60000000      0.60000000      0.60000000      0.60000000      0.60000000      0.60000000      0.60000000
      0.60000000      0.60000000      0.60000000      0.60000000      0.60000000      0.60000000      0.60000000      0.60000000      5.00000000      5.00000000      5.00000000      5.00000000      5.00000000      5.00000000      5.00000000      5.00000000      5.00000000      5.00000000      5.00000000      5.00000000
      5.00000000      5.00000000      5.00000000      5.00000000      0.60000000      0.60000000      0.60000000      0.60000000      0.60000000      0.60000000      0.60000000      0.60000000      0.60000000      0.60000000      0.60000000      0.60000000      0.60000000      0.60000000      0.60000000      0.60000000
      0.60000000      0.60000000      0.60000000      0.60000000      0.60000000      0.60000000      0.60000000      0.60000000      0.60000000      0.60000000      0.60000000      0.60000000      0.60000000      0.60000000      0.60000000      0.60000000      0.60000000      0.60000000      0.60000000      0.60000000
      0.60000000      0.60000000      0.60000000      0.60000000      0.60000000      0.60000000      0.60000000      0.60000000      0.60000000      0.60000000      0.60000000      0.60000000      0.60000000      0.60000000      0.60000000      0.60000000      0.60000000      0.60000000      0.60000000      0.60000000
      0.60000000      0.60000000      0.60000000      0.60000000      0.60000000      0.60000000      0.60000000      0.60000000      0.60000000      0.60000000      0.60000000      0.60000000      0.60000000      0.60000000      0.60000000      0.60000000      0.60000000      0.60000000      0.60000000      0.60000000
      0.60000000      0.60000000      0.60000000      0.60000000      0.60000000      0.60000000      0.60000000      0.60000000      0.60000000      0.60000000      0.60000000      0.60000000</v>
    <i name="NUPDOWN">     -1.00000000</i>
    <i type="logical" name="LSORBIT"> F  </i>
    <v name="SAXIS">      0.00000000      0.00000000      1.00000000</v>
    <i type="logical" name="LSPIRAL"> F  </i>
    <v name="QSPIRAL">      0.00000000      0.00000000      0.00000000</v>
    <i type="logical" name="LZEROZ"> F  </i>
   </separator>
   <separator name="electronic exchange-correlation" >
    <i type="logical" name="LASPH"> F  </i>
    <i type="logical" name="LMETAGGA"> F  </i>
   </separator>
   <separator name="electronic convergence" >
    <i type="int" name="NELM">    40</i>
    <i type="int" name="NELMDL">     0</i>
    <i type="int" name="NELMIN">     8</i>
    <i name="ENINI">    520.00000000</i>
    <separator name="electronic convergence detail" >
     <i type="logical" name="LDIAG"> T  </i>
     <i type="logical" name="LSUBROT"> F  </i>
     <i name="WEIMIN">      0.00100000</i>
     <i name="EBREAK">      0.00000003</i>
     <i name="DEPER">      0.30000000</i>
     <i type="int" name="NRMM">     4</i>
     <i name="TIME">      0.40000000</i>
    </separator>
   </separator>
   <separator name="electronic mixer" >
    <i name="AMIX">      0.40000000</i>
    <i name="BMIX">      1.00000000</i>
    <i name="AMIN">      0.10000000</i>
    <i name="AMIX_MAG">      1.60000000</i>
    <i name="BMIX_MAG">      1.00000000</i>
    <separator name="electronic mixer details" >
     <i type="int" name="IMIX">     4</i>
     <i type="logical" name="MIXFIRST"> F  </i>
     <i type="int" name="MAXMIX">   -45</i>
     <i name="WC">    100.00000000</i>
     <i type="int" name="INIMIX">     1</i>
     <i type="int" name="MIXPRE">     1</i>
     <i type="int" name="MREMOVE">     5</i>
    </separator>
   </separator>
   <separator name="electronic dipolcorrection" >
    <i type="logical" name="LDIPOL"> F  </i>
    <i type="logical" name="LMONO"> F  </i>
    <i type="int" name="IDIPOL">     0</i>
    <i name="EPSILON">      1.00000000</i>
    <v name="DIPOL">   -100.00000000   -100.00000000   -100.00000000</v>
    <i name="EFIELD">      0.00000000</i>
   </separator>
  </separator>
  <separator name="grids" >
   <i type="int" name="NGX">    64</i>
   <i type="int" name="NGY">    64</i>
   <i type="int" name="NGZ">    90</i>
   <i type="int" name="NGXF">   128</i>
   <i type="int" name="NGYF">   128</i>
   <i type="int" name="NGZF">   180</i>
   <i type="logical" name="ADDGRID"> F  </i>
  </separator>
  <separator name="ionic" >
   <i type="int" name="NSW">    30</i>
   <i type="int" name="IBRION">     2</i>
   <i type="int" name="ISIF">     3</i>
   <i name="PSTRESS">      0.00000000</i>
   <i name="EDIFFG">     -0.03000000</i>
   <i type="int" name="NFREE">     1</i>
   <i name="POTIM">      0.50000000</i>
   <i name="SMASS">     -3.00000000</i>
   <i name="SCALEE">      1.00000000</i>
  </separator>
  <separator name="ionic md" >
   <i name="TEBEG">      0.00010000</i>
   <i name="TEEND">      0.00010000</i>
   <i type="int" name="NBLOCK">     1</i>
   <i type="int" name="KBLOCK">    30</i>
   <i type="int" name="NPACO">   256</i>
   <i name="APACO">     16.00000000</i>
  </separator>
  <separator name="symmetry" >
   <i type="int" name="ISYM">     2</i>
   <i name="SYMPREC">      0.00001000</i>
  </separator>
  <separator name="dos" >
   <i type="logical" name="LORBIT"> F  </i>
   <v name="RWIGS">     -1.00000000     -1.00000000     -1.00000000     -1.00000000</v>
   <i type="int" name="NEDOS">   301</i>
   <i name="EMIN">     10.00000000</i>
   <i name="EMAX">    -10.00000000</i>
   <i name="EFERMI">      0.00000000</i>
  </separator>
  <separator name="writing" >
   <i type="int" name="NWRITE">     2</i>
   <i type="logical" name="LWAVE"> T  </i>
   <i type="logical" name="LCHARG"> T  </i>
   <i type="logical" name="LPARD"> F  </i>
   <i type="logical" name="LVTOT"> F  </i>
   <i type="logical" name="LVHAR"> F  </i>
   <i type="logical" name="LELF"> F  </i>
   <i type="logical" name="LOPTICS"> F  </i>
   <v name="STM">      0.00000000      0.00000000      0.00000000      0.00000000      0.00000000      0.00000000      0.00000000</v>
  </separator>
  <separator name="performance" >
   <i type="int" name="NPAR">     2</i>
   <i type="int" name="NSIM">     4</i>
   <i type="int" name="NBLK">    -1</i>
   <i type="logical" name="LPLANE"> T  </i>
   <i type="logical" name="LSCALAPACK"> T  </i>
   <i type="logical" name="LSCAAWARE"> F  </i>
   <i type="logical" name="LSCALU"> F  </i>
   <i type="logical" name="LASYNC"> F  </i>
   <i type="logical" name="LORBITALREAL"> F  </i>
  </separator>
  <separator name="miscellaneous" >
   <i type="int" name="IDIOT">     3</i>
   <i type="logical" name="LMUSIC"> F  </i>
   <v name="POMASS">     87.62000000     47.88000000     55.84700000     16.00000000</v>
   <v name="DARWINR">      0.00000000      0.00000000      0.00000000      0.00000000</v>
   <v name="DARWINV">      1.00000000      1.00000000      1.00000000      1.00000000</v>
   <i type="logical" name="LCORR"> T  </i>
  </separator>
  <i type="logical" name="GGA_COMPAT"> T  </i>
  <i type="logical" name="LBERRY"> F  </i>
  <i type="int" name="ICORELEVEL">     0</i>
  <i type="logical" name="LDAU"> T  </i>
  <v type="int" name="LDAUTYPE">     2</v>
  <v type="int" name="LDAUL">     0</v>
  <v name="LDAUU">      0.00000000</v>
  <v name="LDAUJ">      0.00000000</v>
  <i type="int" name="LDAUPRINT">     1</i>
  <i type="int" name="I_CONSTRAINED_M">     0</i>
  <separator name="electronic exchange-correlation" >
   <i type="string" name="GGA">--</i>
   <i type="int" name="VOSKOWN">     0</i>
   <i type="logical" name="LHFCALC"> F  </i>
   <i type="string" name="PRECFOCK"></i>
   <i type="logical" name="LSYMGRAD"> F  </i>
   <i type="logical" name="LHFONE"> F  </i>
   <i type="logical" name="LRHFCALC"> F  </i>
   <i type="logical" name="LTHOMAS"> F  </i>
   <i type="logical" name="LMODELHF"> F  </i>
   <i name="ENCUT4O">     -1.00000000</i>
   <i type="int" name="EXXOEP">     0</i>
   <i type="int" name="FOURORBIT">     0</i>
   <i name="AEXX">      0.00000000</i>
   <i name="HFALPHA">      0.00000000</i>
   <i name="MCALPHA">      0.00000000</i>
   <i name="ALDAX">      1.00000000</i>
   <i name="AGGAX">      1.00000000</i>
   <i name="ALDAC">      1.00000000</i>
   <i name="AGGAC">      1.00000000</i>
   <i type="int" name="NKREDX">     1</i>
   <i type="int" name="NKREDY">     1</i>
   <i type="int" name="NKREDZ">     1</i>
   <i type="logical" name="SHIFTRED"> F  </i>
   <i type="logical" name="ODDONLY"> F  </i>
   <i type="logical" name="EVENONLY"> F  </i>
   <i type="int" name="LMAXFOCK">     0</i>
   <i type="int" name="NMAXFOCKAE">     0</i>
   <i type="logical" name="LFOCKAEDFT"> F  </i>
   <i name="HFSCREEN">      0.00000000</i>
   <i name="HFSCREENC">      0.00000000</i>
   <i type="int" name="NBANDSGWLOW">     0</i>
  </separator>
  <separator name="vdW DFT" >
   <i type="logical" name="LUSE_VDW"> F  </i>
   <i name="Zab_VDW">     -0.84910000</i>
   <i name="PARAM1">      0.12340000</i>
   <i name="PARAM2">      1.00000000</i>
   <i name="PARAM3">      0.00000000</i>
  </separator>
  <separator name="model GW" >
   <i type="int" name="MODEL_GW">     0</i>
   <i name="MODEL_EPS0">      7.90301431</i>
   <i name="MODEL_ALPHA">      1.00000000</i>
  </separator>
  <separator name="linear response parameters" >
   <i type="logical" name="LEPSILON"> F  </i>
   <i type="logical" name="LRPA"> F  </i>
   <i type="logical" name="LNABLA"> F  </i>
   <i type="logical" name="LVEL"> F  </i>
   <i type="int" name="KINTER">     0</i>
   <i name="CSHIFT">      0.10000000</i>
   <i name="OMEGAMAX">     -1.00000000</i>
   <i name="DEG_THRESHOLD">      0.00200000</i>
  </separator>
  <separator name="orbital magnetization" >
   <i type="logical" name="NUCIND"> F  </i>
   <v name="MAGPOS">      0.00000000      0.00000000      0.00000000</v>
   <i type="logical" name="LNICSALL"> T  </i>
   <i type="logical" name="ORBITALMAG"> F  </i>
   <i type="logical" name="LMAGBLOCH"> F  </i>
   <i type="logical" name="LCHIMAG"> F  </i>
   <i type="logical" name="LGAUGE"> T  </i>
   <i type="int" name="MAGATOM">     0</i>
   <v name="MAGDIPOL">      0.00000000      0.00000000      0.00000000</v>
   <v name="AVECCONST">      0.00000000      0.00000000      0.00000000</v>
  </separator>
  <separator name="response functions" >
   <i type="logical" name="LADDER"> F  </i>
   <i type="logical" name="LFXC"> F  </i>
   <i type="logical" name="LHARTREE"> T  </i>
   <i type="int" name="IBSE">     0</i>
   <v type="int" name="KPOINT">    -1     0     0     0</v>
   <i type="logical" name="LTCTE"> F  </i>
   <i type="logical" name="LTETE"> F  </i>
   <i type="logical" name="LTRIPLET"> F  </i>
   <i type="logical" name="LFXCEPS"> F  </i>
   <i type="logical" name="LFXHEG"> F  </i>
   <i type="int" name="NATURALO">     0</i>
   <i type="logical" name="L2ORDER"> F  </i>
   <i type="logical" name="LUSEW"> F  </i>
   <i name="ENCUTGW">     -2.00000000</i>
   <i name="ENCUTGWSOFT">     -2.00000000</i>
   <i name="ENCUTLF">     -1.00000000</i>
   <i type="int" name="LMAXMP2">    -1</i>
   <i name="SCISSOR">      0.00000000</i>
   <i type="int" name="NOMEGA">     0</i>
   <i type="int" name="NOMEGAR">     0</i>
   <i type="int" name="NBANDSGW">    -1</i>
   <i type="int" name="NBANDSO">    -1</i>
   <i type="int" name="NBANDSV">    -1</i>
   <i type="int" name="NELM">    40</i>
   <i type="int" name="NELMHF">     1</i>
   <i type="int" name="DIM">     3</i>
   <i type="int" name="ANTIRES">     0</i>
   <i name="OMEGAMAX">    -30.00000000</i>
   <i name="OMEGAMIN">    -30.00000000</i>
   <i name="OMEGATL">   -200.00000000</i>
   <i type="int" name="OMEGAGRID">     0</i>
   <i name="CSHIFT">     -0.10000000</i>
   <i type="logical" name="SELFENERGY"> F  </i>
   <i type="logical" name="LSPECTRAL"> F  </i>
   <i type="logical" name="LSPECTRALGW"> F  </i>
   <i type="logical" name="LSINGLES"> F  </i>
   <i type="logical" name="LFERMIGW"> F  </i>
   <i type="logical" name="ODDONLYGW"> F  </i>
   <i type="logical" name="EVENONLYGW"> F  </i>
   <i type="int" name="NKREDLFX">     1</i>
   <i type="int" name="NKREDLFY">     1</i>
   <i type="int" name="NKREDLFZ">     1</i>
   <i type="int" name="MAXMEM">  1800</i>
   <i type="int" name="TELESCOPE">     0</i>
   <i type="int" name="TAUPAR">     1</i>
   <i type="int" name="OMEGAPAR">    -1</i>
   <i name="LAMBDA">      1.00000000</i>
  </separator>
  <separator name="External order field" >
   <i name="OFIELD_KAPPA">      0.00000000</i>
   <v name="OFIELD_K">      0.00000000      0.00000000      0.00000000</v>
   <i name="OFIELD_Q6_NEAR">      0.00000000</i>
   <i name="OFIELD_Q6_FAR">      0.00000000</i>
   <i name="OFIELD_A">      0.00000000</i>
  </separator>
 </parameters>
 <atominfo>
  <atoms>     152 </atoms>
  <types>       4 </types>
  <array name="atoms" >
   <dimension dim="1">ion</dimension>
   <field type="string">element</field>
   <field type="int">atomtype</field>
   <set>
    <rc><c>Sr</c><c>   1</c></rc>
    <rc><c>Sr</c><c>   1</c></rc>
    <rc><c>Sr</c><c>   1</c></rc>
    <rc><c>Sr</c><c>   1</c></rc>
    <rc><c>Sr</c><c>   1</c></rc>
    <rc><c>Sr</c><c>   1</c></rc>
    <rc><c>Sr</c><c>   1</c></rc>
    <rc><c>Sr</c><c>   1</c></rc>
    <rc><c>Sr</c><c>   1</c></rc>
    <rc><c>Sr</c><c>   1</c></rc>
    <rc><c>Sr</c><c>   1</c></rc>
    <rc><c>Sr</c><c>   1</c></rc>
    <rc><c>Sr</c><c>   1</c></rc>
    <rc><c>Sr</c><c>   1</c></rc>
    <rc><c>Sr</c><c>   1</c></rc>
    <rc><c>Sr</c><c>   1</c></rc>
    <rc><c>Sr</c><c>   1</c></rc>
    <rc><c>Sr</c><c>   1</c></rc>
    <rc><c>Sr</c><c>   1</c></rc>
    <rc><c>Sr</c><c>   1</c></rc>
    <rc><c>Sr</c><c>   1</c></rc>
    <rc><c>Sr</c><c>   1</c></rc>
    <rc><c>Sr</c><c>   1</c></rc>
    <rc><c>Sr</c><c>   1</c></rc>
    <rc><c>Sr</c><c>   1</c></rc>
    <rc><c>Sr</c><c>   1</c></rc>
    <rc><c>Sr</c><c>   1</c></rc>
    <rc><c>Sr</c><c>   1</c></rc>
    <rc><c>Sr</c><c>   1</c></rc>
    <rc><c>Sr</c><c>   1</c></rc>
    <rc><c>Sr</c><c>   1</c></rc>
    <rc><c>Sr</c><c>   1</c></rc>
    <rc><c>Ti</c><c>   2</c></rc>
    <rc><c>Ti</c><c>   2</c></rc>
    <rc><c>Ti</c><c>   2</c></rc>
    <rc><c>Ti</c><c>   2</c></rc>
    <rc><c>Ti</c><c>   2</c></rc>
    <rc><c>Ti</c><c>   2</c></rc>
    <rc><c>Ti</c><c>   2</c></rc>
    <rc><c>Ti</c><c>   2</c></rc>
    <rc><c>Ti</c><c>   2</c></rc>
    <rc><c>Ti</c><c>   2</c></rc>
    <rc><c>Ti</c><c>   2</c></rc>
    <rc><c>Ti</c><c>   2</c></rc>
    <rc><c>Ti</c><c>   2</c></rc>
    <rc><c>Ti</c><c>   2</c></rc>
    <rc><c>Ti</c><c>   2</c></rc>
    <rc><c>Ti</c><c>   2</c></rc>
    <rc><c>Fe</c><c>   3</c></rc>
    <rc><c>Fe</c><c>   3</c></rc>
    <rc><c>Fe</c><c>   3</c></rc>
    <rc><c>Fe</c><c>   3</c></rc>
    <rc><c>Fe</c><c>   3</c></rc>
    <rc><c>Fe</c><c>   3</c></rc>
    <rc><c>Fe</c><c>   3</c></rc>
    <rc><c>Fe</c><c>   3</c></rc>
    <rc><c>Fe</c><c>   3</c></rc>
    <rc><c>Fe</c><c>   3</c></rc>
    <rc><c>Fe</c><c>   3</c></rc>
    <rc><c>Fe</c><c>   3</c></rc>
    <rc><c>Fe</c><c>   3</c></rc>
    <rc><c>Fe</c><c>   3</c></rc>
    <rc><c>Fe</c><c>   3</c></rc>
    <rc><c>Fe</c><c>   3</c></rc>
    <rc><c>O </c><c>   4</c></rc>
    <rc><c>O </c><c>   4</c></rc>
    <rc><c>O </c><c>   4</c></rc>
    <rc><c>O </c><c>   4</c></rc>
    <rc><c>O </c><c>   4</c></rc>
    <rc><c>O </c><c>   4</c></rc>
    <rc><c>O </c><c>   4</c></rc>
    <rc><c>O </c><c>   4</c></rc>
    <rc><c>O </c><c>   4</c></rc>
    <rc><c>O </c><c>   4</c></rc>
    <rc><c>O </c><c>   4</c></rc>
    <rc><c>O </c><c>   4</c></rc>
    <rc><c>O </c><c>   4</c></rc>
    <rc><c>O </c><c>   4</c></rc>
    <rc><c>O </c><c>   4</c></rc>
    <rc><c>O </c><c>   4</c></rc>
    <rc><c>O </c><c>   4</c></rc>
    <rc><c>O </c><c>   4</c></rc>
    <rc><c>O </c><c>   4</c></rc>
    <rc><c>O </c><c>   4</c></rc>
    <rc><c>O </c><c>   4</c></rc>
    <rc><c>O </c><c>   4</c></rc>
    <rc><c>O </c><c>   4</c></rc>
    <rc><c>O </c><c>   4</c></rc>
    <rc><c>O </c><c>   4</c></rc>
    <rc><c>O </c><c>   4</c></rc>
    <rc><c>O </c><c>   4</c></rc>
    <rc><c>O </c><c>   4</c></rc>
    <rc><c>O </c><c>   4</c></rc>
    <rc><c>O </c><c>   4</c></rc>
    <rc><c>O </c><c>   4</c></rc>
    <rc><c>O </c><c>   4</c></rc>
    <rc><c>O </c><c>   4</c></rc>
    <rc><c>O </c><c>   4</c></rc>
    <rc><c>O </c><c>   4</c></rc>
    <rc><c>O </c><c>   4</c></rc>
    <rc><c>O </c><c>   4</c></rc>
    <rc><c>O </c><c>   4</c></rc>
    <rc><c>O </c><c>   4</c></rc>
    <rc><c>O </c><c>   4</c></rc>
    <rc><c>O </c><c>   4</c></rc>
    <rc><c>O </c><c>   4</c></rc>
    <rc><c>O </c><c>   4</c></rc>
    <rc><c>O </c><c>   4</c></rc>
    <rc><c>O </c><c>   4</c></rc>
    <rc><c>O </c><c>   4</c></rc>
    <rc><c>O </c><c>   4</c></rc>
    <rc><c>O </c><c>   4</c></rc>
    <rc><c>O </c><c>   4</c></rc>
    <rc><c>O </c><c>   4</c></rc>
    <rc><c>O </c><c>   4</c></rc>
    <rc><c>O </c><c>   4</c></rc>
    <rc><c>O </c><c>   4</c></rc>
    <rc><c>O </c><c>   4</c></rc>
    <rc><c>O </c><c>   4</c></rc>
    <rc><c>O </c><c>   4</c></rc>
    <rc><c>O </c><c>   4</c></rc>
    <rc><c>O </c><c>   4</c></rc>
    <rc><c>O </c><c>   4</c></rc>
    <rc><c>O </c><c>   4</c></rc>
    <rc><c>O </c><c>   4</c></rc>
    <rc><c>O </c><c>   4</c></rc>
    <rc><c>O </c><c>   4</c></rc>
    <rc><c>O </c><c>   4</c></rc>
    <rc><c>O </c><c>   4</c></rc>
    <rc><c>O </c><c>   4</c></rc>
    <rc><c>O </c><c>   4</c></rc>
    <rc><c>O </c><c>   4</c></rc>
    <rc><c>O </c><c>   4</c></rc>
    <rc><c>O </c><c>   4</c></rc>
    <rc><c>O </c><c>   4</c></rc>
    <rc><c>O </c><c>   4</c></rc>
    <rc><c>O </c><c>   4</c></rc>
    <rc><c>O </c><c>   4</c></rc>
    <rc><c>O </c><c>   4</c></rc>
    <rc><c>O </c><c>   4</c></rc>
    <rc><c>O </c><c>   4</c></rc>
    <rc><c>O </c><c>   4</c></rc>
    <rc><c>O </c><c>   4</c></rc>
    <rc><c>O </c><c>   4</c></rc>
    <rc><c>O </c><c>   4</c></rc>
    <rc><c>O </c><c>   4</c></rc>
    <rc><c>O </c><c>   4</c></rc>
    <rc><c>O </c><c>   4</c></rc>
    <rc><c>O </c><c>   4</c></rc>
    <rc><c>O </c><c>   4</c></rc>
    <rc><c>O </c><c>   4</c></rc>
    <rc><c>O </c><c>   4</c></rc>
   </set>
  </array>
  <array name="atomtypes" >
   <dimension dim="1">type</dimension>
   <field type="int">atomspertype</field>
   <field type="string">element</field>
   <field>mass</field>
   <field>valence</field>
   <field type="string">pseudopotential</field>
   <set>
    <rc><c>  32</c><c>Sr</c><c>     87.62000000</c><c>     10.00000000</c><c>  PAW_PBE Sr_sv 07Sep2000               </c></rc>
    <rc><c>  16</c><c>Ti</c><c>     47.88000000</c><c>      4.00000000</c><c>  PAW_PBE Ti 08Apr2002                  </c></rc>
    <rc><c>  16</c><c>Fe</c><c>     55.84700000</c><c>      8.00000000</c><c>  PAW_PBE Fe 06Sep2000                  </c></rc>
    <rc><c>  88</c><c>O </c><c>     16.00000000</c><c>      6.00000000</c><c>  PAW_PBE O 08Apr2002                   </c></rc>
   </set>
  </array>
 </atominfo>
 <structure name="initialpos" >
  <crystal>
   <varray name="basis" >
    <v>      11.20204570      -0.01780597      -0.03026759 </v>
    <v>      -0.01778657      11.20275301      -0.00448869 </v>
    <v>      -0.04359388      -0.00626999      15.95391878 </v>
   </varray>
   <i name="volume">   2002.09695884 </i>
   <varray name="rec_basis" >
    <v>       0.08927029       0.00014183       0.00024399 </v>
    <v>       0.00014198       0.08926401       0.00003547 </v>
    <v>       0.00016940       0.00002538       0.06268100 </v>
   </varray>
  </crystal>
  <varray name="positions" >
   <v>       0.00071118       0.25432167       0.12697335 </v>
   <v>       0.00224789       0.24192440       0.62158591 </v>
   <v>       0.99762093       0.74941262       0.12795152 </v>
   <v>       0.00957748       0.76073374       0.62701855 </v>
   <v>       0.48861533       0.24510524       0.12255810 </v>
   <v>       0.49426209       0.24472564       0.62945548 </v>
   <v>       0.51076233       0.75767913       0.11751393 </v>
   <v>       0.49210838       0.75554554       0.63570216 </v>
   <v>       0.00869706       0.24351611       0.37465460 </v>
   <v>       0.99939564       0.23903379       0.86970367 </v>
   <v>       0.01409183       0.75790644       0.36358138 </v>
   <v>       0.00042827       0.76229114       0.87058804 </v>
   <v>       0.48941388       0.23768561       0.37978695 </v>
   <v>       0.49636350       0.24988131       0.87333205 </v>
   <v>       0.49019457       0.76029197       0.37240030 </v>
   <v>       0.50445547       0.74925956       0.87556756 </v>
   <v>       0.25294103       0.00321215       0.12897223 </v>
   <v>       0.25841003       0.00462864       0.62501195 </v>
   <v>       0.24716286       0.49242673       0.12309977 </v>
   <v>       0.26200202       0.49668821       0.62378191 </v>
   <v>       0.74607603       0.99317087       0.12862791 </v>
   <v>       0.74156101       0.01310199       0.63219062 </v>
   <v>       0.75202336       0.50438802       0.11924057 </v>
   <v>       0.74229000       0.49199975       0.63142798 </v>
   <v>       0.25069241       0.00356299       0.37810957 </v>
   <v>       0.25474196       0.00150744       0.86762558 </v>
   <v>       0.24288785       0.49751484       0.37591338 </v>
   <v>       0.26339145       0.49425271       0.87248849 </v>
   <v>       0.75609837       0.00008549       0.37397299 </v>
   <v>       0.74254975       0.00710456       0.87182060 </v>
   <v>       0.75919548       0.48764199       0.36790898 </v>
   <v>       0.73890790       0.49628020       0.87728937 </v>
   <v>       0.00820098       0.00340797       0.49785926 </v>
   <v>       0.50242853       0.00296265       0.00118593 </v>
   <v>       0.25024420       0.75109648       0.99192604 </v>
   <v>       0.25233517       0.74830646       0.49994345 </v>
   <v>       0.74720872       0.25219558       0.50190787 </v>
   <v>       0.73162732       0.75173507       0.51196537 </v>
   <v>       0.24550890       0.24647898       0.25029248 </v>
   <v>       0.24864120       0.24876413       0.74968602 </v>
   <v>       0.25148681       0.74958848       0.74816743 </v>
   <v>       0.74967511       0.24819639       0.25901045 </v>
   <v>       0.74766506       0.25097436       0.75176119 </v>
   <v>       0.75305837       0.75306786       0.75846055 </v>
   <v>       0.00051076       0.50409898       0.25072085 </v>
   <v>       0.99824831       0.50353956       0.73799967 </v>
   <v>       0.49895792       0.99546154       0.24934913 </v>
   <v>       0.50135392       0.50461911       0.24066678 </v>
   <v>       0.99890761       0.99969733       0.00294808 </v>
   <v>       0.99874264       0.50134678       0.01139373 </v>
   <v>       0.01086897       0.48660228       0.49742297 </v>
   <v>       0.49536654       0.00426129       0.50303091 </v>
   <v>       0.50254283       0.49802408       0.99992745 </v>
   <v>       0.50124451       0.49915780       0.50737415 </v>
   <v>       0.25599544       0.26354439       0.99723340 </v>
   <v>       0.25592522       0.25270810       0.50060265 </v>
   <v>       0.74947792       0.25235302       0.99218309 </v>
   <v>       0.74446934       0.73855698       0.99654836 </v>
   <v>       0.25144271       0.75043843       0.25949575 </v>
   <v>       0.75170926       0.74957801       0.24072752 </v>
   <v>       0.99888827       0.99665321       0.24451081 </v>
   <v>       0.99822275       0.99961771       0.74405577 </v>
   <v>       0.49984403       0.00027868       0.74986126 </v>
   <v>       0.50125116       0.50048350       0.75427869 </v>
   <v>       0.11507152       0.12988986       0.24200031 </v>
   <v>       0.11237724       0.13406335       0.74067996 </v>
   <v>       0.12607032       0.62945286       0.23944742 </v>
   <v>       0.11229573       0.63283595       0.76217131 </v>
   <v>       0.61989807       0.13357378       0.24355403 </v>
   <v>       0.61674343       0.13580397       0.75097560 </v>
   <v>       0.62119613       0.62670135       0.27410259 </v>
   <v>       0.62142407       0.63759207       0.75934146 </v>
   <v>       0.38385709       0.37057115       0.25353646 </v>
   <v>       0.38048799       0.36526186       0.75613450 </v>
   <v>       0.38013479       0.86173913       0.23404824 </v>
   <v>       0.38399734       0.86283580       0.75366216 </v>
   <v>       0.87412164       0.36943259       0.23945291 </v>
   <v>       0.88744404       0.36874480       0.75531681 </v>
   <v>       0.87374568       0.86979033       0.26136581 </v>
   <v>       0.88929099       0.86133656       0.74890648 </v>
   <v>       0.36657043       0.11776543       0.24426439 </v>
   <v>       0.36368425       0.11697385       0.74955550 </v>
   <v>       0.37216340       0.61538868       0.26466375 </v>
   <v>       0.36489044       0.61633961       0.75182254 </v>
   <v>       0.86271705       0.12644065       0.23086532 </v>
   <v>       0.86343132       0.11667302       0.75278581 </v>
   <v>       0.86976942       0.62294281       0.25571316 </v>
   <v>       0.87088442       0.61008575       0.77369172 </v>
   <v>       0.12747293       0.38063729       0.25546671 </v>
   <v>       0.12863360       0.39034657       0.75711472 </v>
   <v>       0.13177038       0.87392188       0.23471082 </v>
   <v>       0.13611659       0.88286070       0.74574232 </v>
   <v>       0.63101807       0.38064960       0.24817860 </v>
   <v>       0.63576216       0.38432142       0.74917293 </v>
   <v>       0.63069135       0.87619428       0.25844898 </v>
   <v>       0.63953797       0.88263717       0.74615086 </v>
   <v>       0.36906659       0.38547455       0.00427968 </v>
   <v>       0.36937802       0.39198061       0.48415745 </v>
   <v>       0.36837206       0.87724552       0.01475023 </v>
   <v>       0.36181884       0.88322348       0.50329936 </v>
   <v>       0.86510987       0.38182882       0.00634002 </v>
   <v>       0.86135948       0.39259016       0.50127324 </v>
   <v>       0.86382866       0.82449763       0.46554281 </v>
   <v>       0.13410790       0.11209663       0.50715769 </v>
   <v>       0.13405995       0.62865351       0.01630432 </v>
   <v>       0.13113671       0.61591977       0.49931672 </v>
   <v>       0.63426368       0.12205172       0.01057617 </v>
   <v>       0.63550597       0.11912791       0.49639710 </v>
   <v>       0.63208447       0.61685267       0.99529798 </v>
   <v>       0.65395531       0.61340656       0.47254792 </v>
   <v>       0.11132158       0.37489729       0.98378889 </v>
   <v>       0.11327619       0.35727380       0.49877114 </v>
   <v>       0.11999277       0.87886370       0.00857198 </v>
   <v>       0.11315167       0.86397035       0.50267212 </v>
   <v>       0.62251081       0.36397478       0.02260954 </v>
   <v>       0.61553287       0.36892727       0.48436874 </v>
   <v>       0.62817381       0.87468145       0.00278096 </v>
   <v>       0.61667619       0.86623815       0.49944352 </v>
   <v>       0.37071446       0.12561131       0.00369850 </v>
   <v>       0.38369049       0.13710034       0.50272776 </v>
   <v>       0.37635496       0.63870257       0.01155222 </v>
   <v>       0.39203778       0.63623856       0.48880485 </v>
   <v>       0.89089557       0.12766237       0.00308778 </v>
   <v>       0.88072047       0.12888344       0.49757830 </v>
   <v>       0.89199600       0.63762600       0.98764288 </v>
   <v>       0.97923054       0.98158013       0.11617197 </v>
   <v>       0.97755612       0.98892620       0.61820675 </v>
   <v>       0.99758077       0.49836123       0.12886070 </v>
   <v>       0.98548959       0.51989057       0.62218663 </v>
   <v>       0.50659006       0.99913156       0.12661190 </v>
   <v>       0.50139839       0.99943570       0.62621534 </v>
   <v>       0.50367689       0.51986724       0.12762494 </v>
   <v>       0.50673051       0.50713490       0.62451711 </v>
   <v>       0.00397608       0.00570575       0.37330019 </v>
   <v>       0.00989924       0.00180279       0.88713690 </v>
   <v>       0.99291922       0.50943045       0.37536010 </v>
   <v>       0.49028991       0.99902612       0.37163175 </v>
   <v>       0.50063535       0.99975717       0.87900487 </v>
   <v>       0.50011089       0.49490573       0.87872393 </v>
   <v>       0.24542966       0.23848509       0.37180619 </v>
   <v>       0.23805649       0.23321487       0.87693396 </v>
   <v>       0.24521211       0.76210477       0.37655636 </v>
   <v>       0.25014247       0.75253775       0.87662120 </v>
   <v>       0.76296513       0.24502437       0.37352444 </v>
   <v>       0.74331806       0.25324428       0.87481405 </v>
   <v>       0.76123303       0.77778169       0.87934626 </v>
   <v>       0.23255604       0.25218450       0.12038320 </v>
   <v>       0.25323071       0.26355162       0.62649252 </v>
   <v>       0.25189897       0.73927318       0.62581364 </v>
   <v>       0.74886004       0.25389241       0.62416230 </v>
   <v>       0.75948152       0.75126977       0.12072466 </v>
   <v>       0.76424141       0.72739945       0.62553159 </v>
  </varray>
 </structure>
 <calculation>
  <scstep>
   <time name="dav">  601.04  601.06</time>
   <time name="total">  608.15  608.21</time>
   <energy>
    <i name="alphaZ">   5625.22081799 </i>
    <i name="ewald"> -62067.72506683 </i>
    <i name="hartreedc"> -17552.89181473 </i>
    <i name="XCdc">   3183.17664301 </i>
    <i name="pawpsdc"> 113470.32011714 </i>
    <i name="pawaedc">-112672.78142650 </i>
    <i name="eentropy">     -0.00000000 </i>
    <i name="bandstr">  -7089.30358812 </i>
    <i name="atom">  76050.17612637 </i>
    <i name="e_fr_energy">  -1053.80819168 </i>
    <i name="e_wo_entrp">  -1053.80819168 </i>
    <i name="e_0_energy">  -1053.80819168 </i>
   </energy>
  </scstep>
  <scstep>
   <time name="diag">   64.67   64.72</time>
   <time name="diis">   62.62   62.63</time>
   <time name="orth">   33.36   33.36</time>
   <time name="total">  167.84  167.98</time>
   <energy>
    <i name="e_fr_energy">  -1053.80819300 </i>
    <i name="e_wo_entrp">  -1053.80819300 </i>
    <i name="e_0_energy">  -1053.80819300 </i>
   </energy>
  </scstep>
  <scstep>
   <time name="diag">   64.55   64.61</time>
   <time name="diis">   59.26   59.31</time>
   <time name="orth">   33.34   33.37</time>
   <time name="total">  164.34  164.59</time>
   <energy>
    <i name="e_fr_energy">  -1053.80819331 </i>
    <i name="e_wo_entrp">  -1053.80819331 </i>
    <i name="e_0_energy">  -1053.80819331 </i>
   </energy>
  </scstep>
  <scstep>
   <time name="diag">   64.60   64.60</time>
   <time name="diis">   54.20   54.26</time>
   <time name="orth">   33.38   33.39</time>
   <time name="total">  159.38  159.51</time>
   <energy>
    <i name="e_fr_energy">  -1053.80819383 </i>
    <i name="e_wo_entrp">  -1053.80819383 </i>
    <i name="e_0_energy">  -1053.80819383 </i>
   </energy>
  </scstep>
  <scstep>
   <time name="diag">   64.75   64.76</time>
   <time name="diis">   52.82   52.82</time>
   <time name="orth">   33.32   33.33</time>
   <time name="total">  158.09  158.24</time>
   <energy>
    <i name="e_fr_energy">  -1053.80819417 </i>
    <i name="e_wo_entrp">  -1053.80819417 </i>
    <i name="e_0_energy">  -1053.80819417 </i>
   </energy>
  </scstep>
  <scstep>
   <time name="diag">   64.70   64.72</time>
   <time name="diis">   48.22   48.26</time>
   <time name="orth">   33.35   33.37</time>
   <time name="total">  153.46  153.61</time>
   <energy>
    <i name="e_fr_energy">  -1053.80819448 </i>
    <i name="e_wo_entrp">  -1053.80819448 </i>
    <i name="e_0_energy">  -1053.80819448 </i>
   </energy>
  </scstep>
  <scstep>
   <time name="diag">   64.79   64.81</time>
   <time name="diis">   47.61   47.64</time>
   <time name="orth">   33.39   33.40</time>
   <time name="total">  152.99  153.35</time>
   <energy>
    <i name="e_fr_energy">  -1053.80819466 </i>
    <i name="e_wo_entrp">  -1053.80819466 </i>
    <i name="e_0_energy">  -1053.80819466 </i>
   </energy>
  </scstep>
  <scstep>
   <time name="diag">   64.73   64.73</time>
   <time name="diis">   44.97   44.97</time>
   <time name="orth">   33.43   33.44</time>
   <time name="total">  144.18  144.27</time>
   <energy>
    <i name="alphaZ">   5625.22081799 </i>
    <i name="ewald"> -62067.72506683 </i>
    <i name="hartreedc"> -17552.90413958 </i>
    <i name="XCdc">   3183.17699382 </i>
    <i name="pawpsdc"> 113469.26101810 </i>
    <i name="pawaedc">-112671.72026706 </i>
    <i name="eentropy">     -0.00000000 </i>
    <i name="bandstr">  -7089.29367756 </i>
    <i name="atom">  76050.17612637 </i>
    <i name="e_fr_energy">  -1053.80819475 </i>
    <i name="e_wo_entrp">  -1053.80819475 </i>
    <i name="e_0_energy">  -1053.80819475 </i>
   </energy>
  </scstep>
  <structure>
   <crystal>
    <varray name="basis" >
     <v>      11.20204570      -0.01780597      -0.03026759 </v>
     <v>      -0.01778657      11.20275301      -0.00448869 </v>
     <v>      -0.04359388      -0.00626999      15.95391878 </v>
    </varray>
    <i name="volume">   2002.09695884 </i>
    <varray name="rec_basis" >
     <v>       0.08927029       0.00014183       0.00024399 </v>
     <v>       0.00014198       0.08926401       0.00003547 </v>
     <v>       0.00016940       0.00002538       0.06268100 </v>
    </varray>
   </crystal>
   <varray name="positions" >
    <v>       0.00071118       0.25432167       0.12697335 </v>
    <v>       0.00224789       0.24192440       0.62158591 </v>
    <v>       0.99762093       0.74941262       0.12795152 </v>
    <v>       0.00957748       0.76073374       0.62701855 </v>
    <v>       0.48861533       0.24510524       0.12255810 </v>
    <v>       0.49426209       0.24472564       0.62945548 </v>
    <v>       0.51076233       0.75767913       0.11751393 </v>
    <v>       0.49210838       0.75554554       0.63570216 </v>
    <v>       0.00869706       0.24351611       0.37465460 </v>
    <v>       0.99939564       0.23903379       0.86970367 </v>
    <v>       0.01409183       0.75790644       0.36358138 </v>
    <v>       0.00042827       0.76229114       0.87058804 </v>
    <v>       0.48941388       0.23768561       0.37978695 </v>
    <v>       0.49636350       0.24988131       0.87333205 </v>
    <v>       0.49019457       0.76029197       0.37240030 </v>
    <v>       0.50445547       0.74925956       0.87556756 </v>
    <v>       0.25294103       0.00321215       0.12897223 </v>
    <v>       0.25841003       0.00462864       0.62501195 </v>
    <v>       0.24716286       0.49242673       0.12309977 </v>
    <v>       0.26200202       0.49668821       0.62378191 </v>
    <v>       0.74607603       0.99317087       0.12862791 </v>
    <v>       0.74156101       0.01310199       0.63219062 </v>
    <v>       0.75202336       0.50438802       0.11924057 </v>
    <v>       0.74229000       0.49199975       0.63142798 </v>
    <v>       0.25069241       0.00356299       0.37810957 </v>
    <v>       0.25474196       0.00150744       0.86762558 </v>
    <v>       0.24288785       0.49751484       0.37591338 </v>
    <v>       0.26339145       0.49425271       0.87248849 </v>
    <v>       0.75609837       0.00008549       0.37397299 </v>
    <v>       0.74254975       0.00710456       0.87182060 </v>
    <v>       0.75919548       0.48764199       0.36790898 </v>
    <v>       0.73890790       0.49628020       0.87728937 </v>
    <v>       0.00820098       0.00340797       0.49785926 </v>
    <v>       0.50242853       0.00296265       0.00118593 </v>
    <v>       0.25024420       0.75109648       0.99192604 </v>
    <v>       0.25233517       0.74830646       0.49994345 </v>
    <v>       0.74720872       0.25219558       0.50190787 </v>
    <v>       0.73162732       0.75173507       0.51196537 </v>
    <v>       0.24550890       0.24647898       0.25029248 </v>
    <v>       0.24864120       0.24876413       0.74968602 </v>
    <v>       0.25148681       0.74958848       0.74816743 </v>
    <v>       0.74967511       0.24819639       0.25901045 </v>
    <v>       0.74766506       0.25097436       0.75176119 </v>
    <v>       0.75305837       0.75306786       0.75846055 </v>
    <v>       0.00051076       0.50409898       0.25072085 </v>
    <v>       0.99824831       0.50353956       0.73799967 </v>
    <v>       0.49895792       0.99546154       0.24934913 </v>
    <v>       0.50135392       0.50461911       0.24066678 </v>
    <v>       0.99890761       0.99969733       0.00294808 </v>
    <v>       0.99874264       0.50134678       0.01139373 </v>
    <v>       0.01086897       0.48660228       0.49742297 </v>
    <v>       0.49536654       0.00426129       0.50303091 </v>
    <v>       0.50254283       0.49802408       0.99992745 </v>
    <v>       0.50124451       0.49915780       0.50737415 </v>
    <v>       0.25599544       0.26354439       0.99723340 </v>
    <v>       0.25592522       0.25270810       0.50060265 </v>
    <v>       0.74947792       0.25235302       0.99218309 </v>
    <v>       0.74446934       0.73855698       0.99654836 </v>
    <v>       0.25144271       0.75043843       0.25949575 </v>
    <v>       0.75170926       0.74957801       0.24072752 </v>
    <v>       0.99888827       0.99665321       0.24451081 </v>
    <v>       0.99822275       0.99961771       0.74405577 </v>
    <v>       0.49984403       0.00027868       0.74986126 </v>
    <v>       0.50125116       0.50048350       0.75427869 </v>
    <v>       0.11507152       0.12988986       0.24200031 </v>
    <v>       0.11237724       0.13406335       0.74067996 </v>
    <v>       0.12607032       0.62945286       0.23944742 </v>
    <v>       0.11229573       0.63283595       0.76217131 </v>
    <v>       0.61989807       0.13357378       0.24355403 </v>
    <v>       0.61674343       0.13580397       0.75097560 </v>
    <v>       0.62119613       0.62670135       0.27410259 </v>
    <v>       0.62142407       0.63759207       0.75934146 </v>
    <v>       0.38385709       0.37057115       0.25353646 </v>
    <v>       0.38048799       0.36526186       0.75613450 </v>
    <v>       0.38013479       0.86173913       0.23404824 </v>
    <v>       0.38399734       0.86283580       0.75366216 </v>
    <v>       0.87412164       0.36943259       0.23945291 </v>
    <v>       0.88744404       0.36874480       0.75531681 </v>
    <v>       0.87374568       0.86979033       0.26136581 </v>
    <v>       0.88929099       0.86133656       0.74890648 </v>
    <v>       0.36657043       0.11776543       0.24426439 </v>
    <v>       0.36368425       0.11697385       0.74955550 </v>
    <v>       0.37216340       0.61538868       0.26466375 </v>
    <v>       0.36489044       0.61633961       0.75182254 </v>
    <v>       0.86271705       0.12644065       0.23086532 </v>
    <v>       0.86343132       0.11667302       0.75278581 </v>
    <v>       0.86976942       0.62294281       0.25571316 </v>
    <v>       0.87088442       0.61008575       0.77369172 </v>
    <v>       0.12747293       0.38063729       0.25546671 </v>
    <v>       0.12863360       0.39034657       0.75711472 </v>
    <v>       0.13177038       0.87392188       0.23471082 </v>
    <v>       0.13611659       0.88286070       0.74574232 </v>
    <v>       0.63101807       0.38064960       0.24817860 </v>
    <v>       0.63576216       0.38432142       0.74917293 </v>
    <v>       0.63069135       0.87619428       0.25844898 </v>
    <v>       0.63953797       0.88263717       0.74615086 </v>
    <v>       0.36906659       0.38547455       0.00427968 </v>
    <v>       0.36937802       0.39198061       0.48415745 </v>
    <v>       0.36837206       0.87724552       0.01475023 </v>
    <v>       0.36181884       0.88322348       0.50329936 </v>
    <v>       0.86510987       0.38182882       0.00634002 </v>
    <v>       0.86135948       0.39259016       0.50127324 </v>
    <v>       0.86382866       0.82449763       0.46554281 </v>
    <v>       0.13410790       0.11209663       0.50715769 </v>
    <v>       0.13405995       0.62865351       0.01630432 </v>
    <v>       0.13113671       0.61591977       0.49931672 </v>
    <v>       0.63426368       0.12205172       0.01057617 </v>
    <v>       0.63550597       0.11912791       0.49639710 </v>
    <v>       0.63208447       0.61685267       0.99529798 </v>
    <v>       0.65395531       0.61340656       0.47254792 </v>
    <v>       0.11132158       0.37489729       0.98378889 </v>
    <v>       0.11327619       0.35727380       0.49877114 </v>
    <v>       0.11999277       0.87886370       0.00857198 </v>
    <v>       0.11315167       0.86397035       0.50267212 </v>
    <v>       0.62251081       0.36397478       0.02260954 </v>
    <v>       0.61553287       0.36892727       0.48436874 </v>
    <v>       0.62817381       0.87468145       0.00278096 </v>
    <v>       0.61667619       0.86623815       0.49944352 </v>
    <v>       0.37071446       0.12561131       0.00369850 </v>
    <v>       0.38369049       0.13710034       0.50272776 </v>
    <v>       0.37635496       0.63870257       0.01155222 </v>
    <v>       0.39203778       0.63623856       0.48880485 </v>
    <v>       0.89089557       0.12766237       0.00308778 </v>
    <v>       0.88072047       0.12888344       0.49757830 </v>
    <v>       0.89199600       0.63762600       0.98764288 </v>
    <v>       0.97923054       0.98158013       0.11617197 </v>
    <v>       0.97755612       0.98892620       0.61820675 </v>
    <v>       0.99758077       0.49836123       0.12886070 </v>
    <v>       0.98548959       0.51989057       0.62218663 </v>
    <v>       0.50659006       0.99913156       0.12661190 </v>
    <v>       0.50139839       0.99943570       0.62621534 </v>
    <v>       0.50367689       0.51986724       0.12762494 </v>
    <v>       0.50673051       0.50713490       0.62451711 </v>
    <v>       0.00397608       0.00570575       0.37330019 </v>
    <v>       0.00989924       0.00180279       0.88713690 </v>
    <v>       0.99291922       0.50943045       0.37536010 </v>
    <v>       0.49028991       0.99902612       0.37163175 </v>
    <v>       0.50063535       0.99975717       0.87900487 </v>
    <v>       0.50011089       0.49490573       0.87872393 </v>
    <v>       0.24542966       0.23848509       0.37180619 </v>
    <v>       0.23805649       0.23321487       0.87693396 </v>
    <v>       0.24521211       0.76210477       0.37655636 </v>
    <v>       0.25014247       0.75253775       0.87662120 </v>
    <v>       0.76296513       0.24502437       0.37352444 </v>
    <v>       0.74331806       0.25324428       0.87481405 </v>
    <v>       0.76123303       0.77778169       0.87934626 </v>
    <v>       0.23255604       0.25218450       0.12038320 </v>
    <v>       0.25323071       0.26355162       0.62649252 </v>
    <v>       0.25189897       0.73927318       0.62581364 </v>
    <v>       0.74886004       0.25389241       0.62416230 </v>
    <v>       0.75948152       0.75126977       0.12072466 </v>
    <v>       0.76424141       0.72739945       0.62553159 </v>
   </varray>
  </structure>
  <varray name="forces" >
   <v>      -0.01016336      -0.00108499      -0.00542846 </v>
   <v>       0.00271332       0.00622051       0.00701520 </v>
   <v>       0.00021443       0.00671332      -0.00886658 </v>
   <v>      -0.01482992      -0.02233446      -0.00970582 </v>
   <v>       0.00506980      -0.00270368       0.00404434 </v>
   <v>       0.00167143      -0.00096356      -0.00060136 </v>
   <v>       0.00140452      -0.01322222       0.00232178 </v>
   <v>       0.00890823      -0.00797443      -0.01558040 </v>
   <v>      -0.01276597      -0.00192702      -0.00575123 </v>
   <v>      -0.00323422       0.00385767       0.01313369 </v>
   <v>      -0.02660793       0.00866820       0.02774166 </v>
   <v>       0.00051714      -0.00825816       0.00739451 </v>
   <v>       0.01087936       0.00310683      -0.00551090 </v>
   <v>      -0.00469522       0.00079649       0.00588227 </v>
   <v>       0.00260999      -0.01455773      -0.00349628 </v>
   <v>       0.00508059       0.00150710       0.00743282 </v>
   <v>      -0.00760431      -0.00268225       0.00814950 </v>
   <v>       0.00684920      -0.00166915      -0.00095928 </v>
   <v>      -0.00119786      -0.00672882      -0.00353267 </v>
   <v>       0.00174492       0.00068640       0.00326523 </v>
   <v>       0.00562006      -0.01058860      -0.00809261 </v>
   <v>      -0.00879632      -0.01080438      -0.01156775 </v>
   <v>      -0.00059869       0.00557671      -0.00397617 </v>
   <v>       0.00824234       0.00190809      -0.00016643 </v>
   <v>      -0.00092852      -0.00191592      -0.00217187 </v>
   <v>      -0.00444172      -0.00262157       0.00273737 </v>
   <v>      -0.00453908      -0.00747909      -0.00870992 </v>
   <v>      -0.00765586      -0.01210851       0.00705383 </v>
   <v>      -0.00628255      -0.00003105       0.00155428 </v>
   <v>       0.00691013       0.00228615       0.01063817 </v>
   <v>      -0.00376190       0.00506329      -0.00546805 </v>
   <v>       0.00161374       0.00303704       0.00198960 </v>
   <v>      -0.01320017      -0.02229530      -0.00875557 </v>
   <v>       0.00589078       0.00176198       0.00896750 </v>
   <v>      -0.00303825       0.01290626       0.01716647 </v>
   <v>       0.01873951      -0.00537348      -0.01700559 </v>
   <v>      -0.00369046      -0.00090089      -0.02188966 </v>
   <v>       0.01505427      -0.00219108      -0.02236672 </v>
   <v>       0.01233784      -0.00329797      -0.00747781 </v>
   <v>      -0.00850845       0.00372966       0.01051718 </v>
   <v>      -0.00656124       0.00597944       0.01566949 </v>
   <v>      -0.01597956       0.00324587      -0.00359513 </v>
   <v>       0.02357817       0.02268043       0.00851737 </v>
   <v>       0.00535783      -0.01621889      -0.00763412 </v>
   <v>       0.00110730      -0.01244106      -0.01050055 </v>
   <v>       0.01233878      -0.00798457       0.00641928 </v>
   <v>       0.00615674       0.00933378      -0.01059128 </v>
   <v>       0.00308580      -0.00633242      -0.00858286 </v>
   <v>       0.01194447       0.00007754      -0.00338440 </v>
   <v>      -0.00881533       0.00091049      -0.00829034 </v>
   <v>      -0.02160036       0.01980615      -0.00403932 </v>
   <v>       0.00118025      -0.01041671       0.00738583 </v>
   <v>      -0.01003622      -0.01331523       0.00900966 </v>
   <v>      -0.01015617       0.01481400       0.01440141 </v>
   <v>      -0.00251319       0.00128367       0.00881762 </v>
   <v>      -0.00833739      -0.00287268      -0.00243238 </v>
   <v>      -0.00333956       0.00969986       0.00931797 </v>
   <v>       0.00478927       0.01073744       0.00577377 </v>
   <v>       0.00475132       0.01272616      -0.01618092 </v>
   <v>      -0.00347833       0.00499946       0.00569248 </v>
   <v>       0.00560014      -0.01142126      -0.00408257 </v>
   <v>       0.00837753       0.00668365       0.00591023 </v>
   <v>      -0.00740642      -0.00245118      -0.00688779 </v>
   <v>      -0.00192470      -0.00167646      -0.01203242 </v>
   <v>      -0.00165154      -0.00751490       0.01760338 </v>
   <v>       0.00155536       0.00246260       0.01037722 </v>
   <v>       0.00647376      -0.01200948       0.02182491 </v>
   <v>       0.00319453       0.00567887       0.00362988 </v>
   <v>      -0.00654941      -0.00930809       0.00237246 </v>
   <v>      -0.01237451      -0.00824610      -0.00048027 </v>
   <v>      -0.00183154      -0.01361449      -0.00445164 </v>
   <v>       0.00091097       0.00015006       0.00275509 </v>
   <v>      -0.02021118       0.01418273      -0.00693068 </v>
   <v>       0.00835395       0.00634017      -0.00187953 </v>
   <v>      -0.00550516       0.00025101       0.00584536 </v>
   <v>      -0.02154151      -0.00998469      -0.00680840 </v>
   <v>      -0.01642941       0.00966599      -0.01690058 </v>
   <v>      -0.01181154      -0.00561836       0.00695080 </v>
   <v>       0.00355665      -0.00269078       0.00241252 </v>
   <v>      -0.01558042      -0.00013755      -0.01220895 </v>
   <v>       0.00428858       0.01363370       0.00300889 </v>
   <v>       0.00045693       0.00501669       0.00378149 </v>
   <v>       0.00737395      -0.00711298       0.00943785 </v>
   <v>      -0.00055760       0.01195942       0.01446495 </v>
   <v>       0.01610750      -0.00740068       0.00221825 </v>
   <v>      -0.01217944       0.00175941       0.00326494 </v>
   <v>       0.00837968       0.01004963       0.00879857 </v>
   <v>      -0.00599525       0.01274966      -0.01224165 </v>
   <v>      -0.02416104      -0.01049074      -0.00608594 </v>
   <v>       0.01068418      -0.00229918       0.00091571 </v>
   <v>       0.01389054      -0.00528635       0.01386380 </v>
   <v>       0.00800342      -0.00637627      -0.01396419 </v>
   <v>      -0.01107125      -0.00712581       0.03080328 </v>
   <v>       0.00028265      -0.00469360      -0.00777869 </v>
   <v>       0.00499755      -0.01320371       0.00757889 </v>
   <v>      -0.00961000       0.00411767      -0.00690461 </v>
   <v>       0.02083781       0.01077987       0.01337455 </v>
   <v>       0.00003301      -0.00543915       0.00513797 </v>
   <v>       0.00816017       0.00901455      -0.01403432 </v>
   <v>       0.00396954       0.01318760       0.01866973 </v>
   <v>       0.00366387       0.01163954      -0.01866026 </v>
   <v>      -0.00875882       0.00202279       0.00486476 </v>
   <v>      -0.00201415       0.01294807       0.01689042 </v>
   <v>       0.00673827       0.01406863       0.00352140 </v>
   <v>       0.01009151      -0.00644316       0.00659149 </v>
   <v>       0.00506402      -0.00144618      -0.00848273 </v>
   <v>      -0.00764531       0.01169421      -0.00616335 </v>
   <v>       0.00696416      -0.00529619      -0.00531104 </v>
   <v>       0.00620421      -0.00207472      -0.01568697 </v>
   <v>      -0.01897494       0.02142985       0.03008777 </v>
   <v>       0.01289789       0.01871020      -0.00881282 </v>
   <v>       0.01183118      -0.00257892       0.00885246 </v>
   <v>       0.01209661       0.00408861       0.01044121 </v>
   <v>       0.00674115      -0.00395008       0.01432749 </v>
   <v>       0.01762179      -0.01024460       0.01119952 </v>
   <v>      -0.00651345       0.00426632      -0.00075836 </v>
   <v>      -0.00162989      -0.01702028      -0.01140358 </v>
   <v>      -0.01101371       0.01109772      -0.00149263 </v>
   <v>       0.00929438      -0.00272595      -0.00179180 </v>
   <v>      -0.01041409       0.01864930       0.00534178 </v>
   <v>      -0.00673656      -0.00665072      -0.00719247 </v>
   <v>      -0.00966540      -0.01278433       0.00286169 </v>
   <v>       0.00140076       0.00064044       0.01887632 </v>
   <v>       0.00496580       0.00940837      -0.00008585 </v>
   <v>       0.00736806      -0.00244813       0.00122900 </v>
   <v>       0.00467026       0.00918007       0.01431932 </v>
   <v>       0.00214444       0.02515203       0.00325964 </v>
   <v>      -0.00130719       0.01143839      -0.00109528 </v>
   <v>       0.00615461       0.00542969      -0.01974400 </v>
   <v>      -0.00775861       0.01093884       0.00005424 </v>
   <v>       0.00234161       0.00518153      -0.01575863 </v>
   <v>      -0.00583416       0.00579941      -0.01188511 </v>
   <v>      -0.01203496       0.00069224       0.01916998 </v>
   <v>       0.00296156      -0.00832432      -0.00493628 </v>
   <v>      -0.00348016       0.00296504      -0.03242624 </v>
   <v>       0.00069050      -0.03380852       0.00247639 </v>
   <v>       0.00028400      -0.01385654       0.00128619 </v>
   <v>       0.00259662      -0.00618279      -0.01661251 </v>
   <v>       0.00786018      -0.02428458      -0.00654461 </v>
   <v>       0.00752918       0.00717215      -0.00301616 </v>
   <v>      -0.00035324       0.01386625      -0.00968390 </v>
   <v>       0.02123199       0.00825903      -0.00325466 </v>
   <v>       0.00282070       0.00695386      -0.03425369 </v>
   <v>       0.01430601       0.00538378       0.01027508 </v>
   <v>       0.00652760       0.00679058      -0.01847028 </v>
   <v>       0.00103201       0.00485065       0.00462497 </v>
   <v>      -0.00210852      -0.00641103      -0.00468045 </v>
   <v>       0.00431411      -0.01539296      -0.00614356 </v>
   <v>      -0.00995575      -0.01053330      -0.01581054 </v>
   <v>       0.00498737      -0.02067431       0.02551091 </v>
   <v>      -0.00255465       0.00042731      -0.01014448 </v>
   <v>      -0.00474279       0.00758111       0.01721390 </v>
  </varray>
  <varray name="stress" >
   <v>       0.00141486       0.02070085       0.08351079 </v>
   <v>       0.02070124       0.05311873       0.03357398 </v>
   <v>       0.08351110       0.03357403       0.08036075 </v>
  </varray>
  <energy>
   <i name="e_fr_energy">  -1053.80819475 </i>
   <i name="e_wo_entrp">  -1053.80819475 </i>
   <i name="e_0_energy">     -0.00000000 </i>
  </energy>
  <time name="totalsc"> 1970.59 1973.53</time>
 </calculation>
 <calculation>
  <scstep>
   <time name="dav">  576.04  576.07</time>
   <time name="total">  583.23  583.33</time>
   <energy>
    <i name="alphaZ">   5624.91988695 </i>
    <i name="ewald"> -62067.88958849 </i>
    <i name="hartreedc"> -17551.59838650 </i>
    <i name="XCdc">   3183.09650893 </i>
    <i name="pawpsdc"> 113469.26982626 </i>
    <i name="pawaedc">-112671.72907190 </i>
    <i name="eentropy">     -0.00000000 </i>
    <i name="bandstr">  -7090.05329106 </i>
    <i name="atom">  76050.17612637 </i>
    <i name="e_fr_energy">  -1053.80798943 </i>
    <i name="e_wo_entrp">  -1053.80798943 </i>
    <i name="e_0_energy">  -1053.80798943 </i>
   </energy>
  </scstep>
  <scstep>
   <time name="diag">   64.62   64.65</time>
   <time name="diis">  104.59  104.72</time>
   <time name="orth">   33.41   33.41</time>
   <time name="total">  209.83  210.18</time>
   <energy>
    <i name="e_fr_energy">  -1053.80946684 </i>
    <i name="e_wo_entrp">  -1053.80946684 </i>
    <i name="e_0_energy">  -1053.80946684 </i>
   </energy>
  </scstep>
  <scstep>
   <time name="diag">   64.57   64.58</time>
   <time name="diis">   96.87   96.91</time>
   <time name="orth">   33.39   33.39</time>
   <time name="total">  202.03  202.11</time>
   <energy>
    <i name="e_fr_energy">  -1053.80954268 </i>
    <i name="e_wo_entrp">  -1053.80954268 </i>
    <i name="e_0_energy">  -1053.80954268 </i>
   </energy>
  </scstep>
  <scstep>
   <time name="diag">   64.57   64.59</time>
   <time name="diis">   69.54   69.54</time>
   <time name="orth">   33.46   33.46</time>
   <time name="total">  174.77  175.03</time>
   <energy>
    <i name="e_fr_energy">  -1053.80947881 </i>
    <i name="e_wo_entrp">  -1053.80947881 </i>
    <i name="e_0_energy">  -1053.80947881 </i>
   </energy>
  </scstep>
  <scstep>
   <time name="diag">   64.59   64.64</time>
   <time name="diis">   66.76   66.78</time>
   <time name="orth">   33.41   33.41</time>
   <time name="total">  171.97  172.13</time>
   <energy>
    <i name="e_fr_energy">  -1053.80946374 </i>
    <i name="e_wo_entrp">  -1053.80946374 </i>
    <i name="e_0_energy">  -1053.80946374 </i>
   </energy>
  </scstep>
  <scstep>
   <time name="diag">   64.68   64.69</time>
   <time name="diis">   63.63   63.65</time>
   <time name="orth">   33.44   33.44</time>
   <time name="total">  168.96  169.03</time>
   <energy>
    <i name="e_fr_energy">  -1053.80946388 </i>
    <i name="e_wo_entrp">  -1053.80946388 </i>
    <i name="e_0_energy">  -1053.80946388 </i>
   </energy>
  </scstep>
  <scstep>
   <time name="diag">   64.82   64.83</time>
   <time name="diis">   62.95   62.95</time>
   <time name="orth">   33.42   33.42</time>
   <time name="total">  168.41  168.48</time>
   <energy>
    <i name="e_fr_energy">  -1053.80946436 </i>
    <i name="e_wo_entrp">  -1053.80946436 </i>
    <i name="e_0_energy">  -1053.80946436 </i>
   </energy>
  </scstep>
  <scstep>
   <time name="diag">   64.86   64.88</time>
   <time name="diis">   61.82   61.86</time>
   <time name="orth">   33.36   33.38</time>
   <time name="total">  161.08  161.21</time>
   <energy>
    <i name="alphaZ">   5624.91988695 </i>
    <i name="ewald"> -62067.88958849 </i>
    <i name="hartreedc"> -17552.52206441 </i>
    <i name="XCdc">   3183.14374510 </i>
    <i name="pawpsdc"> 113437.59392043 </i>
    <i name="pawaedc">-112640.04376140 </i>
    <i name="eentropy">     -0.00000000 </i>
    <i name="bandstr">  -7089.18772903 </i>
    <i name="atom">  76050.17612637 </i>
    <i name="e_fr_energy">  -1053.80946448 </i>
    <i name="e_wo_entrp">  -1053.80946448 </i>
    <i name="e_0_energy">  -1053.80946448 </i>
   </energy>
  </scstep>
  <structure>
   <crystal>
    <varray name="basis" >
     <v>      11.20205084      -0.01771478      -0.02989776 </v>
     <v>      -0.01769475      11.20298882      -0.00434025 </v>
     <v>      -0.04306554      -0.00605804      15.95442574 </v>
    </varray>
    <i name="volume">   2002.20407025 </i>
    <varray name="rec_basis" >
     <v>       0.08927023       0.00014109       0.00024102 </v>
     <v>       0.00014125       0.08926213       0.00003427 </v>
     <v>       0.00016733       0.00002455       0.06267899 </v>
    </varray>
   </crystal>
   <varray name="positions" >
    <v>       0.00066733       0.25431691       0.12695685 </v>
    <v>       0.00225970       0.24195122       0.62160715 </v>
    <v>       0.99762180       0.74944151       0.12792472 </v>
    <v>       0.00951334       0.76063744       0.62698905 </v>
    <v>       0.48863719       0.24509364       0.12257037 </v>
    <v>       0.49426927       0.24472150       0.62945368 </v>
    <v>       0.51076832       0.75762220       0.11752095 </v>
    <v>       0.49214651       0.75551123       0.63565511 </v>
    <v>       0.00864200       0.24350771       0.37463710 </v>
    <v>       0.99938189       0.23905041       0.86974336 </v>
    <v>       0.01397763       0.75794363       0.36366506 </v>
    <v>       0.00043053       0.76225559       0.87061039 </v>
    <v>       0.48946069       0.23769905       0.37977038 </v>
    <v>       0.49634335       0.24988472       0.87334980 </v>
    <v>       0.49020567       0.76022929       0.37238973 </v>
    <v>       0.50447745       0.74926610       0.87559008 </v>
    <v>       0.25290836       0.00320056       0.12899680 </v>
    <v>       0.25843950       0.00462150       0.62500910 </v>
    <v>       0.24715761       0.49239774       0.12308907 </v>
    <v>       0.26200958       0.49669118       0.62379180 </v>
    <v>       0.74610006       0.99312529       0.12860347 </v>
    <v>       0.74152292       0.01305538       0.63215556 </v>
    <v>       0.75202078       0.50441203       0.11922855 </v>
    <v>       0.74232550       0.49200803       0.63142754 </v>
    <v>       0.25068837       0.00355473       0.37810299 </v>
    <v>       0.25472284       0.00149613       0.86763381 </v>
    <v>       0.24286815       0.49748258       0.37588700 </v>
    <v>       0.26335848       0.49420052       0.87250974 </v>
    <v>       0.75607133       0.00008532       0.37397764 </v>
    <v>       0.74257965       0.00711447       0.87185283 </v>
    <v>       0.75917925       0.48766375       0.36789242 </v>
    <v>       0.73891489       0.49629329       0.87729541 </v>
    <v>       0.00814388       0.00331186       0.49783265 </v>
    <v>       0.50245401       0.00297030       0.00121310 </v>
    <v>       0.25023141       0.75115207       0.99197794 </v>
    <v>       0.25241564       0.74828342       0.49989218 </v>
    <v>       0.74719256       0.25219164       0.50184165 </v>
    <v>       0.73169188       0.75172570       0.51189785 </v>
    <v>       0.24556192       0.24646485       0.25026997 </v>
    <v>       0.24860470       0.24878015       0.74971776 </v>
    <v>       0.25145878       0.74961421       0.74821477 </v>
    <v>       0.74960627       0.24821025       0.25899946 </v>
    <v>       0.74776685       0.25107220       0.75178717 </v>
    <v>       0.75308125       0.75299804       0.75843749 </v>
    <v>       0.00051532       0.50404539       0.25068909 </v>
    <v>       0.99830147       0.50350527       0.73801917 </v>
    <v>       0.49898437       0.99550176       0.24931716 </v>
    <v>       0.50136706       0.50459185       0.24064085 </v>
    <v>       0.99895902       0.99969774       0.00293794 </v>
    <v>       0.99870459       0.50135063       0.01136859 </v>
    <v>       0.01077603       0.48668742       0.49741060 </v>
    <v>       0.49537163       0.00421645       0.50305324 </v>
    <v>       0.50249963       0.49796669       0.99995460 </v>
    <v>       0.50120104       0.49922155       0.50741763 </v>
    <v>       0.25598473       0.26354992       0.99726005 </v>
    <v>       0.25588927       0.25269567       0.50059523 </v>
    <v>       0.74946371       0.25239479       0.99221125 </v>
    <v>       0.74449011       0.73860326       0.99656587 </v>
    <v>       0.25146307       0.75049324       0.25944687 </v>
    <v>       0.75169438       0.74959952       0.24074471 </v>
    <v>       0.99891226       0.99660406       0.24449850 </v>
    <v>       0.99825894       0.99964656       0.74407372 </v>
    <v>       0.49981203       0.00026806       0.74984037 </v>
    <v>       0.50124272       0.50047625       0.75424229 </v>
    <v>       0.11506457       0.12985751       0.24205351 </v>
    <v>       0.11238408       0.13407398       0.74071135 </v>
    <v>       0.12609837       0.62940123       0.23951346 </v>
    <v>       0.11230957       0.63286043       0.76218232 </v>
    <v>       0.61986983       0.13353366       0.24356114 </v>
    <v>       0.61669007       0.13576837       0.75097403 </v>
    <v>       0.62118810       0.62664270       0.27408909 </v>
    <v>       0.62142802       0.63759273       0.75934980 </v>
    <v>       0.38377006       0.37063208       0.25351536 </v>
    <v>       0.38052399       0.36528922       0.75612889 </v>
    <v>       0.38011116       0.86174018       0.23406587 </v>
    <v>       0.38390442       0.86279264       0.75364139 </v>
    <v>       0.87405075       0.36947407       0.23940168 </v>
    <v>       0.88739322       0.36872053       0.75533772 </v>
    <v>       0.87376101       0.86977877       0.26137313 </v>
    <v>       0.88922375       0.86133584       0.74886943 </v>
    <v>       0.36658903       0.11782417       0.24427354 </v>
    <v>       0.36368630       0.11699546       0.74956694 </v>
    <v>       0.37219522       0.61535812       0.26469234 </v>
    <v>       0.36488829       0.61639113       0.75186629 </v>
    <v>       0.86278640       0.12640890       0.23087215 </v>
    <v>       0.86337892       0.11668052       0.75279559 </v>
    <v>       0.86980568       0.62298616       0.25573984 </v>
    <v>       0.87085855       0.61014060       0.77365467 </v>
    <v>       0.12736874       0.38059194       0.25544810 </v>
    <v>       0.12867960       0.39033674       0.75711757 </v>
    <v>       0.13183032       0.87389923       0.23475285 </v>
    <v>       0.13615085       0.88283327       0.74570015 </v>
    <v>       0.63097070       0.38061889       0.24827164 </v>
    <v>       0.63576325       0.38430120       0.74914940 </v>
    <v>       0.63071287       0.87613747       0.25847193 </v>
    <v>       0.63949653       0.88265482       0.74612991 </v>
    <v>       0.36915657       0.38552114       0.00432031 </v>
    <v>       0.36937818       0.39195720       0.48417298 </v>
    <v>       0.36840710       0.87728437       0.01470787 </v>
    <v>       0.36183624       0.88328033       0.50335587 </v>
    <v>       0.86512551       0.38187894       0.00628363 </v>
    <v>       0.86132183       0.39259882       0.50128788 </v>
    <v>       0.86382027       0.82455340       0.46559388 </v>
    <v>       0.13413706       0.11215726       0.50716842 </v>
    <v>       0.13410345       0.62862584       0.01632432 </v>
    <v>       0.13115841       0.61591357       0.49929110 </v>
    <v>       0.63423076       0.12210201       0.01055749 </v>
    <v>       0.63553586       0.11910515       0.49638109 </v>
    <v>       0.63211099       0.61684375       0.99525060 </v>
    <v>       0.65387410       0.61349876       0.47263877 </v>
    <v>       0.11137715       0.37497793       0.98376236 </v>
    <v>       0.11332723       0.35726279       0.49879800 </v>
    <v>       0.12004502       0.87888141       0.00860366 </v>
    <v>       0.11318084       0.86395341       0.50271549 </v>
    <v>       0.62258677       0.36393081       0.02264354 </v>
    <v>       0.61550484       0.36894560       0.48436640 </v>
    <v>       0.62816654       0.87460812       0.00274645 </v>
    <v>       0.61662882       0.86628586       0.49943893 </v>
    <v>       0.37075445       0.12559963       0.00369315 </v>
    <v>       0.38364583       0.13718059       0.50274386 </v>
    <v>       0.37632582       0.63867387       0.01153041 </v>
    <v>       0.39199611       0.63618344       0.48881341 </v>
    <v>       0.89090183       0.12766517       0.00314488 </v>
    <v>       0.88074192       0.12892399       0.49757809 </v>
    <v>       0.89202773       0.63761551       0.98764666 </v>
    <v>       0.97925089       0.98161972       0.11621532 </v>
    <v>       0.97756557       0.98903453       0.61821666 </v>
    <v>       0.99757521       0.49841048       0.12885739 </v>
    <v>       0.98551590       0.51991396       0.62212698 </v>
    <v>       0.50655672       0.99917862       0.12661202 </v>
    <v>       0.50140833       0.99945800       0.62616771 </v>
    <v>       0.50365167       0.51989215       0.12758896 </v>
    <v>       0.50667891       0.50713783       0.62457498 </v>
    <v>       0.00398872       0.00566991       0.37328528 </v>
    <v>       0.00988390       0.00181548       0.88703882 </v>
    <v>       0.99292200       0.50928487       0.37536756 </v>
    <v>       0.49029105       0.99896646       0.37163562 </v>
    <v>       0.50064629       0.99973053       0.87895465 </v>
    <v>       0.50014450       0.49480119       0.87870417 </v>
    <v>       0.24546210       0.23851602       0.37179714 </v>
    <v>       0.23805495       0.23327456       0.87690469 </v>
    <v>       0.24530356       0.76214047       0.37654670 </v>
    <v>       0.25015426       0.75256766       0.87651765 </v>
    <v>       0.76302690       0.24504767       0.37355563 </v>
    <v>       0.74334600       0.25327353       0.87475826 </v>
    <v>       0.76123756       0.77780259       0.87936026 </v>
    <v>       0.23254686       0.25215687       0.12036902 </v>
    <v>       0.25324912       0.26348535       0.62647396 </v>
    <v>       0.25185584       0.73922772       0.62576573 </v>
    <v>       0.74888168       0.25380346       0.62423946 </v>
    <v>       0.75947040       0.75127157       0.12069397 </v>
    <v>       0.76422124       0.72743209       0.62558361 </v>
   </varray>
  </structure>
  <varray name="forces" >
   <v>      -0.00807199      -0.00183103      -0.00019786 </v>
   <v>       0.00341122      -0.00061112      -0.00273842 </v>
   <v>      -0.00097711      -0.00143594      -0.00089874 </v>
   <v>      -0.00546312      -0.01388672      -0.00492060 </v>
   <v>       0.00064694      -0.00262202      -0.00123167 </v>
   <v>       0.00322873      -0.00291906       0.00284504 </v>
   <v>       0.00144167      -0.01454209      -0.00034547 </v>
   <v>       0.00312933      -0.00452869      -0.00771931 </v>
   <v>      -0.00344617      -0.00224563       0.00135379 </v>
   <v>      -0.00386904       0.00181912       0.00934346 </v>
   <v>      -0.00614047       0.00050964       0.01534628 </v>
   <v>      -0.00140717      -0.00615133      -0.00384877 </v>
   <v>       0.00333609       0.00209654       0.00648196 </v>
   <v>       0.00044204      -0.00221847      -0.00641088 </v>
   <v>       0.00064737      -0.00735550      -0.00443926 </v>
   <v>       0.00411755       0.00203019      -0.00146240 </v>
   <v>      -0.00646275      -0.00037290       0.01014631 </v>
   <v>       0.00313043      -0.00053962      -0.00263042 </v>
   <v>      -0.00248504      -0.00297332      -0.00095872 </v>
   <v>       0.00122424       0.00093367       0.00085827 </v>
   <v>       0.00982508      -0.00771290      -0.00699270 </v>
   <v>      -0.00852276      -0.00104320      -0.00028425 </v>
   <v>       0.00084405       0.00903196      -0.00713897 </v>
   <v>       0.00554894      -0.00360851       0.00189410 </v>
   <v>      -0.00023540       0.00166555       0.00434138 </v>
   <v>       0.00143897      -0.00280878      -0.00649796 </v>
   <v>      -0.00778510      -0.00914090      -0.00342849 </v>
   <v>      -0.00039150      -0.00621444       0.00286281 </v>
   <v>      -0.00814744       0.00345768       0.00311675 </v>
   <v>       0.00088295       0.00135021      -0.00595355 </v>
   <v>      -0.00335124       0.00499488      -0.00112453 </v>
   <v>      -0.00456891       0.00527559      -0.00175163 </v>
   <v>       0.02991570       0.01963222       0.01692392 </v>
   <v>       0.00664009      -0.00042100      -0.02446636 </v>
   <v>       0.00796997      -0.00125853      -0.05832837 </v>
   <v>       0.00057331       0.00313574       0.01588066 </v>
   <v>       0.00094274      -0.00600353       0.02214445 </v>
   <v>      -0.02360510       0.01484823       0.03878994 </v>
   <v>      -0.00324165      -0.00120696       0.03103756 </v>
   <v>       0.01400021      -0.00099804      -0.01300514 </v>
   <v>       0.00498112       0.00149908      -0.01227122 </v>
   <v>       0.01810869      -0.01127586       0.00976966 </v>
   <v>      -0.02104097      -0.02055614      -0.01151337 </v>
   <v>      -0.01873978       0.01642735      -0.00432691 </v>
   <v>       0.01353481       0.00418272       0.01412884 </v>
   <v>      -0.00577878       0.01518372      -0.01362808 </v>
   <v>      -0.00259735      -0.00572587       0.03055525 </v>
   <v>      -0.01423051       0.00498472      -0.00660419 </v>
   <v>       0.00183148       0.00519965      -0.00421839 </v>
   <v>      -0.00329882       0.00498043      -0.00295103 </v>
   <v>       0.00670465      -0.00914691      -0.00259623 </v>
   <v>      -0.00891010       0.00398133       0.00656493 </v>
   <v>       0.00851840       0.00113622      -0.01161580 </v>
   <v>      -0.01433693      -0.00602832       0.01124215 </v>
   <v>       0.00945957       0.00788104      -0.00313727 </v>
   <v>      -0.00663060      -0.00628562       0.00377457 </v>
   <v>      -0.00112165       0.00634881      -0.01241220 </v>
   <v>      -0.00222515       0.00054761      -0.00917858 </v>
   <v>      -0.00168445      -0.00337776       0.00275222 </v>
   <v>       0.00631211      -0.00245545      -0.00210941 </v>
   <v>       0.00709478      -0.00404864       0.00553097 </v>
   <v>      -0.00511952      -0.00301209      -0.00115286 </v>
   <v>       0.00402276       0.00166252      -0.00233021 </v>
   <v>      -0.00248626      -0.00060911      -0.00376542 </v>
   <v>       0.00650374      -0.00187722       0.00812754 </v>
   <v>      -0.00083235       0.00562116       0.01211249 </v>
   <v>       0.00755368      -0.00988021       0.01670738 </v>
   <v>      -0.01519881      -0.01300999       0.00419972 </v>
   <v>       0.00188775      -0.00226085       0.00174640 </v>
   <v>       0.00089088       0.00632961       0.00142411 </v>
   <v>       0.00226488      -0.01011258      -0.00578838 </v>
   <v>       0.00078654      -0.00274725       0.00384872 </v>
   <v>      -0.01497155       0.00937771      -0.01138004 </v>
   <v>      -0.00236183       0.00059178      -0.00184643 </v>
   <v>       0.00612172       0.00682092      -0.00290236 </v>
   <v>      -0.00843310       0.00312183      -0.01027219 </v>
   <v>      -0.02659209      -0.00178929      -0.01896915 </v>
   <v>       0.01247434       0.01382130       0.00693899 </v>
   <v>       0.00241441      -0.00075922       0.00020556 </v>
   <v>      -0.00360973       0.00415048      -0.00710953 </v>
   <v>       0.00953888       0.00454353      -0.00426756 </v>
   <v>      -0.00647216       0.00598191       0.00588569 </v>
   <v>       0.00969274      -0.00559784       0.00481772 </v>
   <v>       0.00245548       0.00409666       0.01366145 </v>
   <v>      -0.00814046       0.00801789       0.00547489 </v>
   <v>       0.00135405      -0.00201076       0.00744209 </v>
   <v>       0.00215286       0.00981533       0.00743845 </v>
   <v>       0.00894809      -0.00525395      -0.01469291 </v>
[...]
       <r>   -17.0536     0.0000    32.0000 </r>
       <r>   -16.9003     0.0000    32.0000 </r>
       <r>   -16.7470     0.0000    32.0000 </r>
       <r>   -16.5937     0.0000    32.0000 </r>
       <r>   -16.4404     0.0000    32.0000 </r>
       <r>   -16.2871     0.0000    32.0000 </r>
       <r>   -16.1338     0.0000    32.0000 </r>
       <r>   -15.9805     0.0000    32.0000 </r>
       <r>   -15.8272     0.0000    32.0000 </r>
       <r>   -15.6740     0.0000    32.0000 </r>
       <r>   -15.5207     0.0000    32.0000 </r>
       <r>   -15.3674     0.0000    32.0000 </r>
       <r>   -15.2141     0.4978    32.0763 </r>
       <r>   -15.0608    15.1931    34.4053 </r>
       <r>   -14.9075    36.8480    40.0538 </r>
       <r>   -14.7542    42.6729    46.5953 </r>
       <r>   -14.6009    45.5457    53.5772 </r>
       <r>   -14.4476    34.0200    58.7922 </r>
       <r>   -14.2943    38.9993    64.7705 </r>
       <r>   -14.1410    53.9237    73.0367 </r>
       <r>   -13.9877    86.9069    86.3589 </r>
       <r>   -13.8344    83.1003    99.0977 </r>
       <r>   -13.6811    68.0869   109.5349 </r>
       <r>   -13.5278    45.9062   116.5720 </r>
       <r>   -13.3746    21.4214   119.8558 </r>
       <r>   -13.2213     0.9406   120.0000 </r>
       <r>   -13.0680     0.0000   120.0000 </r>
       <r>   -12.9147     0.0005   120.0001 </r>
       <r>   -12.7614     8.4002   121.2878 </r>
       <r>   -12.6081    62.6417   130.8903 </r>
       <r>   -12.4548   143.0288   152.8157 </r>
       <r>   -12.3015   126.7281   172.2423 </r>
       <r>   -12.1482   119.8658   190.6169 </r>
       <r>   -11.9949    98.6534   205.7398 </r>
       <r>   -11.8416    61.6019   215.1830 </r>
       <r>   -11.6883     5.3299   216.0000 </r>
       <r>   -11.5350     0.0000   216.0000 </r>
       <r>   -11.3817     0.0000   216.0000 </r>
       <r>   -11.2284     0.0000   216.0000 </r>
       <r>   -11.0752     0.0000   216.0000 </r>
       <r>   -10.9219     0.0000   216.0000 </r>
       <r>   -10.7686     0.0000   216.0000 </r>
       <r>   -10.6153     0.0000   216.0000 </r>
       <r>   -10.4620     0.0000   216.0000 </r>
       <r>   -10.3087     0.0000   216.0000 </r>
       <r>   -10.1554     0.0000   216.0000 </r>
       <r>   -10.0021     0.0000   216.0000 </r>
       <r>    -9.8488     0.0000   216.0000 </r>
       <r>    -9.6955     0.0000   216.0000 </r>
       <r>    -9.5422     0.0000   216.0000 </r>
       <r>    -9.3889     0.0000   216.0000 </r>
       <r>    -9.2356     0.0000   216.0000 </r>
       <r>    -9.0823     0.0000   216.0000 </r>
       <r>    -8.9290     0.0000   216.0000 </r>
       <r>    -8.7758     0.0000   216.0000 </r>
       <r>    -8.6225     0.0000   216.0000 </r>
       <r>    -8.4692     0.0000   216.0000 </r>
       <r>    -8.3159     0.0000   216.0000 </r>
       <r>    -8.1626     0.0000   216.0000 </r>
       <r>    -8.0093     0.0000   216.0000 </r>
       <r>    -7.8560     0.0000   216.0000 </r>
       <r>    -7.7027     0.0000   216.0000 </r>
       <r>    -7.5494     0.0000   216.0000 </r>
       <r>    -7.3961     0.0000   216.0000 </r>
       <r>    -7.2428     0.0000   216.0000 </r>
       <r>    -7.0895     0.0000   216.0000 </r>
       <r>    -6.9362     0.0000   216.0000 </r>
       <r>    -6.7829     0.0000   216.0000 </r>
       <r>    -6.6297     0.0000   216.0000 </r>
       <r>    -6.4764     0.0000   216.0000 </r>
       <r>    -6.3231     0.0000   216.0000 </r>
       <r>    -6.1698     0.0000   216.0000 </r>
       <r>    -6.0165     0.0000   216.0000 </r>
       <r>    -5.8632     0.0000   216.0000 </r>
       <r>    -5.7099     0.0000   216.0000 </r>
       <r>    -5.5566     0.0000   216.0000 </r>
       <r>    -5.4033     0.0000   216.0000 </r>
       <r>    -5.2500     0.0000   216.0000 </r>
       <r>    -5.0967     0.0000   216.0000 </r>
       <r>    -4.9434     0.0000   216.0000 </r>
       <r>    -4.7901     0.0000   216.0000 </r>
       <r>    -4.6368     0.0000   216.0000 </r>
       <r>    -4.4835     0.0000   216.0000 </r>
       <r>    -4.3303     0.0000   216.0000 </r>
       <r>    -4.1770     0.0000   216.0000 </r>
       <r>    -4.0237     0.0000   216.0000 </r>
       <r>    -3.8704     0.0000   216.0000 </r>
       <r>    -3.7171     0.2591   216.0397 </r>
       <r>    -3.5638     6.2323   216.9951 </r>
       <r>    -3.4105     0.0321   217.0000 </r>
       <r>    -3.2572     0.0000   217.0000 </r>
       <r>    -3.1039     0.0011   217.0002 </r>
       <r>    -2.9506     5.0414   217.7730 </r>
       <r>    -2.7973     9.0046   219.1533 </r>
       <r>    -2.6440    11.5753   220.9277 </r>
       <r>    -2.4907     0.7051   221.0358 </r>
       <r>    -2.3374    10.5669   222.6557 </r>
       <r>    -2.1841    13.9662   224.7966 </r>
       <r>    -2.0309    26.3314   228.8330 </r>
       <r>    -1.8776    26.1058   232.8349 </r>
       <r>    -1.7243    29.3118   237.3282 </r>
       <r>    -1.5710    30.0987   241.9421 </r>
       <r>    -1.4177    43.6670   248.6360 </r>
       <r>    -1.2644    55.4815   257.1409 </r>
       <r>    -1.1111    72.3282   268.2283 </r>
       <r>    -0.9578    71.0715   279.1231 </r>
       <r>    -0.8045    77.0704   290.9375 </r>
       <r>    -0.6512    90.2493   304.7721 </r>
       <r>    -0.4979    95.5225   319.4151 </r>
       <r>    -0.3446    89.0997   333.0735 </r>
       <r>    -0.1913    71.2573   343.9967 </r>
       <r>    -0.0380    59.0913   353.0550 </r>
       <r>     0.1153    48.9301   360.5557 </r>
       <r>     0.2685    45.5071   367.5316 </r>
       <r>     0.4218    55.3055   376.0096 </r>
       <r>     0.5751    53.9857   384.2853 </r>
       <r>     0.7284    56.3842   392.9286 </r>
       <r>     0.8817    54.1435   401.2284 </r>
       <r>     1.0350    47.8955   408.5705 </r>
       <r>     1.1883    58.0165   417.4640 </r>
       <r>     1.3416    70.8656   428.3272 </r>
       <r>     1.4949    79.1798   440.4650 </r>
       <r>     1.6482    78.9479   452.5672 </r>
       <r>     1.8015    62.2999   462.1173 </r>
       <r>     1.9548    56.3600   470.7569 </r>
       <r>     2.1081    35.0245   476.1259 </r>
       <r>     2.2614    29.0343   480.5767 </r>
       <r>     2.4147    22.1198   483.9675 </r>
       <r>     2.5679     0.2118   484.0000 </r>
       <r>     2.7212     0.0000   484.0000 </r>
       <r>     2.8745     0.0000   484.0000 </r>
       <r>     3.0278     0.0000   484.0000 </r>
       <r>     3.1811     0.0000   484.0000 </r>
       <r>     3.3344     0.0000   484.0000 </r>
       <r>     3.4877     0.0001   484.0000 </r>
       <r>     3.6410     3.5995   484.5518 </r>
       <r>     3.7943     2.9238   485.0000 </r>
       <r>     3.9476     0.0000   485.0000 </r>
       <r>     4.1009     0.0000   485.0000 </r>
       <r>     4.2542     0.0000   485.0000 </r>
       <r>     4.4075     2.1890   485.3356 </r>
       <r>     4.5608    31.5566   490.1730 </r>
       <r>     4.7141    52.5971   498.2358 </r>
       <r>     4.8673    42.8594   504.8058 </r>
       <r>     5.0206    43.5319   511.4790 </r>
       <r>     5.1739    56.7622   520.1803 </r>
       <r>     5.3272    75.0418   531.6837 </r>
       <r>     5.4805    63.0037   541.3417 </r>
       <r>     5.6338    71.9751   552.3750 </r>
       <r>     5.7871    72.3381   563.4640 </r>
       <r>     5.9404    66.0475   573.5886 </r>
       <r>     6.0937    78.0106   585.5471 </r>
       <r>     6.2470    74.1404   596.9123 </r>
       <r>     6.4003    57.5101   605.7283 </r>
       <r>     6.5536    27.1804   609.8948 </r>
       <r>     6.7069    12.5524   611.8190 </r>
       <r>     6.8602    17.4337   614.4915 </r>
       <r>     7.0135    15.0437   616.7976 </r>
       <r>     7.1667    15.5426   619.1802 </r>
       <r>     7.3200    15.3564   621.5342 </r>
       <r>     7.4733    15.7763   623.9526 </r>
       <r>     7.6266    13.8543   626.0764 </r>
       <r>     7.7799    16.7691   628.6470 </r>
       <r>     7.9332    19.8368   631.6878 </r>
       <r>     8.0865    25.5849   635.6098 </r>
       <r>     8.2398    21.9293   638.9714 </r>
       <r>     8.3931    24.1430   642.6724 </r>
       <r>     8.5464    23.2604   646.2380 </r>
       <r>     8.6997    31.8359   651.1183 </r>
       <r>     8.8530    30.8998   655.8550 </r>
       <r>     9.0063    34.9702   661.2157 </r>
       <r>     9.1596    31.2690   666.0090 </r>
       <r>     9.3129    40.9157   672.2811 </r>
       <r>     9.4661    42.7622   678.8363 </r>
       <r>     9.6194    47.2778   686.0837 </r>
       <r>     9.7727    50.2586   693.7880 </r>
       <r>     9.9260    58.9154   702.8193 </r>
       <r>    10.0793    61.7875   712.2909 </r>
       <r>    10.2326    55.4580   720.7922 </r>
       <r>    10.3859    51.2500   728.6485 </r>
       <r>    10.5392    58.2326   737.5752 </r>
       <r>    10.6925    59.5826   746.7088 </r>
       <r>    10.8458    56.6908   755.3991 </r>
       <r>    10.9991    60.1498   764.6197 </r>
       <r>    11.1524    22.0394   767.9982 </r>
       <r>    11.3057     0.0119   768.0000 </r>
       <r>    11.4590     0.0000   768.0000 </r>
       <r>    11.6123     0.0000   768.0000 </r>
       <r>    11.7655     0.0000   768.0000 </r>
       <r>    11.9188     0.0000   768.0000 </r>
       <r>    12.0721     0.0000   768.0000 </r>
       <r>    12.2254     0.0000   768.0000 </r>
       <r>    12.3787     0.0000   768.0000 </r>
       <r>    12.5320     0.0000   768.0000 </r>
       <r>    12.6853     0.0000   768.0000 </r>
       <r>    12.8386     0.0000   768.0000 </r>
       <r>    12.9919     0.0000   768.0000 </r>
       <r>    13.1452     0.0000   768.0000 </r>
      </set>
     </set>
    </array>
   </total>
  </dos>
 </calculation>
 <structure name="finalpos" >
  <crystal>
   <varray name="basis" >
    <v>      11.20213529      -0.01728205      -0.02943273 </v>
    <v>      -0.01726162      11.20295950      -0.00407161 </v>
    <v>      -0.04240665      -0.00567657      15.95310792 </v>
   </varray>
   <i name="volume">   2002.04926194 </i>
   <varray name="rec_basis" >
    <v>       0.08926953       0.00013763       0.00023735 </v>
    <v>       0.00013779       0.08926235       0.00003213 </v>
    <v>       0.00016473       0.00002304       0.06268416 </v>
   </varray>
  </crystal>
  <varray name="positions" >
   <v>       0.00053852       0.25428856       0.12694551 </v>
   <v>       0.00230337       0.24197733       0.62162635 </v>
   <v>       0.99762433       0.74945411       0.12788570 </v>
   <v>       0.00936681       0.76039154       0.62691223 </v>
   <v>       0.48867485       0.24503296       0.12258019 </v>
   <v>       0.49431252       0.24470058       0.62947293 </v>
   <v>       0.51077882       0.75741940       0.11752312 </v>
   <v>       0.49221779       0.75540907       0.63554956 </v>
   <v>       0.00851696       0.24346944       0.37461963 </v>
   <v>       0.99932967       0.23911066       0.86986200 </v>
   <v>       0.01378285       0.75799607       0.36387517 </v>
   <v>       0.00039620       0.76214407       0.87060895 </v>
   <v>       0.48956792       0.23775589       0.37977995 </v>
   <v>       0.49631691       0.24986851       0.87333432 </v>
   <v>       0.49023437       0.76005995       0.37232819 </v>
   <v>       0.50454861       0.74929408       0.87562319 </v>
   <v>       0.25281465       0.00318815       0.12908920 </v>
   <v>       0.25849611       0.00460839       0.62499250 </v>
   <v>       0.24711820       0.49232559       0.12305549 </v>
   <v>       0.26201835       0.49669998       0.62381181 </v>
   <v>       0.74621878       0.99300168       0.12853400 </v>
   <v>       0.74140459       0.01298095       0.63210159 </v>
   <v>       0.75203203       0.50453422       0.11916884 </v>
   <v>       0.74243273       0.49197808       0.63143706 </v>
   <v>       0.25067449       0.00354686       0.37810983 </v>
   <v>       0.25470778       0.00147409       0.86761104 </v>
   <v>       0.24276337       0.49734905       0.37581640 </v>
   <v>       0.26329964       0.49404901       0.87256938 </v>
   <v>       0.75597136       0.00011505       0.37399902 </v>
   <v>       0.74263616       0.00713789       0.87185083 </v>
   <v>       0.75910347       0.48774279       0.36786180 </v>
   <v>       0.73888411       0.49635869       0.87728576 </v>
   <v>       0.00822535       0.00329674       0.49788284 </v>
   <v>       0.50250416       0.00299792       0.00114166 </v>
   <v>       0.25034124       0.75118676       0.99185143 </v>
   <v>       0.25247573       0.74825902       0.49990883 </v>
   <v>       0.74718787       0.25215327       0.50188773 </v>
   <v>       0.73166916       0.75183865       0.51198465 </v>
   <v>       0.24559374       0.24642503       0.25033639 </v>
   <v>       0.24865022       0.24880169       0.74970987 </v>
   <v>       0.25143483       0.74962998       0.74816780 </v>
   <v>       0.74963188       0.24815392       0.25899694 </v>
   <v>       0.74772902       0.25102030       0.75176672 </v>
   <v>       0.75300041       0.75303479       0.75840464 </v>
   <v>       0.00059026       0.50399463       0.25070075 </v>
   <v>       0.99830945       0.50354314       0.73799194 </v>
   <v>       0.49900594       0.99549777       0.24936340 </v>
   <v>       0.50128798       0.50455409       0.24059061 </v>
   <v>       0.99904076       0.99973675       0.00290392 </v>
   <v>       0.99865494       0.50140616       0.01131030 </v>
   <v>       0.01070789       0.48671037       0.49737233 </v>
   <v>       0.49529344       0.00420078       0.50310109 </v>
   <v>       0.50251995       0.49790616       0.99991727 </v>
   <v>       0.50104023       0.49923330       0.50753262 </v>
   <v>       0.25605917       0.26360949       0.99728673 </v>
   <v>       0.25578411       0.25264811       0.50061736 </v>
   <v>       0.74943303       0.25250312       0.99218372 </v>
   <v>       0.74449079       0.73865336       0.99653225 </v>
   <v>       0.25148333       0.75052057       0.25940872 </v>
   <v>       0.75173948       0.74959867       0.24075632 </v>
   <v>       0.99900775       0.99650828       0.24453141 </v>
   <v>       0.99825541       0.99966948       0.74409438 </v>
   <v>       0.49980435       0.00028029       0.74980576 </v>
   <v>       0.50120792       0.50044769       0.75419263 </v>
   <v>       0.11513257       0.12978057       0.24219061 </v>
   <v>       0.11238215       0.13414413       0.74084965 </v>
   <v>       0.12622510       0.62922114       0.23974043 </v>
   <v>       0.11221136       0.63280256       0.76223678 </v>
   <v>       0.61987463       0.13344851       0.24359994 </v>
   <v>       0.61660234       0.13576277       0.75098480 </v>
   <v>       0.62122048       0.62648199       0.27403227 </v>
   <v>       0.62144363       0.63756417       0.75938027 </v>
   <v>       0.38348205       0.37079846       0.25338979 </v>
   <v>       0.38055279       0.36533852       0.75609532 </v>
   <v>       0.38013932       0.86180035       0.23406729 </v>
   <v>       0.38374390       0.86280022       0.75352698 </v>
   <v>       0.87368848       0.36953677       0.23917908 </v>
   <v>       0.88743673       0.36881753       0.75540804 </v>
   <v>       0.87380747       0.86975737       0.26137880 </v>
   <v>       0.88908608       0.86137793       0.74875511 </v>
   <v>       0.36670673       0.11796242       0.24427356 </v>
   <v>       0.36366585       0.11703488       0.74961696 </v>
   <v>       0.37231477       0.61529271       0.26477578 </v>
   <v>       0.36490762       0.61651461       0.75203310 </v>
   <v>       0.86282586       0.12642142       0.23092084 </v>
   <v>       0.86331081       0.11666559       0.75286628 </v>
   <v>       0.86989181       0.62311652       0.25584226 </v>
   <v>       0.87087216       0.61019915       0.77349283 </v>
   <v>       0.12703814       0.38032213       0.25534661 </v>
   <v>       0.12871832       0.39039115       0.75712490 </v>
   <v>       0.13196260       0.87384663       0.23484821 </v>
   <v>       0.13612424       0.88282001       0.74556942 </v>
   <v>       0.63072259       0.38048179       0.24856543 </v>
   <v>       0.63578089       0.38430286       0.74905909 </v>
   <v>       0.63074389       0.87598200       0.25853166 </v>
   <v>       0.63936753       0.88259365       0.74605285 </v>
   <v>       0.36929043       0.38544741       0.00449877 </v>
   <v>       0.36944310       0.39197095       0.48421019 </v>
   <v>       0.36848411       0.87732879       0.01457289 </v>
   <v>       0.36186325       0.88338593       0.50351813 </v>
   <v>       0.86517400       0.38202256       0.00609704 </v>
   <v>       0.86116117       0.39268436       0.50134685 </v>
   <v>       0.86391996       0.82483411       0.46573911 </v>
   <v>       0.13405643       0.11216526       0.50714344 </v>
   <v>       0.13426483       0.62867057       0.01636836 </v>
   <v>       0.13115094       0.61589555       0.49913166 </v>
   <v>       0.63417376       0.12218404       0.01049066 </v>
   <v>       0.63560691       0.11906057       0.49628111 </v>
   <v>       0.63220386       0.61678748       0.99509563 </v>
   <v>       0.65361302       0.61366049       0.47285940 </v>
   <v>       0.11158307       0.37523232       0.98367068 </v>
   <v>       0.11330939       0.35742215       0.49887652 </v>
   <v>       0.12016944       0.87899890       0.00869125 </v>
   <v>       0.11321024       0.86391566       0.50281985 </v>
   <v>       0.62280373       0.36384866       0.02282922 </v>
   <v>       0.61544295       0.36901292       0.48435459 </v>
   <v>       0.62811541       0.87449309       0.00268895 </v>
   <v>       0.61666685       0.86627744       0.49940754 </v>
   <v>       0.37084861       0.12563393       0.00366536 </v>
   <v>       0.38368133       0.13728001       0.50274482 </v>
   <v>       0.37622444       0.63864040       0.01145655 </v>
   <v>       0.39189142       0.63607819       0.48881854 </v>
   <v>       0.89094243       0.12764699       0.00331658 </v>
   <v>       0.88080969       0.12903800       0.49752257 </v>
   <v>       0.89213987       0.63763279       0.98765934 </v>
   <v>       0.97935621       0.98173050       0.11623164 </v>
   <v>       0.97759942       0.98938223       0.61822104 </v>
   <v>       0.99753960       0.49859639       0.12881226 </v>
   <v>       0.98561458       0.51998623       0.62212420 </v>
   <v>       0.50648037       0.99931323       0.12662051 </v>
   <v>       0.50143307       0.99953659       0.62605839 </v>
   <v>       0.50361619       0.51993593       0.12750624 </v>
   <v>       0.50653155       0.50721918       0.62466463 </v>
   <v>       0.00402710       0.00550136       0.37326020 </v>
   <v>       0.00983895       0.00182314       0.88689301 </v>
   <v>       0.99286416       0.50878619       0.37532348 </v>
   <v>       0.49031232       0.99879944       0.37159474 </v>
   <v>       0.50065611       0.99963845       0.87893081 </v>
   <v>       0.50026239       0.49439410       0.87872366 </v>
   <v>       0.24558515       0.23864046       0.37172233 </v>
   <v>       0.23806177       0.23350489       0.87693202 </v>
   <v>       0.24563344       0.76230573       0.37650274 </v>
   <v>       0.25013183       0.75269571       0.87652092 </v>
   <v>       0.76321826       0.24512033       0.37351279 </v>
   <v>       0.74345231       0.25337907       0.87481720 </v>
   <v>       0.76130169       0.77786295       0.87938183 </v>
   <v>       0.23247895       0.25203369       0.12030424 </v>
   <v>       0.25327501       0.26328941       0.62651690 </v>
   <v>       0.25173036       0.73902212       0.62568023 </v>
   <v>       0.74897262       0.25354861       0.62427137 </v>
   <v>       0.75945205       0.75129329       0.12066752 </v>
   <v>       0.76410085       0.72754778       0.62554001 </v>
  </varray>
 </structure>
</modeling>
