       N       E                     dE             d eps       ncg     rms          rms(c)
DAV:   1    -0.105532597436E+04   -0.10553E+04   -0.23093E-02 13640   0.360E-01    0.308E-02
RMM:   2    -0.105532597401E+04    0.34650E-06   -0.29589E-05  6835   0.908E-03    0.550E-02
RMM:   3    -0.105532597445E+04   -0.43468E-06   -0.10150E-05  6529   0.573E-03    0.568E-03
RMM:   4    -0.105532597495E+04   -0.50492E-06   -0.47968E-06  4165   0.270E-03    0.576E-03
RMM:   5    -0.105532597525E+04   -0.29641E-06   -0.28076E-06  3964   0.306E-03    0.539E-03
RMM:   6    -0.105532597558E+04   -0.32624E-06   -0.18269E-06  3080   0.218E-03    0.206E-03
RMM:   7    -0.105532597574E+04   -0.16812E-06   -0.11253E-06  2888   0.227E-03    0.199E-03
RMM:   8    -0.105532597595E+04   -0.20141E-06   -0.76623E-07  2570   0.203E-03
   1 F= -.10553260E+04 E0= -.10553260E+04  d E =-.105533E+04  mag=    78.0000
       N       E                     dE             d eps       ncg     rms          rms(c)
DAV:   1    -0.105532556957E+04    0.40617E-03   -0.51148E-01 12416   0.835E-01    0.341E-01
RMM:   2    -0.105532731456E+04   -0.17450E-02   -0.15105E-02 12438   0.170E-01    0.254E-01
RMM:   3    -0.105532741750E+04   -0.10294E-03   -0.84374E-04 11570   0.502E-02    0.147E-01
RMM:   4    -0.105532733553E+04    0.81964E-04   -0.15619E-04  7961   0.176E-02    0.905E-02
RMM:   5    -0.105532730908E+04    0.26456E-04   -0.14279E-04  7442   0.147E-02    0.364E-02
RMM:   6    -0.105532731134E+04   -0.22676E-05   -0.23219E-05  7160   0.883E-03    0.245E-02
RMM:   7    -0.105532731224E+04   -0.89544E-06   -0.10726E-05  6553   0.409E-03    0.151E-02
RMM:   8    -0.105532731285E+04   -0.60740E-06   -0.46430E-06  5945   0.404E-03
   2 F= -.10553273E+04 E0= -.10553273E+04  d E =-.133690E-02  mag=    78.0000
       N       E                     dE             d eps       ncg     rms          rms(c)
DAV:   1    -0.105532731381E+04   -0.15667E-05   -0.34839E-06  7720   0.350E-03    0.603E-03
RMM:   2    -0.105532731394E+04   -0.13372E-06   -0.14579E-06  4063   0.275E-03    0.584E-03
RMM:   3    -0.105532731397E+04   -0.32684E-07   -0.25806E-07  2134   0.181E-03    0.179E-03
RMM:   4    -0.105532731400E+04   -0.25204E-07   -0.13479E-07  1892   0.187E-03    0.122E-03
RMM:   5    -0.105532731402E+04   -0.19470E-07   -0.30139E-08  1676   0.179E-03    0.649E-04
RMM:   6    -0.105532731403E+04   -0.14377E-07   -0.48013E-08  1413   0.180E-03    0.384E-04
RMM:   7    -0.105532731404E+04   -0.78289E-08   -0.41199E-08  1291   0.180E-03    0.286E-04
RMM:   8    -0.105532731405E+04   -0.11525E-07   -0.50415E-08  1109   0.180E-03
   3 F= -.10553273E+04 E0= -.10553273E+04  d E =-.133811E-02  mag=    78.0000
       N       E                     dE             d eps       ncg     rms          rms(c)
DAV:   1    -0.105532737939E+04   -0.65346E-04   -0.37683E-01 12648   0.722E-01    0.213E-01
RMM:   2    -0.105532844177E+04   -0.10624E-02   -0.10040E-02 12508   0.135E-01    0.153E-01
RMM:   3    -0.105532847709E+04   -0.35330E-04   -0.50699E-04  9975   0.414E-02    0.900E-02
RMM:   4    -0.105532845111E+04    0.25980E-04   -0.98200E-05  7218   0.139E-02    0.568E-02
RMM:   5    -0.105532844212E+04    0.89954E-05   -0.59992E-05  7128   0.105E-02    0.264E-02
RMM:   6    -0.105532844490E+04   -0.27851E-05   -0.16912E-05  6964   0.666E-03    0.142E-02
RMM:   7    -0.105532844584E+04   -0.93698E-06   -0.79583E-06  6230   0.421E-03    0.856E-03
RMM:   8    -0.105532844649E+04   -0.64512E-06   -0.41642E-06  4971   0.344E-03
   4 F= -.10553284E+04 E0= -.10553284E+04  d E =-.113244E-02  mag=    78.0000
