       N       E                     dE             d eps       ncg     rms          rms(c)
DAV:   1    -0.112145448569E+04   -0.11215E+04   -0.10673E-01  6656   0.748E-01    0.458E-02
RMM:   2    -0.112145448436E+04    0.13309E-05   -0.62036E-05  3600   0.132E-02    0.782E-02
RMM:   3    -0.112145448472E+04   -0.36624E-06   -0.16812E-05  3384   0.794E-03    0.920E-03
RMM:   4    -0.112145448572E+04   -0.99577E-06   -0.76649E-06  2583   0.340E-03    0.600E-03
RMM:   5    -0.112145448665E+04   -0.92869E-06   -0.45269E-06  2499   0.351E-03    0.116E-02
RMM:   6    -0.112145448691E+04   -0.26170E-06   -0.26364E-06  2049   0.265E-03    0.234E-03
RMM:   7    -0.112145448700E+04   -0.94136E-07   -0.14098E-06  1570   0.246E-03    0.218E-03
RMM:   8    -0.112145448708E+04   -0.75335E-07   -0.81671E-07  1245   0.210E-03
   1 F= -.11214545E+04 E0= -.11214545E+04  d E =-.112145E+04  mag=    40.0000
       N       E                     dE             d eps       ncg     rms          rms(c)
DAV:   1    -0.112148277269E+04   -0.28286E-01   -0.37325E+00  6472   0.234E+00    0.145E+00
RMM:   2    -0.112146995143E+04    0.12821E-01   -0.16079E-01  6201   0.505E-01    0.117E+00
RMM:   3    -0.112146451919E+04    0.54322E-02   -0.12124E-02  6402   0.188E-01    0.587E-01
RMM:   4    -0.112146294157E+04    0.15776E-02   -0.61891E-03  6608   0.834E-02    0.384E-01
RMM:   5    -0.112146276511E+04    0.17646E-03   -0.15628E-03  6455   0.522E-02    0.213E-01
RMM:   6    -0.112146272258E+04    0.42531E-04   -0.40909E-04  4919   0.207E-02    0.137E-01
RMM:   7    -0.112146271624E+04    0.63376E-05   -0.12826E-04  3785   0.142E-02    0.720E-02
RMM:   8    -0.112146270132E+04    0.14919E-04   -0.80899E-05  3642   0.117E-02
   2 F= -.11214627E+04 E0= -.11214627E+04  d E =-.821424E-02  mag=    40.0000
       N       E                     dE             d eps       ncg     rms          rms(c)
DAV:   1    -0.112146418907E+04   -0.14728E-02   -0.15990E-01  7008   0.483E-01    0.302E-01
RMM:   2    -0.112146359294E+04    0.59612E-03   -0.69257E-03  6164   0.104E-01    0.241E-01
RMM:   3    -0.112146333311E+04    0.25983E-03   -0.49018E-04  5383   0.390E-02    0.125E-01
RMM:   4    -0.112146325875E+04    0.74357E-04   -0.30026E-04  4091   0.190E-02    0.892E-02
RMM:   5    -0.112146326546E+04   -0.67075E-05   -0.68116E-05  3517   0.122E-02    0.528E-02
RMM:   6    -0.112146327141E+04   -0.59442E-05   -0.45813E-05  3488   0.725E-03    0.251E-02
RMM:   7    -0.112146327875E+04   -0.73437E-05   -0.15565E-05  3058   0.513E-03    0.166E-02
RMM:   8    -0.112146328286E+04   -0.41127E-05   -0.11801E-05  2665   0.388E-03
   3 F= -.11214633E+04 E0= -.11214633E+04  d E =-.879578E-02  mag=    40.0000
       N       E                     dE             d eps       ncg     rms          rms(c)
DAV:   1    -0.112146306759E+04    0.21116E-03   -0.32163E+00  6176   0.209E+00    0.528E-01
RMM:   2    -0.112147113811E+04   -0.80705E-02   -0.82936E-02  6167   0.382E-01    0.335E-01
RMM:   3    -0.112147135127E+04   -0.21315E-03   -0.47327E-03  6368   0.123E-01    0.213E-01
RMM:   4    -0.112147110976E+04    0.24151E-03   -0.10297E-03  6474   0.377E-02    0.115E-01
RMM:   5    -0.112147105193E+04    0.57821E-04   -0.33563E-04  4803   0.208E-02    0.532E-02
RMM:   6    -0.112147105515E+04   -0.32108E-05   -0.53920E-05  3616   0.118E-02    0.287E-02
RMM:   7    -0.112147105748E+04   -0.23382E-05   -0.27967E-05  3559   0.708E-03    0.145E-02
RMM:   8    -0.112147105808E+04   -0.59421E-06   -0.16391E-05  3442   0.638E-03
   4 F= -.11214711E+04 E0= -.11214711E+04  d E =-.777522E-02  mag=    40.0000
       N       E                     dE             d eps       ncg     rms          rms(c)
DAV:   1    -0.112146414223E+04    0.69153E-02   -0.41491E+00  6144   0.238E+00    0.598E-01
RMM:   2    -0.112147461374E+04   -0.10472E-01   -0.10759E-01  6176   0.434E-01    0.379E-01
RMM:   3    -0.112147488201E+04   -0.26827E-03   -0.61689E-03  6407   0.138E-01    0.241E-01
RMM:   4    -0.112147457411E+04    0.30791E-03   -0.13803E-03  6968   0.425E-02    0.131E-01
RMM:   5    -0.112147450008E+04    0.74025E-04   -0.47029E-04  5488   0.224E-02    0.571E-02
RMM:   6    -0.112147450198E+04   -0.18935E-05   -0.62246E-05  3641   0.120E-02    0.318E-02
RMM:   7    -0.112147450479E+04   -0.28099E-05   -0.35436E-05  3587   0.747E-03    0.158E-02
RMM:   8    -0.112147450553E+04   -0.74568E-06   -0.21659E-05  3495   0.697E-03
   5 F= -.11214745E+04 E0= -.11214745E+04  d E =-.112227E-01  mag=    40.0000
       N       E                     dE             d eps       ncg     rms          rms(c)
DAV:   1    -0.112147511064E+04   -0.60586E-03   -0.23881E+00  6464   0.181E+00    0.568E-01
RMM:   2    -0.112148055551E+04   -0.54449E-02   -0.64687E-02  6186   0.334E-01    0.387E-01
RMM:   3    -0.112148049839E+04    0.57123E-04   -0.38896E-03  6519   0.111E-01    0.213E-01
RMM:   4    -0.112148029750E+04    0.20089E-03   -0.10941E-03  7006   0.369E-02    0.138E-01
RMM:   5    -0.112148025130E+04    0.46198E-04   -0.28573E-04  4350   0.217E-02    0.853E-02
RMM:   6    -0.112148026784E+04   -0.16541E-04   -0.88841E-05  3681   0.131E-02    0.471E-02
RMM:   7    -0.112148027978E+04   -0.11939E-04   -0.41467E-05  3563   0.937E-03    0.223E-02
RMM:   8    -0.112148028939E+04   -0.96082E-05   -0.27509E-05  3516   0.775E-03
   6 F= -.11214803E+04 E0= -.11214803E+04  d E =-.578386E-02  mag=    40.0000
       N       E                     dE             d eps       ncg     rms          rms(c)
DAV:   1    -0.112147484815E+04    0.54316E-02   -0.36849E+00  6368   0.225E+00    0.705E-01
RMM:   2    -0.112148329834E+04   -0.84502E-02   -0.10001E-01  6189   0.416E-01    0.479E-01
RMM:   3    -0.112148323296E+04    0.65384E-04   -0.60121E-03  6519   0.139E-01    0.265E-01
RMM:   4    -0.112148293526E+04    0.29770E-03   -0.16962E-03  7496   0.456E-02    0.170E-01
RMM:   5    -0.112148286342E+04    0.71841E-04   -0.44820E-04  5302   0.239E-02    0.983E-02
RMM:   6    -0.112148288181E+04   -0.18395E-04   -0.99654E-05  3728   0.133E-02    0.547E-02
RMM:   7    -0.112148289596E+04   -0.14148E-04   -0.48482E-05  3612   0.976E-03    0.247E-02
RMM:   8    -0.112148290821E+04   -0.12246E-04   -0.31529E-05  3549   0.793E-03
   7 F= -.11214829E+04 E0= -.11214829E+04  d E =-.840267E-02  mag=    40.0000
       N       E                     dE             d eps       ncg     rms          rms(c)
DAV:   1    -0.112148177767E+04    0.11183E-02   -0.29926E+00  6416   0.203E+00    0.593E-01
RMM:   2    -0.112148816429E+04   -0.63866E-02   -0.78734E-02  6241   0.365E-01    0.402E-01
RMM:   3    -0.112148801658E+04    0.14772E-03   -0.44483E-03  6475   0.121E-01    0.210E-01
RMM:   4    -0.112148779934E+04    0.21724E-03   -0.12103E-03  7224   0.388E-02    0.130E-01
RMM:   5    -0.112148772364E+04    0.75697E-04   -0.37168E-04  4614   0.227E-02    0.865E-02
RMM:   6    -0.112148772748E+04   -0.38372E-05   -0.96465E-05  3684   0.135E-02    0.456E-02
RMM:   7    -0.112148772858E+04   -0.11036E-05   -0.45485E-05  3568   0.945E-03    0.224E-02
RMM:   8    -0.112148772506E+04    0.35231E-05   -0.29937E-05  3512   0.805E-03
   8 F= -.11214877E+04 E0= -.11214877E+04  d E =-.481685E-02  mag=    40.0000
       N       E                     dE             d eps       ncg     rms          rms(c)
DAV:   1    -0.112148041513E+04    0.73135E-02   -0.46839E+00  6144   0.254E+00    0.737E-01
RMM:   2    -0.112149061205E+04   -0.10197E-01   -0.12335E-01  6232   0.458E-01    0.498E-01
RMM:   3    -0.112149044019E+04    0.17186E-03   -0.69783E-03  6450   0.153E-01    0.260E-01
RMM:   4    -0.112149010980E+04    0.33039E-03   -0.18191E-03  7486   0.477E-02    0.163E-01
RMM:   5    -0.112148998181E+04    0.12799E-03   -0.55732E-04  5693   0.250E-02    0.105E-01
RMM:   6    -0.112148998243E+04   -0.62017E-06   -0.99405E-05  3676   0.133E-02    0.515E-02
RMM:   7    -0.112148998378E+04   -0.13515E-05   -0.51607E-05  3592   0.975E-03    0.252E-02
RMM:   8    -0.112148998105E+04    0.27299E-05   -0.34899E-05  3556   0.783E-03
   9 F= -.11214900E+04 E0= -.11214900E+04  d E =-.707285E-02  mag=    40.0000
       N       E                     dE             d eps       ncg     rms          rms(c)
DAV:   1    -0.112148878747E+04    0.11963E-02   -0.22507E+00  6352   0.175E+00    0.386E-01
RMM:   2    -0.112149442628E+04   -0.56388E-02   -0.56650E-02  6407   0.305E-01    0.239E-01
RMM:   3    -0.112149448711E+04   -0.60836E-04   -0.27783E-03  6409   0.922E-02    0.140E-01
RMM:   4    -0.112149437665E+04    0.11046E-03   -0.55501E-04  5568   0.279E-02    0.837E-02
RMM:   5    -0.112149434044E+04    0.36218E-04   -0.24815E-04  4051   0.183E-02    0.318E-02
RMM:   6    -0.112149434538E+04   -0.49429E-05   -0.54153E-05  3568   0.121E-02    0.303E-02
RMM:   7    -0.112149434851E+04   -0.31302E-05   -0.30416E-05  3501   0.734E-03    0.137E-02
RMM:   8    -0.112149434985E+04   -0.13382E-05   -0.17631E-05  3406   0.684E-03
  10 F= -.11214943E+04 E0= -.11214943E+04  d E =-.436879E-02  mag=    40.0000
       N       E                     dE             d eps       ncg     rms          rms(c)
DAV:   1    -0.112144934794E+04    0.45001E-01   -0.20253E+01  6272   0.526E+00    0.115E+00
RMM:   2    -0.112149980883E+04   -0.50461E-01   -0.50749E-01  6384   0.916E-01    0.718E-01
RMM:   3    -0.112150048146E+04   -0.67262E-03   -0.24928E-02  6650   0.279E-01    0.422E-01
RMM:   4    -0.112149950574E+04    0.97571E-03   -0.53650E-03  8119   0.818E-02    0.252E-01
RMM:   5    -0.112149919159E+04    0.31416E-03   -0.23376E-03  7067   0.440E-02    0.740E-02
RMM:   6    -0.112149920865E+04   -0.17060E-04   -0.29985E-04  4886   0.219E-02    0.476E-02
RMM:   7    -0.112149921840E+04   -0.97570E-05   -0.11109E-04  3899   0.123E-02    0.297E-02
RMM:   8    -0.112149922507E+04   -0.66676E-05   -0.10627E-04  3783   0.120E-02
  11 F= -.11214992E+04 E0= -.11214992E+04  d E =-.924402E-02  mag=    40.0000
       N       E                     dE             d eps       ncg     rms          rms(c)
DAV:   1    -0.112149497530E+04    0.42431E-02   -0.32245E+00  6360   0.209E+00    0.503E-01
RMM:   2    -0.112150320581E+04   -0.82305E-02   -0.82048E-02  6416   0.367E-01    0.316E-01
RMM:   3    -0.112150330971E+04   -0.10390E-03   -0.41027E-03  6573   0.109E-01    0.174E-01
RMM:   4    -0.112150313860E+04    0.17111E-03   -0.86840E-04  6516   0.330E-02    0.105E-01
RMM:   5    -0.112150308795E+04    0.50654E-04   -0.35148E-04  4774   0.203E-02    0.377E-02
RMM:   6    -0.112150309830E+04   -0.10353E-04   -0.68761E-05  3607   0.126E-02    0.269E-02
RMM:   7    -0.112150310372E+04   -0.54186E-05   -0.40334E-05  3566   0.843E-03    0.182E-02
RMM:   8    -0.112150310831E+04   -0.45839E-05   -0.24757E-05  3518   0.752E-03
  12 F= -.11215031E+04 E0= -.11215031E+04  d E =-.388323E-02  mag=    40.0000
       N       E                     dE             d eps       ncg     rms          rms(c)
DAV:   1    -0.112146031684E+04    0.42787E-01   -0.18249E+01  6392   0.497E+00    0.120E+00
RMM:   2    -0.112150627602E+04   -0.45959E-01   -0.46024E-01  6388   0.874E-01    0.753E-01
RMM:   3    -0.112150700296E+04   -0.72694E-03   -0.22903E-02  6694   0.261E-01    0.412E-01
RMM:   4    -0.112150604395E+04    0.95901E-03   -0.49443E-03  8206   0.773E-02    0.248E-01
RMM:   5    -0.112150576673E+04    0.27722E-03   -0.19591E-03  7295   0.406E-02    0.878E-02
RMM:   6    -0.112150579912E+04   -0.32389E-04   -0.27811E-04  4743   0.205E-02    0.488E-02
RMM:   7    -0.112150581404E+04   -0.14922E-04   -0.97882E-05  3851   0.126E-02    0.322E-02
RMM:   8    -0.112150582689E+04   -0.12854E-04   -0.92861E-05  3761   0.120E-02
  13 F= -.11215058E+04 E0= -.11215058E+04  d E =-.660182E-02  mag=    40.0000
       N       E                     dE             d eps       ncg     rms          rms(c)
DAV:   1    -0.112150303321E+04    0.27808E-02   -0.12573E+00  6544   0.130E+00    0.318E-01
RMM:   2    -0.112150612146E+04   -0.30883E-02   -0.30859E-02  6344   0.229E-01    0.200E-01
RMM:   3    -0.112150618882E+04   -0.67355E-04   -0.15132E-03  5987   0.693E-02    0.110E-01
RMM:   4    -0.112150611461E+04    0.74210E-04   -0.24508E-04  3968   0.208E-02    0.671E-02
RMM:   5    -0.112150608863E+04    0.25976E-04   -0.11612E-04  3471   0.149E-02    0.296E-02
RMM:   6    -0.112150609137E+04   -0.27330E-05   -0.30964E-05  3434   0.951E-03    0.253E-02
RMM:   7    -0.112150609230E+04   -0.93167E-06   -0.15057E-05  3339   0.563E-03    0.112E-02
RMM:   8    -0.112150609105E+04    0.12471E-05   -0.81221E-06  3235   0.485E-03
  14 F= -.11215061E+04 E0= -.11215061E+04  d E =-.686598E-02  mag=    40.0000
       N       E                     dE             d eps       ncg     rms          rms(c)
DAV:   1    -0.112150571928E+04    0.37302E-03   -0.15826E+00  6208   0.145E+00    0.468E-01
RMM:   2    -0.112150997966E+04   -0.42604E-02   -0.41322E-02  6236   0.269E-01    0.287E-01
RMM:   3    -0.112151015434E+04   -0.17468E-03   -0.24235E-03  6340   0.839E-02    0.159E-01
RMM:   4    -0.112151002748E+04    0.12686E-03   -0.43347E-04  4968   0.258E-02    0.951E-02
RMM:   5    -0.112150998025E+04    0.47233E-04   -0.17289E-04  3735   0.178E-02    0.526E-02
RMM:   6    -0.112150998143E+04   -0.11801E-05   -0.43934E-05  3538   0.115E-02    0.473E-02
RMM:   7    -0.112150998204E+04   -0.60978E-06   -0.21272E-05  3504   0.666E-03    0.173E-02
RMM:   8    -0.112150997992E+04    0.21222E-05   -0.12662E-05  3460   0.615E-03
  15 F= -.11215100E+04 E0= -.11215100E+04  d E =-.388886E-02  mag=    40.0000
       N       E                     dE             d eps       ncg     rms          rms(c)
DAV:   1    -0.112150193839E+04    0.80437E-02   -0.39587E+00  6144   0.229E+00    0.739E-01
RMM:   2    -0.112151268366E+04   -0.10745E-01   -0.10396E-01  6242   0.427E-01    0.453E-01
RMM:   3    -0.112151313451E+04   -0.45086E-03   -0.62914E-03  6618   0.133E-01    0.252E-01
RMM:   4    -0.112151282755E+04    0.30696E-03   -0.12342E-03  6912   0.400E-02    0.151E-01
RMM:   5    -0.112151271254E+04    0.11500E-03   -0.45842E-04  5130   0.236E-02    0.682E-02
RMM:   6    -0.112151271289E+04   -0.34719E-06   -0.78163E-05  3644   0.133E-02    0.554E-02
RMM:   7    -0.112151271500E+04   -0.21095E-05   -0.37727E-05  3576   0.883E-03    0.262E-02
RMM:   8    -0.112151271235E+04    0.26532E-05   -0.25123E-05  3543   0.779E-03
  16 F= -.11215127E+04 E0= -.11215127E+04  d E =-.662130E-02  mag=    40.0000
       N       E                     dE             d eps       ncg     rms          rms(c)
DAV:   1    -0.112151033295E+04    0.23821E-02   -0.19694E+00  6368   0.161E+00    0.526E-01
RMM:   2    -0.112151630086E+04   -0.59679E-02   -0.50446E-02  6267   0.295E-01    0.322E-01
RMM:   3    -0.112151666141E+04   -0.36055E-03   -0.29141E-03  6445   0.896E-02    0.172E-01
RMM:   4    -0.112151651889E+04    0.14252E-03   -0.54091E-04  5371   0.274E-02    0.949E-02
RMM:   5    -0.112151649191E+04    0.26989E-04   -0.18375E-04  3815   0.176E-02    0.355E-02
RMM:   6    -0.112151650143E+04   -0.95212E-05   -0.49412E-05  3577   0.112E-02    0.233E-02
RMM:   7    -0.112151650580E+04   -0.43695E-05   -0.27273E-05  3510   0.731E-03    0.170E-02
RMM:   8    -0.112151650958E+04   -0.37832E-05   -0.16381E-05  3440   0.640E-03
  17 F= -.11215165E+04 E0= -.11215165E+04  d E =-.379723E-02  mag=    40.0000
       N       E                     dE             d eps       ncg     rms          rms(c)
DAV:   1    -0.112150484593E+04    0.11660E-01   -0.44722E+00  6184   0.242E+00    0.791E-01
RMM:   2    -0.112151841415E+04   -0.13568E-01   -0.11456E-01  6262   0.445E-01    0.485E-01
RMM:   3    -0.112151925382E+04   -0.83967E-03   -0.66396E-03  6563   0.136E-01    0.260E-01
RMM:   4    -0.112151894393E+04    0.30988E-03   -0.13129E-03  6796   0.409E-02    0.142E-01
RMM:   5    -0.112151887813E+04    0.65798E-04   -0.42749E-04  5033   0.225E-02    0.547E-02
RMM:   6    -0.112151889030E+04   -0.12167E-04   -0.71255E-05  3661   0.126E-02    0.320E-02
RMM:   7    -0.112151889663E+04   -0.63322E-05   -0.36371E-05  3583   0.850E-03    0.240E-02
RMM:   8    -0.112151890128E+04   -0.46446E-05   -0.23307E-05  3529   0.714E-03
  18 F= -.11215189E+04 E0= -.11215189E+04  d E =-.618893E-02  mag=    40.0000
       N       E                     dE             d eps       ncg     rms          rms(c)
DAV:   1    -0.112151613426E+04    0.27624E-02   -0.19204E+00  6448   0.159E+00    0.445E-01
RMM:   2    -0.112152137755E+04   -0.52433E-02   -0.48739E-02  6303   0.288E-01    0.281E-01
RMM:   3    -0.112152157839E+04   -0.20084E-03   -0.27478E-03  6436   0.853E-02    0.155E-01
RMM:   4    -0.112152144517E+04    0.13321E-03   -0.45035E-04  5116   0.252E-02    0.913E-02
RMM:   5    -0.112152140059E+04    0.44582E-04   -0.23726E-04  4001   0.183E-02    0.340E-02
RMM:   6    -0.112152140354E+04   -0.29482E-05   -0.48491E-05  3566   0.122E-02    0.358E-02
RMM:   7    -0.112152140570E+04   -0.21622E-05   -0.27669E-05  3530   0.705E-03    0.155E-02
RMM:   8    -0.112152140473E+04    0.97304E-06   -0.15816E-05  3482   0.701E-03
  19 F= -.11215214E+04 E0= -.11215214E+04  d E =-.250345E-02  mag=    40.0000
       N       E                     dE             d eps       ncg     rms          rms(c)
DAV:   1    -0.112151819435E+04    0.32113E-02   -0.14866E+00  6240   0.140E+00    0.391E-01
RMM:   2    -0.112152226123E+04   -0.40669E-02   -0.37744E-02  6299   0.254E-01    0.246E-01
RMM:   3    -0.112152242257E+04   -0.16134E-03   -0.21506E-03  6359   0.761E-02    0.136E-01
RMM:   4    -0.112152231860E+04    0.10398E-03   -0.34210E-04  4653   0.224E-02    0.800E-02
RMM:   5    -0.112152228404E+04    0.34551E-04   -0.17352E-04  3762   0.161E-02    0.312E-02
RMM:   6    -0.112152228661E+04   -0.25630E-05   -0.40055E-05  3553   0.110E-02    0.359E-02
RMM:   7    -0.112152228827E+04   -0.16588E-05   -0.21686E-05  3491   0.626E-03    0.135E-02
RMM:   8    -0.112152228772E+04    0.54263E-06   -0.12239E-05  3416   0.612E-03
  20 F= -.11215223E+04 E0= -.11215223E+04  d E =-.338645E-02  mag=    40.0000
       N       E                     dE             d eps       ncg     rms          rms(c)
DAV:   1    -0.112152233340E+04   -0.45136E-04   -0.65136E-01  6256   0.935E-01    0.275E-01
RMM:   2    -0.112152398403E+04   -0.16506E-02   -0.17255E-02  6250   0.176E-01    0.205E-01
RMM:   3    -0.112152402990E+04   -0.45869E-04   -0.10296E-03  5791   0.522E-02    0.135E-01
RMM:   4    -0.112152397508E+04    0.54811E-04   -0.12472E-04  3700   0.154E-02    0.880E-02
RMM:   5    -0.112152393546E+04    0.39628E-04   -0.13382E-04  3656   0.139E-02    0.280E-02
RMM:   6    -0.112152393703E+04   -0.15767E-05   -0.31001E-05  3532   0.960E-03    0.282E-02
RMM:   7    -0.112152393799E+04   -0.95546E-06   -0.14196E-05  3425   0.500E-03    0.100E-02
RMM:   8    -0.112152393768E+04    0.30741E-06   -0.78831E-06  3172   0.504E-03
  21 F= -.11215239E+04 E0= -.11215239E+04  d E =-.164996E-02  mag=    40.0000
       N       E                     dE             d eps       ncg     rms          rms(c)
DAV:   1    -0.112152299389E+04    0.94409E-03   -0.60795E-01  6208   0.903E-01    0.267E-01
RMM:   2    -0.112152453042E+04   -0.15365E-02   -0.16079E-02  6240   0.169E-01    0.200E-01
RMM:   3    -0.112152457207E+04   -0.41651E-04   -0.95188E-04  5698   0.512E-02    0.131E-01
RMM:   4    -0.112152452218E+04    0.49896E-04   -0.12005E-04  3688   0.154E-02    0.853E-02
RMM:   5    -0.112152448518E+04    0.36999E-04   -0.12547E-04  3639   0.136E-02    0.275E-02
RMM:   6    -0.112152448665E+04   -0.14686E-05   -0.29857E-05  3534   0.943E-03    0.277E-02
RMM:   7    -0.112152448758E+04   -0.92751E-06   -0.13554E-05  3406   0.489E-03    0.950E-03
RMM:   8    -0.112152448731E+04    0.26291E-06   -0.75042E-06  3111   0.495E-03
  22 F= -.11215245E+04 E0= -.11215245E+04  d E =-.219959E-02  mag=    40.0000
       N       E                     dE             d eps       ncg     rms          rms(c)
DAV:   1    -0.112152409689E+04    0.39068E-03   -0.79602E-01  6256   0.104E+00    0.279E-01
RMM:   2    -0.112152583790E+04   -0.17410E-02   -0.21152E-02  6301   0.189E-01    0.184E-01
RMM:   3    -0.112152579577E+04    0.42130E-04   -0.11118E-03  5851   0.583E-02    0.107E-01
RMM:   4    -0.112152573276E+04    0.63012E-04   -0.23615E-04  3974   0.191E-02    0.637E-02
RMM:   5    -0.112152571866E+04    0.14093E-04   -0.86024E-05  3572   0.131E-02    0.267E-02
RMM:   6    -0.112152572322E+04   -0.45609E-05   -0.27569E-05  3531   0.839E-03    0.256E-02
RMM:   7    -0.112152572575E+04   -0.25244E-05   -0.14844E-05  3415   0.556E-03    0.112E-02
RMM:   8    -0.112152572846E+04   -0.27151E-05   -0.87954E-06  3274   0.478E-03
  23 F= -.11215257E+04 E0= -.11215257E+04  d E =-.124115E-02  mag=    40.0000
       N       E                     dE             d eps       ncg     rms          rms(c)
DAV:   1    -0.112152534568E+04    0.38007E-03   -0.27585E-01  6320   0.614E-01    0.164E-01
RMM:   2    -0.112152595327E+04   -0.60760E-03   -0.73568E-03  6291   0.112E-01    0.108E-01
RMM:   3    -0.112152593489E+04    0.18379E-04   -0.35013E-04  4555   0.347E-02    0.635E-02
RMM:   4    -0.112152591689E+04    0.18000E-04   -0.93076E-05  3553   0.130E-02    0.379E-02
RMM:   5    -0.112152591503E+04    0.18679E-05   -0.37353E-05  3530   0.893E-03    0.181E-02
RMM:   6    -0.112152591733E+04   -0.23066E-05   -0.14400E-05  3412   0.576E-03    0.142E-02
RMM:   7    -0.112152591874E+04   -0.14079E-05   -0.73182E-06  2990   0.418E-03    0.554E-03
RMM:   8    -0.112152592024E+04   -0.14961E-05   -0.46104E-06  2610   0.325E-03
  24 F= -.11215259E+04 E0= -.11215259E+04  d E =-.143292E-02  mag=    40.0000
       N       E                     dE             d eps       ncg     rms          rms(c)
DAV:   1    -0.112152451968E+04    0.13991E-02   -0.97183E-01  6384   0.115E+00    0.311E-01
RMM:   2    -0.112152696133E+04   -0.24417E-02   -0.25883E-02  6281   0.211E-01    0.207E-01
RMM:   3    -0.112152699534E+04   -0.34010E-04   -0.14270E-03  6094   0.629E-02    0.129E-01
RMM:   4    -0.112152692199E+04    0.73357E-04   -0.23119E-04  4083   0.189E-02    0.751E-02
RMM:   5    -0.112152690011E+04    0.21874E-04   -0.11751E-04  3629   0.138E-02    0.218E-02
RMM:   6    -0.112152690485E+04   -0.47356E-05   -0.31156E-05  3535   0.933E-03    0.241E-02
RMM:   7    -0.112152690692E+04   -0.20722E-05   -0.16496E-05  3448   0.557E-03    0.102E-02
RMM:   8    -0.112152690858E+04   -0.16612E-05   -0.93808E-06  3268   0.525E-03
  25 F= -.11215269E+04 E0= -.11215269E+04  d E =-.988346E-03  mag=    40.0000
