<?xml version="1.0" encoding="ISO-8859-1"?>
<modeling>
 <generator>
  <i name="program" type="string">vasp </i>
  <i name="version" type="string">5.4.1  </i>
  <i name="subversion" type="string">05Feb16 (build Jan 25 2017 20:16:33) complex                          parallel </i>
  <i name="platform" type="string">BWXE6 </i>
  <i name="date" type="string">2019 08 11 </i>
  <i name="time" type="string">11:32:27 </i>
 </generator>
 <incar>
  <i type="string" name="SYSTEM"> STF</i>
  <i type="string" name="PREC">normal</i>
  <i type="string" name="ALGO"> Fast</i>
  <i type="int" name="ISPIN">     2</i>
  <i type="int" name="NELM">    40</i>
  <i type="int" name="NELMIN">     8</i>
  <i type="int" name="IBRION">     2</i>
  <i name="EDIFF">      0.00010000</i>
  <i name="EDIFFG">     -0.03000000</i>
  <i type="int" name="NSW">    30</i>
  <i type="int" name="ISIF">     3</i>
  <i name="ENCUT">    520.00000000</i>
  <i type="int" name="NBANDS">   768</i>
  <v name="MAGMOM">      0.60000000      0.60000000      0.60000000      0.60000000      0.60000000      0.60000000      0.60000000      0.60000000      0.60000000      0.60000000      0.60000000      0.60000000      0.60000000      0.60000000      0.60000000      0.60000000      0.60000000      0.60000000      0.60000000      0.60000000
      0.60000000      0.60000000      0.60000000      0.60000000      0.60000000      0.60000000      0.60000000      0.60000000      0.60000000      0.60000000      0.60000000      0.60000000      0.60000000      0.60000000      0.60000000      0.60000000      0.60000000      0.60000000      0.60000000      0.60000000
      0.60000000      0.60000000      0.60000000      0.60000000      0.60000000      0.60000000      0.60000000      0.60000000      0.60000000      0.60000000      0.60000000      0.60000000      0.60000000      0.60000000      0.60000000      0.60000000      5.00000000      5.00000000      5.00000000      5.00000000
      5.00000000      5.00000000      5.00000000      5.00000000      0.60000000      0.60000000      0.60000000      0.60000000      0.60000000      0.60000000      0.60000000      0.60000000      0.60000000      0.60000000      0.60000000      0.60000000      0.60000000      0.60000000      0.60000000      0.60000000
      0.60000000      0.60000000      0.60000000      0.60000000      0.60000000      0.60000000      0.60000000      0.60000000      0.60000000      0.60000000      0.60000000      0.60000000      0.60000000      0.60000000      0.60000000      0.60000000      0.60000000      0.60000000      0.60000000      0.60000000
      0.60000000      0.60000000      0.60000000      0.60000000      0.60000000      0.60000000      0.60000000      0.60000000      0.60000000      0.60000000      0.60000000      0.60000000      0.60000000      0.60000000      0.60000000      0.60000000      0.60000000      0.60000000      0.60000000      0.60000000
      0.60000000      0.60000000      0.60000000      0.60000000      0.60000000      0.60000000      0.60000000      0.60000000      0.60000000      0.60000000      0.60000000      0.60000000      0.60000000      0.60000000      0.60000000      0.60000000      0.60000000      0.60000000      0.60000000      0.60000000
      0.60000000      0.60000000      0.60000000      0.60000000      0.60000000      0.60000000      0.60000000      0.60000000      0.60000000      0.60000000      0.60000000      0.60000000      0.60000000      0.60000000      0.60000000      0.60000000</v>
  <i type="string" name="LREAL"> Auto</i>
  <i type="int" name="ISMEAR">     0</i>
  <i name="SIGMA">      0.05000000</i>
  <i type="int" name="LMAXMIX">     4</i>
  <v type="int" name="KPOINT_BSE">    -1     0     0     0</v>
  <i type="int" name="NELM">    40</i>
  <i type="logical" name="LDAU"> T  </i>
  <v type="int" name="LDAUTYPE">     2</v>
  <v type="int" name="LDAUL">     0     2     2     0</v>
  <v name="LDAUU">      0.00000000      3.00000000      5.00000000      0.00000000</v>
  <v name="LDAUJ">      0.00000000      0.00000000      0.00000000      0.00000000</v>
  <i type="int" name="LDAUPRINT">     1</i>
 </incar>
 <kpoints>
  <generation param="Monkhorst-Pack">
   <v type="int" name="divisions">       2        2        2 </v>
   <v name="usershift">      0.00000000       0.00000000       0.00000000 </v>
   <v name="genvec1">      0.50000000       0.00000000       0.00000000 </v>
   <v name="genvec2">     -0.00000000       0.50000000       0.00000000 </v>
   <v name="genvec3">      0.00000000       0.00000000       0.50000000 </v>
   <v name="shift">      0.50000000       0.50000000       0.50000000 </v>
  </generation>
  <varray name="kpointlist" >
   <v>       0.25000000       0.25000000       0.25000000 </v>
   <v>      -0.25000000       0.25000000       0.25000000 </v>
  </varray>
  <varray name="weights" >
   <v>       0.50000000 </v>
   <v>       0.50000000 </v>
  </varray>
 </kpoints>
 <parameters>
  <separator name="general" >
   <i type="string" name="SYSTEM">STF</i>
   <i type="logical" name="LCOMPAT"> F  </i>
  </separator>
  <separator name="electronic" >
   <i type="string" name="PREC">normal</i>
   <i name="ENMAX">    520.00000000</i>
   <i name="ENAUG">    605.39200000</i>
   <i name="EDIFF">      0.00010000</i>
   <i type="int" name="IALGO">    68</i>
   <i type="int" name="IWAVPR">    11</i>
   <i type="int" name="NBANDS">   768</i>
   <i name="NELECT">   1032.00000000</i>
   <i type="int" name="TURBO">     0</i>
   <i type="int" name="IRESTART">     0</i>
   <i type="int" name="NREBOOT">     0</i>
   <i type="int" name="NMIN">     0</i>
   <i name="EREF">      0.00000000</i>
   <separator name="electronic smearing" >
    <i type="int" name="ISMEAR">     0</i>
    <i name="SIGMA">      0.05000000</i>
    <i name="KSPACING">      0.50000000</i>
    <i type="logical" name="KGAMMA"> T  </i>
   </separator>
   <separator name="electronic projectors" >
    <i type="logical" name="LREAL"> T  </i>
    <v name="ROPT">     -0.00050000     -0.00050000     -0.00050000     -0.00050000</v>
    <i type="int" name="LMAXPAW">  -100</i>
    <i type="int" name="LMAXMIX">     4</i>
    <i type="logical" name="NLSPLINE"> F  </i>
   </separator>
   <separator name="electronic startup" >
    <i type="int" name="ISTART">     1</i>
    <i type="int" name="ICHARG">     0</i>
    <i type="int" name="INIWAV">     1</i>
   </separator>
   <separator name="electronic spin" >
    <i type="int" name="ISPIN">     2</i>
    <i type="logical" name="LNONCOLLINEAR"> F  </i>
    <v name="MAGMOM">      0.60000000      0.60000000      0.60000000      0.60000000      0.60000000      0.60000000      0.60000000      0.60000000      0.60000000      0.60000000      0.60000000      0.60000000      0.60000000      0.60000000      0.60000000      0.60000000      0.60000000      0.60000000      0.60000000      0.60000000
      0.60000000      0.60000000      0.60000000      0.60000000      0.60000000      0.60000000      0.60000000      0.60000000      0.60000000      0.60000000      0.60000000      0.60000000      0.60000000      0.60000000      0.60000000      0.60000000      0.60000000      0.60000000      0.60000000      0.60000000
      0.60000000      0.60000000      0.60000000      0.60000000      0.60000000      0.60000000      0.60000000      0.60000000      0.60000000      0.60000000      0.60000000      0.60000000      0.60000000      0.60000000      0.60000000      0.60000000      5.00000000      5.00000000      5.00000000      5.00000000
      5.00000000      5.00000000      5.00000000      5.00000000      0.60000000      0.60000000      0.60000000      0.60000000      0.60000000      0.60000000      0.60000000      0.60000000      0.60000000      0.60000000      0.60000000      0.60000000      0.60000000      0.60000000      0.60000000      0.60000000
      0.60000000      0.60000000      0.60000000      0.60000000      0.60000000      0.60000000      0.60000000      0.60000000      0.60000000      0.60000000      0.60000000      0.60000000      0.60000000      0.60000000      0.60000000      0.60000000      0.60000000      0.60000000      0.60000000      0.60000000
      0.60000000      0.60000000      0.60000000      0.60000000      0.60000000      0.60000000      0.60000000      0.60000000      0.60000000      0.60000000      0.60000000      0.60000000      0.60000000      0.60000000      0.60000000      0.60000000      0.60000000      0.60000000      0.60000000      0.60000000
      0.60000000      0.60000000      0.60000000      0.60000000      0.60000000      0.60000000      0.60000000      0.60000000      0.60000000      0.60000000      0.60000000      0.60000000      0.60000000      0.60000000      0.60000000      0.60000000      0.60000000      0.60000000      0.60000000      0.60000000
      0.60000000      0.60000000      0.60000000      0.60000000      0.60000000      0.60000000      0.60000000      0.60000000      0.60000000      0.60000000      0.60000000      0.60000000      0.60000000      0.60000000      0.60000000      0.60000000</v>
    <i name="NUPDOWN">     -1.00000000</i>
    <i type="logical" name="LSORBIT"> F  </i>
    <v name="SAXIS">      0.00000000      0.00000000      1.00000000</v>
    <i type="logical" name="LSPIRAL"> F  </i>
    <v name="QSPIRAL">      0.00000000      0.00000000      0.00000000</v>
    <i type="logical" name="LZEROZ"> F  </i>
   </separator>
   <separator name="electronic exchange-correlation" >
    <i type="logical" name="LASPH"> F  </i>
    <i type="logical" name="LMETAGGA"> F  </i>
   </separator>
   <separator name="electronic convergence" >
    <i type="int" name="NELM">    40</i>
    <i type="int" name="NELMDL">     0</i>
    <i type="int" name="NELMIN">     8</i>
    <i name="ENINI">    520.00000000</i>
    <separator name="electronic convergence detail" >
     <i type="logical" name="LDIAG"> T  </i>
     <i type="logical" name="LSUBROT"> F  </i>
     <i name="WEIMIN">      0.00100000</i>
     <i name="EBREAK">      0.00000003</i>
     <i name="DEPER">      0.30000000</i>
     <i type="int" name="NRMM">     4</i>
     <i name="TIME">      0.40000000</i>
    </separator>
   </separator>
   <separator name="electronic mixer" >
    <i name="AMIX">      0.40000000</i>
    <i name="BMIX">      1.00000000</i>
    <i name="AMIN">      0.10000000</i>
    <i name="AMIX_MAG">      1.60000000</i>
    <i name="BMIX_MAG">      1.00000000</i>
    <separator name="electronic mixer details" >
     <i type="int" name="IMIX">     4</i>
     <i type="logical" name="MIXFIRST"> F  </i>
     <i type="int" name="MAXMIX">   -45</i>
     <i name="WC">    100.00000000</i>
     <i type="int" name="INIMIX">     1</i>
     <i type="int" name="MIXPRE">     1</i>
     <i type="int" name="MREMOVE">     5</i>
    </separator>
   </separator>
   <separator name="electronic dipolcorrection" >
    <i type="logical" name="LDIPOL"> F  </i>
    <i type="logical" name="LMONO"> F  </i>
    <i type="int" name="IDIPOL">     0</i>
    <i name="EPSILON">      1.00000000</i>
    <v name="DIPOL">   -100.00000000   -100.00000000   -100.00000000</v>
    <i name="EFIELD">      0.00000000</i>
   </separator>
  </separator>
  <separator name="grids" >
   <i type="int" name="NGX">    64</i>
   <i type="int" name="NGY">    64</i>
   <i type="int" name="NGZ">    90</i>
   <i type="int" name="NGXF">   128</i>
   <i type="int" name="NGYF">   128</i>
   <i type="int" name="NGZF">   180</i>
   <i type="logical" name="ADDGRID"> F  </i>
  </separator>
  <separator name="ionic" >
   <i type="int" name="NSW">    30</i>
   <i type="int" name="IBRION">     2</i>
   <i type="int" name="ISIF">     3</i>
   <i name="PSTRESS">      0.00000000</i>
   <i name="EDIFFG">     -0.03000000</i>
   <i type="int" name="NFREE">     1</i>
   <i name="POTIM">      0.50000000</i>
   <i name="SMASS">     -3.00000000</i>
   <i name="SCALEE">      1.00000000</i>
  </separator>
  <separator name="ionic md" >
   <i name="TEBEG">      0.00010000</i>
   <i name="TEEND">      0.00010000</i>
   <i type="int" name="NBLOCK">     1</i>
   <i type="int" name="KBLOCK">    30</i>
   <i type="int" name="NPACO">   256</i>
   <i name="APACO">     16.00000000</i>
  </separator>
  <separator name="symmetry" >
   <i type="int" name="ISYM">     2</i>
   <i name="SYMPREC">      0.00001000</i>
  </separator>
  <separator name="dos" >
   <i type="logical" name="LORBIT"> F  </i>
   <v name="RWIGS">     -1.00000000     -1.00000000     -1.00000000     -1.00000000</v>
   <i type="int" name="NEDOS">   301</i>
   <i name="EMIN">     10.00000000</i>
   <i name="EMAX">    -10.00000000</i>
   <i name="EFERMI">      0.00000000</i>
  </separator>
  <separator name="writing" >
   <i type="int" name="NWRITE">     2</i>
   <i type="logical" name="LWAVE"> T  </i>
   <i type="logical" name="LCHARG"> T  </i>
   <i type="logical" name="LPARD"> F  </i>
   <i type="logical" name="LVTOT"> F  </i>
   <i type="logical" name="LVHAR"> F  </i>
   <i type="logical" name="LELF"> F  </i>
   <i type="logical" name="LOPTICS"> F  </i>
   <v name="STM">      0.00000000      0.00000000      0.00000000      0.00000000      0.00000000      0.00000000      0.00000000</v>
  </separator>
  <separator name="performance" >
   <i type="int" name="NPAR">     2</i>
   <i type="int" name="NSIM">     4</i>
   <i type="int" name="NBLK">    -1</i>
   <i type="logical" name="LPLANE"> T  </i>
   <i type="logical" name="LSCALAPACK"> T  </i>
   <i type="logical" name="LSCAAWARE"> F  </i>
   <i type="logical" name="LSCALU"> F  </i>
   <i type="logical" name="LASYNC"> F  </i>
   <i type="logical" name="LORBITALREAL"> F  </i>
  </separator>
  <separator name="miscellaneous" >
   <i type="int" name="IDIOT">     3</i>
   <i type="logical" name="LMUSIC"> F  </i>
   <v name="POMASS">     87.62000000     47.88000000     55.84700000     16.00000000</v>
   <v name="DARWINR">      0.00000000      0.00000000      0.00000000      0.00000000</v>
   <v name="DARWINV">      1.00000000      1.00000000      1.00000000      1.00000000</v>
   <i type="logical" name="LCORR"> T  </i>
  </separator>
  <i type="logical" name="GGA_COMPAT"> T  </i>
  <i type="logical" name="LBERRY"> F  </i>
  <i type="int" name="ICORELEVEL">     0</i>
  <i type="logical" name="LDAU"> T  </i>
  <v type="int" name="LDAUTYPE">     2</v>
  <v type="int" name="LDAUL">     0</v>
  <v name="LDAUU">      0.00000000</v>
  <v name="LDAUJ">      0.00000000</v>
  <i type="int" name="LDAUPRINT">     1</i>
  <i type="int" name="I_CONSTRAINED_M">     0</i>
  <separator name="electronic exchange-correlation" >
   <i type="string" name="GGA">--</i>
   <i type="int" name="VOSKOWN">     0</i>
   <i type="logical" name="LHFCALC"> F  </i>
   <i type="string" name="PRECFOCK"></i>
   <i type="logical" name="LSYMGRAD"> F  </i>
   <i type="logical" name="LHFONE"> F  </i>
   <i type="logical" name="LRHFCALC"> F  </i>
   <i type="logical" name="LTHOMAS"> F  </i>
   <i type="logical" name="LMODELHF"> F  </i>
   <i name="ENCUT4O">     -1.00000000</i>
   <i type="int" name="EXXOEP">     0</i>
   <i type="int" name="FOURORBIT">     0</i>
   <i name="AEXX">      0.00000000</i>
   <i name="HFALPHA">      0.00000000</i>
   <i name="MCALPHA">      0.00000000</i>
   <i name="ALDAX">      1.00000000</i>
   <i name="AGGAX">      1.00000000</i>
   <i name="ALDAC">      1.00000000</i>
   <i name="AGGAC">      1.00000000</i>
   <i type="int" name="NKREDX">     1</i>
   <i type="int" name="NKREDY">     1</i>
   <i type="int" name="NKREDZ">     1</i>
   <i type="logical" name="SHIFTRED"> F  </i>
   <i type="logical" name="ODDONLY"> F  </i>
   <i type="logical" name="EVENONLY"> F  </i>
   <i type="int" name="LMAXFOCK">     0</i>
   <i type="int" name="NMAXFOCKAE">     0</i>
   <i type="logical" name="LFOCKAEDFT"> F  </i>
   <i name="HFSCREEN">      0.00000000</i>
   <i name="HFSCREENC">      0.00000000</i>
   <i type="int" name="NBANDSGWLOW">     0</i>
  </separator>
  <separator name="vdW DFT" >
   <i type="logical" name="LUSE_VDW"> F  </i>
   <i name="Zab_VDW">     -0.84910000</i>
   <i name="PARAM1">      0.12340000</i>
   <i name="PARAM2">      1.00000000</i>
   <i name="PARAM3">      0.00000000</i>
  </separator>
  <separator name="model GW" >
   <i type="int" name="MODEL_GW">     0</i>
   <i name="MODEL_EPS0">      7.71558036</i>
   <i name="MODEL_ALPHA">      1.00000000</i>
  </separator>
  <separator name="linear response parameters" >
   <i type="logical" name="LEPSILON"> F  </i>
   <i type="logical" name="LRPA"> F  </i>
   <i type="logical" name="LNABLA"> F  </i>
   <i type="logical" name="LVEL"> F  </i>
   <i type="int" name="KINTER">     0</i>
   <i name="CSHIFT">      0.10000000</i>
   <i name="OMEGAMAX">     -1.00000000</i>
   <i name="DEG_THRESHOLD">      0.00200000</i>
  </separator>
  <separator name="orbital magnetization" >
   <i type="logical" name="NUCIND"> F  </i>
   <v name="MAGPOS">      0.00000000      0.00000000      0.00000000</v>
   <i type="logical" name="LNICSALL"> T  </i>
   <i type="logical" name="ORBITALMAG"> F  </i>
   <i type="logical" name="LMAGBLOCH"> F  </i>
   <i type="logical" name="LCHIMAG"> F  </i>
   <i type="logical" name="LGAUGE"> T  </i>
   <i type="int" name="MAGATOM">     0</i>
   <v name="MAGDIPOL">      0.00000000      0.00000000      0.00000000</v>
   <v name="AVECCONST">      0.00000000      0.00000000      0.00000000</v>
  </separator>
  <separator name="response functions" >
   <i type="logical" name="LADDER"> F  </i>
   <i type="logical" name="LFXC"> F  </i>
   <i type="logical" name="LHARTREE"> T  </i>
   <i type="int" name="IBSE">     0</i>
   <v type="int" name="KPOINT">    -1     0     0     0</v>
   <i type="logical" name="LTCTE"> F  </i>
   <i type="logical" name="LTETE"> F  </i>
   <i type="logical" name="LTRIPLET"> F  </i>
   <i type="logical" name="LFXCEPS"> F  </i>
   <i type="logical" name="LFXHEG"> F  </i>
   <i type="int" name="NATURALO">     0</i>
   <i type="logical" name="L2ORDER"> F  </i>
   <i type="logical" name="LUSEW"> F  </i>
   <i name="ENCUTGW">     -2.00000000</i>
   <i name="ENCUTGWSOFT">     -2.00000000</i>
   <i name="ENCUTLF">     -1.00000000</i>
   <i type="int" name="LMAXMP2">    -1</i>
   <i name="SCISSOR">      0.00000000</i>
   <i type="int" name="NOMEGA">     0</i>
   <i type="int" name="NOMEGAR">     0</i>
   <i type="int" name="NBANDSGW">    -1</i>
   <i type="int" name="NBANDSO">    -1</i>
   <i type="int" name="NBANDSV">    -1</i>
   <i type="int" name="NELM">    40</i>
   <i type="int" name="NELMHF">     1</i>
   <i type="int" name="DIM">     3</i>
   <i type="int" name="ANTIRES">     0</i>
   <i name="OMEGAMAX">    -30.00000000</i>
   <i name="OMEGAMIN">    -30.00000000</i>
   <i name="OMEGATL">   -200.00000000</i>
   <i type="int" name="OMEGAGRID">     0</i>
   <i name="CSHIFT">     -0.10000000</i>
   <i type="logical" name="SELFENERGY"> F  </i>
   <i type="logical" name="LSPECTRAL"> F  </i>
   <i type="logical" name="LSPECTRALGW"> F  </i>
   <i type="logical" name="LSINGLES"> F  </i>
   <i type="logical" name="LFERMIGW"> F  </i>
   <i type="logical" name="ODDONLYGW"> F  </i>
   <i type="logical" name="EVENONLYGW"> F  </i>
   <i type="int" name="NKREDLFX">     1</i>
   <i type="int" name="NKREDLFY">     1</i>
   <i type="int" name="NKREDLFZ">     1</i>
   <i type="int" name="MAXMEM">  1800</i>
   <i type="int" name="TELESCOPE">     0</i>
   <i type="int" name="TAUPAR">     1</i>
   <i type="int" name="OMEGAPAR">    -1</i>
   <i name="LAMBDA">      1.00000000</i>
  </separator>
  <separator name="External order field" >
   <i name="OFIELD_KAPPA">      0.00000000</i>
   <v name="OFIELD_K">      0.00000000      0.00000000      0.00000000</v>
   <i name="OFIELD_Q6_NEAR">      0.00000000</i>
   <i name="OFIELD_Q6_FAR">      0.00000000</i>
   <i name="OFIELD_A">      0.00000000</i>
  </separator>
 </parameters>
 <atominfo>
  <atoms>     156 </atoms>
  <types>       4 </types>
  <array name="atoms" >
   <dimension dim="1">ion</dimension>
   <field type="string">element</field>
   <field type="int">atomtype</field>
   <set>
    <rc><c>Sr</c><c>   1</c></rc>
    <rc><c>Sr</c><c>   1</c></rc>
    <rc><c>Sr</c><c>   1</c></rc>
    <rc><c>Sr</c><c>   1</c></rc>
    <rc><c>Sr</c><c>   1</c></rc>
    <rc><c>Sr</c><c>   1</c></rc>
    <rc><c>Sr</c><c>   1</c></rc>
    <rc><c>Sr</c><c>   1</c></rc>
    <rc><c>Sr</c><c>   1</c></rc>
    <rc><c>Sr</c><c>   1</c></rc>
    <rc><c>Sr</c><c>   1</c></rc>
    <rc><c>Sr</c><c>   1</c></rc>
    <rc><c>Sr</c><c>   1</c></rc>
    <rc><c>Sr</c><c>   1</c></rc>
    <rc><c>Sr</c><c>   1</c></rc>
    <rc><c>Sr</c><c>   1</c></rc>
    <rc><c>Sr</c><c>   1</c></rc>
    <rc><c>Sr</c><c>   1</c></rc>
    <rc><c>Sr</c><c>   1</c></rc>
    <rc><c>Sr</c><c>   1</c></rc>
    <rc><c>Sr</c><c>   1</c></rc>
    <rc><c>Sr</c><c>   1</c></rc>
    <rc><c>Sr</c><c>   1</c></rc>
    <rc><c>Sr</c><c>   1</c></rc>
    <rc><c>Sr</c><c>   1</c></rc>
    <rc><c>Sr</c><c>   1</c></rc>
    <rc><c>Sr</c><c>   1</c></rc>
    <rc><c>Sr</c><c>   1</c></rc>
    <rc><c>Sr</c><c>   1</c></rc>
    <rc><c>Sr</c><c>   1</c></rc>
    <rc><c>Sr</c><c>   1</c></rc>
    <rc><c>Sr</c><c>   1</c></rc>
    <rc><c>Ti</c><c>   2</c></rc>
    <rc><c>Ti</c><c>   2</c></rc>
    <rc><c>Ti</c><c>   2</c></rc>
    <rc><c>Ti</c><c>   2</c></rc>
    <rc><c>Ti</c><c>   2</c></rc>
    <rc><c>Ti</c><c>   2</c></rc>
    <rc><c>Ti</c><c>   2</c></rc>
    <rc><c>Ti</c><c>   2</c></rc>
    <rc><c>Ti</c><c>   2</c></rc>
    <rc><c>Ti</c><c>   2</c></rc>
    <rc><c>Ti</c><c>   2</c></rc>
    <rc><c>Ti</c><c>   2</c></rc>
    <rc><c>Ti</c><c>   2</c></rc>
    <rc><c>Ti</c><c>   2</c></rc>
    <rc><c>Ti</c><c>   2</c></rc>
    <rc><c>Ti</c><c>   2</c></rc>
    <rc><c>Ti</c><c>   2</c></rc>
    <rc><c>Ti</c><c>   2</c></rc>
    <rc><c>Ti</c><c>   2</c></rc>
    <rc><c>Ti</c><c>   2</c></rc>
    <rc><c>Ti</c><c>   2</c></rc>
    <rc><c>Ti</c><c>   2</c></rc>
    <rc><c>Ti</c><c>   2</c></rc>
    <rc><c>Ti</c><c>   2</c></rc>
    <rc><c>Fe</c><c>   3</c></rc>
    <rc><c>Fe</c><c>   3</c></rc>
    <rc><c>Fe</c><c>   3</c></rc>
    <rc><c>Fe</c><c>   3</c></rc>
    <rc><c>Fe</c><c>   3</c></rc>
    <rc><c>Fe</c><c>   3</c></rc>
    <rc><c>Fe</c><c>   3</c></rc>
    <rc><c>Fe</c><c>   3</c></rc>
    <rc><c>O </c><c>   4</c></rc>
    <rc><c>O </c><c>   4</c></rc>
    <rc><c>O </c><c>   4</c></rc>
    <rc><c>O </c><c>   4</c></rc>
    <rc><c>O </c><c>   4</c></rc>
    <rc><c>O </c><c>   4</c></rc>
    <rc><c>O </c><c>   4</c></rc>
    <rc><c>O </c><c>   4</c></rc>
    <rc><c>O </c><c>   4</c></rc>
    <rc><c>O </c><c>   4</c></rc>
    <rc><c>O </c><c>   4</c></rc>
    <rc><c>O </c><c>   4</c></rc>
    <rc><c>O </c><c>   4</c></rc>
    <rc><c>O </c><c>   4</c></rc>
    <rc><c>O </c><c>   4</c></rc>
    <rc><c>O </c><c>   4</c></rc>
    <rc><c>O </c><c>   4</c></rc>
    <rc><c>O </c><c>   4</c></rc>
    <rc><c>O </c><c>   4</c></rc>
    <rc><c>O </c><c>   4</c></rc>
    <rc><c>O </c><c>   4</c></rc>
    <rc><c>O </c><c>   4</c></rc>
    <rc><c>O </c><c>   4</c></rc>
    <rc><c>O </c><c>   4</c></rc>
    <rc><c>O </c><c>   4</c></rc>
    <rc><c>O </c><c>   4</c></rc>
    <rc><c>O </c><c>   4</c></rc>
    <rc><c>O </c><c>   4</c></rc>
    <rc><c>O </c><c>   4</c></rc>
    <rc><c>O </c><c>   4</c></rc>
    <rc><c>O </c><c>   4</c></rc>
    <rc><c>O </c><c>   4</c></rc>
    <rc><c>O </c><c>   4</c></rc>
    <rc><c>O </c><c>   4</c></rc>
    <rc><c>O </c><c>   4</c></rc>
    <rc><c>O </c><c>   4</c></rc>
    <rc><c>O </c><c>   4</c></rc>
    <rc><c>O </c><c>   4</c></rc>
    <rc><c>O </c><c>   4</c></rc>
    <rc><c>O </c><c>   4</c></rc>
    <rc><c>O </c><c>   4</c></rc>
    <rc><c>O </c><c>   4</c></rc>
    <rc><c>O </c><c>   4</c></rc>
    <rc><c>O </c><c>   4</c></rc>
    <rc><c>O </c><c>   4</c></rc>
    <rc><c>O </c><c>   4</c></rc>
    <rc><c>O </c><c>   4</c></rc>
    <rc><c>O </c><c>   4</c></rc>
    <rc><c>O </c><c>   4</c></rc>
    <rc><c>O </c><c>   4</c></rc>
    <rc><c>O </c><c>   4</c></rc>
    <rc><c>O </c><c>   4</c></rc>
    <rc><c>O </c><c>   4</c></rc>
    <rc><c>O </c><c>   4</c></rc>
    <rc><c>O </c><c>   4</c></rc>
    <rc><c>O </c><c>   4</c></rc>
    <rc><c>O </c><c>   4</c></rc>
    <rc><c>O </c><c>   4</c></rc>
    <rc><c>O </c><c>   4</c></rc>
    <rc><c>O </c><c>   4</c></rc>
    <rc><c>O </c><c>   4</c></rc>
    <rc><c>O </c><c>   4</c></rc>
    <rc><c>O </c><c>   4</c></rc>
    <rc><c>O </c><c>   4</c></rc>
    <rc><c>O </c><c>   4</c></rc>
    <rc><c>O </c><c>   4</c></rc>
    <rc><c>O </c><c>   4</c></rc>
    <rc><c>O </c><c>   4</c></rc>
    <rc><c>O </c><c>   4</c></rc>
    <rc><c>O </c><c>   4</c></rc>
    <rc><c>O </c><c>   4</c></rc>
    <rc><c>O </c><c>   4</c></rc>
    <rc><c>O </c><c>   4</c></rc>
    <rc><c>O </c><c>   4</c></rc>
    <rc><c>O </c><c>   4</c></rc>
    <rc><c>O </c><c>   4</c></rc>
    <rc><c>O </c><c>   4</c></rc>
    <rc><c>O </c><c>   4</c></rc>
    <rc><c>O </c><c>   4</c></rc>
    <rc><c>O </c><c>   4</c></rc>
    <rc><c>O </c><c>   4</c></rc>
    <rc><c>O </c><c>   4</c></rc>
    <rc><c>O </c><c>   4</c></rc>
    <rc><c>O </c><c>   4</c></rc>
    <rc><c>O </c><c>   4</c></rc>
    <rc><c>O </c><c>   4</c></rc>
    <rc><c>O </c><c>   4</c></rc>
    <rc><c>O </c><c>   4</c></rc>
    <rc><c>O </c><c>   4</c></rc>
    <rc><c>O </c><c>   4</c></rc>
    <rc><c>O </c><c>   4</c></rc>
    <rc><c>O </c><c>   4</c></rc>
   </set>
  </array>
  <array name="atomtypes" >
   <dimension dim="1">type</dimension>
   <field type="int">atomspertype</field>
   <field type="string">element</field>
   <field>mass</field>
   <field>valence</field>
   <field type="string">pseudopotential</field>
   <set>
    <rc><c>  32</c><c>Sr</c><c>     87.62000000</c><c>     10.00000000</c><c>  PAW_PBE Sr_sv 07Sep2000               </c></rc>
    <rc><c>  24</c><c>Ti</c><c>     47.88000000</c><c>      4.00000000</c><c>  PAW_PBE Ti 08Apr2002                  </c></rc>
    <rc><c>   8</c><c>Fe</c><c>     55.84700000</c><c>      8.00000000</c><c>  PAW_PBE Fe 06Sep2000                  </c></rc>
    <rc><c>  92</c><c>O </c><c>     16.00000000</c><c>      6.00000000</c><c>  PAW_PBE O 08Apr2002                   </c></rc>
   </set>
  </array>
 </atominfo>
 <structure name="initialpos" >
  <crystal>
   <varray name="basis" >
    <v>      11.23250199       0.00389315       0.00000000 </v>
    <v>       0.00391542      11.25741020       0.00000000 </v>
    <v>       0.00000000       0.00000000      15.86452247 </v>
   </varray>
   <i name="volume">   2006.05089490 </i>
   <varray name="rec_basis" >
    <v>       0.08902737      -0.00003096       0.00000000 </v>
    <v>      -0.00003079       0.08883039       0.00000000 </v>
    <v>       0.00000000       0.00000000       0.06303373 </v>
   </varray>
  </crystal>
  <varray name="positions" >
   <v>       0.99251013       0.24578635       0.11755449 </v>
   <v>       0.99741993       0.24942814       0.62835273 </v>
   <v>       0.99251013       0.74578635       0.11755449 </v>
   <v>       0.99741993       0.74942814       0.62835273 </v>
   <v>       0.50274289       0.24945822       0.12246569 </v>
   <v>       0.50195820       0.25028826       0.62719433 </v>
   <v>       0.50274289       0.74945822       0.12246569 </v>
   <v>       0.50195820       0.75028826       0.62719433 </v>
   <v>       0.99251013       0.24578635       0.38244551 </v>
   <v>       0.99741993       0.24942814       0.87164727 </v>
   <v>       0.99251013       0.74578635       0.38244551 </v>
   <v>       0.99741993       0.74942814       0.87164727 </v>
   <v>       0.50274289       0.24945822       0.37753431 </v>
   <v>       0.50195820       0.25028826       0.87280567 </v>
   <v>       0.50274289       0.74945822       0.37753431 </v>
   <v>       0.50195820       0.75028826       0.87280567 </v>
   <v>       0.24600671       0.00333972       0.11479393 </v>
   <v>       0.25020219       0.99893212       0.62775737 </v>
   <v>       0.24600671       0.50333972       0.11479393 </v>
   <v>       0.25020219       0.49893212       0.62775737 </v>
   <v>       0.75212228       0.00155310       0.12170611 </v>
   <v>       0.75018860       0.99937170       0.62797737 </v>
   <v>       0.75212228       0.50155310       0.12170611 </v>
   <v>       0.75018860       0.49937170       0.62797737 </v>
   <v>       0.24600671       0.00333972       0.38520607 </v>
   <v>       0.25020219       0.99893212       0.87224263 </v>
   <v>       0.24600671       0.50333972       0.38520607 </v>
   <v>       0.25020219       0.49893212       0.87224263 </v>
   <v>       0.75212228       0.00155310       0.37829389 </v>
   <v>       0.75018860       0.99937170       0.87202263 </v>
   <v>       0.75212228       0.50155310       0.37829389 </v>
   <v>       0.75018860       0.49937170       0.87202263 </v>
   <v>       0.99959558       0.99974639       0.00066560 </v>
   <v>       0.99959558       0.49974639       0.00066560 </v>
   <v>       0.99959558       0.49974639       0.49933440 </v>
   <v>       0.49932152       0.00039200       0.00263654 </v>
   <v>       0.49932152       0.00039200       0.49736346 </v>
   <v>       0.49932152       0.50039200       0.00263654 </v>
   <v>       0.49932152       0.50039200       0.49736346 </v>
   <v>       0.24892504       0.24889025       0.00005824 </v>
   <v>       0.24892504       0.24889025       0.49994176 </v>
   <v>       0.24892504       0.74889025       0.00005824 </v>
   <v>       0.99719669       0.49729369       0.75000000 </v>
   <v>       0.99719669       0.99729369       0.75000000 </v>
   <v>       0.24892504       0.74889025       0.49994176 </v>
   <v>       0.50157284       0.49917609       0.75000000 </v>
   <v>       0.99959558       0.99974639       0.49933440 </v>
   <v>       0.75200470       0.74336248       0.25000000 </v>
   <v>       0.75200470       0.24336248       0.25000000 </v>
   <v>       0.74874933       0.25000046       0.99804813 </v>
   <v>       0.50157284       0.99917609       0.75000000 </v>
   <v>       0.74874933       0.75000046       0.99804813 </v>
   <v>       0.24981317       0.25046909       0.75000000 </v>
   <v>       0.74874933       0.75000046       0.50195187 </v>
   <v>       0.24981317       0.75046909       0.75000000 </v>
   <v>       0.74874933       0.25000046       0.50195187 </v>
   <v>       0.74868999       0.25038538       0.75000000 </v>
   <v>       0.74868999       0.75038538       0.75000000 </v>
   <v>       0.52197253       0.99099009       0.25000000 </v>
   <v>       0.98888227       0.98595974       0.25000000 </v>
   <v>       0.98888227       0.48595974       0.25000000 </v>
   <v>       0.25328097       0.79094814       0.25000000 </v>
   <v>       0.52197253       0.49099009       0.25000000 </v>
   <v>       0.25328097       0.29094814       0.25000000 </v>
   <v>       0.00355039       0.01363144       0.12609685 </v>
   <v>       0.00282176       0.99211791       0.62406219 </v>
   <v>       0.00355039       0.51363144       0.12609685 </v>
   <v>       0.00282176       0.49211791       0.62406219 </v>
   <v>       0.49155755       0.01278652       0.12877002 </v>
   <v>       0.49370671       0.99541026       0.62277206 </v>
   <v>       0.49155755       0.51278652       0.12877002 </v>
   <v>       0.49370671       0.49541026       0.62277206 </v>
   <v>       0.00355039       0.01363144       0.37390315 </v>
   <v>       0.00282176       0.99211791       0.87593781 </v>
   <v>       0.00355039       0.51363144       0.37390315 </v>
   <v>       0.00282176       0.49211791       0.87593781 </v>
   <v>       0.49155755       0.01278652       0.37122998 </v>
   <v>       0.49370671       0.99541026       0.87722794 </v>
   <v>       0.49155755       0.51278652       0.37122998 </v>
   <v>       0.49370671       0.49541026       0.87722794 </v>
   <v>       0.23799048       0.22639313       0.36059664 </v>
   <v>       0.24912604       0.25653028       0.87705383 </v>
   <v>       0.23799048       0.72639313       0.36059664 </v>
   <v>       0.24912604       0.75653028       0.87705383 </v>
   <v>       0.75197592       0.24453911       0.37571003 </v>
   <v>       0.74683033       0.25552014       0.87667031 </v>
   <v>       0.75197592       0.74453911       0.37571003 </v>
   <v>       0.74683033       0.75552014       0.87667031 </v>
   <v>       0.23799048       0.22639313       0.13940336 </v>
   <v>       0.24912604       0.25653028       0.62294617 </v>
   <v>       0.23799048       0.72639313       0.13940336 </v>
   <v>       0.24912604       0.75653028       0.62294617 </v>
   <v>       0.75197592       0.24453911       0.12428997 </v>
   <v>       0.74683033       0.25552014       0.62332969 </v>
   <v>       0.75197592       0.74453911       0.12428997 </v>
   <v>       0.74683033       0.75552014       0.62332969 </v>
   <v>       0.60543410       0.14725377       0.25000000 </v>
   <v>       0.85915470       0.10365393       0.25000000 </v>
   <v>       0.15709387       0.42877260       0.25000000 </v>
   <v>       0.40650137       0.35488236       0.25000000 </v>
   <v>       0.65982175       0.39537679       0.25000000 </v>
   <v>       0.90556475       0.34172158       0.25000000 </v>
   <v>       0.60543410       0.64725377       0.25000000 </v>
   <v>       0.85915470       0.60365393       0.25000000 </v>
   <v>       0.15709387       0.92877260       0.25000000 </v>
   <v>       0.40650137       0.85488236       0.25000000 </v>
   <v>       0.65982175       0.89537679       0.25000000 </v>
   <v>       0.90556475       0.84172158       0.25000000 </v>
   <v>       0.13725940       0.11243242       0.50437471 </v>
   <v>       0.38400096       0.13650560       0.49961999 </v>
   <v>       0.63578367       0.11221456       0.50118692 </v>
   <v>       0.88651136       0.13614978       0.50455434 </v>
   <v>       0.11428018       0.36174298       0.49150407 </v>
   <v>       0.36256771       0.38220236       0.49115205 </v>
   <v>       0.61192561       0.36443349       0.49454360 </v>
   <v>       0.86423679       0.38651696       0.49545098 </v>
   <v>       0.13725940       0.61243242       0.50437471 </v>
   <v>       0.38400096       0.63650560       0.49961999 </v>
   <v>       0.63578367       0.61221456       0.50118692 </v>
   <v>       0.88651136       0.63614978       0.50455434 </v>
   <v>       0.11428018       0.86174298       0.49150407 </v>
   <v>       0.36256771       0.88220236       0.49115205 </v>
   <v>       0.61192561       0.86443349       0.49454360 </v>
   <v>       0.86423679       0.88651696       0.49545098 </v>
   <v>       0.11374607       0.13702738       0.75000000 </v>
   <v>       0.36087678       0.11326151       0.75000000 </v>
   <v>       0.60991982       0.13513692       0.75000000 </v>
   <v>       0.86493992       0.11150997       0.75000000 </v>
   <v>       0.13863425       0.38689176       0.75000000 </v>
   <v>       0.38626483       0.36152445       0.75000000 </v>
   <v>       0.63450915       0.38894308       0.75000000 </v>
   <v>       0.88839095       0.36283196       0.75000000 </v>
   <v>       0.11374607       0.63702738       0.75000000 </v>
   <v>       0.36087678       0.61326151       0.75000000 </v>
   <v>       0.60991982       0.63513692       0.75000000 </v>
   <v>       0.86493992       0.61150997       0.75000000 </v>
   <v>       0.13863425       0.88689176       0.75000000 </v>
   <v>       0.38626483       0.86152445       0.75000000 </v>
   <v>       0.63450915       0.88894308       0.75000000 </v>
   <v>       0.88839095       0.86283196       0.75000000 </v>
   <v>       0.13725940       0.11243242       0.99562529 </v>
   <v>       0.38400096       0.13650560       0.00038001 </v>
   <v>       0.63578367       0.11221456       0.99881308 </v>
   <v>       0.88651136       0.13614978       0.99544566 </v>
   <v>       0.11428018       0.36174298       0.00849593 </v>
   <v>       0.36256771       0.38220236       0.00884795 </v>
   <v>       0.61192561       0.36443349       0.00545640 </v>
   <v>       0.86423679       0.38651696       0.00454902 </v>
   <v>       0.13725940       0.61243242       0.99562529 </v>
   <v>       0.38400096       0.63650560       0.00038001 </v>
   <v>       0.63578367       0.61221456       0.99881308 </v>
   <v>       0.88651136       0.63614978       0.99544566 </v>
   <v>       0.11428018       0.86174298       0.00849593 </v>
   <v>       0.36256771       0.88220236       0.00884795 </v>
   <v>       0.61192561       0.86443349       0.00545640 </v>
   <v>       0.86423679       0.88651696       0.00454902 </v>
  </varray>
 </structure>
 <calculation>
  <scstep>
   <time name="dav">  150.62  150.63</time>
   <time name="total">  153.08  153.12</time>
   <energy>
    <i name="alphaZ">   5625.65803617 </i>
    <i name="ewald"> -61511.16362584 </i>
    <i name="hartreedc"> -16013.63336516 </i>
    <i name="XCdc">   2964.31110910 </i>
    <i name="pawpsdc"> 113592.30784202 </i>
    <i name="pawaedc">-112492.47306235 </i>
    <i name="eentropy">     -0.00000000 </i>
    <i name="bandstr">  -7069.90921633 </i>
    <i name="atom">  73783.44779670 </i>
    <i name="e_fr_energy">  -1121.45448569 </i>
    <i name="e_wo_entrp">  -1121.45448569 </i>
    <i name="e_0_energy">  -1121.45448569 </i>
   </energy>
  </scstep>
  <scstep>
   <time name="diag">   16.62   16.62</time>
   <time name="diis">   16.03   16.03</time>
   <time name="orth">    9.51    9.51</time>
   <time name="total">   44.61   44.67</time>
   <energy>
    <i name="e_fr_energy">  -1121.45448436 </i>
    <i name="e_wo_entrp">  -1121.45448436 </i>
    <i name="e_0_energy">  -1121.45448436 </i>
   </energy>
  </scstep>
  <scstep>
   <time name="diag">   16.60   16.61</time>
   <time name="diis">   15.42   15.43</time>
   <time name="orth">    9.50    9.50</time>
   <time name="total">   43.98   44.03</time>
   <energy>
    <i name="e_fr_energy">  -1121.45448472 </i>
    <i name="e_wo_entrp">  -1121.45448472 </i>
    <i name="e_0_energy">  -1121.45448472 </i>
   </energy>
  </scstep>
  <scstep>
   <time name="diag">   16.59   16.59</time>
   <time name="diis">   14.16   14.16</time>
   <time name="orth">    9.48    9.49</time>
   <time name="total">   42.68   42.72</time>
   <energy>
    <i name="e_fr_energy">  -1121.45448572 </i>
    <i name="e_wo_entrp">  -1121.45448572 </i>
    <i name="e_0_energy">  -1121.45448572 </i>
   </energy>
  </scstep>
  <scstep>
   <time name="diag">   16.60   16.60</time>
   <time name="diis">   13.89   13.90</time>
   <time name="orth">    9.48    9.48</time>
   <time name="total">   42.43   42.54</time>
   <energy>
    <i name="e_fr_energy">  -1121.45448665 </i>
    <i name="e_wo_entrp">  -1121.45448665 </i>
    <i name="e_0_energy">  -1121.45448665 </i>
   </energy>
  </scstep>
  <scstep>
   <time name="diag">   16.59   16.59</time>
   <time name="diis">   13.21   13.21</time>
   <time name="orth">    9.48    9.48</time>
   <time name="total">   41.74   41.75</time>
   <energy>
    <i name="e_fr_energy">  -1121.45448691 </i>
    <i name="e_wo_entrp">  -1121.45448691 </i>
    <i name="e_0_energy">  -1121.45448691 </i>
   </energy>
  </scstep>
  <scstep>
   <time name="diag">   16.57   16.57</time>
   <time name="diis">   12.49   12.49</time>
   <time name="orth">    9.46    9.46</time>
   <time name="total">   41.00   41.02</time>
   <energy>
    <i name="e_fr_energy">  -1121.45448700 </i>
    <i name="e_wo_entrp">  -1121.45448700 </i>
    <i name="e_0_energy">  -1121.45448700 </i>
   </energy>
  </scstep>
  <scstep>
   <time name="diag">   16.59   16.59</time>
   <time name="diis">   12.00   12.00</time>
   <time name="orth">    9.46    9.46</time>
   <time name="total">   38.63   38.65</time>
   <energy>
    <i name="alphaZ">   5625.65803617 </i>
    <i name="ewald"> -61511.16362584 </i>
    <i name="hartreedc"> -16013.62509290 </i>
    <i name="XCdc">   2964.30786992 </i>
    <i name="pawpsdc"> 113588.51502520 </i>
    <i name="pawaedc">-112488.67996832 </i>
    <i name="eentropy">     -0.00000000 </i>
    <i name="bandstr">  -7069.91452801 </i>
    <i name="atom">  73783.44779670 </i>
    <i name="e_fr_energy">  -1121.45448708 </i>
    <i name="e_wo_entrp">  -1121.45448708 </i>
    <i name="e_0_energy">  -1121.45448708 </i>
   </energy>
  </scstep>
  <structure>
   <crystal>
    <varray name="basis" >
     <v>      11.23250199       0.00389315       0.00000000 </v>
     <v>       0.00391542      11.25741020       0.00000000 </v>
     <v>       0.00000000       0.00000000      15.86452247 </v>
    </varray>
    <i name="volume">   2006.05089490 </i>
    <varray name="rec_basis" >
     <v>       0.08902737      -0.00003096       0.00000000 </v>
     <v>      -0.00003079       0.08883039       0.00000000 </v>
     <v>       0.00000000       0.00000000       0.06303373 </v>
    </varray>
   </crystal>
   <varray name="positions" >
    <v>       0.99251013       0.24578635       0.11755449 </v>
    <v>       0.99741993       0.24942814       0.62835273 </v>
    <v>       0.99251013       0.74578635       0.11755449 </v>
    <v>       0.99741993       0.74942814       0.62835273 </v>
    <v>       0.50274289       0.24945822       0.12246569 </v>
    <v>       0.50195820       0.25028826       0.62719433 </v>
    <v>       0.50274289       0.74945822       0.12246569 </v>
    <v>       0.50195820       0.75028826       0.62719433 </v>
    <v>       0.99251013       0.24578635       0.38244551 </v>
    <v>       0.99741993       0.24942814       0.87164727 </v>
    <v>       0.99251013       0.74578635       0.38244551 </v>
    <v>       0.99741993       0.74942814       0.87164727 </v>
    <v>       0.50274289       0.24945822       0.37753431 </v>
    <v>       0.50195820       0.25028826       0.87280567 </v>
    <v>       0.50274289       0.74945822       0.37753431 </v>
    <v>       0.50195820       0.75028826       0.87280567 </v>
    <v>       0.24600671       0.00333972       0.11479393 </v>
    <v>       0.25020219       0.99893212       0.62775737 </v>
    <v>       0.24600671       0.50333972       0.11479393 </v>
    <v>       0.25020219       0.49893212       0.62775737 </v>
    <v>       0.75212228       0.00155310       0.12170611 </v>
    <v>       0.75018860       0.99937170       0.62797737 </v>
    <v>       0.75212228       0.50155310       0.12170611 </v>
    <v>       0.75018860       0.49937170       0.62797737 </v>
    <v>       0.24600671       0.00333972       0.38520607 </v>
    <v>       0.25020219       0.99893212       0.87224263 </v>
    <v>       0.24600671       0.50333972       0.38520607 </v>
    <v>       0.25020219       0.49893212       0.87224263 </v>
    <v>       0.75212228       0.00155310       0.37829389 </v>
    <v>       0.75018860       0.99937170       0.87202263 </v>
    <v>       0.75212228       0.50155310       0.37829389 </v>
    <v>       0.75018860       0.49937170       0.87202263 </v>
    <v>       0.99959558       0.99974639       0.00066560 </v>
    <v>       0.99959558       0.49974639       0.00066560 </v>
    <v>       0.99959558       0.49974639       0.49933440 </v>
    <v>       0.49932152       0.00039200       0.00263654 </v>
    <v>       0.49932152       0.00039200       0.49736346 </v>
    <v>       0.49932152       0.50039200       0.00263654 </v>
    <v>       0.49932152       0.50039200       0.49736346 </v>
    <v>       0.24892504       0.24889025       0.00005824 </v>
    <v>       0.24892504       0.24889025       0.49994176 </v>
    <v>       0.24892504       0.74889025       0.00005824 </v>
    <v>       0.99719669       0.49729369       0.75000000 </v>
    <v>       0.99719669       0.99729369       0.75000000 </v>
    <v>       0.24892504       0.74889025       0.49994176 </v>
    <v>       0.50157284       0.49917609       0.75000000 </v>
    <v>       0.99959558       0.99974639       0.49933440 </v>
    <v>       0.75200470       0.74336248       0.25000000 </v>
    <v>       0.75200470       0.24336248       0.25000000 </v>
    <v>       0.74874933       0.25000046       0.99804813 </v>
    <v>       0.50157284       0.99917609       0.75000000 </v>
    <v>       0.74874933       0.75000046       0.99804813 </v>
    <v>       0.24981317       0.25046909       0.75000000 </v>
    <v>       0.74874933       0.75000046       0.50195187 </v>
    <v>       0.24981317       0.75046909       0.75000000 </v>
    <v>       0.74874933       0.25000046       0.50195187 </v>
    <v>       0.74868999       0.25038538       0.75000000 </v>
    <v>       0.74868999       0.75038538       0.75000000 </v>
    <v>       0.52197253       0.99099009       0.25000000 </v>
    <v>       0.98888227       0.98595974       0.25000000 </v>
    <v>       0.98888227       0.48595974       0.25000000 </v>
    <v>       0.25328097       0.79094814       0.25000000 </v>
    <v>       0.52197253       0.49099009       0.25000000 </v>
    <v>       0.25328097       0.29094814       0.25000000 </v>
    <v>       0.00355039       0.01363144       0.12609685 </v>
    <v>       0.00282176       0.99211791       0.62406219 </v>
    <v>       0.00355039       0.51363144       0.12609685 </v>
    <v>       0.00282176       0.49211791       0.62406219 </v>
    <v>       0.49155755       0.01278652       0.12877002 </v>
    <v>       0.49370671       0.99541026       0.62277206 </v>
    <v>       0.49155755       0.51278652       0.12877002 </v>
    <v>       0.49370671       0.49541026       0.62277206 </v>
    <v>       0.00355039       0.01363144       0.37390315 </v>
    <v>       0.00282176       0.99211791       0.87593781 </v>
    <v>       0.00355039       0.51363144       0.37390315 </v>
    <v>       0.00282176       0.49211791       0.87593781 </v>
    <v>       0.49155755       0.01278652       0.37122998 </v>
    <v>       0.49370671       0.99541026       0.87722794 </v>
    <v>       0.49155755       0.51278652       0.37122998 </v>
    <v>       0.49370671       0.49541026       0.87722794 </v>
    <v>       0.23799048       0.22639313       0.36059664 </v>
    <v>       0.24912604       0.25653028       0.87705383 </v>
    <v>       0.23799048       0.72639313       0.36059664 </v>
    <v>       0.24912604       0.75653028       0.87705383 </v>
    <v>       0.75197592       0.24453911       0.37571003 </v>
    <v>       0.74683033       0.25552014       0.87667031 </v>
    <v>       0.75197592       0.74453911       0.37571003 </v>
    <v>       0.74683033       0.75552014       0.87667031 </v>
    <v>       0.23799048       0.22639313       0.13940336 </v>
    <v>       0.24912604       0.25653028       0.62294617 </v>
    <v>       0.23799048       0.72639313       0.13940336 </v>
    <v>       0.24912604       0.75653028       0.62294617 </v>
    <v>       0.75197592       0.24453911       0.12428997 </v>
    <v>       0.74683033       0.25552014       0.62332969 </v>
    <v>       0.75197592       0.74453911       0.12428997 </v>
    <v>       0.74683033       0.75552014       0.62332969 </v>
    <v>       0.60543410       0.14725377       0.25000000 </v>
    <v>       0.85915470       0.10365393       0.25000000 </v>
    <v>       0.15709387       0.42877260       0.25000000 </v>
    <v>       0.40650137       0.35488236       0.25000000 </v>
    <v>       0.65982175       0.39537679       0.25000000 </v>
    <v>       0.90556475       0.34172158       0.25000000 </v>
    <v>       0.60543410       0.64725377       0.25000000 </v>
    <v>       0.85915470       0.60365393       0.25000000 </v>
    <v>       0.15709387       0.92877260       0.25000000 </v>
    <v>       0.40650137       0.85488236       0.25000000 </v>
    <v>       0.65982175       0.89537679       0.25000000 </v>
    <v>       0.90556475       0.84172158       0.25000000 </v>
    <v>       0.13725940       0.11243242       0.50437471 </v>
    <v>       0.38400096       0.13650560       0.49961999 </v>
    <v>       0.63578367       0.11221456       0.50118692 </v>
    <v>       0.88651136       0.13614978       0.50455434 </v>
    <v>       0.11428018       0.36174298       0.49150407 </v>
    <v>       0.36256771       0.38220236       0.49115205 </v>
    <v>       0.61192561       0.36443349       0.49454360 </v>
    <v>       0.86423679       0.38651696       0.49545098 </v>
    <v>       0.13725940       0.61243242       0.50437471 </v>
    <v>       0.38400096       0.63650560       0.49961999 </v>
    <v>       0.63578367       0.61221456       0.50118692 </v>
    <v>       0.88651136       0.63614978       0.50455434 </v>
    <v>       0.11428018       0.86174298       0.49150407 </v>
    <v>       0.36256771       0.88220236       0.49115205 </v>
    <v>       0.61192561       0.86443349       0.49454360 </v>
    <v>       0.86423679       0.88651696       0.49545098 </v>
    <v>       0.11374607       0.13702738       0.75000000 </v>
    <v>       0.36087678       0.11326151       0.75000000 </v>
    <v>       0.60991982       0.13513692       0.75000000 </v>
    <v>       0.86493992       0.11150997       0.75000000 </v>
    <v>       0.13863425       0.38689176       0.75000000 </v>
    <v>       0.38626483       0.36152445       0.75000000 </v>
    <v>       0.63450915       0.38894308       0.75000000 </v>
    <v>       0.88839095       0.36283196       0.75000000 </v>
    <v>       0.11374607       0.63702738       0.75000000 </v>
    <v>       0.36087678       0.61326151       0.75000000 </v>
    <v>       0.60991982       0.63513692       0.75000000 </v>
    <v>       0.86493992       0.61150997       0.75000000 </v>
    <v>       0.13863425       0.88689176       0.75000000 </v>
    <v>       0.38626483       0.86152445       0.75000000 </v>
    <v>       0.63450915       0.88894308       0.75000000 </v>
    <v>       0.88839095       0.86283196       0.75000000 </v>
    <v>       0.13725940       0.11243242       0.99562529 </v>
    <v>       0.38400096       0.13650560       0.00038001 </v>
    <v>       0.63578367       0.11221456       0.99881308 </v>
    <v>       0.88651136       0.13614978       0.99544566 </v>
    <v>       0.11428018       0.36174298       0.00849593 </v>
    <v>       0.36256771       0.38220236       0.00884795 </v>
    <v>       0.61192561       0.36443349       0.00545640 </v>
    <v>       0.86423679       0.38651696       0.00454902 </v>
    <v>       0.13725940       0.61243242       0.99562529 </v>
    <v>       0.38400096       0.63650560       0.00038001 </v>
    <v>       0.63578367       0.61221456       0.99881308 </v>
    <v>       0.88651136       0.63614978       0.99544566 </v>
    <v>       0.11428018       0.86174298       0.00849593 </v>
    <v>       0.36256771       0.88220236       0.00884795 </v>
    <v>       0.61192561       0.86443349       0.00545640 </v>
    <v>       0.86423679       0.88651696       0.00454902 </v>
   </varray>
  </structure>
  <varray name="forces" >
   <v>      -0.00887715       0.03004460      -0.02092995 </v>
   <v>       0.01028218      -0.01642896       0.00278721 </v>
   <v>      -0.00887715       0.03004460      -0.02092995 </v>
   <v>       0.01028218      -0.01642896       0.00278721 </v>
   <v>       0.02320085      -0.02076897       0.02151382 </v>
   <v>      -0.01268324      -0.00227229      -0.00380890 </v>
   <v>       0.02320085      -0.02076897       0.02151382 </v>
   <v>      -0.01268324      -0.00227229      -0.00380890 </v>
   <v>      -0.00887715       0.03004460       0.02092995 </v>
   <v>       0.01028218      -0.01642896      -0.00278721 </v>
   <v>      -0.00887715       0.03004460       0.02092995 </v>
   <v>       0.01028218      -0.01642896      -0.00278721 </v>
   <v>       0.02320085      -0.02076897      -0.02151382 </v>
   <v>      -0.01268324      -0.00227229       0.00380890 </v>
   <v>       0.02320085      -0.02076897      -0.02151382 </v>
   <v>      -0.01268324      -0.00227229       0.00380890 </v>
   <v>       0.00511805      -0.00892658       0.01828145 </v>
   <v>      -0.00009483       0.00687873       0.01697330 </v>
   <v>       0.00511805      -0.00892658       0.01828145 </v>
   <v>      -0.00009483       0.00687873       0.01697330 </v>
   <v>       0.00046794       0.00741280       0.02486133 </v>
   <v>      -0.01395313       0.00377105       0.00594667 </v>
   <v>       0.00046794       0.00741280       0.02486133 </v>
   <v>      -0.01395313       0.00377105       0.00594667 </v>
   <v>       0.00511805      -0.00892658      -0.01828145 </v>
   <v>      -0.00009483       0.00687873      -0.01697330 </v>
   <v>       0.00511805      -0.00892658      -0.01828145 </v>
   <v>      -0.00009483       0.00687873      -0.01697330 </v>
   <v>       0.00046794       0.00741280      -0.02486133 </v>
   <v>      -0.01395313       0.00377105      -0.00594667 </v>
   <v>       0.00046794       0.00741280      -0.02486133 </v>
   <v>      -0.01395313       0.00377105      -0.00594667 </v>
   <v>      -0.06116718       0.01377733      -0.07138996 </v>
   <v>      -0.06116718       0.01377733      -0.07138996 </v>
   <v>      -0.06116718       0.01377733       0.07138996 </v>
   <v>       0.02295504      -0.01464554      -0.04958459 </v>
   <v>       0.02295504      -0.01464554       0.04958459 </v>
   <v>       0.02295504      -0.01464554      -0.04958459 </v>
   <v>       0.02295504      -0.01464554       0.04958459 </v>
   <v>       0.03654734       0.01443721      -0.07938016 </v>
   <v>       0.03654734       0.01443721       0.07938016 </v>
   <v>       0.03654734       0.01443721      -0.07938016 </v>
   <v>       0.00001126       0.06900629       0.00000000 </v>
   <v>       0.00001126       0.06900629       0.00000000 </v>
   <v>       0.03654734       0.01443721       0.07938016 </v>
   <v>       0.00419012       0.02064506       0.00000000 </v>
   <v>      -0.06116718       0.01377733       0.07138996 </v>
   <v>       0.00399109      -0.10567195       0.00000000 </v>
   <v>       0.00399109      -0.10567195       0.00000000 </v>
   <v>       0.01772847      -0.02831960      -0.01123793 </v>
   <v>       0.00419012       0.02064506       0.00000000 </v>
   <v>       0.01772847      -0.02831960      -0.01123793 </v>
   <v>      -0.04038432      -0.01566591       0.00000000 </v>
   <v>       0.01772847      -0.02831960       0.01123793 </v>
   <v>      -0.04038432      -0.01566591       0.00000000 </v>
   <v>       0.01772847      -0.02831960       0.01123793 </v>
   <v>       0.02699912      -0.01348106       0.00000000 </v>
   <v>       0.02699912      -0.01348106       0.00000000 </v>
   <v>       0.00046192      -0.02546955       0.00000000 </v>
   <v>      -0.00147584       0.03241313       0.00000000 </v>
   <v>      -0.00147584       0.03241313       0.00000000 </v>
   <v>       0.04323605       0.00183665       0.00000000 </v>
   <v>       0.00046192      -0.02546955       0.00000000 </v>
   <v>       0.04323605       0.00183665       0.00000000 </v>
   <v>       0.00261758      -0.01223048      -0.03281053 </v>
   <v>      -0.00899535       0.03659614      -0.07504816 </v>
   <v>       0.00261758      -0.01223048      -0.03281053 </v>
   <v>      -0.00899535       0.03659614      -0.07504816 </v>
   <v>      -0.02326506       0.00829631      -0.01187805 </v>
   <v>       0.01012935       0.02944239      -0.06577820 </v>
   <v>      -0.02326506       0.00829631      -0.01187805 </v>
   <v>       0.01012935       0.02944239      -0.06577820 </v>
   <v>       0.00261758      -0.01223048       0.03281053 </v>
   <v>      -0.00899535       0.03659614       0.07504816 </v>
   <v>       0.00261758      -0.01223048       0.03281053 </v>
   <v>      -0.00899535       0.03659614       0.07504816 </v>
   <v>      -0.02326506       0.00829631       0.01187805 </v>
   <v>       0.01012935       0.02944239       0.06577820 </v>
   <v>      -0.02326506       0.00829631       0.01187805 </v>
   <v>       0.01012935       0.02944239       0.06577820 </v>
   <v>      -0.00323066      -0.01255906      -0.04071516 </v>
   <v>       0.01818873      -0.04946700       0.06796765 </v>
   <v>      -0.00323066      -0.01255906      -0.04071516 </v>
   <v>       0.01818873      -0.04946700       0.06796765 </v>
   <v>       0.01847077      -0.00586041      -0.03921540 </v>
   <v>       0.00258332      -0.01857822      -0.00520146 </v>
   <v>       0.01847077      -0.00586041      -0.03921540 </v>
   <v>       0.00258332      -0.01857822      -0.00520146 </v>
   <v>      -0.00323066      -0.01255906       0.04071516 </v>
   <v>       0.01818873      -0.04946700      -0.06796765 </v>
   <v>      -0.00323066      -0.01255906       0.04071516 </v>
   <v>       0.01818873      -0.04946700      -0.06796765 </v>
   <v>       0.01847077      -0.00586041       0.03921540 </v>
   <v>       0.00258332      -0.01857822       0.00520146 </v>
   <v>       0.01847077      -0.00586041       0.03921540 </v>
   <v>       0.00258332      -0.01857822       0.00520146 </v>
   <v>      -0.02904372      -0.04269340       0.00000000 </v>
   <v>       0.05234188       0.00221827       0.00000000 </v>
   <v>       0.01650401       0.07382242       0.00000000 </v>
   <v>      -0.00095444      -0.00869783       0.00000000 </v>
   <v>      -0.01057833      -0.04001113       0.00000000 </v>
   <v>       0.03514693      -0.07391851       0.00000000 </v>
   <v>      -0.02904372      -0.04269340       0.00000000 </v>
   <v>       0.05234188       0.00221827       0.00000000 </v>
   <v>       0.01650401       0.07382242       0.00000000 </v>
   <v>      -0.00095444      -0.00869783       0.00000000 </v>
   <v>      -0.01057833      -0.04001113       0.00000000 </v>
   <v>       0.03514693      -0.07391851       0.00000000 </v>
   <v>      -0.02430249       0.04085848      -0.00534366 </v>
   <v>      -0.03451341      -0.00090169      -0.02026179 </v>
   <v>      -0.03368155       0.00991654      -0.00194024 </v>
   <v>       0.00731129       0.00814417      -0.01467596 </v>
   <v>       0.03579068       0.02110284       0.04278795 </v>
   <v>      -0.03962887       0.00550692       0.01821111 </v>
   <v>      -0.01541750       0.02195243      -0.00085772 </v>
   <v>       0.04216998      -0.00796594       0.04217336 </v>
   <v>      -0.02430249       0.04085848      -0.00534366 </v>
   <v>      -0.03451341      -0.00090169      -0.02026179 </v>
   <v>      -0.03368155       0.00991654      -0.00194024 </v>
   <v>       0.00731129       0.00814417      -0.01467596 </v>
   <v>       0.03579068       0.02110284       0.04278795 </v>
   <v>      -0.03962887       0.00550692       0.01821111 </v>
   <v>      -0.01541750       0.02195243      -0.00085772 </v>
   <v>       0.04216998      -0.00796594       0.04217336 </v>
   <v>       0.01719289       0.03005021       0.00000000 </v>
   <v>      -0.03075259       0.00226308       0.00000000 </v>
   <v>       0.01320267       0.02488840       0.00000000 </v>
   <v>      -0.03559484       0.01617047       0.00000000 </v>
   <v>       0.02036395      -0.02529117       0.00000000 </v>
   <v>      -0.00243281      -0.01314124       0.00000000 </v>
   <v>       0.00425068      -0.00129070       0.00000000 </v>
   <v>      -0.03417797      -0.02640791       0.00000000 </v>
   <v>       0.01719289       0.03005021       0.00000000 </v>
   <v>      -0.03075259       0.00226308       0.00000000 </v>
   <v>       0.01320267       0.02488840       0.00000000 </v>
   <v>      -0.03559484       0.01617047       0.00000000 </v>
   <v>       0.02036395      -0.02529117       0.00000000 </v>
   <v>      -0.00243281      -0.01314124       0.00000000 </v>
   <v>       0.00425068      -0.00129070       0.00000000 </v>
   <v>      -0.03417797      -0.02640791       0.00000000 </v>
   <v>      -0.02430249       0.04085848       0.00534366 </v>
   <v>      -0.03451341      -0.00090169       0.02026179 </v>
   <v>      -0.03368155       0.00991654       0.00194024 </v>
   <v>       0.00731129       0.00814417       0.01467596 </v>
   <v>       0.03579068       0.02110284      -0.04278795 </v>
   <v>      -0.03962887       0.00550692      -0.01821111 </v>
   <v>      -0.01541750       0.02195243       0.00085772 </v>
   <v>       0.04216998      -0.00796594      -0.04217336 </v>
   <v>      -0.02430249       0.04085848       0.00534366 </v>
   <v>      -0.03451341      -0.00090169       0.02026179 </v>
   <v>      -0.03368155       0.00991654       0.00194024 </v>
   <v>       0.00731129       0.00814417       0.01467596 </v>
   <v>       0.03579068       0.02110284      -0.04278795 </v>
   <v>      -0.03962887       0.00550692      -0.01821111 </v>
   <v>      -0.01541750       0.02195243       0.00085772 </v>
   <v>       0.04216998      -0.00796594      -0.04217336 </v>
  </varray>
  <varray name="stress" >
   <v>       1.35210331       0.03728034       0.00000000 </v>
   <v>       0.03728030       2.27194466       0.00000000 </v>
   <v>       0.00000000       0.00000000       1.40430449 </v>
  </varray>
  <energy>
   <i name="e_fr_energy">  -1121.45448708 </i>
   <i name="e_wo_entrp">  -1121.45448708 </i>
   <i name="e_0_energy">     -0.00000000 </i>
  </energy>
  <time name="totalsc">  540.05  542.02</time>
 </calculation>
 <calculation>
  <scstep>
   <time name="dav">  147.21  147.24</time>
   <time name="total">  149.68  149.73</time>
   <energy>
    <i name="alphaZ">   5614.71936476 </i>
    <i name="ewald"> -61471.92384984 </i>
    <i name="hartreedc"> -16002.35284438 </i>
    <i name="XCdc">   2961.75795218 </i>
    <i name="pawpsdc"> 113588.51152877 </i>
    <i name="pawaedc">-112488.67664255 </i>
    <i name="eentropy">     -0.00000000 </i>
    <i name="bandstr">  -7106.96607833 </i>
    <i name="atom">  73783.44779670 </i>
    <i name="e_fr_energy">  -1121.48277269 </i>
    <i name="e_wo_entrp">  -1121.48277269 </i>
    <i name="e_0_energy">  -1121.48277269 </i>
   </energy>
  </scstep>
  <scstep>
   <time name="diag">   16.64   16.64</time>
   <time name="diis">   26.03   26.05</time>
   <time name="orth">    9.48    9.49</time>
   <time name="total">   54.63   54.67</time>
   <energy>
    <i name="e_fr_energy">  -1121.46995143 </i>
    <i name="e_wo_entrp">  -1121.46995143 </i>
    <i name="e_0_energy">  -1121.46995143 </i>
   </energy>
  </scstep>
  <scstep>
   <time name="diag">   16.66   16.66</time>
   <time name="diis">   26.89   26.89</time>
   <time name="orth">    9.49    9.49</time>
   <time name="total">   55.52   55.54</time>
   <energy>
    <i name="e_fr_energy">  -1121.46451919 </i>
    <i name="e_wo_entrp">  -1121.46451919 </i>
    <i name="e_0_energy">  -1121.46451919 </i>
   </energy>
  </scstep>
  <scstep>
   <time name="diag">   16.63   16.63</time>
   <time name="diis">   27.81   27.81</time>
   <time name="orth">    9.48    9.47</time>
   <time name="total">   56.38   56.40</time>
   <energy>
    <i name="e_fr_energy">  -1121.46294157 </i>
    <i name="e_wo_entrp">  -1121.46294157 </i>
    <i name="e_0_energy">  -1121.46294157 </i>
   </energy>
  </scstep>
  <scstep>
   <time name="diag">   16.64   16.64</time>
   <time name="diis">   27.17   27.17</time>
   <time name="orth">    9.48    9.48</time>
   <time name="total">   55.78   56.00</time>
   <energy>
    <i name="e_fr_energy">  -1121.46276511 </i>
    <i name="e_wo_entrp">  -1121.46276511 </i>
    <i name="e_0_energy">  -1121.46276511 </i>
   </energy>
  </scstep>
  <scstep>
   <time name="diag">   16.64   16.64</time>
   <time name="diis">   21.09   21.10</time>
   <time name="orth">    9.47    9.47</time>
   <time name="total">   49.68   49.77</time>
   <energy>
    <i name="e_fr_energy">  -1121.46272258 </i>
    <i name="e_wo_entrp">  -1121.46272258 </i>
    <i name="e_0_energy">  -1121.46272258 </i>
   </energy>
  </scstep>
  <scstep>
   <time name="diag">   16.64   16.64</time>
   <time name="diis">   16.69   16.70</time>
   <time name="orth">    9.46    9.47</time>
   <time name="total">   45.30   45.36</time>
   <energy>
    <i name="e_fr_energy">  -1121.46271624 </i>
    <i name="e_wo_entrp">  -1121.46271624 </i>
    <i name="e_0_energy">  -1121.46271624 </i>
   </energy>
  </scstep>
  <scstep>
   <time name="diag">   16.61   16.61</time>
   <time name="diis">   16.17   16.17</time>
   <time name="orth">    9.46    9.46</time>
   <time name="total">   42.81   42.88</time>
   <energy>
    <i name="alphaZ">   5614.71936476 </i>
    <i name="ewald"> -61471.92384984 </i>
    <i name="hartreedc"> -16029.08443504 </i>
    <i name="XCdc">   2963.62230660 </i>
    <i name="pawpsdc"> 113192.43709695 </i>
    <i name="pawaedc">-112092.45400414 </i>
    <i name="eentropy">     -0.00000000 </i>
    <i name="bandstr">  -7082.22697732 </i>
    <i name="atom">  73783.44779670 </i>
    <i name="e_fr_energy">  -1121.46270132 </i>
    <i name="e_wo_entrp">  -1121.46270132 </i>
    <i name="e_0_energy">  -1121.46270132 </i>
   </energy>
  </scstep>
  <structure>
   <crystal>
    <varray name="basis" >
     <v>      11.23838268       0.00405871       0.00000000 </v>
     <v>       0.00407997      11.26731342       0.00000000 </v>
     <v>       0.00000000       0.00000000      15.87314880 </v>
    </varray>
    <i name="volume">   2009.95911010 </i>
    <varray name="rec_basis" >
     <v>       0.08898079      -0.00003222       0.00000000 </v>
     <v>      -0.00003205       0.08875231       0.00000000 </v>
     <v>       0.00000000       0.00000000       0.06299947 </v>
    </varray>
   </crystal>
   <varray name="positions" >
    <v>       0.99247196       0.24591511       0.11749085 </v>
    <v>       0.99746412       0.24935772       0.62836121 </v>
    <v>       0.99247196       0.74591511       0.11749085 </v>
    <v>       0.99746412       0.74935772       0.62836121 </v>
    <v>       0.50284256       0.24936918       0.12253111 </v>
    <v>       0.50190373       0.25027854       0.62718275 </v>
    <v>       0.50284256       0.74936918       0.12253111 </v>
    <v>       0.50190373       0.75027854       0.62718275 </v>
    <v>       0.99247196       0.24591511       0.38250915 </v>
    <v>       0.99746412       0.24935772       0.87163879 </v>
    <v>       0.99247196       0.74591511       0.38250915 </v>
    <v>       0.99746412       0.74935772       0.87163879 </v>
    <v>       0.50284256       0.24936918       0.37746889 </v>
    <v>       0.50190373       0.25027854       0.87281725 </v>
    <v>       0.50284256       0.74936918       0.37746889 </v>
    <v>       0.50190373       0.75027854       0.87281725 </v>
    <v>       0.24602870       0.00330146       0.11484952 </v>
    <v>       0.25020178       0.99896160       0.62780898 </v>
    <v>       0.24602870       0.50330146       0.11484952 </v>
    <v>       0.25020178       0.49896160       0.62780898 </v>
    <v>       0.75212428       0.00158487       0.12178172 </v>
    <v>       0.75012867       0.99938788       0.62799545 </v>
    <v>       0.75212428       0.50158487       0.12178172 </v>
    <v>       0.75012867       0.49938788       0.62799545 </v>
    <v>       0.24602870       0.00330146       0.38515048 </v>
    <v>       0.25020178       0.99896160       0.87219102 </v>
    <v>       0.24602870       0.50330146       0.38515048 </v>
    <v>       0.25020178       0.49896160       0.87219102 </v>
    <v>       0.75212428       0.00158487       0.37821828 </v>
    <v>       0.75012867       0.99938788       0.87200455 </v>
    <v>       0.75212428       0.50158487       0.37821828 </v>
    <v>       0.75012867       0.49938788       0.87200455 </v>
    <v>       0.99933285       0.99980553       0.00044851 </v>
    <v>       0.99933285       0.49980553       0.00044851 </v>
    <v>       0.99933285       0.49980553       0.49955149 </v>
    <v>       0.49942013       0.00032920       0.00248576 </v>
    <v>       0.49942013       0.00032920       0.49751424 </v>
    <v>       0.49942013       0.50032920       0.00248576 </v>
    <v>       0.49942013       0.50032920       0.49751424 </v>
    <v>       0.24908198       0.24895207      -0.00018314 </v>
    <v>       0.24908198       0.24895207       0.50018314 </v>
    <v>       0.24908198       0.74895207      -0.00018314 </v>
    <v>       0.99719664       0.49758941       0.75000000 </v>
    <v>       0.99719664       0.99758941       0.75000000 </v>
    <v>       0.24908198       0.74895207       0.50018314 </v>
    <v>       0.50159081       0.49926455       0.75000000 </v>
    <v>       0.99933285       0.99980553       0.49955149 </v>
    <v>       0.75202200       0.74290963       0.25000000 </v>
    <v>       0.75202200       0.24290963       0.25000000 </v>
    <v>       0.74882552       0.24987907       0.99801396 </v>
    <v>       0.50159081       0.99926455       0.75000000 </v>
    <v>       0.74882552       0.74987907       0.99801396 </v>
    <v>       0.24963975       0.25040201       0.75000000 </v>
    <v>       0.74882552       0.74987907       0.50198604 </v>
    <v>       0.24963975       0.75040201       0.75000000 </v>
    <v>       0.74882552       0.24987907       0.50198604 </v>
    <v>       0.74880597       0.25032757       0.75000000 </v>
    <v>       0.74880597       0.75032757       0.75000000 </v>
    <v>       0.52197455       0.99088094       0.25000000 </v>
    <v>       0.98887589       0.98609864       0.25000000 </v>
    <v>       0.98887589       0.48609864       0.25000000 </v>
    <v>       0.25346666       0.79095594       0.25000000 </v>
    <v>       0.52197455       0.49088094       0.25000000 </v>
    <v>       0.25346666       0.29095594       0.25000000 </v>
    <v>       0.00356165       0.01357902       0.12599707 </v>
    <v>       0.00278307       0.99227475       0.62383398 </v>
    <v>       0.00356165       0.51357902       0.12599707 </v>
    <v>       0.00278307       0.49227475       0.62383398 </v>
    <v>       0.49145762       0.01282211       0.12873390 </v>
    <v>       0.49375017       0.99553642       0.62257204 </v>
    <v>       0.49145762       0.51282211       0.12873390 </v>
    <v>       0.49375017       0.49553642       0.62257204 </v>
    <v>       0.00356165       0.01357902       0.37400293 </v>
    <v>       0.00278307       0.99227475       0.87616602 </v>
    <v>       0.00356165       0.51357902       0.37400293 </v>
    <v>       0.00278307       0.49227475       0.87616602 </v>
    <v>       0.49145762       0.01282211       0.37126610 </v>
    <v>       0.49375017       0.99553642       0.87742796 </v>
    <v>       0.49145762       0.51282211       0.37126610 </v>
    <v>       0.49375017       0.49553642       0.87742796 </v>
    <v>       0.23797663       0.22633932       0.36047283 </v>
    <v>       0.24920424       0.25631826       0.87726052 </v>
    <v>       0.23797663       0.72633932       0.36047283 </v>
    <v>       0.24920424       0.75631826       0.87726052 </v>
    <v>       0.75205525       0.24451397       0.37559078 </v>
    <v>       0.74684145       0.25544052       0.87665449 </v>
    <v>       0.75205525       0.74451397       0.37559078 </v>
    <v>       0.74684145       0.75544052       0.87665449 </v>
    <v>       0.23797663       0.22633932       0.13952717 </v>
    <v>       0.24920424       0.25631826       0.62273948 </v>
    <v>       0.23797663       0.72633932       0.13952717 </v>
    <v>       0.24920424       0.75631826       0.62273948 </v>
    <v>       0.75205525       0.24451397       0.12440922 </v>
    <v>       0.74684145       0.25544052       0.62334551 </v>
    <v>       0.75205525       0.74451397       0.12440922 </v>
    <v>       0.74684145       0.75544052       0.62334551 </v>
    <v>       0.60530942       0.14707085       0.25000000 </v>
    <v>       0.85937950       0.10366336       0.25000000 </v>
    <v>       0.15716464       0.42908894       0.25000000 </v>
    <v>       0.40649728       0.35484509       0.25000000 </v>
    <v>       0.65977637       0.39520534       0.25000000 </v>
    <v>       0.90571581       0.34140476       0.25000000 </v>
    <v>       0.60530942       0.64707085       0.25000000 </v>
    <v>       0.85937950       0.60366336       0.25000000 </v>
    <v>       0.15716464       0.92908894       0.25000000 </v>
    <v>       0.40649728       0.85484509       0.25000000 </v>
    <v>       0.65977637       0.89520534       0.25000000 </v>
    <v>       0.90571581       0.84140476       0.25000000 </v>
    <v>       0.13715496       0.11260755       0.50435846 </v>
    <v>       0.38385273       0.13650179       0.49955838 </v>
    <v>       0.63563900       0.11225711       0.50118102 </v>
    <v>       0.88654275       0.13618467       0.50450972 </v>
    <v>       0.11443387       0.36183336       0.49163418 </v>
    <v>       0.36239750       0.38222602       0.49120743 </v>
    <v>       0.61185936       0.36452759       0.49454099 </v>
    <v>       0.86441792       0.38648276       0.49557922 </v>
    <v>       0.13715496       0.61260755       0.50435846 </v>
    <v>       0.38385273       0.63650179       0.49955838 </v>
    <v>       0.63563900       0.61225711       0.50118102 </v>
    <v>       0.88654275       0.63618467       0.50450972 </v>
    <v>       0.11443387       0.86183336       0.49163418 </v>
    <v>       0.36239750       0.88222602       0.49120743 </v>
    <v>       0.61185936       0.86452759       0.49454099 </v>
    <v>       0.86441792       0.88648276       0.49557922 </v>
    <v>       0.11381986       0.13715613       0.75000000 </v>
    <v>       0.36074469       0.11327125       0.75000000 </v>
    <v>       0.60997649       0.13524356       0.75000000 </v>
    <v>       0.86478702       0.11157932       0.75000000 </v>
    <v>       0.13872174       0.38678335       0.75000000 </v>
    <v>       0.38625440       0.36146813       0.75000000 </v>
    <v>       0.63452741       0.38893754       0.75000000 </v>
    <v>       0.88824420       0.36271884       0.75000000 </v>
    <v>       0.11381986       0.63715613       0.75000000 </v>
    <v>       0.36074469       0.61327125       0.75000000 </v>
    <v>       0.60997649       0.63524356       0.75000000 </v>
    <v>       0.86478702       0.61157932       0.75000000 </v>
    <v>       0.13872174       0.88678335       0.75000000 </v>
    <v>       0.38625440       0.86146813       0.75000000 </v>
    <v>       0.63452741       0.88893754       0.75000000 </v>
    <v>       0.88824420       0.86271884       0.75000000 </v>
    <v>       0.13715496       0.11260755       0.99564154 </v>
    <v>       0.38385273       0.13650179       0.00044162 </v>
    <v>       0.63563900       0.11225711       0.99881898 </v>
    <v>       0.88654275       0.13618467       0.99549028 </v>
    <v>       0.11443387       0.36183336       0.00836582 </v>
    <v>       0.36239750       0.38222602       0.00879257 </v>
    <v>       0.61185936       0.36452759       0.00545901 </v>
    <v>       0.86441792       0.38648276       0.00442078 </v>
    <v>       0.13715496       0.61260755       0.99564154 </v>
    <v>       0.38385273       0.63650179       0.00044162 </v>
    <v>       0.63563900       0.61225711       0.99881898 </v>
    <v>       0.88654275       0.63618467       0.99549028 </v>
    <v>       0.11443387       0.86183336       0.00836582 </v>
    <v>       0.36239750       0.88222602       0.00879257 </v>
    <v>       0.61185936       0.86452759       0.00545901 </v>
    <v>       0.86441792       0.88648276       0.00442078 </v>
   </varray>
  </structure>
  <varray name="forces" >
   <v>       0.02559573       0.02605044      -0.01829467 </v>
   <v>       0.01235135       0.00113818      -0.03216209 </v>
   <v>       0.02559573       0.02605044      -0.01829467 </v>
   <v>       0.01235135       0.00113818      -0.03216209 </v>
   <v>       0.00748077      -0.02136041       0.02026551 </v>
   <v>      -0.01110346       0.00063518      -0.01603439 </v>
   <v>       0.00748077      -0.02136041       0.02026551 </v>
   <v>      -0.01110346       0.00063518      -0.01603439 </v>
   <v>       0.02559573       0.02605044       0.01829467 </v>
   <v>       0.01235135       0.00113818       0.03216209 </v>
   <v>       0.02559573       0.02605044       0.01829467 </v>
   <v>       0.01235135       0.00113818       0.03216209 </v>
   <v>       0.00748077      -0.02136041      -0.02026551 </v>
   <v>      -0.01110346       0.00063518       0.01603439 </v>
   <v>       0.00748077      -0.02136041      -0.02026551 </v>
   <v>      -0.01110346       0.00063518       0.01603439 </v>
   <v>      -0.00804308       0.00506409       0.00339307 </v>
   <v>       0.00032945       0.00052102      -0.02910026 </v>
   <v>      -0.00804308       0.00506409       0.00339307 </v>
   <v>       0.00032945       0.00052102      -0.02910026 </v>
   <v>       0.00156046      -0.01111166       0.02672642 </v>
   <v>      -0.02029522      -0.00518613      -0.00445382 </v>
   <v>       0.00156046      -0.01111166       0.02672642 </v>
   <v>      -0.02029522      -0.00518613      -0.00445382 </v>
   <v>      -0.00804308       0.00506409      -0.00339307 </v>
   <v>       0.00032945       0.00052102       0.02910026 </v>
   <v>      -0.00804308       0.00506409      -0.00339307 </v>
   <v>       0.00032945       0.00052102       0.02910026 </v>
   <v>       0.00156046      -0.01111166      -0.02672642 </v>
   <v>      -0.02029522      -0.00518613       0.00445382 </v>
   <v>       0.00156046      -0.01111166      -0.02672642 </v>
   <v>      -0.02029522      -0.00518613       0.00445382 </v>
   <v>       0.07389317       0.01083119       0.06627392 </v>
   <v>       0.07389317       0.01083119       0.06627392 </v>
   <v>       0.07389317       0.01083119      -0.06627392 </v>
   <v>      -0.04814271      -0.00116652       0.04949034 </v>
   <v>      -0.04814271      -0.00116652      -0.04949034 </v>
   <v>      -0.04814271      -0.00116652       0.04949034 </v>
   <v>      -0.04814271      -0.00116652      -0.04949034 </v>
   <v>      -0.03304293       0.00108656       0.04866554 </v>
   <v>      -0.03304293       0.00108656      -0.04866554 </v>
   <v>      -0.03304293       0.00108656       0.04866554 </v>
   <v>      -0.04246750      -0.01062104       0.00000000 </v>
   <v>      -0.04246750      -0.01062104       0.00000000 </v>
   <v>      -0.03304293       0.00108656      -0.04866554 </v>
   <v>       0.01515631      -0.01823625       0.00000000 </v>
   <v>       0.07389317       0.01083119      -0.06627392 </v>
   <v>       0.00238830       0.00232310       0.00000000 </v>
   <v>       0.00238830       0.00232310       0.00000000 </v>
   <v>      -0.00483052      -0.00983303       0.02395903 </v>
   <v>       0.01515631      -0.01823625       0.00000000 </v>
   <v>      -0.00483052      -0.00983303       0.02395903 </v>
   <v>       0.03746225       0.01166703       0.00000000 </v>
   <v>      -0.00483052      -0.00983303      -0.02395903 </v>
   <v>       0.03746225       0.01166703       0.00000000 </v>
   <v>      -0.00483052      -0.00983303      -0.02395903 </v>
   <v>      -0.00054191       0.01243995      -0.00000000 </v>
   <v>      -0.00054191       0.01243995      -0.00000000 </v>
   <v>      -0.00907561      -0.04929892      -0.00000000 </v>
   <v>       0.02635416      -0.04507556       0.00000000 </v>
   <v>       0.02635416      -0.04507556       0.00000000 </v>
   <v>      -0.01644963       0.01909060       0.00000000 </v>
   <v>      -0.00907561      -0.04929892      -0.00000000 </v>
   <v>      -0.01644963       0.01909060       0.00000000 </v>
   <v>      -0.02062033      -0.01239456      -0.04151881 </v>
   <v>      -0.01933953       0.04183221       0.09081336 </v>
   <v>      -0.02062033      -0.01239456      -0.04151881 </v>
   <v>      -0.01933953       0.04183221       0.09081336 </v>
   <v>      -0.00648371       0.00018249      -0.02557187 </v>
   <v>       0.01304724       0.02473050       0.04064100 </v>
   <v>      -0.00648371       0.00018249      -0.02557187 </v>
[...]
       <r>   -16.2010     0.0000    32.0000 </r>
       <r>   -16.0491     0.0000    32.0000 </r>
       <r>   -15.8971     0.0000    32.0000 </r>
       <r>   -15.7452     0.0000    32.0000 </r>
       <r>   -15.5932     0.0000    32.0000 </r>
       <r>   -15.4413     0.0000    32.0000 </r>
       <r>   -15.2893     0.0000    32.0000 </r>
       <r>   -15.1374     3.1798    32.4832 </r>
       <r>   -14.9855    31.4348    37.2597 </r>
       <r>   -14.8335    51.1953    45.0388 </r>
       <r>   -14.6816    45.4468    51.9444 </r>
       <r>   -14.5296    29.1132    56.3682 </r>
       <r>   -14.3777    33.3260    61.4320 </r>
       <r>   -14.2257    62.7433    70.9659 </r>
       <r>   -14.0738    99.7380    86.1210 </r>
       <r>   -13.9218   136.6217   106.8807 </r>
       <r>   -13.7699    70.4199   117.5809 </r>
       <r>   -13.6179    41.8813   123.9448 </r>
       <r>   -13.4660     0.3633   124.0000 </r>
       <r>   -13.3140     0.0000   124.0000 </r>
       <r>   -13.1621     0.0000   124.0000 </r>
       <r>   -13.0101     0.0000   124.0000 </r>
       <r>   -12.8582     0.0000   124.0000 </r>
       <r>   -12.7062     1.2792   124.1944 </r>
       <r>   -12.5543    45.7259   131.1424 </r>
       <r>   -12.4023   177.3627   158.0926 </r>
       <r>   -12.2504   135.4909   178.6804 </r>
       <r>   -12.0984   137.8667   199.6292 </r>
       <r>   -11.9465    94.2907   213.9567 </r>
       <r>   -11.7945    30.1012   218.5305 </r>
       <r>   -11.6426     9.6692   219.9998 </r>
       <r>   -11.4906     0.0016   220.0000 </r>
       <r>   -11.3387     0.0000   220.0000 </r>
       <r>   -11.1867     0.0000   220.0000 </r>
       <r>   -11.0348     0.0000   220.0000 </r>
       <r>   -10.8828     0.0000   220.0000 </r>
       <r>   -10.7309     0.0000   220.0000 </r>
       <r>   -10.5789     0.0000   220.0000 </r>
       <r>   -10.4270     0.0000   220.0000 </r>
       <r>   -10.2750     0.0000   220.0000 </r>
       <r>   -10.1231     0.0000   220.0000 </r>
       <r>    -9.9711     0.0000   220.0000 </r>
       <r>    -9.8192     0.0000   220.0000 </r>
       <r>    -9.6672     0.0000   220.0000 </r>
       <r>    -9.5153     0.0000   220.0000 </r>
       <r>    -9.3633     0.0000   220.0000 </r>
       <r>    -9.2114     0.0000   220.0000 </r>
       <r>    -9.0594     0.0000   220.0000 </r>
       <r>    -8.9075     0.0000   220.0000 </r>
       <r>    -8.7555     0.0000   220.0000 </r>
       <r>    -8.6036     0.0000   220.0000 </r>
       <r>    -8.4516     0.0000   220.0000 </r>
       <r>    -8.2997     0.0000   220.0000 </r>
       <r>    -8.1477     0.0000   220.0000 </r>
       <r>    -7.9958     0.0000   220.0000 </r>
       <r>    -7.8438     0.0000   220.0000 </r>
       <r>    -7.6919     0.0000   220.0000 </r>
       <r>    -7.5399     0.0000   220.0000 </r>
       <r>    -7.3880     0.0000   220.0000 </r>
       <r>    -7.2360     0.0000   220.0000 </r>
       <r>    -7.0841     0.0000   220.0000 </r>
       <r>    -6.9321     0.0000   220.0000 </r>
       <r>    -6.7802     0.0000   220.0000 </r>
       <r>    -6.6282     0.0000   220.0000 </r>
       <r>    -6.4763     0.0000   220.0000 </r>
       <r>    -6.3243     0.0000   220.0000 </r>
       <r>    -6.1724     0.0000   220.0000 </r>
       <r>    -6.0204     0.0000   220.0000 </r>
       <r>    -5.8685     0.0000   220.0000 </r>
       <r>    -5.7165     0.0000   220.0000 </r>
       <r>    -5.5646     0.0000   220.0000 </r>
       <r>    -5.4126     0.0000   220.0000 </r>
       <r>    -5.2607     0.0000   220.0000 </r>
       <r>    -5.1087     0.0000   220.0000 </r>
       <r>    -4.9568     0.0000   220.0000 </r>
       <r>    -4.8048     0.0000   220.0000 </r>
       <r>    -4.6529     0.0000   220.0000 </r>
       <r>    -4.5009     0.0000   220.0000 </r>
       <r>    -4.3490     0.0000   220.0000 </r>
       <r>    -4.1970     0.0000   220.0000 </r>
       <r>    -4.0451     0.0000   220.0000 </r>
       <r>    -3.8931     0.0000   220.0000 </r>
       <r>    -3.7412     0.0000   220.0000 </r>
       <r>    -3.5892     0.0000   220.0000 </r>
       <r>    -3.4373     0.0000   220.0000 </r>
       <r>    -3.2853     0.0000   220.0000 </r>
       <r>    -3.1334     0.0000   220.0000 </r>
       <r>    -2.9814     0.0000   220.0000 </r>
       <r>    -2.8295     0.0000   220.0000 </r>
       <r>    -2.6775     0.0000   220.0000 </r>
       <r>    -2.5256     0.0000   220.0000 </r>
       <r>    -2.3736     0.0533   220.0081 </r>
       <r>    -2.2217     9.2741   221.4173 </r>
       <r>    -2.0697    30.0465   225.9829 </r>
       <r>    -1.9178    30.2077   230.5729 </r>
       <r>    -1.7658    47.8097   237.8376 </r>
       <r>    -1.6139    58.9049   246.7882 </r>
       <r>    -1.4619    39.4437   252.7816 </r>
       <r>    -1.3100    61.5785   262.1384 </r>
       <r>    -1.1580    74.1229   273.4014 </r>
       <r>    -1.0061    75.3420   284.8496 </r>
       <r>    -0.8541    71.5249   295.7178 </r>
       <r>    -0.7022    95.0592   310.1620 </r>
       <r>    -0.5502   106.5762   326.3562 </r>
       <r>    -0.3983    99.3006   341.4449 </r>
       <r>    -0.2463    63.6746   351.1202 </r>
       <r>    -0.0944    49.4794   358.6386 </r>
       <r>     0.0576    52.3463   366.5926 </r>
       <r>     0.2095    57.3257   375.3033 </r>
       <r>     0.3615    43.2232   381.8710 </r>
       <r>     0.5134    57.6316   390.6281 </r>
       <r>     0.6654    50.4313   398.2911 </r>
       <r>     0.8173    47.0695   405.4433 </r>
       <r>     0.9693    57.0755   414.1159 </r>
       <r>     1.1212    60.6619   423.3335 </r>
       <r>     1.2732   100.5927   438.6185 </r>
       <r>     1.4251    79.6762   450.7253 </r>
       <r>     1.5771    98.9125   465.7550 </r>
       <r>     1.7290    74.7897   477.1193 </r>
       <r>     1.8810    43.0154   483.6555 </r>
       <r>     2.0329    45.9252   490.6338 </r>
       <r>     2.1849    29.0749   495.0517 </r>
       <r>     2.3368     6.2408   496.0000 </r>
       <r>     2.4888     0.0000   496.0000 </r>
       <r>     2.6407     0.0000   496.0000 </r>
       <r>     2.7927     0.0000   496.0000 </r>
       <r>     2.9446     0.0000   496.0000 </r>
       <r>     3.0966     0.0000   496.0000 </r>
       <r>     3.2485     0.0000   496.0000 </r>
       <r>     3.4005     0.0000   496.0000 </r>
       <r>     3.5524     0.0000   496.0000 </r>
       <r>     3.7044     0.0000   496.0000 </r>
       <r>     3.8563     0.0000   496.0000 </r>
       <r>     4.0083     0.0000   496.0000 </r>
       <r>     4.1602     0.0000   496.0000 </r>
       <r>     4.3122     0.0005   496.0001 </r>
       <r>     4.4641     4.5763   496.6954 </r>
       <r>     4.6161    30.3107   501.3011 </r>
       <r>     4.7680    49.0993   508.7618 </r>
       <r>     4.9200    33.8675   513.9079 </r>
       <r>     5.0719    44.0193   520.5967 </r>
       <r>     5.2239    42.4444   527.0461 </r>
       <r>     5.3758    70.6128   537.7757 </r>
       <r>     5.5278    65.0320   547.6573 </r>
       <r>     5.6797    63.5628   557.3156 </r>
       <r>     5.8317    80.6037   569.5633 </r>
       <r>     5.9836   108.7472   586.0874 </r>
       <r>     6.1356    69.9539   596.7169 </r>
       <r>     6.2875    64.2626   606.4816 </r>
       <r>     6.4395    39.9135   612.5464 </r>
       <r>     6.5914    10.3276   614.1157 </r>
       <r>     6.7434    25.2229   617.9483 </r>
       <r>     6.8953    28.5161   622.2813 </r>
       <r>     7.0473    13.8879   624.3916 </r>
       <r>     7.1992    18.6732   627.2289 </r>
       <r>     7.3512    15.6028   629.5998 </r>
       <r>     7.5031     9.0534   630.9755 </r>
       <r>     7.6551    16.9686   633.5538 </r>
       <r>     7.8070    19.7450   636.5541 </r>
       <r>     7.9590    22.3628   639.9521 </r>
       <r>     8.1109    15.8568   642.3615 </r>
       <r>     8.2629    32.8764   647.3571 </r>
       <r>     8.4148    25.7921   651.2762 </r>
       <r>     8.5668    19.1984   654.1934 </r>
       <r>     8.7187    17.7778   656.8947 </r>
       <r>     8.8707    32.5312   661.8378 </r>
       <r>     9.0226    31.3186   666.5967 </r>
       <r>     9.1746    43.5200   673.2096 </r>
       <r>     9.3265    34.4228   678.4401 </r>
       <r>     9.4785    40.6923   684.6233 </r>
       <r>     9.6304    48.0098   691.9184 </r>
       <r>     9.7824    55.2471   700.3131 </r>
       <r>     9.9343    66.6843   710.4458 </r>
       <r>    10.0863    66.5785   720.5624 </r>
       <r>    10.2382    67.1109   730.7599 </r>
       <r>    10.3901    56.5729   739.3561 </r>
       <r>    10.5421    62.2349   748.8127 </r>
       <r>    10.6940    51.7020   756.6688 </r>
       <r>    10.8460    49.4189   764.1780 </r>
       <r>    10.9979    25.1173   767.9946 </r>
       <r>    11.1499     0.0358   768.0000 </r>
       <r>    11.3018     0.0000   768.0000 </r>
       <r>    11.4538     0.0000   768.0000 </r>
       <r>    11.6057     0.0000   768.0000 </r>
       <r>    11.7577     0.0000   768.0000 </r>
       <r>    11.9096     0.0000   768.0000 </r>
       <r>    12.0616     0.0000   768.0000 </r>
       <r>    12.2135     0.0000   768.0000 </r>
       <r>    12.3655     0.0000   768.0000 </r>
       <r>    12.5174     0.0000   768.0000 </r>
       <r>    12.6694     0.0000   768.0000 </r>
       <r>    12.8213     0.0000   768.0000 </r>
       <r>    12.9733     0.0000   768.0000 </r>
      </set>
     </set>
    </array>
   </total>
  </dos>
 </calculation>
 <structure name="finalpos" >
  <crystal>
   <varray name="basis" >
    <v>      11.23498381       0.00508788       0.00000000 </v>
    <v>       0.00511212      11.26413262       0.00000000 </v>
    <v>       0.00000000       0.00000000      15.87684644 </v>
   </varray>
   <i name="volume">   2009.25177796 </i>
   <varray name="rec_basis" >
    <v>       0.08900771      -0.00004040       0.00000000 </v>
    <v>      -0.00004020       0.08877738       0.00000000 </v>
    <v>       0.00000000       0.00000000       0.06298480 </v>
   </varray>
  </crystal>
  <varray name="positions" >
   <v>       0.99397671       0.24597773       0.11564483 </v>
   <v>       0.99661407       0.24962896       0.62843378 </v>
   <v>       0.99397671       0.74597773       0.11564483 </v>
   <v>       0.99661407       0.74962896       0.62843378 </v>
   <v>       0.50555293       0.24750665       0.12308697 </v>
   <v>       0.50106561       0.25019207       0.62678969 </v>
   <v>       0.50555293       0.74750665       0.12308697 </v>
   <v>       0.50106561       0.75019207       0.62678969 </v>
   <v>       0.99397671       0.24597773       0.38435517 </v>
   <v>       0.99661407       0.24962896       0.87156622 </v>
   <v>       0.99397671       0.74597773       0.38435517 </v>
   <v>       0.99661407       0.74962896       0.87156622 </v>
   <v>       0.50555293       0.24750665       0.37691303 </v>
   <v>       0.50106561       0.25019207       0.87321031 </v>
   <v>       0.50555293       0.74750665       0.37691303 </v>
   <v>       0.50106561       0.75019207       0.87321031 </v>
   <v>       0.24610383       0.00538400       0.11371816 </v>
   <v>       0.24897342       0.99944161       0.62768159 </v>
   <v>       0.24610383       0.50538400       0.11371816 </v>
   <v>       0.24897342       0.49944161       0.62768159 </v>
   <v>       0.75309202       0.00057087       0.12180769 </v>
   <v>       0.74877711       0.00028937       0.62792513 </v>
   <v>       0.75309202       0.50057087       0.12180769 </v>
   <v>       0.74877711       0.50028937       0.62792513 </v>
   <v>       0.24610383       0.00538400       0.38628184 </v>
   <v>       0.24897342       0.99944161       0.87231841 </v>
   <v>       0.24610383       0.50538400       0.38628184 </v>
   <v>       0.24897342       0.49944161       0.87231841 </v>
   <v>       0.75309202       0.00057087       0.37819231 </v>
   <v>       0.74877711       0.00028937       0.87207487 </v>
   <v>       0.75309202       0.50057087       0.37819231 </v>
   <v>       0.74877711       0.50028937       0.87207487 </v>
   <v>       0.99920009       0.00000315       0.00001580 </v>
   <v>       0.99920009       0.50000315       0.00001580 </v>
   <v>       0.99920009       0.50000315       0.49998420 </v>
   <v>       0.49906942       0.00026740       0.00303609 </v>
   <v>       0.49906942       0.00026740       0.49696391 </v>
   <v>       0.49906942       0.50026740       0.00303609 </v>
   <v>       0.49906942       0.50026740       0.49696391 </v>
   <v>       0.24918453       0.24980390      -0.00029932 </v>
   <v>       0.24918453       0.24980390       0.50029932 </v>
   <v>       0.24918453       0.74980390      -0.00029932 </v>
   <v>       0.99607337       0.49854419       0.75000000 </v>
   <v>       0.99607337       0.99854419       0.75000000 </v>
   <v>       0.24918453       0.74980390       0.50029932 </v>
   <v>       0.50078645       0.49960836       0.75000000 </v>
   <v>       0.99920009       0.00000315       0.49998420 </v>
   <v>       0.75502894       0.74080812       0.25000000 </v>
   <v>       0.75502894       0.24080812       0.25000000 </v>
   <v>       0.74879034       0.24976645       0.99795547 </v>
   <v>       0.50078645       0.99960836       0.75000000 </v>
   <v>       0.74879034       0.74976645       0.99795547 </v>
   <v>       0.24945119       0.25031463       0.75000000 </v>
   <v>       0.74879034       0.74976645       0.50204453 </v>
   <v>       0.24945119       0.75031463       0.75000000 </v>
   <v>       0.74879034       0.24976645       0.50204453 </v>
   <v>       0.74773816       0.25082017       0.75000000 </v>
   <v>       0.74773816       0.75082017       0.75000000 </v>
   <v>       0.52306317       0.98781151       0.25000000 </v>
   <v>       0.99086219       0.98407016       0.25000000 </v>
   <v>       0.99086219       0.48407016       0.25000000 </v>
   <v>       0.25333011       0.79387864       0.25000000 </v>
   <v>       0.52306317       0.48781151       0.25000000 </v>
   <v>       0.25333011       0.29387864       0.25000000 </v>
   <v>       0.00284190       0.00999548       0.12517979 </v>
   <v>       0.00197197       0.99521557       0.62449362 </v>
   <v>       0.00284190       0.50999548       0.12517979 </v>
   <v>       0.00197197       0.49521557       0.62449362 </v>
   <v>       0.49032810       0.01155677       0.12943021 </v>
   <v>       0.49401114       0.99707708       0.62220255 </v>
   <v>       0.49032810       0.51155677       0.12943021 </v>
   <v>       0.49401114       0.49707708       0.62220255 </v>
   <v>       0.00284190       0.00999548       0.37482021 </v>
   <v>       0.00197197       0.99521557       0.87550638 </v>
   <v>       0.00284190       0.50999548       0.37482021 </v>
   <v>       0.00197197       0.49521557       0.87550638 </v>
   <v>       0.49032810       0.01155677       0.37056979 </v>
   <v>       0.49401114       0.99707708       0.87779745 </v>
   <v>       0.49032810       0.51155677       0.37056979 </v>
   <v>       0.49401114       0.49707708       0.87779745 </v>
   <v>       0.23454501       0.22986579       0.36052049 </v>
   <v>       0.25074656       0.25374809       0.87692993 </v>
   <v>       0.23454501       0.72986579       0.36052049 </v>
   <v>       0.25074656       0.75374809       0.87692993 </v>
   <v>       0.75427511       0.24441191       0.37552040 </v>
   <v>       0.74504142       0.25417541       0.87664888 </v>
   <v>       0.75427511       0.74441191       0.37552040 </v>
   <v>       0.74504142       0.75417541       0.87664888 </v>
   <v>       0.23454501       0.22986579       0.13947951 </v>
   <v>       0.25074656       0.25374809       0.62307007 </v>
   <v>       0.23454501       0.72986579       0.13947951 </v>
   <v>       0.25074656       0.75374809       0.62307007 </v>
   <v>       0.75427511       0.24441191       0.12447960 </v>
   <v>       0.74504142       0.25417541       0.62335112 </v>
   <v>       0.75427511       0.74441191       0.12447960 </v>
   <v>       0.74504142       0.75417541       0.62335112 </v>
   <v>       0.60929796       0.14327233       0.25000000 </v>
   <v>       0.86086287       0.10053100       0.25000000 </v>
   <v>       0.16196211       0.43623789       0.25000000 </v>
   <v>       0.40959056       0.34954154       0.25000000 </v>
   <v>       0.66116859       0.39215996       0.25000000 </v>
   <v>       0.91115031       0.33732634       0.25000000 </v>
   <v>       0.60929796       0.64327233       0.25000000 </v>
   <v>       0.86086287       0.60053100       0.25000000 </v>
   <v>       0.16196211       0.93623789       0.25000000 </v>
   <v>       0.40959056       0.84954154       0.25000000 </v>
   <v>       0.66116859       0.89215996       0.25000000 </v>
   <v>       0.91115031       0.83732634       0.25000000 </v>
   <v>       0.13453536       0.11564809       0.50367516 </v>
   <v>       0.38226241       0.13596746       0.49779063 </v>
   <v>       0.63360454       0.11395778       0.49971286 </v>
   <v>       0.88446702       0.13484339       0.50447734 </v>
   <v>       0.11580147       0.36446884       0.49481138 </v>
   <v>       0.36266673       0.38245516       0.49211540 </v>
   <v>       0.61279350       0.36583753       0.49379022 </v>
   <v>       0.86531137       0.38493458       0.49765855 </v>
   <v>       0.13453536       0.61564809       0.50367516 </v>
   <v>       0.38226241       0.63596746       0.49779063 </v>
   <v>       0.63360454       0.61395778       0.49971286 </v>
   <v>       0.88446702       0.63484339       0.50447734 </v>
   <v>       0.11580147       0.86446884       0.49481138 </v>
   <v>       0.36266673       0.88245516       0.49211540 </v>
   <v>       0.61279350       0.86583753       0.49379022 </v>
   <v>       0.86531137       0.88493458       0.49765855 </v>
   <v>       0.11291312       0.13790080       0.75000000 </v>
   <v>       0.35964857       0.11212769       0.75000000 </v>
   <v>       0.60852450       0.13592939       0.75000000 </v>
   <v>       0.86339576       0.11210171       0.75000000 </v>
   <v>       0.13818188       0.38686013       0.75000000 </v>
   <v>       0.38614034       0.36133104       0.75000000 </v>
   <v>       0.63400668       0.38958298       0.75000000 </v>
   <v>       0.88761577       0.36325928       0.75000000 </v>
   <v>       0.11291312       0.63790080       0.75000000 </v>
   <v>       0.35964857       0.61212769       0.75000000 </v>
   <v>       0.60852450       0.63592939       0.75000000 </v>
   <v>       0.86339576       0.61210171       0.75000000 </v>
   <v>       0.13818188       0.88686013       0.75000000 </v>
   <v>       0.38614034       0.86133104       0.75000000 </v>
   <v>       0.63400668       0.88958298       0.75000000 </v>
   <v>       0.88761577       0.86325928       0.75000000 </v>
   <v>       0.13453536       0.11564809       0.99632484 </v>
   <v>       0.38226241       0.13596746       0.00220937 </v>
   <v>       0.63360454       0.11395778       0.00028714 </v>
   <v>       0.88446702       0.13484339       0.99552266 </v>
   <v>       0.11580147       0.36446884       0.00518862 </v>
   <v>       0.36266673       0.38245516       0.00788460 </v>
   <v>       0.61279350       0.36583753       0.00620978 </v>
   <v>       0.86531137       0.38493458       0.00234145 </v>
   <v>       0.13453536       0.61564809       0.99632484 </v>
   <v>       0.38226241       0.63596746       0.00220937 </v>
   <v>       0.63360454       0.61395778       0.00028714 </v>
   <v>       0.88446702       0.63484339       0.99552266 </v>
   <v>       0.11580147       0.86446884       0.00518862 </v>
   <v>       0.36266673       0.88245516       0.00788460 </v>
   <v>       0.61279350       0.86583753       0.00620978 </v>
   <v>       0.86531137       0.88493458       0.00234145 </v>
  </varray>
 </structure>
</modeling>
