       N       E                     dE             d eps       ncg     rms          rms(c)
DAV:   1    -0.108678427877E+04   -0.10868E+04   -0.37601E-03 13304   0.137E-01    0.159E-02
RMM:   2    -0.108678427986E+04   -0.10937E-05   -0.21661E-05  6806   0.821E-03    0.280E-02
RMM:   3    -0.108678428033E+04   -0.46716E-06   -0.80944E-06  6524   0.512E-03    0.379E-03
RMM:   4    -0.108678428071E+04   -0.38263E-06   -0.44901E-06  4681   0.310E-03    0.383E-03
RMM:   5    -0.108678428090E+04   -0.18861E-06   -0.29461E-06  4249   0.315E-03    0.152E-03
RMM:   6    -0.108678428105E+04   -0.14734E-06   -0.19793E-06  3257   0.239E-03    0.853E-04
RMM:   7    -0.108678428113E+04   -0.75874E-07   -0.13691E-06  3181   0.253E-03    0.783E-04
RMM:   8    -0.108678428119E+04   -0.60769E-07   -0.75598E-07  2420   0.210E-03
   1 F= -.10867843E+04 E0= -.10867843E+04  d E =-.108678E+04  mag=    50.0000
       N       E                     dE             d eps       ncg     rms          rms(c)
DAV:   1    -0.108678355574E+04    0.72539E-03   -0.84777E-01 12416   0.108E+00    0.496E-01
RMM:   2    -0.108678670244E+04   -0.31467E-02   -0.26287E-02 12303   0.228E-01    0.344E-01
RMM:   3    -0.108678694394E+04   -0.24150E-03   -0.16786E-03 12633   0.835E-02    0.187E-01
RMM:   4    -0.108678676129E+04    0.18264E-03   -0.52962E-04 10687   0.300E-02    0.126E-01
RMM:   5    -0.108678670194E+04    0.59353E-04   -0.15738E-04  8180   0.206E-02    0.787E-02
RMM:   6    -0.108678670100E+04    0.93790E-06   -0.60120E-05  7293   0.134E-02    0.257E-02
RMM:   7    -0.108678670113E+04   -0.12477E-06   -0.21203E-05  7201   0.892E-03    0.200E-02
RMM:   8    -0.108678670092E+04    0.21156E-06   -0.10691E-05  7075   0.527E-03
   2 F= -.10867867E+04 E0= -.10867867E+04  d E =-.241973E-02  mag=    50.0000
       N       E                     dE             d eps       ncg     rms          rms(c)
DAV:   1    -0.108678669532E+04    0.58090E-05   -0.44111E-03 13528   0.782E-02    0.368E-02
RMM:   2    -0.108678671012E+04   -0.14806E-04   -0.11801E-04  7240   0.172E-02    0.292E-02
RMM:   3    -0.108678671274E+04   -0.26187E-05   -0.14441E-05  6585   0.818E-03    0.144E-02
RMM:   4    -0.108678671224E+04    0.49813E-06   -0.46765E-06  6334   0.386E-03    0.127E-02
RMM:   5    -0.108678671194E+04    0.30118E-06   -0.19092E-06  5227   0.286E-03    0.504E-03
RMM:   6    -0.108678671190E+04    0.46974E-07   -0.12263E-07  2223   0.193E-03    0.142E-03
RMM:   7    -0.108678671195E+04   -0.49375E-07   -0.42857E-08  1663   0.188E-03    0.101E-03
RMM:   8    -0.108678671197E+04   -0.26877E-07   -0.63572E-09  1390   0.188E-03
   3 F= -.10867867E+04 E0= -.10867867E+04  d E =-.243079E-02  mag=    50.0000
       N       E                     dE             d eps       ncg     rms          rms(c)
DAV:   1    -0.108678614875E+04    0.56320E-03   -0.68556E-01 12368   0.988E-01    0.334E-01
RMM:   2    -0.108678819193E+04   -0.20432E-02   -0.18783E-02 12338   0.188E-01    0.224E-01
RMM:   3    -0.108678831154E+04   -0.11961E-03   -0.11538E-03 12127   0.728E-02    0.128E-01
RMM:   4    -0.108678823441E+04    0.77134E-04   -0.27846E-04  8799   0.233E-02    0.765E-02
RMM:   5    -0.108678822039E+04    0.14020E-04   -0.89189E-05  7281   0.161E-02    0.586E-02
RMM:   6    -0.108678822422E+04   -0.38271E-05   -0.33183E-05  7147   0.110E-02    0.137E-02
RMM:   7    -0.108678822622E+04   -0.20053E-05   -0.14929E-05  7027   0.659E-03    0.942E-03
RMM:   8    -0.108678822774E+04   -0.15237E-05   -0.87153E-06  6759   0.536E-03
   4 F= -.10867882E+04 E0= -.10867882E+04  d E =-.151577E-02  mag=    50.0000
       N       E                     dE             d eps       ncg     rms          rms(c)
DAV:   1    -0.108678807993E+04    0.14629E-03   -0.76609E-02 12528   0.331E-01    0.112E-01
RMM:   2    -0.108678831385E+04   -0.23392E-03   -0.21420E-03 12280   0.635E-02    0.752E-02
RMM:   3    -0.108678832468E+04   -0.10829E-04   -0.10647E-04  7277   0.249E-02    0.436E-02
RMM:   4    -0.108678831899E+04    0.56882E-05   -0.42692E-05  7065   0.101E-02    0.334E-02
RMM:   5    -0.108678831851E+04    0.48267E-06   -0.16872E-05  6901   0.765E-03    0.233E-02
RMM:   6    -0.108678831962E+04   -0.11092E-05   -0.10317E-05  6772   0.465E-03    0.722E-03
RMM:   7    -0.108678832014E+04   -0.52004E-06   -0.41310E-06  6244   0.411E-03    0.497E-03
RMM:   8    -0.108678832041E+04   -0.27093E-06   -0.20180E-06  4127   0.245E-03
   5 F= -.10867883E+04 E0= -.10867883E+04  d E =-.160844E-02  mag=    50.0000
       N       E                     dE             d eps       ncg     rms          rms(c)
DAV:   1    -0.108678797270E+04    0.34744E-03   -0.52963E-01 12544   0.867E-01    0.229E-01
RMM:   2    -0.108678936794E+04   -0.13952E-02   -0.14268E-02 12373   0.160E-01    0.160E-01
RMM:   3    -0.108678941956E+04   -0.51626E-04   -0.88698E-04 11649   0.654E-02    0.970E-02
RMM:   4    -0.108678937875E+04    0.40812E-04   -0.17884E-04  7497   0.192E-02    0.586E-02
RMM:   5    -0.108678937164E+04    0.71073E-05   -0.71030E-05  7199   0.135E-02    0.413E-02
RMM:   6    -0.108678937393E+04   -0.22889E-05   -0.24613E-05  7049   0.101E-02    0.923E-03
RMM:   7    -0.108678937544E+04   -0.15106E-05   -0.13829E-05  6906   0.548E-03    0.689E-03
RMM:   8    -0.108678937622E+04   -0.78043E-06   -0.77016E-06  6662   0.561E-03
   6 F= -.10867894E+04 E0= -.10867894E+04  d E =-.105581E-02  mag=    50.0000
