       N       E                     dE             d eps       ncg     rms          rms(c)
DAV:   1    -0.112136188717E+04   -0.11214E+04   -0.22204E-02 13296   0.345E-01    0.810E-03
RMM:   2    -0.112136188746E+04   -0.28650E-06   -0.48651E-06  5899   0.428E-03    0.137E-02
RMM:   3    -0.112136188759E+04   -0.12819E-06   -0.16676E-06  4062   0.287E-03    0.190E-03
RMM:   4    -0.112136188768E+04   -0.91808E-07   -0.52892E-07  2327   0.193E-03    0.133E-03
RMM:   5    -0.112136188773E+04   -0.50277E-07   -0.20107E-07  1727   0.178E-03    0.137E-03
RMM:   6    -0.112136188774E+04   -0.48021E-08   -0.54304E-08  1376   0.169E-03    0.612E-04
RMM:   7    -0.112136188774E+04   -0.24302E-08   -0.27684E-08  1316   0.170E-03    0.380E-04
RMM:   8    -0.112136188774E+04   -0.23283E-09   -0.23877E-09  1161   0.169E-03
   1 F= -.11213619E+04 E0= -.11213619E+04  d E =-.112136E+04  mag=    40.0000
       N       E                     dE             d eps       ncg     rms          rms(c)
DAV:   1    -0.112136171653E+04    0.17121E-03   -0.49664E-01 12416   0.827E-01    0.339E-01
RMM:   2    -0.112136317967E+04   -0.14631E-02   -0.15225E-02 12334   0.171E-01    0.256E-01
RMM:   3    -0.112136324119E+04   -0.61524E-04   -0.84736E-04 11812   0.506E-02    0.146E-01
RMM:   4    -0.112136312373E+04    0.11746E-03   -0.22022E-04  8265   0.195E-02    0.851E-02
RMM:   5    -0.112136309258E+04    0.31151E-04   -0.12965E-04  7438   0.144E-02    0.445E-02
RMM:   6    -0.112136309384E+04   -0.12617E-05   -0.28722E-05  7155   0.951E-03    0.290E-02
RMM:   7    -0.112136309370E+04    0.14898E-06   -0.11767E-05  6506   0.440E-03    0.129E-02
RMM:   8    -0.112136309363E+04    0.70038E-07   -0.54293E-06  6060   0.419E-03
   2 F= -.11213631E+04 E0= -.11213631E+04  d E =-.120589E-02  mag=    40.0000
       N       E                     dE             d eps       ncg     rms          rms(c)
DAV:   1    -0.112136309676E+04   -0.30660E-05   -0.11129E-02 13312   0.124E-01    0.517E-02
RMM:   2    -0.112136312643E+04   -0.29669E-04   -0.30871E-04  8733   0.258E-02    0.439E-02
RMM:   3    -0.112136313016E+04   -0.37265E-05   -0.27901E-05  6626   0.105E-02    0.229E-02
RMM:   4    -0.112136312849E+04    0.16715E-05   -0.75342E-06  5910   0.424E-03    0.171E-02
RMM:   5    -0.112136312747E+04    0.10147E-05   -0.47086E-06  5544   0.346E-03    0.903E-03
RMM:   6    -0.112136312754E+04   -0.64698E-07   -0.77311E-07  2807   0.199E-03    0.400E-03
RMM:   7    -0.112136312758E+04   -0.42055E-07   -0.13445E-08  1396   0.172E-03    0.265E-03
RMM:   8    -0.112136312766E+04   -0.80559E-07   -0.93560E-08  1295   0.176E-03
   3 F= -.11213631E+04 E0= -.11213631E+04  d E =-.123992E-02  mag=    40.0000
       N       E                     dE             d eps       ncg     rms          rms(c)
DAV:   1    -0.112136275468E+04    0.37290E-03   -0.50687E-01 12472   0.844E-01    0.248E-01
RMM:   2    -0.112136420260E+04   -0.14479E-02   -0.13420E-02 12357   0.155E-01    0.155E-01
RMM:   3    -0.112136426976E+04   -0.67162E-04   -0.70875E-04 10993   0.503E-02    0.898E-02
RMM:   4    -0.112136421881E+04    0.50949E-04   -0.17029E-04  7428   0.169E-02    0.453E-02
RMM:   5    -0.112136421631E+04    0.24997E-05   -0.54268E-05  7118   0.106E-02    0.317E-02
RMM:   6    -0.112136421825E+04   -0.19413E-05   -0.18825E-05  6968   0.699E-03    0.150E-02
RMM:   7    -0.112136421917E+04   -0.91852E-06   -0.10025E-05  6453   0.455E-03    0.100E-02
RMM:   8    -0.112136421963E+04   -0.45344E-06   -0.57133E-06  5809   0.392E-03
   4 F= -.11213642E+04 E0= -.11213642E+04  d E =-.109197E-02  mag=    40.0000
