<?xml version="1.0" encoding="ISO-8859-1"?>
<modeling>
 <generator>
  <i name="program" type="string">vasp </i>
  <i name="version" type="string">5.4.1  </i>
  <i name="subversion" type="string">05Feb16 (build Jan 25 2017 20:16:33) complex                          parallel </i>
  <i name="platform" type="string">BWXE6 </i>
  <i name="date" type="string">2019 07 09 </i>
  <i name="time" type="string">13:56:04 </i>
 </generator>
 <incar>
  <i type="string" name="SYSTEM"> STF</i>
  <i type="string" name="PREC">normal</i>
  <i type="string" name="ALGO"> Fast</i>
  <i type="int" name="ISPIN">     2</i>
  <i type="int" name="NELM">    40</i>
  <i type="int" name="NELMIN">     8</i>
  <i type="int" name="IBRION">     2</i>
  <i name="EDIFF">      0.00010000</i>
  <i name="EDIFFG">     -0.03000000</i>
  <i type="int" name="NSW">    30</i>
  <i type="int" name="ISIF">     3</i>
  <i name="ENCUT">    520.00000000</i>
  <i type="int" name="NBANDS">   768</i>
  <v name="MAGMOM">      0.60000000      0.60000000      0.60000000      0.60000000      0.60000000      0.60000000      0.60000000      0.60000000      0.60000000      0.60000000      0.60000000      0.60000000      0.60000000      0.60000000      0.60000000      0.60000000      0.60000000      0.60000000      0.60000000      0.60000000
      0.60000000      0.60000000      0.60000000      0.60000000      0.60000000      0.60000000      0.60000000      0.60000000      0.60000000      0.60000000      0.60000000      0.60000000      0.60000000      0.60000000      0.60000000      0.60000000      0.60000000      0.60000000      0.60000000      0.60000000
      0.60000000      0.60000000      0.60000000      0.60000000      0.60000000      0.60000000      0.60000000      0.60000000      0.60000000      0.60000000      0.60000000      0.60000000      0.60000000      0.60000000      0.60000000      0.60000000      5.00000000      5.00000000      5.00000000      5.00000000
      5.00000000      5.00000000      5.00000000      5.00000000      0.60000000      0.60000000      0.60000000      0.60000000      0.60000000      0.60000000      0.60000000      0.60000000      0.60000000      0.60000000      0.60000000      0.60000000      0.60000000      0.60000000      0.60000000      0.60000000
      0.60000000      0.60000000      0.60000000      0.60000000      0.60000000      0.60000000      0.60000000      0.60000000      0.60000000      0.60000000      0.60000000      0.60000000      0.60000000      0.60000000      0.60000000      0.60000000      0.60000000      0.60000000      0.60000000      0.60000000
      0.60000000      0.60000000      0.60000000      0.60000000      0.60000000      0.60000000      0.60000000      0.60000000      0.60000000      0.60000000      0.60000000      0.60000000      0.60000000      0.60000000      0.60000000      0.60000000      0.60000000      0.60000000      0.60000000      0.60000000
      0.60000000      0.60000000      0.60000000      0.60000000      0.60000000      0.60000000      0.60000000      0.60000000      0.60000000      0.60000000      0.60000000      0.60000000      0.60000000      0.60000000      0.60000000      0.60000000      0.60000000      0.60000000      0.60000000      0.60000000
      0.60000000      0.60000000      0.60000000      0.60000000      0.60000000      0.60000000      0.60000000      0.60000000      0.60000000      0.60000000      0.60000000      0.60000000      0.60000000      0.60000000      0.60000000      0.60000000</v>
  <i type="string" name="LREAL"> Auto</i>
  <i type="int" name="ISMEAR">     0</i>
  <i name="SIGMA">      0.05000000</i>
  <i type="int" name="LMAXMIX">     4</i>
  <v type="int" name="KPOINT_BSE">    -1     0     0     0</v>
  <i type="int" name="NELM">    40</i>
  <i type="logical" name="LDAU"> T  </i>
  <v type="int" name="LDAUTYPE">     2</v>
  <v type="int" name="LDAUL">     0     2     2     0</v>
  <v name="LDAUU">      0.00000000      3.00000000      5.00000000      0.00000000</v>
  <v name="LDAUJ">      0.00000000      0.00000000      0.00000000      0.00000000</v>
  <i type="int" name="LDAUPRINT">     1</i>
 </incar>
 <kpoints>
  <generation param="Monkhorst-Pack">
   <v type="int" name="divisions">       2        2        2 </v>
   <v name="usershift">      0.00000000       0.00000000       0.00000000 </v>
   <v name="genvec1">      0.50000000       0.00000000       0.00000000 </v>
   <v name="genvec2">     -0.00000000       0.50000000       0.00000000 </v>
   <v name="genvec3">     -0.00000000       0.00000000       0.50000000 </v>
   <v name="shift">      0.50000000       0.50000000       0.50000000 </v>
  </generation>
  <varray name="kpointlist" >
   <v>       0.25000000       0.25000000       0.25000000 </v>
   <v>      -0.25000000       0.25000000       0.25000000 </v>
   <v>       0.25000000      -0.25000000       0.25000000 </v>
   <v>      -0.25000000      -0.25000000       0.25000000 </v>
  </varray>
  <varray name="weights" >
   <v>       0.25000000 </v>
   <v>       0.25000000 </v>
   <v>       0.25000000 </v>
   <v>       0.25000000 </v>
  </varray>
 </kpoints>
 <parameters>
  <separator name="general" >
   <i type="string" name="SYSTEM">STF</i>
   <i type="logical" name="LCOMPAT"> F  </i>
  </separator>
  <separator name="electronic" >
   <i type="string" name="PREC">normal</i>
   <i name="ENMAX">    520.00000000</i>
   <i name="ENAUG">    605.39200000</i>
   <i name="EDIFF">      0.00010000</i>
   <i type="int" name="IALGO">    68</i>
   <i type="int" name="IWAVPR">    11</i>
   <i type="int" name="NBANDS">   768</i>
   <i name="NELECT">   1032.00000000</i>
   <i type="int" name="TURBO">     0</i>
   <i type="int" name="IRESTART">     0</i>
   <i type="int" name="NREBOOT">     0</i>
   <i type="int" name="NMIN">     0</i>
   <i name="EREF">      0.00000000</i>
   <separator name="electronic smearing" >
    <i type="int" name="ISMEAR">     0</i>
    <i name="SIGMA">      0.05000000</i>
    <i name="KSPACING">      0.50000000</i>
    <i type="logical" name="KGAMMA"> T  </i>
   </separator>
   <separator name="electronic projectors" >
    <i type="logical" name="LREAL"> T  </i>
    <v name="ROPT">     -0.00050000     -0.00050000     -0.00050000     -0.00050000</v>
    <i type="int" name="LMAXPAW">  -100</i>
    <i type="int" name="LMAXMIX">     4</i>
    <i type="logical" name="NLSPLINE"> F  </i>
   </separator>
   <separator name="electronic startup" >
    <i type="int" name="ISTART">     1</i>
    <i type="int" name="ICHARG">     0</i>
    <i type="int" name="INIWAV">     1</i>
   </separator>
   <separator name="electronic spin" >
    <i type="int" name="ISPIN">     2</i>
    <i type="logical" name="LNONCOLLINEAR"> F  </i>
    <v name="MAGMOM">      0.60000000      0.60000000      0.60000000      0.60000000      0.60000000      0.60000000      0.60000000      0.60000000      0.60000000      0.60000000      0.60000000      0.60000000      0.60000000      0.60000000      0.60000000      0.60000000      0.60000000      0.60000000      0.60000000      0.60000000
      0.60000000      0.60000000      0.60000000      0.60000000      0.60000000      0.60000000      0.60000000      0.60000000      0.60000000      0.60000000      0.60000000      0.60000000      0.60000000      0.60000000      0.60000000      0.60000000      0.60000000      0.60000000      0.60000000      0.60000000
      0.60000000      0.60000000      0.60000000      0.60000000      0.60000000      0.60000000      0.60000000      0.60000000      0.60000000      0.60000000      0.60000000      0.60000000      0.60000000      0.60000000      0.60000000      0.60000000      5.00000000      5.00000000      5.00000000      5.00000000
      5.00000000      5.00000000      5.00000000      5.00000000      0.60000000      0.60000000      0.60000000      0.60000000      0.60000000      0.60000000      0.60000000      0.60000000      0.60000000      0.60000000      0.60000000      0.60000000      0.60000000      0.60000000      0.60000000      0.60000000
      0.60000000      0.60000000      0.60000000      0.60000000      0.60000000      0.60000000      0.60000000      0.60000000      0.60000000      0.60000000      0.60000000      0.60000000      0.60000000      0.60000000      0.60000000      0.60000000      0.60000000      0.60000000      0.60000000      0.60000000
      0.60000000      0.60000000      0.60000000      0.60000000      0.60000000      0.60000000      0.60000000      0.60000000      0.60000000      0.60000000      0.60000000      0.60000000      0.60000000      0.60000000      0.60000000      0.60000000      0.60000000      0.60000000      0.60000000      0.60000000
      0.60000000      0.60000000      0.60000000      0.60000000      0.60000000      0.60000000      0.60000000      0.60000000      0.60000000      0.60000000      0.60000000      0.60000000      0.60000000      0.60000000      0.60000000      0.60000000      0.60000000      0.60000000      0.60000000      0.60000000
      0.60000000      0.60000000      0.60000000      0.60000000      0.60000000      0.60000000      0.60000000      0.60000000      0.60000000      0.60000000      0.60000000      0.60000000      0.60000000      0.60000000      0.60000000      0.60000000</v>
    <i name="NUPDOWN">     -1.00000000</i>
    <i type="logical" name="LSORBIT"> F  </i>
    <v name="SAXIS">      0.00000000      0.00000000      1.00000000</v>
    <i type="logical" name="LSPIRAL"> F  </i>
    <v name="QSPIRAL">      0.00000000      0.00000000      0.00000000</v>
    <i type="logical" name="LZEROZ"> F  </i>
   </separator>
   <separator name="electronic exchange-correlation" >
    <i type="logical" name="LASPH"> F  </i>
    <i type="logical" name="LMETAGGA"> F  </i>
   </separator>
   <separator name="electronic convergence" >
    <i type="int" name="NELM">    40</i>
    <i type="int" name="NELMDL">     0</i>
    <i type="int" name="NELMIN">     8</i>
    <i name="ENINI">    520.00000000</i>
    <separator name="electronic convergence detail" >
     <i type="logical" name="LDIAG"> T  </i>
     <i type="logical" name="LSUBROT"> F  </i>
     <i name="WEIMIN">      0.00100000</i>
     <i name="EBREAK">      0.00000003</i>
     <i name="DEPER">      0.30000000</i>
     <i type="int" name="NRMM">     4</i>
     <i name="TIME">      0.40000000</i>
    </separator>
   </separator>
   <separator name="electronic mixer" >
    <i name="AMIX">      0.40000000</i>
    <i name="BMIX">      1.00000000</i>
    <i name="AMIN">      0.10000000</i>
    <i name="AMIX_MAG">      1.60000000</i>
    <i name="BMIX_MAG">      1.00000000</i>
    <separator name="electronic mixer details" >
     <i type="int" name="IMIX">     4</i>
     <i type="logical" name="MIXFIRST"> F  </i>
     <i type="int" name="MAXMIX">   -45</i>
     <i name="WC">    100.00000000</i>
     <i type="int" name="INIMIX">     1</i>
     <i type="int" name="MIXPRE">     1</i>
     <i type="int" name="MREMOVE">     5</i>
    </separator>
   </separator>
   <separator name="electronic dipolcorrection" >
    <i type="logical" name="LDIPOL"> F  </i>
    <i type="logical" name="LMONO"> F  </i>
    <i type="int" name="IDIPOL">     0</i>
    <i name="EPSILON">      1.00000000</i>
    <v name="DIPOL">   -100.00000000   -100.00000000   -100.00000000</v>
    <i name="EFIELD">      0.00000000</i>
   </separator>
  </separator>
  <separator name="grids" >
   <i type="int" name="NGX">    64</i>
   <i type="int" name="NGY">    64</i>
   <i type="int" name="NGZ">    90</i>
   <i type="int" name="NGXF">   128</i>
   <i type="int" name="NGYF">   128</i>
   <i type="int" name="NGZF">   180</i>
   <i type="logical" name="ADDGRID"> F  </i>
  </separator>
  <separator name="ionic" >
   <i type="int" name="NSW">    30</i>
   <i type="int" name="IBRION">     2</i>
   <i type="int" name="ISIF">     3</i>
   <i name="PSTRESS">      0.00000000</i>
   <i name="EDIFFG">     -0.03000000</i>
   <i type="int" name="NFREE">     1</i>
   <i name="POTIM">      0.50000000</i>
   <i name="SMASS">     -3.00000000</i>
   <i name="SCALEE">      1.00000000</i>
  </separator>
  <separator name="ionic md" >
   <i name="TEBEG">      0.00010000</i>
   <i name="TEEND">      0.00010000</i>
   <i type="int" name="NBLOCK">     1</i>
   <i type="int" name="KBLOCK">    30</i>
   <i type="int" name="NPACO">   256</i>
   <i name="APACO">     16.00000000</i>
  </separator>
  <separator name="symmetry" >
   <i type="int" name="ISYM">     2</i>
   <i name="SYMPREC">      0.00001000</i>
  </separator>
  <separator name="dos" >
   <i type="logical" name="LORBIT"> F  </i>
   <v name="RWIGS">     -1.00000000     -1.00000000     -1.00000000     -1.00000000</v>
   <i type="int" name="NEDOS">   301</i>
   <i name="EMIN">     10.00000000</i>
   <i name="EMAX">    -10.00000000</i>
   <i name="EFERMI">      0.00000000</i>
  </separator>
  <separator name="writing" >
   <i type="int" name="NWRITE">     2</i>
   <i type="logical" name="LWAVE"> T  </i>
   <i type="logical" name="LCHARG"> T  </i>
   <i type="logical" name="LPARD"> F  </i>
   <i type="logical" name="LVTOT"> F  </i>
   <i type="logical" name="LVHAR"> F  </i>
   <i type="logical" name="LELF"> F  </i>
   <i type="logical" name="LOPTICS"> F  </i>
   <v name="STM">      0.00000000      0.00000000      0.00000000      0.00000000      0.00000000      0.00000000      0.00000000</v>
  </separator>
  <separator name="performance" >
   <i type="int" name="NPAR">     2</i>
   <i type="int" name="NSIM">     4</i>
   <i type="int" name="NBLK">    -1</i>
   <i type="logical" name="LPLANE"> T  </i>
   <i type="logical" name="LSCALAPACK"> T  </i>
   <i type="logical" name="LSCAAWARE"> F  </i>
   <i type="logical" name="LSCALU"> F  </i>
   <i type="logical" name="LASYNC"> F  </i>
   <i type="logical" name="LORBITALREAL"> F  </i>
  </separator>
  <separator name="miscellaneous" >
   <i type="int" name="IDIOT">     3</i>
   <i type="logical" name="LMUSIC"> F  </i>
   <v name="POMASS">     87.62000000     47.88000000     55.84700000     16.00000000</v>
   <v name="DARWINR">      0.00000000      0.00000000      0.00000000      0.00000000</v>
   <v name="DARWINV">      1.00000000      1.00000000      1.00000000      1.00000000</v>
   <i type="logical" name="LCORR"> T  </i>
  </separator>
  <i type="logical" name="GGA_COMPAT"> T  </i>
  <i type="logical" name="LBERRY"> F  </i>
  <i type="int" name="ICORELEVEL">     0</i>
  <i type="logical" name="LDAU"> T  </i>
  <v type="int" name="LDAUTYPE">     2</v>
  <v type="int" name="LDAUL">     0</v>
  <v name="LDAUU">      0.00000000</v>
  <v name="LDAUJ">      0.00000000</v>
  <i type="int" name="LDAUPRINT">     1</i>
  <i type="int" name="I_CONSTRAINED_M">     0</i>
  <separator name="electronic exchange-correlation" >
   <i type="string" name="GGA">--</i>
   <i type="int" name="VOSKOWN">     0</i>
   <i type="logical" name="LHFCALC"> F  </i>
   <i type="string" name="PRECFOCK"></i>
   <i type="logical" name="LSYMGRAD"> F  </i>
   <i type="logical" name="LHFONE"> F  </i>
   <i type="logical" name="LRHFCALC"> F  </i>
   <i type="logical" name="LTHOMAS"> F  </i>
   <i type="logical" name="LMODELHF"> F  </i>
   <i name="ENCUT4O">     -1.00000000</i>
   <i type="int" name="EXXOEP">     0</i>
   <i type="int" name="FOURORBIT">     0</i>
   <i name="AEXX">      0.00000000</i>
   <i name="HFALPHA">      0.00000000</i>
   <i name="MCALPHA">      0.00000000</i>
   <i name="ALDAX">      1.00000000</i>
   <i name="AGGAX">      1.00000000</i>
   <i name="ALDAC">      1.00000000</i>
   <i name="AGGAC">      1.00000000</i>
   <i type="int" name="NKREDX">     1</i>
   <i type="int" name="NKREDY">     1</i>
   <i type="int" name="NKREDZ">     1</i>
   <i type="logical" name="SHIFTRED"> F  </i>
   <i type="logical" name="ODDONLY"> F  </i>
   <i type="logical" name="EVENONLY"> F  </i>
   <i type="int" name="LMAXFOCK">     0</i>
   <i type="int" name="NMAXFOCKAE">     0</i>
   <i type="logical" name="LFOCKAEDFT"> F  </i>
   <i name="HFSCREEN">      0.00000000</i>
   <i name="HFSCREENC">      0.00000000</i>
   <i type="int" name="NBANDSGWLOW">     0</i>
  </separator>
  <separator name="vdW DFT" >
   <i type="logical" name="LUSE_VDW"> F  </i>
   <i name="Zab_VDW">     -0.84910000</i>
   <i name="PARAM1">      0.12340000</i>
   <i name="PARAM2">      1.00000000</i>
   <i name="PARAM3">      0.00000000</i>
  </separator>
  <separator name="model GW" >
   <i type="int" name="MODEL_GW">     0</i>
   <i name="MODEL_EPS0">      7.71537893</i>
   <i name="MODEL_ALPHA">      1.00000000</i>
  </separator>
  <separator name="linear response parameters" >
   <i type="logical" name="LEPSILON"> F  </i>
   <i type="logical" name="LRPA"> F  </i>
   <i type="logical" name="LNABLA"> F  </i>
   <i type="logical" name="LVEL"> F  </i>
   <i type="int" name="KINTER">     0</i>
   <i name="CSHIFT">      0.10000000</i>
   <i name="OMEGAMAX">     -1.00000000</i>
   <i name="DEG_THRESHOLD">      0.00200000</i>
  </separator>
  <separator name="orbital magnetization" >
   <i type="logical" name="NUCIND"> F  </i>
   <v name="MAGPOS">      0.00000000      0.00000000      0.00000000</v>
   <i type="logical" name="LNICSALL"> T  </i>
   <i type="logical" name="ORBITALMAG"> F  </i>
   <i type="logical" name="LMAGBLOCH"> F  </i>
   <i type="logical" name="LCHIMAG"> F  </i>
   <i type="logical" name="LGAUGE"> T  </i>
   <i type="int" name="MAGATOM">     0</i>
   <v name="MAGDIPOL">      0.00000000      0.00000000      0.00000000</v>
   <v name="AVECCONST">      0.00000000      0.00000000      0.00000000</v>
  </separator>
  <separator name="response functions" >
   <i type="logical" name="LADDER"> F  </i>
   <i type="logical" name="LFXC"> F  </i>
   <i type="logical" name="LHARTREE"> T  </i>
   <i type="int" name="IBSE">     0</i>
   <v type="int" name="KPOINT">    -1     0     0     0</v>
   <i type="logical" name="LTCTE"> F  </i>
   <i type="logical" name="LTETE"> F  </i>
   <i type="logical" name="LTRIPLET"> F  </i>
   <i type="logical" name="LFXCEPS"> F  </i>
   <i type="logical" name="LFXHEG"> F  </i>
   <i type="int" name="NATURALO">     0</i>
   <i type="logical" name="L2ORDER"> F  </i>
   <i type="logical" name="LUSEW"> F  </i>
   <i name="ENCUTGW">     -2.00000000</i>
   <i name="ENCUTGWSOFT">     -2.00000000</i>
   <i name="ENCUTLF">     -1.00000000</i>
   <i type="int" name="LMAXMP2">    -1</i>
   <i name="SCISSOR">      0.00000000</i>
   <i type="int" name="NOMEGA">     0</i>
   <i type="int" name="NOMEGAR">     0</i>
   <i type="int" name="NBANDSGW">    -1</i>
   <i type="int" name="NBANDSO">    -1</i>
   <i type="int" name="NBANDSV">    -1</i>
   <i type="int" name="NELM">    40</i>
   <i type="int" name="NELMHF">     1</i>
   <i type="int" name="DIM">     3</i>
   <i type="int" name="ANTIRES">     0</i>
   <i name="OMEGAMAX">    -30.00000000</i>
   <i name="OMEGAMIN">    -30.00000000</i>
   <i name="OMEGATL">   -200.00000000</i>
   <i type="int" name="OMEGAGRID">     0</i>
   <i name="CSHIFT">     -0.10000000</i>
   <i type="logical" name="SELFENERGY"> F  </i>
   <i type="logical" name="LSPECTRAL"> F  </i>
   <i type="logical" name="LSPECTRALGW"> F  </i>
   <i type="logical" name="LSINGLES"> F  </i>
   <i type="logical" name="LFERMIGW"> F  </i>
   <i type="logical" name="ODDONLYGW"> F  </i>
   <i type="logical" name="EVENONLYGW"> F  </i>
   <i type="int" name="NKREDLFX">     1</i>
   <i type="int" name="NKREDLFY">     1</i>
   <i type="int" name="NKREDLFZ">     1</i>
   <i type="int" name="MAXMEM">  1800</i>
   <i type="int" name="TELESCOPE">     0</i>
   <i type="int" name="TAUPAR">     1</i>
   <i type="int" name="OMEGAPAR">    -1</i>
   <i name="LAMBDA">      1.00000000</i>
  </separator>
  <separator name="External order field" >
   <i name="OFIELD_KAPPA">      0.00000000</i>
   <v name="OFIELD_K">      0.00000000      0.00000000      0.00000000</v>
   <i name="OFIELD_Q6_NEAR">      0.00000000</i>
   <i name="OFIELD_Q6_FAR">      0.00000000</i>
   <i name="OFIELD_A">      0.00000000</i>
  </separator>
 </parameters>
 <atominfo>
  <atoms>     156 </atoms>
  <types>       4 </types>
  <array name="atoms" >
   <dimension dim="1">ion</dimension>
   <field type="string">element</field>
   <field type="int">atomtype</field>
   <set>
    <rc><c>Sr</c><c>   1</c></rc>
    <rc><c>Sr</c><c>   1</c></rc>
    <rc><c>Sr</c><c>   1</c></rc>
    <rc><c>Sr</c><c>   1</c></rc>
    <rc><c>Sr</c><c>   1</c></rc>
    <rc><c>Sr</c><c>   1</c></rc>
    <rc><c>Sr</c><c>   1</c></rc>
    <rc><c>Sr</c><c>   1</c></rc>
    <rc><c>Sr</c><c>   1</c></rc>
    <rc><c>Sr</c><c>   1</c></rc>
    <rc><c>Sr</c><c>   1</c></rc>
    <rc><c>Sr</c><c>   1</c></rc>
    <rc><c>Sr</c><c>   1</c></rc>
    <rc><c>Sr</c><c>   1</c></rc>
    <rc><c>Sr</c><c>   1</c></rc>
    <rc><c>Sr</c><c>   1</c></rc>
    <rc><c>Sr</c><c>   1</c></rc>
    <rc><c>Sr</c><c>   1</c></rc>
    <rc><c>Sr</c><c>   1</c></rc>
    <rc><c>Sr</c><c>   1</c></rc>
    <rc><c>Sr</c><c>   1</c></rc>
    <rc><c>Sr</c><c>   1</c></rc>
    <rc><c>Sr</c><c>   1</c></rc>
    <rc><c>Sr</c><c>   1</c></rc>
    <rc><c>Sr</c><c>   1</c></rc>
    <rc><c>Sr</c><c>   1</c></rc>
    <rc><c>Sr</c><c>   1</c></rc>
    <rc><c>Sr</c><c>   1</c></rc>
    <rc><c>Sr</c><c>   1</c></rc>
    <rc><c>Sr</c><c>   1</c></rc>
    <rc><c>Sr</c><c>   1</c></rc>
    <rc><c>Sr</c><c>   1</c></rc>
    <rc><c>Ti</c><c>   2</c></rc>
    <rc><c>Ti</c><c>   2</c></rc>
    <rc><c>Ti</c><c>   2</c></rc>
    <rc><c>Ti</c><c>   2</c></rc>
    <rc><c>Ti</c><c>   2</c></rc>
    <rc><c>Ti</c><c>   2</c></rc>
    <rc><c>Ti</c><c>   2</c></rc>
    <rc><c>Ti</c><c>   2</c></rc>
    <rc><c>Ti</c><c>   2</c></rc>
    <rc><c>Ti</c><c>   2</c></rc>
    <rc><c>Ti</c><c>   2</c></rc>
    <rc><c>Ti</c><c>   2</c></rc>
    <rc><c>Ti</c><c>   2</c></rc>
    <rc><c>Ti</c><c>   2</c></rc>
    <rc><c>Ti</c><c>   2</c></rc>
    <rc><c>Ti</c><c>   2</c></rc>
    <rc><c>Ti</c><c>   2</c></rc>
    <rc><c>Ti</c><c>   2</c></rc>
    <rc><c>Ti</c><c>   2</c></rc>
    <rc><c>Ti</c><c>   2</c></rc>
    <rc><c>Ti</c><c>   2</c></rc>
    <rc><c>Ti</c><c>   2</c></rc>
    <rc><c>Ti</c><c>   2</c></rc>
    <rc><c>Ti</c><c>   2</c></rc>
    <rc><c>Fe</c><c>   3</c></rc>
    <rc><c>Fe</c><c>   3</c></rc>
    <rc><c>Fe</c><c>   3</c></rc>
    <rc><c>Fe</c><c>   3</c></rc>
    <rc><c>Fe</c><c>   3</c></rc>
    <rc><c>Fe</c><c>   3</c></rc>
    <rc><c>Fe</c><c>   3</c></rc>
    <rc><c>Fe</c><c>   3</c></rc>
    <rc><c>O </c><c>   4</c></rc>
    <rc><c>O </c><c>   4</c></rc>
    <rc><c>O </c><c>   4</c></rc>
    <rc><c>O </c><c>   4</c></rc>
    <rc><c>O </c><c>   4</c></rc>
    <rc><c>O </c><c>   4</c></rc>
    <rc><c>O </c><c>   4</c></rc>
    <rc><c>O </c><c>   4</c></rc>
    <rc><c>O </c><c>   4</c></rc>
    <rc><c>O </c><c>   4</c></rc>
    <rc><c>O </c><c>   4</c></rc>
    <rc><c>O </c><c>   4</c></rc>
    <rc><c>O </c><c>   4</c></rc>
    <rc><c>O </c><c>   4</c></rc>
    <rc><c>O </c><c>   4</c></rc>
    <rc><c>O </c><c>   4</c></rc>
    <rc><c>O </c><c>   4</c></rc>
    <rc><c>O </c><c>   4</c></rc>
    <rc><c>O </c><c>   4</c></rc>
    <rc><c>O </c><c>   4</c></rc>
    <rc><c>O </c><c>   4</c></rc>
    <rc><c>O </c><c>   4</c></rc>
    <rc><c>O </c><c>   4</c></rc>
    <rc><c>O </c><c>   4</c></rc>
    <rc><c>O </c><c>   4</c></rc>
    <rc><c>O </c><c>   4</c></rc>
    <rc><c>O </c><c>   4</c></rc>
    <rc><c>O </c><c>   4</c></rc>
    <rc><c>O </c><c>   4</c></rc>
    <rc><c>O </c><c>   4</c></rc>
    <rc><c>O </c><c>   4</c></rc>
    <rc><c>O </c><c>   4</c></rc>
    <rc><c>O </c><c>   4</c></rc>
    <rc><c>O </c><c>   4</c></rc>
    <rc><c>O </c><c>   4</c></rc>
    <rc><c>O </c><c>   4</c></rc>
    <rc><c>O </c><c>   4</c></rc>
    <rc><c>O </c><c>   4</c></rc>
    <rc><c>O </c><c>   4</c></rc>
    <rc><c>O </c><c>   4</c></rc>
    <rc><c>O </c><c>   4</c></rc>
    <rc><c>O </c><c>   4</c></rc>
    <rc><c>O </c><c>   4</c></rc>
    <rc><c>O </c><c>   4</c></rc>
    <rc><c>O </c><c>   4</c></rc>
    <rc><c>O </c><c>   4</c></rc>
    <rc><c>O </c><c>   4</c></rc>
    <rc><c>O </c><c>   4</c></rc>
    <rc><c>O </c><c>   4</c></rc>
    <rc><c>O </c><c>   4</c></rc>
    <rc><c>O </c><c>   4</c></rc>
    <rc><c>O </c><c>   4</c></rc>
    <rc><c>O </c><c>   4</c></rc>
    <rc><c>O </c><c>   4</c></rc>
    <rc><c>O </c><c>   4</c></rc>
    <rc><c>O </c><c>   4</c></rc>
    <rc><c>O </c><c>   4</c></rc>
    <rc><c>O </c><c>   4</c></rc>
    <rc><c>O </c><c>   4</c></rc>
    <rc><c>O </c><c>   4</c></rc>
    <rc><c>O </c><c>   4</c></rc>
    <rc><c>O </c><c>   4</c></rc>
    <rc><c>O </c><c>   4</c></rc>
    <rc><c>O </c><c>   4</c></rc>
    <rc><c>O </c><c>   4</c></rc>
    <rc><c>O </c><c>   4</c></rc>
    <rc><c>O </c><c>   4</c></rc>
    <rc><c>O </c><c>   4</c></rc>
    <rc><c>O </c><c>   4</c></rc>
    <rc><c>O </c><c>   4</c></rc>
    <rc><c>O </c><c>   4</c></rc>
    <rc><c>O </c><c>   4</c></rc>
    <rc><c>O </c><c>   4</c></rc>
    <rc><c>O </c><c>   4</c></rc>
    <rc><c>O </c><c>   4</c></rc>
    <rc><c>O </c><c>   4</c></rc>
    <rc><c>O </c><c>   4</c></rc>
    <rc><c>O </c><c>   4</c></rc>
    <rc><c>O </c><c>   4</c></rc>
    <rc><c>O </c><c>   4</c></rc>
    <rc><c>O </c><c>   4</c></rc>
    <rc><c>O </c><c>   4</c></rc>
    <rc><c>O </c><c>   4</c></rc>
    <rc><c>O </c><c>   4</c></rc>
    <rc><c>O </c><c>   4</c></rc>
    <rc><c>O </c><c>   4</c></rc>
    <rc><c>O </c><c>   4</c></rc>
    <rc><c>O </c><c>   4</c></rc>
    <rc><c>O </c><c>   4</c></rc>
    <rc><c>O </c><c>   4</c></rc>
    <rc><c>O </c><c>   4</c></rc>
    <rc><c>O </c><c>   4</c></rc>
   </set>
  </array>
  <array name="atomtypes" >
   <dimension dim="1">type</dimension>
   <field type="int">atomspertype</field>
   <field type="string">element</field>
   <field>mass</field>
   <field>valence</field>
   <field type="string">pseudopotential</field>
   <set>
    <rc><c>  32</c><c>Sr</c><c>     87.62000000</c><c>     10.00000000</c><c>  PAW_PBE Sr_sv 07Sep2000               </c></rc>
    <rc><c>  24</c><c>Ti</c><c>     47.88000000</c><c>      4.00000000</c><c>  PAW_PBE Ti 08Apr2002                  </c></rc>
    <rc><c>   8</c><c>Fe</c><c>     55.84700000</c><c>      8.00000000</c><c>  PAW_PBE Fe 06Sep2000                  </c></rc>
    <rc><c>  92</c><c>O </c><c>     16.00000000</c><c>      6.00000000</c><c>  PAW_PBE O 08Apr2002                   </c></rc>
   </set>
  </array>
 </atominfo>
 <structure name="initialpos" >
  <crystal>
   <varray name="basis" >
    <v>      11.21907404      -0.00571541       0.00681276 </v>
    <v>      -0.00565470      11.23720192       0.00246364 </v>
    <v>       0.00969118       0.00342834      15.91166777 </v>
   </varray>
   <i name="volume">   2005.99852281 </i>
   <varray name="rec_basis" >
    <v>       0.08913397       0.00004487      -0.00005430 </v>
    <v>       0.00004535       0.08899015      -0.00001920 </v>
    <v>      -0.00003817      -0.00001380       0.06284699 </v>
   </varray>
  </crystal>
  <varray name="positions" >
   <v>       0.00907904       0.24878323       0.11774465 </v>
   <v>       0.99678645       0.24504848       0.62942084 </v>
   <v>       0.00109965       0.75487032       0.11729602 </v>
   <v>       0.99950148       0.75686641       0.63154176 </v>
   <v>       0.49084930       0.25112833       0.12123174 </v>
   <v>       0.50098887       0.25211861       0.62744867 </v>
   <v>       0.50456895       0.75149631       0.12286066 </v>
   <v>       0.49659481       0.74941339       0.62612364 </v>
   <v>       0.00257870       0.23309420       0.37413721 </v>
   <v>       0.00320771       0.25062352       0.87622613 </v>
   <v>       0.00070071       0.75636624       0.37709816 </v>
   <v>       0.00008688       0.75005522       0.87588088 </v>
   <v>       0.49646434       0.24894366       0.37862271 </v>
   <v>       0.49693416       0.25201961       0.87634907 </v>
   <v>       0.50164957       0.75037564       0.37539219 </v>
   <v>       0.50082568       0.74973553       0.87661608 </v>
   <v>       0.25017255       0.00231140       0.12135023 </v>
   <v>       0.24775038       0.99423865       0.62703257 </v>
   <v>       0.25409006       0.49801397       0.11719048 </v>
   <v>       0.25174139       0.50145981       0.62913030 </v>
   <v>       0.75238472       0.98580682       0.11984563 </v>
   <v>       0.74918122       0.00055143       0.62681358 </v>
   <v>       0.75244535       0.51050400       0.11653090 </v>
   <v>       0.73981674       0.50180645       0.63027523 </v>
   <v>       0.25000969       0.99901393       0.37743783 </v>
   <v>       0.25118805       0.00177690       0.87529031 </v>
   <v>       0.26248114       0.49818511       0.37073024 </v>
   <v>       0.25122698       0.50037265       0.87733958 </v>
   <v>       0.75163785       0.99015588       0.37802336 </v>
   <v>       0.75009838       0.99886371       0.87758682 </v>
   <v>       0.74033798       0.50841283       0.38368683 </v>
   <v>       0.75015565       0.50293213       0.87591635 </v>
   <v>       0.75054657       0.25157872       0.00335598 </v>
   <v>       0.00032539       0.50017639       0.99779954 </v>
   <v>       0.50073479       0.99878115       0.50025161 </v>
   <v>       0.00256445       0.99471153       0.24844342 </v>
   <v>       0.49693023       0.50220098       0.75158859 </v>
   <v>       0.24912059       0.25094018       0.74964882 </v>
   <v>       0.75110553       0.74488836       0.25062476 </v>
   <v>       0.25128983       0.75070429       0.99834399 </v>
   <v>       0.74804493       0.75217530       0.50232895 </v>
   <v>       0.00182583       0.50185103       0.75181839 </v>
   <v>       0.00037322       0.00071655       0.99950291 </v>
   <v>       0.25005384       0.75465847       0.24835192 </v>
   <v>       0.49785226       0.49864163       0.49964876 </v>
   <v>       0.50189342       0.49926715       0.00219764 </v>
   <v>       0.49860639       0.99783244       0.24981200 </v>
   <v>       0.24757794       0.24863592       0.25258625 </v>
   <v>       0.74957714       0.75039636       0.75217861 </v>
   <v>       0.75445716       0.25309773       0.49682215 </v>
   <v>       0.24925248       0.74666901       0.49919440 </v>
   <v>       0.49990259       0.00177468       0.00078858 </v>
   <v>       0.75072835       0.25016058       0.75335114 </v>
   <v>       0.00071696       0.00020308       0.75159406 </v>
   <v>       0.00049479       0.99940627       0.50069387 </v>
   <v>       0.49959364       0.00027923       0.74956187 </v>
   <v>       0.75117507       0.74950254       0.99842482 </v>
   <v>       0.00966618       0.51490919       0.23825322 </v>
   <v>       0.26083750       0.23969660       0.50285002 </v>
   <v>       0.48681722       0.51025298       0.24841407 </v>
   <v>       0.74490380       0.22205523       0.24726598 </v>
   <v>       0.99115210       0.51139543       0.51279278 </v>
   <v>       0.24929651       0.74882873       0.75103810 </v>
   <v>       0.25000853       0.25039738       0.99793321 </v>
   <v>       0.10528250       0.13882493       0.24672401 </v>
   <v>       0.11139766       0.13824286       0.74630097 </v>
   <v>       0.75683269       0.28449981       0.13702204 </v>
   <v>       0.23964393       0.25027713       0.38017162 </v>
   <v>       0.59609512       0.14699348       0.24744101 </v>
   <v>       0.74909793       0.23525025       0.87699518 </v>
   <v>       0.61595855       0.63130494       0.24957586 </v>
   <v>       0.99496718       0.01350312       0.87510840 </v>
   <v>       0.38293495       0.36224765       0.25642175 </v>
   <v>       0.12811058       0.12015004       0.50224141 </v>
   <v>       0.63267068       0.61523226       0.00223276 </v>
   <v>       0.62663856       0.37288972       0.49745629 </v>
   <v>       0.36749391       0.38570182       0.99866753 </v>
   <v>       0.88771340       0.36119314       0.75617691 </v>
   <v>       0.89569898       0.84990953       0.25197699 </v>
   <v>       0.61360722       0.14081842       0.74264475 </v>
   <v>       0.35300795       0.11022415       0.25026530 </v>
   <v>       0.36302156       0.11433626       0.73661002 </v>
   <v>       0.35526252       0.61307521       0.24362229 </v>
   <v>       0.24569202       0.76321681       0.12500675 </v>
   <v>       0.85861163       0.10089540       0.24941707 </v>
   <v>       0.11246961       0.86020940       0.49885329 </v>
   <v>       0.85950796       0.58528932       0.26193352 </v>
   <v>       0.61589689       0.86810071       0.49395770 </v>
   <v>       0.10298722       0.38703518       0.27618253 </v>
   <v>       0.13821654       0.38834966       0.76079523 </v>
   <v>       0.25515357       0.73972177       0.87664524 </v>
   <v>       0.36356545       0.61102616       0.74578329 </v>
   <v>       0.99802538       0.99583056       0.62436092 </v>
   <v>       0.63903725       0.38786424       0.75346454 </v>
   <v>       0.64187763       0.88914624       0.25290049 </v>
   <v>       0.63889592       0.88984463       0.75619186 </v>
   <v>       0.38937567       0.13289139       0.50693600 </v>
   <v>       0.75245291       0.73955142       0.87301249 </v>
   <v>       0.36672402       0.88505116       0.99519223 </v>
   <v>       0.36399601       0.88427138       0.50102980 </v>
   <v>       0.86479721       0.38402319       0.99301844 </v>
   <v>       0.90187899       0.37749458       0.47841194 </v>
   <v>       0.49594900       0.00361898       0.37485474 </v>
   <v>       0.01136486       0.48061857       0.62644357 </v>
   <v>       0.13170218       0.11626615       0.00467133 </v>
   <v>       0.10847978       0.64726079       0.25156330 </v>
   <v>       0.13452579       0.59180875       0.48424114 </v>
   <v>       0.63572308       0.11870695       0.01369740 </v>
   <v>       0.63757825       0.12365692       0.49183109 </v>
   <v>       0.38889022       0.86602577       0.74949305 </v>
   <v>       0.63151422       0.61989546       0.50324532 </v>
   <v>       0.11551741       0.36779355       0.99091675 </v>
   <v>       0.86122104       0.11293893       0.74373878 </v>
   <v>       0.11591985       0.86647576       0.99274495 </v>
   <v>       0.10896332       0.63773834       0.74742622 </v>
   <v>       0.13525142       0.61587451       0.00538682 </v>
   <v>       0.61582899       0.86934483       0.99725993 </v>
   <v>       0.51302037       0.48185881       0.12922690 </v>
   <v>       0.38420266       0.13355059       0.00815697 </v>
   <v>       0.61189965       0.63831904       0.74516619 </v>
   <v>       0.38524959       0.63316912       0.01115081 </v>
   <v>       0.38555516       0.63384177       0.49769905 </v>
   <v>       0.61692088       0.36428076       0.99493601 </v>
   <v>       0.87986172       0.13148410       0.49344927 </v>
   <v>       0.88643386       0.63293666       0.00540207 </v>
   <v>       0.00147950       0.98798325       0.12527560 </v>
   <v>       0.49772878       0.50754167       0.87539544 </v>
   <v>       0.24349292       0.74493277       0.62062512 </v>
   <v>       0.86177423       0.61139760       0.74051875 </v>
   <v>       0.49651955       0.99085492       0.12712231 </v>
   <v>       0.51255636       0.99409497       0.62287407 </v>
   <v>       0.14534315       0.89518620       0.25359181 </v>
   <v>       0.50175533       0.49364696       0.62389890 </v>
   <v>       0.00186331       0.99752700       0.37474047 </v>
   <v>       0.39327502       0.85821952       0.25278489 </v>
   <v>       0.88825254       0.86238643       0.75325471 </v>
   <v>       0.99537737       0.51356620       0.87458984 </v>
   <v>       0.88142089       0.63405575       0.49952464 </v>
   <v>       0.49999376       0.01627722       0.87465197 </v>
   <v>       0.50864546       0.49568137       0.37207942 </v>
   <v>       0.86710224       0.88573910       0.99664074 </v>
   <v>       0.36429666       0.38579798       0.49655464 </v>
   <v>       0.25722281       0.23663310       0.87190800 </v>
   <v>       0.25223506       0.75061301       0.37457388 </v>
   <v>       0.99864177       0.48285098       0.12369458 </v>
   <v>       0.75214164       0.28106479       0.35832907 </v>
   <v>       0.86485775       0.88467191       0.49855694 </v>
   <v>       0.75072193       0.74862748       0.37582376 </v>
   <v>       0.23987735       0.26732620       0.13116130 </v>
   <v>       0.23318635       0.26990301       0.62152790 </v>
   <v>       0.38855418       0.36191326       0.74994936 </v>
   <v>       0.88239995       0.13607293       0.01114198 </v>
   <v>       0.13584100       0.88955387       0.75310039 </v>
   <v>       0.76001058       0.26312080       0.61862105 </v>
   <v>       0.75438368       0.74959586       0.12871403 </v>
   <v>       0.74781814       0.76008135       0.62469330 </v>
  </varray>
 </structure>
 <calculation>
  <scstep>
   <time name="dav">  301.35  301.37</time>
   <time name="total">  305.03  305.17</time>
   <energy>
    <i name="alphaZ">   5625.80490939 </i>
    <i name="ewald"> -61444.83489702 </i>
    <i name="hartreedc"> -16078.57209037 </i>
    <i name="XCdc">   2963.44386473 </i>
    <i name="pawpsdc"> 112632.57418826 </i>
    <i name="pawaedc">-111533.17701079 </i>
    <i name="eentropy">     -0.00000000 </i>
    <i name="bandstr">  -7070.04864807 </i>
    <i name="atom">  73783.44779670 </i>
    <i name="e_fr_energy">  -1121.36188717 </i>
    <i name="e_wo_entrp">  -1121.36188717 </i>
    <i name="e_0_energy">  -1121.36188717 </i>
   </energy>
  </scstep>
  <scstep>
   <time name="diag">   33.21   33.21</time>
   <time name="diis">   29.09   29.12</time>
   <time name="orth">   18.87   18.88</time>
   <time name="total">   84.89   84.99</time>
   <energy>
    <i name="e_fr_energy">  -1121.36188746 </i>
    <i name="e_wo_entrp">  -1121.36188746 </i>
    <i name="e_0_energy">  -1121.36188746 </i>
   </energy>
  </scstep>
  <scstep>
   <time name="diag">   33.22   33.22</time>
   <time name="diis">   25.85   25.85</time>
   <time name="orth">   18.90   18.90</time>
   <time name="total">   81.68   81.77</time>
   <energy>
    <i name="e_fr_energy">  -1121.36188759 </i>
    <i name="e_wo_entrp">  -1121.36188759 </i>
    <i name="e_0_energy">  -1121.36188759 </i>
   </energy>
  </scstep>
  <scstep>
   <time name="diag">   33.19   33.21</time>
   <time name="diis">   23.19   23.20</time>
   <time name="orth">   18.88   18.88</time>
   <time name="total">   78.98   79.13</time>
   <energy>
    <i name="e_fr_energy">  -1121.36188768 </i>
    <i name="e_wo_entrp">  -1121.36188768 </i>
    <i name="e_0_energy">  -1121.36188768 </i>
   </energy>
  </scstep>
  <scstep>
   <time name="diag">   33.20   33.23</time>
   <time name="diis">   22.29   22.31</time>
   <time name="orth">   18.93   18.93</time>
   <time name="total">   78.15   78.25</time>
   <energy>
    <i name="e_fr_energy">  -1121.36188773 </i>
    <i name="e_wo_entrp">  -1121.36188773 </i>
    <i name="e_0_energy">  -1121.36188773 </i>
   </energy>
  </scstep>
  <scstep>
   <time name="diag">   33.20   33.22</time>
   <time name="diis">   21.74   21.74</time>
   <time name="orth">   18.87   18.87</time>
   <time name="total">   77.53   77.62</time>
   <energy>
    <i name="e_fr_energy">  -1121.36188774 </i>
    <i name="e_wo_entrp">  -1121.36188774 </i>
    <i name="e_0_energy">  -1121.36188774 </i>
   </energy>
  </scstep>
  <scstep>
   <time name="diag">   33.26   33.26</time>
   <time name="diis">   21.59   21.61</time>
   <time name="orth">   18.89   18.90</time>
   <time name="total">   77.48   77.56</time>
   <energy>
    <i name="e_fr_energy">  -1121.36188774 </i>
    <i name="e_wo_entrp">  -1121.36188774 </i>
    <i name="e_0_energy">  -1121.36188774 </i>
   </energy>
  </scstep>
  <scstep>
   <time name="diag">   33.25   33.27</time>
   <time name="diis">   21.39   21.40</time>
   <time name="orth">   18.87   18.86</time>
   <time name="total">   74.08   74.17</time>
   <energy>
    <i name="alphaZ">   5625.80490939 </i>
    <i name="ewald"> -61444.83489702 </i>
    <i name="hartreedc"> -16078.56571785 </i>
    <i name="XCdc">   2963.44361346 </i>
    <i name="pawpsdc"> 112631.87390209 </i>
    <i name="pawaedc">-111532.47251758 </i>
    <i name="eentropy">     -0.00000000 </i>
    <i name="bandstr">  -7070.05897693 </i>
    <i name="atom">  73783.44779670 </i>
    <i name="e_fr_energy">  -1121.36188774 </i>
    <i name="e_wo_entrp">  -1121.36188774 </i>
    <i name="e_0_energy">  -1121.36188774 </i>
   </energy>
  </scstep>
  <structure>
   <crystal>
    <varray name="basis" >
     <v>      11.21907404      -0.00571541       0.00681276 </v>
     <v>      -0.00565470      11.23720192       0.00246364 </v>
     <v>       0.00969118       0.00342834      15.91166777 </v>
    </varray>
    <i name="volume">   2005.99852281 </i>
    <varray name="rec_basis" >
     <v>       0.08913397       0.00004487      -0.00005430 </v>
     <v>       0.00004535       0.08899015      -0.00001920 </v>
     <v>      -0.00003817      -0.00001380       0.06284699 </v>
    </varray>
   </crystal>
   <varray name="positions" >
    <v>       0.00907904       0.24878323       0.11774465 </v>
    <v>       0.99678645       0.24504848       0.62942084 </v>
    <v>       0.00109965       0.75487032       0.11729602 </v>
    <v>       0.99950148       0.75686641       0.63154176 </v>
    <v>       0.49084930       0.25112833       0.12123174 </v>
    <v>       0.50098887       0.25211861       0.62744867 </v>
    <v>       0.50456895       0.75149631       0.12286066 </v>
    <v>       0.49659481       0.74941339       0.62612364 </v>
    <v>       0.00257870       0.23309420       0.37413721 </v>
    <v>       0.00320771       0.25062352       0.87622613 </v>
    <v>       0.00070071       0.75636624       0.37709816 </v>
    <v>       0.00008688       0.75005522       0.87588088 </v>
    <v>       0.49646434       0.24894366       0.37862271 </v>
    <v>       0.49693416       0.25201961       0.87634907 </v>
    <v>       0.50164957       0.75037564       0.37539219 </v>
    <v>       0.50082568       0.74973553       0.87661608 </v>
    <v>       0.25017255       0.00231140       0.12135023 </v>
    <v>       0.24775038       0.99423865       0.62703257 </v>
    <v>       0.25409006       0.49801397       0.11719048 </v>
    <v>       0.25174139       0.50145981       0.62913030 </v>
    <v>       0.75238472       0.98580682       0.11984563 </v>
    <v>       0.74918122       0.00055143       0.62681358 </v>
    <v>       0.75244535       0.51050400       0.11653090 </v>
    <v>       0.73981674       0.50180645       0.63027523 </v>
    <v>       0.25000969       0.99901393       0.37743783 </v>
    <v>       0.25118805       0.00177690       0.87529031 </v>
    <v>       0.26248114       0.49818511       0.37073024 </v>
    <v>       0.25122698       0.50037265       0.87733958 </v>
    <v>       0.75163785       0.99015588       0.37802336 </v>
    <v>       0.75009838       0.99886371       0.87758682 </v>
    <v>       0.74033798       0.50841283       0.38368683 </v>
    <v>       0.75015565       0.50293213       0.87591635 </v>
    <v>       0.75054657       0.25157872       0.00335598 </v>
    <v>       0.00032539       0.50017639       0.99779954 </v>
    <v>       0.50073479       0.99878115       0.50025161 </v>
    <v>       0.00256445       0.99471153       0.24844342 </v>
    <v>       0.49693023       0.50220098       0.75158859 </v>
    <v>       0.24912059       0.25094018       0.74964882 </v>
    <v>       0.75110553       0.74488836       0.25062476 </v>
    <v>       0.25128983       0.75070429       0.99834399 </v>
    <v>       0.74804493       0.75217530       0.50232895 </v>
    <v>       0.00182583       0.50185103       0.75181839 </v>
    <v>       0.00037322       0.00071655       0.99950291 </v>
    <v>       0.25005384       0.75465847       0.24835192 </v>
    <v>       0.49785226       0.49864163       0.49964876 </v>
    <v>       0.50189342       0.49926715       0.00219764 </v>
    <v>       0.49860639       0.99783244       0.24981200 </v>
    <v>       0.24757794       0.24863592       0.25258625 </v>
    <v>       0.74957714       0.75039636       0.75217861 </v>
    <v>       0.75445716       0.25309773       0.49682215 </v>
    <v>       0.24925248       0.74666901       0.49919440 </v>
    <v>       0.49990259       0.00177468       0.00078858 </v>
    <v>       0.75072835       0.25016058       0.75335114 </v>
    <v>       0.00071696       0.00020308       0.75159406 </v>
    <v>       0.00049479       0.99940627       0.50069387 </v>
    <v>       0.49959364       0.00027923       0.74956187 </v>
    <v>       0.75117507       0.74950254       0.99842482 </v>
    <v>       0.00966618       0.51490919       0.23825322 </v>
    <v>       0.26083750       0.23969660       0.50285002 </v>
    <v>       0.48681722       0.51025298       0.24841407 </v>
    <v>       0.74490380       0.22205523       0.24726598 </v>
    <v>       0.99115210       0.51139543       0.51279278 </v>
    <v>       0.24929651       0.74882873       0.75103810 </v>
    <v>       0.25000853       0.25039738       0.99793321 </v>
    <v>       0.10528250       0.13882493       0.24672401 </v>
    <v>       0.11139766       0.13824286       0.74630097 </v>
    <v>       0.75683269       0.28449981       0.13702204 </v>
    <v>       0.23964393       0.25027713       0.38017162 </v>
    <v>       0.59609512       0.14699348       0.24744101 </v>
    <v>       0.74909793       0.23525025       0.87699518 </v>
    <v>       0.61595855       0.63130494       0.24957586 </v>
    <v>       0.99496718       0.01350312       0.87510840 </v>
    <v>       0.38293495       0.36224765       0.25642175 </v>
    <v>       0.12811058       0.12015004       0.50224141 </v>
    <v>       0.63267068       0.61523226       0.00223276 </v>
    <v>       0.62663856       0.37288972       0.49745629 </v>
    <v>       0.36749391       0.38570182       0.99866753 </v>
    <v>       0.88771340       0.36119314       0.75617691 </v>
    <v>       0.89569898       0.84990953       0.25197699 </v>
    <v>       0.61360722       0.14081842       0.74264475 </v>
    <v>       0.35300795       0.11022415       0.25026530 </v>
    <v>       0.36302156       0.11433626       0.73661002 </v>
    <v>       0.35526252       0.61307521       0.24362229 </v>
    <v>       0.24569202       0.76321681       0.12500675 </v>
    <v>       0.85861163       0.10089540       0.24941707 </v>
    <v>       0.11246961       0.86020940       0.49885329 </v>
    <v>       0.85950796       0.58528932       0.26193352 </v>
    <v>       0.61589689       0.86810071       0.49395770 </v>
    <v>       0.10298722       0.38703518       0.27618253 </v>
    <v>       0.13821654       0.38834966       0.76079523 </v>
    <v>       0.25515357       0.73972177       0.87664524 </v>
    <v>       0.36356545       0.61102616       0.74578329 </v>
    <v>       0.99802538       0.99583056       0.62436092 </v>
    <v>       0.63903725       0.38786424       0.75346454 </v>
    <v>       0.64187763       0.88914624       0.25290049 </v>
    <v>       0.63889592       0.88984463       0.75619186 </v>
    <v>       0.38937567       0.13289139       0.50693600 </v>
    <v>       0.75245291       0.73955142       0.87301249 </v>
    <v>       0.36672402       0.88505116       0.99519223 </v>
    <v>       0.36399601       0.88427138       0.50102980 </v>
    <v>       0.86479721       0.38402319       0.99301844 </v>
    <v>       0.90187899       0.37749458       0.47841194 </v>
    <v>       0.49594900       0.00361898       0.37485474 </v>
    <v>       0.01136486       0.48061857       0.62644357 </v>
    <v>       0.13170218       0.11626615       0.00467133 </v>
    <v>       0.10847978       0.64726079       0.25156330 </v>
    <v>       0.13452579       0.59180875       0.48424114 </v>
    <v>       0.63572308       0.11870695       0.01369740 </v>
    <v>       0.63757825       0.12365692       0.49183109 </v>
    <v>       0.38889022       0.86602577       0.74949305 </v>
    <v>       0.63151422       0.61989546       0.50324532 </v>
    <v>       0.11551741       0.36779355       0.99091675 </v>
    <v>       0.86122104       0.11293893       0.74373878 </v>
    <v>       0.11591985       0.86647576       0.99274495 </v>
    <v>       0.10896332       0.63773834       0.74742622 </v>
    <v>       0.13525142       0.61587451       0.00538682 </v>
    <v>       0.61582899       0.86934483       0.99725993 </v>
    <v>       0.51302037       0.48185881       0.12922690 </v>
    <v>       0.38420266       0.13355059       0.00815697 </v>
    <v>       0.61189965       0.63831904       0.74516619 </v>
    <v>       0.38524959       0.63316912       0.01115081 </v>
    <v>       0.38555516       0.63384177       0.49769905 </v>
    <v>       0.61692088       0.36428076       0.99493601 </v>
    <v>       0.87986172       0.13148410       0.49344927 </v>
    <v>       0.88643386       0.63293666       0.00540207 </v>
    <v>       0.00147950       0.98798325       0.12527560 </v>
    <v>       0.49772878       0.50754167       0.87539544 </v>
    <v>       0.24349292       0.74493277       0.62062512 </v>
    <v>       0.86177423       0.61139760       0.74051875 </v>
    <v>       0.49651955       0.99085492       0.12712231 </v>
    <v>       0.51255636       0.99409497       0.62287407 </v>
    <v>       0.14534315       0.89518620       0.25359181 </v>
    <v>       0.50175533       0.49364696       0.62389890 </v>
    <v>       0.00186331       0.99752700       0.37474047 </v>
    <v>       0.39327502       0.85821952       0.25278489 </v>
    <v>       0.88825254       0.86238643       0.75325471 </v>
    <v>       0.99537737       0.51356620       0.87458984 </v>
    <v>       0.88142089       0.63405575       0.49952464 </v>
    <v>       0.49999376       0.01627722       0.87465197 </v>
    <v>       0.50864546       0.49568137       0.37207942 </v>
    <v>       0.86710224       0.88573910       0.99664074 </v>
    <v>       0.36429666       0.38579798       0.49655464 </v>
    <v>       0.25722281       0.23663310       0.87190800 </v>
    <v>       0.25223506       0.75061301       0.37457388 </v>
    <v>       0.99864177       0.48285098       0.12369458 </v>
    <v>       0.75214164       0.28106479       0.35832907 </v>
    <v>       0.86485775       0.88467191       0.49855694 </v>
    <v>       0.75072193       0.74862748       0.37582376 </v>
    <v>       0.23987735       0.26732620       0.13116130 </v>
    <v>       0.23318635       0.26990301       0.62152790 </v>
    <v>       0.38855418       0.36191326       0.74994936 </v>
    <v>       0.88239995       0.13607293       0.01114198 </v>
    <v>       0.13584100       0.88955387       0.75310039 </v>
    <v>       0.76001058       0.26312080       0.61862105 </v>
    <v>       0.75438368       0.74959586       0.12871403 </v>
    <v>       0.74781814       0.76008135       0.62469330 </v>
   </varray>
  </structure>
  <varray name="forces" >
   <v>       0.01443478       0.00220187      -0.00155758 </v>
   <v>       0.00720540       0.00123067       0.00095964 </v>
   <v>       0.00034504      -0.00015778      -0.00589211 </v>
   <v>      -0.00153721       0.00546965      -0.00139634 </v>
   <v>      -0.00379877       0.00380570       0.00056975 </v>
   <v>      -0.00382571      -0.00789879      -0.00614135 </v>
   <v>       0.00466445       0.00258229       0.00190037 </v>
   <v>      -0.01085297       0.01233246       0.00077502 </v>
   <v>       0.01450195      -0.02966871       0.01237055 </v>
   <v>       0.00135604       0.00999469      -0.01530212 </v>
   <v>       0.00318932       0.00052332       0.00828436 </v>
   <v>      -0.00524460      -0.01770509      -0.00495721 </v>
   <v>      -0.00615344       0.00351698       0.01254104 </v>
   <v>       0.00139563       0.00470477       0.00214568 </v>
   <v>      -0.01336377      -0.00788329      -0.00680960 </v>
   <v>      -0.00521548       0.00296656      -0.00562449 </v>
   <v>       0.00743564       0.01133293       0.00558638 </v>
   <v>       0.00419141       0.00822650       0.00088117 </v>
   <v>      -0.00251982      -0.00487996       0.00960485 </v>
   <v>       0.00055946      -0.00026589       0.00157440 </v>
   <v>      -0.02028449       0.01224309       0.00294405 </v>
   <v>      -0.00233618      -0.00106193      -0.01060823 </v>
   <v>      -0.00560684       0.02497606       0.01068583 </v>
   <v>       0.00517823      -0.00337585      -0.00916176 </v>
   <v>       0.01401675      -0.00483809      -0.01024499 </v>
   <v>      -0.00199451       0.00032591      -0.00499674 </v>
   <v>      -0.00438014       0.00354557      -0.00231998 </v>
   <v>      -0.00271052       0.00274474      -0.01665871 </v>
   <v>      -0.00891164      -0.00756083      -0.00208455 </v>
   <v>      -0.00905493      -0.00763050      -0.01317296 </v>
   <v>      -0.01679260       0.00506308       0.01435584 </v>
   <v>      -0.00405486       0.00227831      -0.00219952 </v>
   <v>      -0.02552430       0.00483872      -0.00642433 </v>
   <v>       0.01733121       0.00488788       0.00800161 </v>
   <v>      -0.00718962       0.02263265       0.00040019 </v>
   <v>      -0.00373466       0.00550078       0.03018619 </v>
   <v>       0.00575154      -0.00425003      -0.02372117 </v>
   <v>      -0.02344940       0.00625576      -0.02631788 </v>
   <v>      -0.02101096      -0.00236161       0.01221282 </v>
   <v>       0.01141483      -0.01071485       0.00566687 </v>
   <v>       0.02530370       0.00936338       0.00147937 </v>
   <v>       0.02310840      -0.02409559      -0.00046692 </v>
   <v>      -0.00651309      -0.00142291       0.00208784 </v>
   <v>      -0.00608625      -0.03485493       0.02883963 </v>
   <v>      -0.01865493      -0.00315610      -0.00715012 </v>
   <v>       0.00251466      -0.00564750       0.01522115 </v>
   <v>      -0.00263066      -0.00634135       0.00553403 </v>
   <v>       0.01842484       0.00483937       0.01558931 </v>
   <v>      -0.00402006       0.00658069      -0.01182728 </v>
   <v>       0.01703645      -0.03142656       0.01975334 </v>
   <v>       0.02166145       0.01345683      -0.03604254 </v>
   <v>      -0.00826682       0.01194360       0.00532494 </v>
   <v>       0.01082794       0.01279957       0.00755437 </v>
   <v>       0.00822364       0.00861794      -0.01252472 </v>
   <v>      -0.00569677      -0.00323015      -0.01699056 </v>
   <v>       0.00152354       0.00670746      -0.00541381 </v>
   <v>       0.00361052      -0.03013730      -0.01394594 </v>
   <v>       0.00774311       0.02026992       0.00898686 </v>
   <v>       0.00821676      -0.00066556       0.01093826 </v>
   <v>      -0.00898090      -0.00356747       0.00055511 </v>
   <v>      -0.01129333      -0.01725157      -0.00340405 </v>
   <v>       0.01884913      -0.00038155       0.03484261 </v>
   <v>       0.00871160      -0.02039156       0.00744563 </v>
   <v>      -0.00053325       0.02888541      -0.00010068 </v>
   <v>       0.00574793       0.00778798      -0.01038486 </v>
   <v>       0.01568633      -0.00533525       0.01289937 </v>
   <v>      -0.00775116      -0.00523700      -0.00014682 </v>
   <v>      -0.00639806       0.00070000      -0.02228358 </v>
   <v>       0.00473670       0.00820214      -0.00667967 </v>
   <v>      -0.00169224       0.00740722       0.00766314 </v>
   <v>       0.01582638       0.00387323      -0.01010225 </v>
   <v>      -0.00038328      -0.01241509      -0.00212291 </v>
   <v>       0.00648273      -0.00668457      -0.00052819 </v>
   <v>       0.00089468      -0.00575613       0.00323986 </v>
   <v>      -0.00682448       0.00455058       0.00628509 </v>
   <v>       0.00348337      -0.02111430       0.00401257 </v>
   <v>       0.00131885      -0.00494017      -0.00101305 </v>
   <v>      -0.02189465      -0.00682157       0.00973349 </v>
   <v>      -0.00219271       0.00116840      -0.00412422 </v>
   <v>      -0.00065796      -0.00428890      -0.00146829 </v>
   <v>      -0.00735548       0.01371463      -0.01926804 </v>
   <v>       0.01003799       0.00587633       0.01145156 </v>
   <v>      -0.02240258       0.01339712      -0.01326000 </v>
   <v>       0.00838349       0.00934767      -0.01507224 </v>
   <v>       0.01100808       0.01807302      -0.00116397 </v>
   <v>       0.00567162      -0.00775293      -0.00440804 </v>
   <v>       0.00926762      -0.00639021      -0.00920082 </v>
   <v>      -0.00030056      -0.00362849      -0.02392496 </v>
   <v>      -0.00890418       0.00626365      -0.00615559 </v>
   <v>      -0.00319958       0.00330124       0.00196506 </v>
   <v>       0.00402463      -0.01273737      -0.00196626 </v>
   <v>       0.00709540       0.01075604      -0.01107606 </v>
   <v>      -0.00160056      -0.00669616       0.01132028 </v>
   <v>      -0.00236092      -0.00506219       0.00246680 </v>
   <v>       0.00288428      -0.00790502      -0.00141065 </v>
   <v>       0.00074510      -0.01359459      -0.00049545 </v>
   <v>       0.01768243      -0.01964156       0.00600891 </v>
   <v>       0.00244299       0.00206644       0.00383897 </v>
   <v>      -0.00192844       0.00091103       0.00278716 </v>
   <v>       0.00603491      -0.00209981      -0.00132361 </v>
   <v>      -0.00000259      -0.00242268       0.00496058 </v>
   <v>      -0.01754551       0.00779121       0.00825869 </v>
   <v>      -0.00788068       0.00827055       0.01186025 </v>
   <v>      -0.00119027      -0.00203816      -0.04199376 </v>
   <v>       0.00097089      -0.00820208      -0.00259999 </v>
   <v>      -0.00022968       0.01946657       0.01452038 </v>
   <v>      -0.00439854      -0.00610856       0.00670336 </v>
   <v>       0.01914272       0.01353700      -0.00828022 </v>
   <v>       0.00947132      -0.00529784      -0.00655759 </v>
   <v>      -0.00921506      -0.00676946      -0.00317804 </v>
   <v>      -0.00769574      -0.00727364       0.01160178 </v>
   <v>      -0.01236711       0.02460353      -0.00210948 </v>
   <v>      -0.00107701       0.00271331       0.00121961 </v>
   <v>      -0.00207036       0.00621283       0.00003754 </v>
   <v>       0.02854785       0.00325291       0.00161067 </v>
   <v>       0.01725750       0.00259794      -0.00861918 </v>
   <v>       0.01220512      -0.00707334       0.00401026 </v>
   <v>      -0.00035189      -0.00170941      -0.01713667 </v>
   <v>      -0.00652772      -0.00967742       0.00475761 </v>
   <v>       0.00467671      -0.01761578       0.00975526 </v>
   <v>      -0.01423898       0.02328196      -0.00419337 </v>
   <v>       0.01084402      -0.00225367       0.01294121 </v>
   <v>       0.01291080      -0.00932544      -0.00686378 </v>
   <v>       0.00841052       0.01735041       0.01857425 </v>
   <v>      -0.01262341      -0.00763488       0.00570293 </v>
   <v>       0.01062508      -0.00274259      -0.00320486 </v>
   <v>      -0.00517829      -0.00504020      -0.01134762 </v>
   <v>      -0.01173183      -0.00057991       0.02859799 </v>
   <v>      -0.01365192       0.02363983      -0.00490858 </v>
   <v>       0.01881954      -0.01625612      -0.00720220 </v>
   <v>      -0.00393058      -0.02457557       0.00718772 </v>
   <v>      -0.00396085      -0.01242183      -0.00368914 </v>
   <v>       0.00434802      -0.00790279       0.00312543 </v>
   <v>      -0.00894468       0.00442887      -0.00852129 </v>
   <v>      -0.00014370       0.01994287       0.01219944 </v>
   <v>       0.00051052       0.01087833       0.00544705 </v>
   <v>      -0.01460910       0.00412374       0.01684895 </v>
   <v>      -0.00477756       0.02516168       0.00492944 </v>
   <v>       0.00309522      -0.00149749      -0.00363786 </v>
   <v>       0.00989317      -0.00475842       0.00985449 </v>
   <v>       0.01438946      -0.00297169      -0.00154047 </v>
   <v>       0.00271826       0.02866448       0.00673647 </v>
   <v>       0.00006646      -0.00116461       0.01923537 </v>
   <v>       0.00513139      -0.01827049      -0.01243197 </v>
   <v>      -0.00774805      -0.00263714      -0.01018107 </v>
   <v>      -0.00324766      -0.00053240      -0.01545781 </v>
   <v>      -0.02130429      -0.00298984      -0.00355811 </v>
   <v>      -0.00598187      -0.02242085      -0.00245882 </v>
   <v>       0.00135125       0.00022466       0.00686702 </v>
   <v>      -0.00654915       0.01396232       0.01171792 </v>
   <v>       0.00333667       0.01440091       0.00645036 </v>
   <v>      -0.01983718      -0.01919216       0.00249017 </v>
   <v>      -0.00223210       0.00043877       0.00224570 </v>
   <v>      -0.01247998       0.00608259      -0.01356644 </v>
   <v>       0.00530824       0.00105543      -0.01088029 </v>
   <v>      -0.01041996       0.00315651       0.01523720 </v>
  </varray>
  <varray name="stress" >
   <v>       0.06226236      -0.11065334       0.17838309 </v>
   <v>      -0.11065315      -0.05383856      -0.03722224 </v>
   <v>       0.17838310      -0.03722202       0.20816175 </v>
  </varray>
  <energy>
   <i name="e_fr_energy">  -1121.36188774 </i>
   <i name="e_wo_entrp">  -1121.36188774 </i>
   <i name="e_0_energy">     -0.00000000 </i>
  </energy>
  <time name="totalsc"> 1010.79 1013.15</time>
 </calculation>
 <calculation>
  <scstep>
   <time name="dav">  285.59  285.60</time>
   <time name="total">  289.33  289.44</time>
   <energy>
    <i name="alphaZ">   5625.33320727 </i>
    <i name="ewald"> -61442.41325085 </i>
    <i name="hartreedc"> -16078.77643816 </i>
    <i name="XCdc">   2963.33652163 </i>
    <i name="pawpsdc"> 112631.87196763 </i>
    <i name="pawaedc">-111532.47055681 </i>
    <i name="eentropy">     -0.00000000 </i>
    <i name="bandstr">  -7071.69096394 </i>
    <i name="atom">  73783.44779670 </i>
    <i name="e_fr_energy">  -1121.36171653 </i>
    <i name="e_wo_entrp">  -1121.36171653 </i>
    <i name="e_0_energy">  -1121.36171653 </i>
   </energy>
  </scstep>
  <scstep>
   <time name="diag">   33.25   33.26</time>
   <time name="diis">   52.65   52.68</time>
   <time name="orth">   18.92   18.92</time>
   <time name="total">  108.56  108.63</time>
   <energy>
    <i name="e_fr_energy">  -1121.36317967 </i>
    <i name="e_wo_entrp">  -1121.36317967 </i>
    <i name="e_0_energy">  -1121.36317967 </i>
   </energy>
  </scstep>
  <scstep>
   <time name="diag">   33.27   33.27</time>
   <time name="diis">   50.78   50.79</time>
   <time name="orth">   18.88   18.88</time>
   <time name="total">  106.67  106.78</time>
   <energy>
    <i name="e_fr_energy">  -1121.36324119 </i>
    <i name="e_wo_entrp">  -1121.36324119 </i>
    <i name="e_0_energy">  -1121.36324119 </i>
   </energy>
  </scstep>
  <scstep>
   <time name="diag">   33.26   33.27</time>
   <time name="diis">   36.77   36.77</time>
   <time name="orth">   18.89   18.89</time>
   <time name="total">   92.66   92.70</time>
   <energy>
    <i name="e_fr_energy">  -1121.36312373 </i>
    <i name="e_wo_entrp">  -1121.36312373 </i>
    <i name="e_0_energy">  -1121.36312373 </i>
   </energy>
  </scstep>
  <scstep>
   <time name="diag">   33.23   33.25</time>
   <time name="diis">   33.41   33.43</time>
   <time name="orth">   18.89   18.89</time>
   <time name="total">   89.28   89.32</time>
   <energy>
    <i name="e_fr_energy">  -1121.36309258 </i>
    <i name="e_wo_entrp">  -1121.36309258 </i>
    <i name="e_0_energy">  -1121.36309258 </i>
   </energy>
  </scstep>
  <scstep>
   <time name="diag">   33.24   33.25</time>
   <time name="diis">   32.41   32.42</time>
   <time name="orth">   18.91   18.91</time>
   <time name="total">   88.31   88.38</time>
   <energy>
    <i name="e_fr_energy">  -1121.36309384 </i>
    <i name="e_wo_entrp">  -1121.36309384 </i>
    <i name="e_0_energy">  -1121.36309384 </i>
   </energy>
  </scstep>
  <scstep>
   <time name="diag">   33.29   33.30</time>
   <time name="diis">   31.26   31.29</time>
   <time name="orth">   18.87   18.86</time>
   <time name="total">   87.17   87.22</time>
   <energy>
    <i name="e_fr_energy">  -1121.36309370 </i>
    <i name="e_wo_entrp">  -1121.36309370 </i>
    <i name="e_0_energy">  -1121.36309370 </i>
   </energy>
  </scstep>
  <scstep>
   <time name="diag">   33.34   33.34</time>
   <time name="diis">   30.58   30.60</time>
   <time name="orth">   18.85   18.85</time>
   <time name="total">   83.34   83.44</time>
   <energy>
    <i name="alphaZ">   5625.33320727 </i>
    <i name="ewald"> -61442.41325085 </i>
    <i name="hartreedc"> -16079.93441766 </i>
    <i name="XCdc">   2963.41846534 </i>
    <i name="pawpsdc"> 112612.85769989 </i>
    <i name="pawaedc">-111513.45181047 </i>
    <i name="eentropy">     -0.00000000 </i>
    <i name="bandstr">  -7070.62078384 </i>
    <i name="atom">  73783.44779670 </i>
    <i name="e_fr_energy">  -1121.36309363 </i>
    <i name="e_wo_entrp">  -1121.36309363 </i>
    <i name="e_0_energy">  -1121.36309363 </i>
   </energy>
  </scstep>
  <structure>
   <crystal>
    <varray name="basis" >
     <v>      11.21934522      -0.00619606       0.00758827 </v>
     <v>      -0.00613612      11.23696788       0.00230149 </v>
     <v>       0.01079026       0.00319853      15.91295085 </v>
    </varray>
    <i name="volume">   2006.16673218 </i>
    <varray name="rec_basis" >
     <v>       0.08913183       0.00004868      -0.00006045 </v>
     <v>       0.00004916       0.08899201      -0.00001792 </v>
     <v>      -0.00004251      -0.00001289       0.06284193 </v>
    </varray>
   </crystal>
   <varray name="positions" >
    <v>       0.00914112       0.24879272       0.11773990 </v>
    <v>       0.99681744       0.24505377       0.62942373 </v>
    <v>       0.00110115       0.75486965       0.11727816 </v>
    <v>       0.99949489       0.75688989       0.63153753 </v>
    <v>       0.49083297       0.25114466       0.12123347 </v>
    <v>       0.50097242       0.25208469       0.62743006 </v>
    <v>       0.50458901       0.75150741       0.12286641 </v>
    <v>       0.49654817       0.74946631       0.62612601 </v>
    <v>       0.00264097       0.23296685       0.37417471 </v>
    <v>       0.00321360       0.25066645       0.87617972 </v>
    <v>       0.00071441       0.75636849       0.37712327 </v>
    <v>       0.00006431       0.74997920       0.87586587 </v>
    <v>       0.49643786       0.24895873       0.37866075 </v>
    <v>       0.49694016       0.25203981       0.87635557 </v>
    <v>       0.50159210       0.75034177       0.37537157 </v>
    <v>       0.50080327       0.74974826       0.87659903 </v>
    <v>       0.25020453       0.00236006       0.12136715 </v>
    <v>       0.24776842       0.99427398       0.62703523 </v>
    <v>       0.25407918       0.49799300       0.11721961 </v>
    <v>       0.25174379       0.50145867       0.62913507 </v>
    <v>       0.75229752       0.98585933       0.11985458 </v>
    <v>       0.74917120       0.00054688       0.62678142 </v>
    <v>       0.75242127       0.51061120       0.11656329 </v>
    <v>       0.73983902       0.50179197       0.63024745 </v>
    <v>       0.25006998       0.99899320       0.37740674 </v>
    <v>       0.25117948       0.00177830       0.87527516 </v>
    <v>       0.26246232       0.49820033       0.37072321 </v>
    <v>       0.25121538       0.50038444       0.87728908 </v>
    <v>       0.75159952       0.99012340       0.37801706 </v>
    <v>       0.75005946       0.99883095       0.87754691 </v>
    <v>       0.74026574       0.50843452       0.38373039 </v>
    <v>       0.75013823       0.50294190       0.87590968 </v>
    <v>       0.75043684       0.25159945       0.00333654 </v>
    <v>       0.00039990       0.50019740       0.99782376 </v>
    <v>       0.50070392       0.99887830       0.50025283 </v>
    <v>       0.00254833       0.99473511       0.24853494 </v>
    <v>       0.49695501       0.50218277       0.75151666 </v>
    <v>       0.24901984       0.25096701       0.74956907 </v>
    <v>       0.75101514       0.74487817       0.25066183 </v>
    <v>       0.25133888       0.75065831       0.99836115 </v>
    <v>       0.74815376       0.75221555       0.50233338 </v>
    <v>       0.00192515       0.50174764       0.75181695 </v>
    <v>       0.00034521       0.00071043       0.99950925 </v>
    <v>       0.25002751       0.75450880       0.24843939 </v>
    <v>       0.49777205       0.49862805       0.49962712 </v>
    <v>       0.50190419       0.49924290       0.00224379 </v>
    <v>       0.49859505       0.99780520       0.24982879 </v>
    <v>       0.24765713       0.24865672       0.25263347 </v>
    <v>       0.74955990       0.75042461       0.75214276 </v>
    <v>       0.75453030       0.25296283       0.49688203 </v>
    <v>       0.24934575       0.74672686       0.49908507 </v>
    <v>       0.49986706       0.00182593       0.00080473 </v>
    <v>       0.75077492       0.25021554       0.75337401 </v>
    <v>       0.00075237       0.00024011       0.75155606 </v>
    <v>       0.00047033       0.99939241       0.50064237 </v>
    <v>       0.49960022       0.00030803       0.74954545 </v>
    <v>       0.75119057       0.74937318       0.99838255 </v>
    <v>       0.00969949       0.51499622       0.23828044 </v>
    <v>       0.26087280       0.23969375       0.50288317 </v>
    <v>       0.48677859       0.51023764       0.24841577 </v>
    <v>       0.74485521       0.22198114       0.24725569 </v>
    <v>       0.99123306       0.51139380       0.51289838 </v>
    <v>       0.24933390       0.74874120       0.75106067 </v>
    <v>       0.25000630       0.25052139       0.99793289 </v>
    <v>       0.10530726       0.13885839       0.24669251 </v>
    <v>       0.11146507       0.13821998       0.74634006 </v>
    <v>       0.75679934       0.28447731       0.13702161 </v>
    <v>       0.23961648       0.25028014       0.38010407 </v>
    <v>       0.59611553       0.14702871       0.24742075 </v>
    <v>       0.74909065       0.23528204       0.87701841 </v>
    <v>       0.61602664       0.63132161       0.24954520 </v>
    <v>       0.99496552       0.01344982       0.87510198 </v>
    <v>       0.38296281       0.36221897       0.25642015 </v>
    <v>       0.12811441       0.12012533       0.50225124 </v>
    <v>       0.63264133       0.61525178       0.00225182 </v>
    <v>       0.62665348       0.37279908       0.49746846 </v>
    <v>       0.36749957       0.38568062       0.99866446 </v>
    <v>       0.88761921       0.36116380       0.75620647 </v>
    <v>       0.89568956       0.84991455       0.25196449 </v>
    <v>       0.61360438       0.14080001       0.74264030 </v>
    <v>       0.35297640       0.11028303       0.25020688 </v>
    <v>       0.36306471       0.11436150       0.73664472 </v>
    <v>       0.35516625       0.61313269       0.24358212 </v>
    <v>       0.24572813       0.76325698       0.12496103 </v>
    <v>       0.85865901       0.10097302       0.24941351 </v>
    <v>       0.11249399       0.86017613       0.49883992 </v>
    <v>       0.85954782       0.58526191       0.26190561 </v>
    <v>       0.61589565       0.86808515       0.49388517 </v>
    <v>       0.10294896       0.38706206       0.27616388 </v>
    <v>       0.13820278       0.38836383       0.76080119 </v>
    <v>       0.25517085       0.73966709       0.87663928 </v>
    <v>       0.36359601       0.61107237       0.74574968 </v>
    <v>       0.99801846       0.99580180       0.62439525 </v>
    <v>       0.63902708       0.38784250       0.75347203 </v>
    <v>       0.64189002       0.88911231       0.25289621 </v>
    <v>       0.63889910       0.88978627       0.75619036 </v>
    <v>       0.38945165       0.13280710       0.50695420 </v>
    <v>       0.75246341       0.73956029       0.87302412 </v>
    <v>       0.36671572       0.88505506       0.99520068 </v>
    <v>       0.36402195       0.88426238       0.50102577 </v>
    <v>       0.86479718       0.38401279       0.99303349 </v>
    <v>       0.90180354       0.37752798       0.47843701 </v>
    <v>       0.49591510       0.00365446       0.37489071 </v>
    <v>       0.01135985       0.48060986       0.62631625 </v>
    <v>       0.13170635       0.11623094       0.00466345 </v>
    <v>       0.10847880       0.64734435       0.25160731 </v>
    <v>       0.13450684       0.59178251       0.48426148 </v>
    <v>       0.63580545       0.11876512       0.01367226 </v>
    <v>       0.63761898       0.12363420       0.49181119 </v>
    <v>       0.38885059       0.86599669       0.74948343 </v>
    <v>       0.63148109       0.61986420       0.50328051 </v>
    <v>       0.11546429       0.36789915       0.99091036 </v>
    <v>       0.86121641       0.11295058       0.74374248 </v>
    <v>       0.11591096       0.86650243       0.99274507 </v>
    <v>       0.10908608       0.63775237       0.74743105 </v>
    <v>       0.13532565       0.61588571       0.00536065 </v>
    <v>       0.61588144       0.86931449       0.99727207 </v>
    <v>       0.51301889       0.48185148       0.12917494 </v>
    <v>       0.38417456       0.13350903       0.00817142 </v>
    <v>       0.61191970       0.63824342       0.74519577 </v>
    <v>       0.38518842       0.63326905       0.01113811 </v>
    <v>       0.38560176       0.63383211       0.49773827 </v>
    <v>       0.61697640       0.36424076       0.99491518 </v>
    <v>       0.87989787       0.13155859       0.49350555 </v>
    <v>       0.88637955       0.63290385       0.00541939 </v>
    <v>       0.00152519       0.98797150       0.12526587 </v>
    <v>       0.49770653       0.50752003       0.87536105 </v>
    <v>       0.24344240       0.74493022       0.62071184 </v>
    <v>       0.86171559       0.61149906       0.74050388 </v>
    <v>       0.49660045       0.99078518       0.12710045 </v>
    <v>       0.51253939       0.99398945       0.62289589 </v>
    <v>       0.14532610       0.89513286       0.25358064 </v>
    <v>       0.50177401       0.49361303       0.62390838 </v>
    <v>       0.00182488       0.99754600       0.37471464 </v>
    <v>       0.39327441       0.85830512       0.25282186 </v>
    <v>       0.88825475       0.86243313       0.75327121 </v>
    <v>       0.99531452       0.51358386       0.87464094 </v>
    <v>       0.88140039       0.63416376       0.49953958 </v>
    <v>       0.50000708       0.01627080       0.87464093 </v>
    <v>       0.50868796       0.49566095       0.37210928 </v>
    <v>       0.86716411       0.88572638       0.99663604 </v>
    <v>       0.36430840       0.38592104       0.49657504 </v>
    <v>       0.25722305       0.23662808       0.87196632 </v>
    <v>       0.25225711       0.75053460       0.37453619 </v>
    <v>       0.99860847       0.48283965       0.12366373 </v>
    <v>       0.75212772       0.28106251       0.35828221 </v>
    <v>       0.86476614       0.88465903       0.49854620 </v>
    <v>       0.75069617       0.74853122       0.37581633 </v>
    <v>       0.23988314       0.26732716       0.13118211 </v>
    <v>       0.23315819       0.26996293       0.62156343 </v>
    <v>       0.38856855       0.36197509       0.74996890 </v>
    <v>       0.88231460       0.13599049       0.01114958 </v>
    <v>       0.13583140       0.88955575       0.75310721 </v>
    <v>       0.75995697       0.26314689       0.61857994 </v>
    <v>       0.75440654       0.74960041       0.12868103 </v>
    <v>       0.74777330       0.76009487       0.62473951 </v>
   </varray>
  </structure>
  <varray name="forces" >
   <v>       0.00227845      -0.00573064      -0.00603832 </v>
   <v>      -0.00295889      -0.00405201      -0.00028990 </v>
   <v>      -0.00184736       0.01104551      -0.01038345 </v>
   <v>       0.00518337       0.00442074       0.00785113 </v>
   <v>      -0.00000616      -0.00124995      -0.00200619 </v>
   <v>       0.00833409      -0.00161337       0.00401895 </v>
   <v>       0.00484691       0.00878971      -0.00884078 </v>
   <v>      -0.00638314       0.00612277       0.00531926 </v>
   <v>       0.00604482      -0.00891578      -0.00065442 </v>
   <v>      -0.00264522       0.00077550       0.00167840 </v>
   <v>      -0.00423709      -0.00328552      -0.00079160 </v>
   <v>      -0.00535201      -0.00767368      -0.00193426 </v>
   <v>       0.01003073       0.00436430       0.00688912 </v>
   <v>      -0.00110775       0.00507607      -0.00246775 </v>
   <v>       0.00287386      -0.00332396       0.00212814 </v>
   <v>      -0.00424303       0.00231333      -0.00391266 </v>
   <v>      -0.00509401       0.00400467      -0.00120915 </v>
   <v>       0.00482494      -0.00710894       0.01157320 </v>
   <v>      -0.00726718      -0.00233697      -0.00111565 </v>
   <v>       0.00785098       0.01578937       0.00242574 </v>
   <v>      -0.00591089       0.00299617      -0.00796716 </v>
   <v>      -0.00439290      -0.00343804      -0.00104606 </v>
   <v>       0.00775589       0.01450048       0.00850830 </v>
   <v>      -0.00098196       0.00061991      -0.01275533 </v>
   <v>       0.01327032      -0.00366318      -0.01595259 </v>
   <v>      -0.00604733      -0.00293369       0.00156837 </v>
   <v>      -0.01107507      -0.00096214      -0.00066941 </v>
   <v>       0.00804082       0.00537612      -0.00546235 </v>
   <v>      -0.01379290      -0.00620743      -0.00568079 </v>
   <v>      -0.00259803      -0.00731922      -0.00176253 </v>
   <v>      -0.00643042      -0.00394714       0.01442240 </v>
   <v>      -0.00304631       0.00372369       0.00134189 </v>
   <v>       0.01568463      -0.00178462       0.00549700 </v>
   <v>      -0.02501420       0.00215008       0.00645813 </v>
   <v>       0.02974195      -0.01803195       0.00735427 </v>
   <v>      -0.00493252      -0.00237641      -0.02964371 </v>
   <v>       0.00728039       0.00809551       0.00121055 </v>
   <v>       0.01345399      -0.00861334       0.02682033 </v>
   <v>       0.00887820       0.01086212      -0.01466644 </v>
   <v>       0.00045396       0.01113865       0.00204235 </v>
   <v>      -0.01949136      -0.01541338       0.00829413 </v>
   <v>      -0.01330507       0.03532250       0.01436925 </v>
   <v>      -0.00686470      -0.00325423       0.00323005 </v>
   <v>      -0.01221541       0.02461111      -0.03953339 </v>
   <v>       0.03547223      -0.00559595       0.01448683 </v>
   <v>       0.00099171       0.00725679      -0.01893224 </v>
   <v>       0.00242899      -0.00140647      -0.00773281 </v>
   <v>      -0.01352867      -0.01111668      -0.01759542 </v>
   <v>       0.00307527       0.00412942       0.02206408 </v>
   <v>      -0.01472961       0.02994350      -0.00061662 </v>
   <v>       0.00869439       0.00015651       0.05659580 </v>
   <v>       0.00268740      -0.00952103      -0.00760778 </v>
   <v>      -0.01058630      -0.00768903       0.01707165 </v>
   <v>      -0.00008689      -0.01722401       0.02911215 </v>
   <v>       0.00449726      -0.00363617       0.01004237 </v>
   <v>       0.00133736      -0.00439101       0.01008545 </v>
   <v>       0.00717417      -0.00254512      -0.00938158 </v>
   <v>      -0.00419203       0.00131546      -0.01291468 </v>
   <v>       0.00779265      -0.00304554      -0.00655085 </v>
   <v>      -0.00417779       0.00404070      -0.00441662 </v>
   <v>       0.00324401       0.00515096      -0.00902189 </v>
   <v>      -0.01826792       0.01356215      -0.02069907 </v>
   <v>       0.01210950      -0.00251758       0.00685453 </v>
   <v>      -0.00843543      -0.00021692      -0.00178207 </v>
   <v>       0.00756904       0.00492416       0.00069016 </v>
   <v>       0.01729384       0.01046543       0.00029280 </v>
   <v>      -0.01222362      -0.00115707       0.00374075 </v>
   <v>       0.00231728      -0.00266403       0.01488196 </v>
[...]
       <r>   -16.2360     0.0000    32.0000 </r>
       <r>   -16.0838     0.0000    32.0000 </r>
       <r>   -15.9316     0.0000    32.0000 </r>
       <r>   -15.7794     0.0000    32.0000 </r>
       <r>   -15.6272     0.0000    32.0000 </r>
       <r>   -15.4750     0.0000    32.0000 </r>
       <r>   -15.3228     0.0000    32.0000 </r>
       <r>   -15.1706     0.3428    32.0522 </r>
       <r>   -15.0184    21.2519    35.2866 </r>
       <r>   -14.8662    47.5806    42.5281 </r>
       <r>   -14.7140    51.5629    50.3758 </r>
       <r>   -14.5618    33.0006    55.3983 </r>
       <r>   -14.4096    30.1808    59.9917 </r>
       <r>   -14.2574    42.6087    66.4765 </r>
       <r>   -14.1052    94.4940    80.8580 </r>
       <r>   -13.9530   131.6770   100.8986 </r>
       <r>   -13.8008    93.5744   115.1401 </r>
       <r>   -13.6486    52.5098   123.1319 </r>
       <r>   -13.4965     5.7041   124.0000 </r>
       <r>   -13.3443     0.0000   124.0000 </r>
       <r>   -13.1921     0.0000   124.0000 </r>
       <r>   -13.0399     0.0000   124.0000 </r>
       <r>   -12.8877     0.0000   124.0000 </r>
       <r>   -12.7355     0.1154   124.0176 </r>
       <r>   -12.5833    33.6233   129.1349 </r>
       <r>   -12.4311   143.0223   150.9022 </r>
       <r>   -12.2789   159.4173   175.1647 </r>
       <r>   -12.1267   129.8464   194.9266 </r>
       <r>   -11.9745   111.7201   211.9299 </r>
       <r>   -11.8223    51.6440   219.7899 </r>
       <r>   -11.6701     1.3807   220.0000 </r>
       <r>   -11.5179     0.0000   220.0000 </r>
       <r>   -11.3657     0.0000   220.0000 </r>
       <r>   -11.2135     0.0000   220.0000 </r>
       <r>   -11.0613     0.0000   220.0000 </r>
       <r>   -10.9091     0.0000   220.0000 </r>
       <r>   -10.7569     0.0000   220.0000 </r>
       <r>   -10.6047     0.0000   220.0000 </r>
       <r>   -10.4526     0.0000   220.0000 </r>
       <r>   -10.3004     0.0000   220.0000 </r>
       <r>   -10.1482     0.0000   220.0000 </r>
       <r>    -9.9960     0.0000   220.0000 </r>
       <r>    -9.8438     0.0000   220.0000 </r>
       <r>    -9.6916     0.0000   220.0000 </r>
       <r>    -9.5394     0.0000   220.0000 </r>
       <r>    -9.3872     0.0000   220.0000 </r>
       <r>    -9.2350     0.0000   220.0000 </r>
       <r>    -9.0828     0.0000   220.0000 </r>
       <r>    -8.9306     0.0000   220.0000 </r>
       <r>    -8.7784     0.0000   220.0000 </r>
       <r>    -8.6262     0.0000   220.0000 </r>
       <r>    -8.4740     0.0000   220.0000 </r>
       <r>    -8.3218     0.0000   220.0000 </r>
       <r>    -8.1696     0.0000   220.0000 </r>
       <r>    -8.0174     0.0000   220.0000 </r>
       <r>    -7.8652     0.0000   220.0000 </r>
       <r>    -7.7130     0.0000   220.0000 </r>
       <r>    -7.5608     0.0000   220.0000 </r>
       <r>    -7.4087     0.0000   220.0000 </r>
       <r>    -7.2565     0.0000   220.0000 </r>
       <r>    -7.1043     0.0000   220.0000 </r>
       <r>    -6.9521     0.0000   220.0000 </r>
       <r>    -6.7999     0.0000   220.0000 </r>
       <r>    -6.6477     0.0000   220.0000 </r>
       <r>    -6.4955     0.0000   220.0000 </r>
       <r>    -6.3433     0.0000   220.0000 </r>
       <r>    -6.1911     0.0000   220.0000 </r>
       <r>    -6.0389     0.0000   220.0000 </r>
       <r>    -5.8867     0.0000   220.0000 </r>
       <r>    -5.7345     0.0000   220.0000 </r>
       <r>    -5.5823     0.0000   220.0000 </r>
       <r>    -5.4301     0.0000   220.0000 </r>
       <r>    -5.2779     0.0000   220.0000 </r>
       <r>    -5.1257     0.0000   220.0000 </r>
       <r>    -4.9735     0.0000   220.0000 </r>
       <r>    -4.8213     0.0000   220.0000 </r>
       <r>    -4.6691     0.0000   220.0000 </r>
       <r>    -4.5169     0.0000   220.0000 </r>
       <r>    -4.3648     0.0000   220.0000 </r>
       <r>    -4.2126     0.0000   220.0000 </r>
       <r>    -4.0604     0.0000   220.0000 </r>
       <r>    -3.9082     0.0000   220.0000 </r>
       <r>    -3.7560     0.0000   220.0000 </r>
       <r>    -3.6038     0.0000   220.0000 </r>
       <r>    -3.4516     0.0000   220.0000 </r>
       <r>    -3.2994     0.0000   220.0000 </r>
       <r>    -3.1472     0.0000   220.0000 </r>
       <r>    -2.9950     0.0000   220.0000 </r>
       <r>    -2.8428     0.0000   220.0000 </r>
       <r>    -2.6906     0.0000   220.0000 </r>
       <r>    -2.5384     0.0000   220.0000 </r>
       <r>    -2.3862     0.2664   220.0405 </r>
       <r>    -2.2340    10.9770   221.7112 </r>
       <r>    -2.0818    24.1509   225.3868 </r>
       <r>    -1.9296    33.1238   230.4281 </r>
       <r>    -1.7774    38.3551   236.2656 </r>
       <r>    -1.6252    52.4343   244.2458 </r>
       <r>    -1.4730    51.6940   252.1134 </r>
       <r>    -1.3209    58.3107   260.9880 </r>
       <r>    -1.1687    71.7662   271.9104 </r>
       <r>    -1.0165    77.5119   283.7074 </r>
       <r>    -0.8643    73.4226   294.8819 </r>
       <r>    -0.7121    79.1205   306.9237 </r>
       <r>    -0.5599   101.8936   322.4314 </r>
       <r>    -0.4077   109.8385   339.1482 </r>
       <r>    -0.2555    74.8404   350.5386 </r>
       <r>    -0.1033    54.1230   358.7758 </r>
       <r>     0.0489    48.0115   366.0830 </r>
       <r>     0.2011    49.1807   373.5680 </r>
       <r>     0.3533    51.5520   381.4140 </r>
       <r>     0.5055    53.0218   389.4836 </r>
       <r>     0.6577    56.4978   398.0823 </r>
       <r>     0.8099    47.5172   405.3142 </r>
       <r>     0.9621    51.7916   413.1966 </r>
       <r>     1.1143    58.8522   422.1536 </r>
       <r>     1.2665    84.4623   435.0084 </r>
       <r>     1.4187    90.9084   448.8442 </r>
       <r>     1.5709    91.5813   462.7824 </r>
       <r>     1.7230    71.9120   473.7270 </r>
       <r>     1.8752    68.2274   484.1109 </r>
       <r>     2.0274    33.1517   489.1564 </r>
       <r>     2.1796    33.7120   494.2872 </r>
       <r>     2.3318    10.8117   495.9327 </r>
       <r>     2.4840     0.4421   496.0000 </r>
       <r>     2.6362     0.0000   496.0000 </r>
       <r>     2.7884     0.0000   496.0000 </r>
       <r>     2.9406     0.0000   496.0000 </r>
       <r>     3.0928     0.0000   496.0000 </r>
       <r>     3.2450     0.0000   496.0000 </r>
       <r>     3.3972     0.0000   496.0000 </r>
       <r>     3.5494     0.0000   496.0000 </r>
       <r>     3.7016     0.0000   496.0000 </r>
       <r>     3.8538     0.0000   496.0000 </r>
       <r>     4.0060     0.0000   496.0000 </r>
       <r>     4.1582     0.0000   496.0000 </r>
       <r>     4.3104     0.0000   496.0000 </r>
       <r>     4.4626     3.3871   496.5155 </r>
       <r>     4.6148    32.2196   501.4192 </r>
       <r>     4.7669    34.7144   506.7025 </r>
       <r>     4.9191    41.4515   513.0112 </r>
       <r>     5.0713    44.6338   519.8043 </r>
       <r>     5.2235    48.2081   527.1413 </r>
       <r>     5.3757    60.0213   536.2762 </r>
       <r>     5.5279    76.3560   547.8972 </r>
       <r>     5.6801    63.1963   557.5154 </r>
       <r>     5.8323    72.1823   568.5012 </r>
       <r>     5.9845    88.4980   581.9701 </r>
       <r>     6.1367    89.0416   595.5218 </r>
       <r>     6.2889    61.6592   604.9060 </r>
       <r>     6.4411    39.4288   610.9069 </r>
       <r>     6.5933    19.6813   613.9023 </r>
       <r>     6.7455    23.2065   617.4342 </r>
       <r>     6.8977    18.8404   620.3016 </r>
       <r>     7.0499    21.7675   623.6145 </r>
       <r>     7.2021    13.9115   625.7318 </r>
       <r>     7.3543    20.4527   628.8446 </r>
       <r>     7.5065    14.8983   631.1120 </r>
       <r>     7.6587    14.5785   633.3308 </r>
       <r>     7.8108    15.8019   635.7358 </r>
       <r>     7.9630    22.8113   639.2076 </r>
       <r>     8.1152    21.5977   642.4946 </r>
       <r>     8.2674    26.3460   646.5044 </r>
       <r>     8.4196    26.4792   650.5344 </r>
       <r>     8.5718    23.2002   654.0653 </r>
       <r>     8.7240    24.4733   657.7900 </r>
       <r>     8.8762    28.6473   662.1500 </r>
       <r>     9.0284    36.5824   667.7177 </r>
       <r>     9.1806    37.8397   673.4767 </r>
       <r>     9.3328    37.4028   679.1692 </r>
       <r>     9.4850    42.1779   685.5885 </r>
       <r>     9.6372    42.6193   692.0749 </r>
       <r>     9.7894    52.8533   700.1189 </r>
       <r>     9.9416    66.0404   710.1699 </r>
       <r>    10.0938    68.0065   720.5202 </r>
       <r>    10.2460    65.1771   730.4398 </r>
       <r>    10.3982    59.3430   739.4715 </r>
       <r>    10.5504    55.9160   747.9817 </r>
       <r>    10.7026    55.0686   756.3628 </r>
       <r>    10.8547    55.0990   764.7486 </r>
       <r>    11.0069    21.3484   767.9977 </r>
       <r>    11.1591     0.0148   768.0000 </r>
       <r>    11.3113     0.0000   768.0000 </r>
       <r>    11.4635     0.0000   768.0000 </r>
       <r>    11.6157     0.0000   768.0000 </r>
       <r>    11.7679     0.0000   768.0000 </r>
       <r>    11.9201     0.0000   768.0000 </r>
       <r>    12.0723     0.0000   768.0000 </r>
       <r>    12.2245     0.0000   768.0000 </r>
       <r>    12.3767     0.0000   768.0000 </r>
       <r>    12.5289     0.0000   768.0000 </r>
       <r>    12.6811     0.0000   768.0000 </r>
       <r>    12.8333     0.0000   768.0000 </r>
       <r>    12.9855     0.0000   768.0000 </r>
      </set>
     </set>
    </array>
   </total>
  </dos>
 </calculation>
 <structure name="finalpos" >
  <crystal>
   <varray name="basis" >
    <v>      11.21959711      -0.00634363       0.00822653 </v>
    <v>      -0.00628388      11.23682511       0.00211696 </v>
    <v>       0.01169562       0.00293753      15.91288424 </v>
   </varray>
   <i name="volume">   2006.17770772 </i>
   <varray name="rec_basis" >
    <v>       0.08912984       0.00004986      -0.00006552 </v>
    <v>       0.00005033       0.08899314      -0.00001647 </v>
    <v>      -0.00004608      -0.00001186       0.06284219 </v>
   </varray>
  </crystal>
  <varray name="positions" >
   <v>       0.00918120       0.24877754       0.11772212 </v>
   <v>       0.99682446       0.24504216       0.62942445 </v>
   <v>       0.00109705       0.75490658       0.11724393 </v>
   <v>       0.99951129       0.75691732       0.63155368 </v>
   <v>       0.49082449       0.25115012       0.12122945 </v>
   <v>       0.50099278       0.25206126       0.62742907 </v>
   <v>       0.50461649       0.75154296       0.12284877 </v>
   <v>       0.49650215       0.74951280       0.62613953 </v>
   <v>       0.00269333       0.23286563       0.37419590 </v>
   <v>       0.00320867       0.25069326       0.87615762 </v>
   <v>       0.00070833       0.75635863       0.37713397 </v>
   <v>       0.00003431       0.74990994       0.87585200 </v>
   <v>       0.49645823       0.24898196       0.37869742 </v>
   <v>       0.49693921       0.25206839       0.87635242 </v>
   <v>       0.50156398       0.75031407       0.37536394 </v>
   <v>       0.50077715       0.74976172       0.87658064 </v>
   <v>       0.25020394       0.00239819       0.12137430 </v>
   <v>       0.24779529       0.99426845       0.62706381 </v>
   <v>       0.25405227       0.49797109       0.11723543 </v>
   <v>       0.25177199       0.50151062       0.62914275 </v>
   <v>       0.75223346       0.98589420       0.11984122 </v>
   <v>       0.74915152       0.00053289       0.62676075 </v>
   <v>       0.75243694       0.51071583       0.11660169 </v>
   <v>       0.73984853       0.50178581       0.63020071 </v>
   <v>       0.25014761       0.99897092       0.37734605 </v>
   <v>       0.25115446       0.00176998       0.87527020 </v>
   <v>       0.26241449       0.49820440       0.37071749 </v>
   <v>       0.25123437       0.50040924       0.87724875 </v>
   <v>       0.75153213       0.99008554       0.37800099 </v>
   <v>       0.75002810       0.99878689       0.87751627 </v>
   <v>       0.74020618       0.50843283       0.38378772 </v>
   <v>       0.75011488       0.50295875       0.87590761 </v>
   <v>       0.75043203       0.25160402       0.00333992 </v>
   <v>       0.00034103       0.50021483       0.99784906 </v>
   <v>       0.50078848       0.99887463       0.50026730 </v>
   <v>       0.00252008       0.99473927       0.24851189 </v>
   <v>       0.49699481       0.50220224       0.75148351 </v>
   <v>       0.24901007       0.25095219       0.74959606 </v>
   <v>       0.75099892       0.74491326       0.25064547 </v>
   <v>       0.25136868       0.75067105       0.99837582 </v>
   <v>       0.74814069       0.75218040       0.50235508 </v>
   <v>       0.00192888       0.50180867       0.75185098 </v>
   <v>       0.00030720       0.00069629       0.99951992 </v>
   <v>       0.24997677       0.75450996       0.24841173 </v>
   <v>       0.49785672       0.49859503       0.49965185 </v>
   <v>       0.50191014       0.49925006       0.00223020 </v>
   <v>       0.49859801       0.99778489       0.24981904 </v>
   <v>       0.24764791       0.24862443       0.25261429 </v>
   <v>       0.74955950       0.75045599       0.75218310 </v>
   <v>       0.75450973       0.25300462       0.49691082 </v>
   <v>       0.24942408       0.74676672       0.49916211 </v>
   <v>       0.49985899       0.00181971       0.00079405 </v>
   <v>       0.75075796       0.25022145       0.75343161 </v>
   <v>       0.00077205       0.00020159       0.75161087 </v>
   <v>       0.00047718       0.99937629       0.50063966 </v>
   <v>       0.49960915       0.00030856       0.74956082 </v>
   <v>       0.75122418       0.74929330       0.99833584 </v>
   <v>       0.00970475       0.51505132       0.23826495 </v>
   <v>       0.26091887       0.23968053       0.50288310 </v>
   <v>       0.48674339       0.51024522       0.24840543 </v>
   <v>       0.74483963       0.22195870       0.24722716 </v>
   <v>       0.99121219       0.51144339       0.51290538 </v>
   <v>       0.24939715       0.74868424       0.75108988 </v>
   <v>       0.24997502       0.25058711       0.99792575 </v>
   <v>       0.10534895       0.13889447       0.24667760 </v>
   <v>       0.11156288       0.13824481       0.74636061 </v>
   <v>       0.75673752       0.28446211       0.13702987 </v>
   <v>       0.23961068       0.25027093       0.38010421 </v>
   <v>       0.59605643       0.14701165       0.24740050 </v>
   <v>       0.74907921       0.23532670       0.87699872 </v>
   <v>       0.61602925       0.63128002       0.24951249 </v>
   <v>       0.99496486       0.01340556       0.87505611 </v>
   <v>       0.38303614       0.36223867       0.25642404 </v>
   <v>       0.12813823       0.12011189       0.50225929 </v>
   <v>       0.63256903       0.61523412       0.00227941 </v>
   <v>       0.62663169       0.37268655       0.49747773 </v>
   <v>       0.36751756       0.38567099       0.99867154 </v>
   <v>       0.88758997       0.36118974       0.75621988 </v>
   <v>       0.89566912       0.84992131       0.25197516 </v>
   <v>       0.61361589       0.14078293       0.74262164 </v>
   <v>       0.35297858       0.11033256       0.25014342 </v>
   <v>       0.36308231       0.11443383       0.73666954 </v>
   <v>       0.35512700       0.61311844       0.24354174 </v>
   <v>       0.24578345       0.76328286       0.12498410 </v>
   <v>       0.85874825       0.10103793       0.24942428 </v>
   <v>       0.11249720       0.86016953       0.49880335 </v>
   <v>       0.85958506       0.58523320       0.26188025 </v>
   <v>       0.61587056       0.86809457       0.49379661 </v>
   <v>       0.10291904       0.38710499       0.27616039 </v>
   <v>       0.13815610       0.38838233       0.76079242 </v>
   <v>       0.25519978       0.73958835       0.87662909 </v>
   <v>       0.36365320       0.61110082       0.74569560 </v>
   <v>       0.99801618       0.99577572       0.62435741 </v>
   <v>       0.63903137       0.38779523       0.75347120 </v>
   <v>       0.64187820       0.88909395       0.25290565 </v>
   <v>       0.63887307       0.88973690       0.75618085 </v>
   <v>       0.38943894       0.13282190       0.50698275 </v>
   <v>       0.75247521       0.73956360       0.87301425 </v>
   <v>       0.36673627       0.88508718       0.99520596 </v>
   <v>       0.36402574       0.88423701       0.50100375 </v>
   <v>       0.86481177       0.38400965       0.99304922 </v>
   <v>       0.90173328       0.37758558       0.47847759 </v>
   <v>       0.49586012       0.00371779       0.37492025 </v>
   <v>       0.01138882       0.48055219       0.62631543 </v>
   <v>       0.13174570       0.11624633       0.00465232 </v>
   <v>       0.10847950       0.64743554       0.25167923 </v>
   <v>       0.13453733       0.59176714       0.48427036 </v>
   <v>       0.63583352       0.11878837       0.01364346 </v>
   <v>       0.63764987       0.12355587       0.49179137 </v>
   <v>       0.38882749       0.86599650       0.74946927 </v>
   <v>       0.63145575       0.61983164       0.50331933 </v>
   <v>       0.11544842       0.36799913       0.99089784 </v>
   <v>       0.86121738       0.11299521       0.74373110 </v>
   <v>       0.11592900       0.86649683       0.99274275 </v>
   <v>       0.10915425       0.63764968       0.74743260 </v>
   <v>       0.13537984       0.61586963       0.00533211 </v>
   <v>       0.61591622       0.86931102       0.99728646 </v>
   <v>       0.51299499       0.48184899       0.12916663 </v>
   <v>       0.38415114       0.13347763       0.00820004 </v>
   <v>       0.61195256       0.63815500       0.74522311 </v>
   <v>       0.38520036       0.63330336       0.01112826 </v>
   <v>       0.38560867       0.63385351       0.49776318 </v>
   <v>       0.61696572       0.36425542       0.99488947 </v>
   <v>       0.88001105       0.13156067       0.49357175 </v>
   <v>       0.88633354       0.63284379       0.00544028 </v>
   <v>       0.00157560       0.98797688       0.12532148 </v>
   <v>       0.49767713       0.50748326       0.87534692 </v>
   <v>       0.24338018       0.74493369       0.62068788 </v>
   <v>       0.86175202       0.61153995       0.74047493 </v>
   <v>       0.49671010       0.99071383       0.12711492 </v>
   <v>       0.51251626       0.99387114       0.62288162 </v>
   <v>       0.14531796       0.89505308       0.25359945 </v>
   <v>       0.50178633       0.49355249       0.62389264 </v>
   <v>       0.00178858       0.99756904       0.37475068 </v>
   <v>       0.39325198       0.85839163       0.25288771 </v>
   <v>       0.88825125       0.86250000       0.75327498 </v>
   <v>       0.99524971       0.51359684       0.87460414 </v>
   <v>       0.88145055       0.63424683       0.49956546 </v>
   <v>       0.50002777       0.01626471       0.87462577 </v>
   <v>       0.50868971       0.49566134       0.37208627 </v>
   <v>       0.86721638       0.88567213       0.99662903 </v>
   <v>       0.36422358       0.38596400       0.49659309 </v>
   <v>       0.25720829       0.23665252       0.87197082 </v>
   <v>       0.25229557       0.75042226       0.37452050 </v>
   <v>       0.99858697       0.48285804       0.12368334 </v>
   <v>       0.75210881       0.28104640       0.35823740 </v>
   <v>       0.86473861       0.88472170       0.49853027 </v>
   <v>       0.75068247       0.74842655       0.37580745 </v>
   <v>       0.23990636       0.26735118       0.13121703 </v>
   <v>       0.23313423       0.27002150       0.62157027 </v>
   <v>       0.38851483       0.36200177       0.74997661 </v>
   <v>       0.88220804       0.13592177       0.01115922 </v>
   <v>       0.13581250       0.88957607       0.75310506 </v>
   <v>       0.75990912       0.26316451       0.61855694 </v>
   <v>       0.75441802       0.74960965       0.12869273 </v>
   <v>       0.74772833       0.76012551       0.62473726 </v>
  </varray>
 </structure>
</modeling>
