       N       E                     dE             d eps       ncg     rms          rms(c)
DAV:   1    -0.112079487415E+04   -0.11208E+04   -0.35228E-05  2024   0.146E-02    0.430E-03
RMM:   2    -0.112079487489E+04   -0.74926E-06   -0.87472E-06  1372   0.701E-03    0.817E-03
RMM:   3    -0.112079487522E+04   -0.32374E-06   -0.27003E-06   688   0.335E-03    0.369E-03
RMM:   4    -0.112079487517E+04    0.51339E-07   -0.23694E-07   360   0.191E-03    0.285E-03
RMM:   5    -0.112079487510E+04    0.65673E-07   -0.76295E-08   249   0.165E-03    0.204E-03
RMM:   6    -0.112079487487E+04    0.23087E-06   -0.13159E-08   219   0.158E-03    0.193E-04
RMM:   7    -0.112079487488E+04   -0.10259E-07   -0.45806E-09   197   0.157E-03    0.151E-04
RMM:   8    -0.112079487488E+04   -0.19354E-08    0.00000E+00   185   0.156E-03
   1 F= -.11207949E+04 E0= -.11207949E+04  d E =-.112079E+04  mag=    40.0000
       N       E                     dE             d eps       ncg     rms          rms(c)
DAV:   1    -0.112079428459E+04    0.59029E-03   -0.45362E-01  3168   0.778E-01    0.394E-01
RMM:   2    -0.112079565507E+04   -0.13705E-02   -0.13954E-02  3052   0.161E-01    0.333E-01
RMM:   3    -0.112079570466E+04   -0.49589E-04   -0.65469E-04  2652   0.454E-02    0.195E-01
RMM:   4    -0.112079564173E+04    0.62931E-04   -0.14062E-04  1921   0.175E-02    0.120E-01
RMM:   5    -0.112079564031E+04    0.14165E-05   -0.16753E-04  1841   0.150E-02    0.311E-02
RMM:   6    -0.112079563743E+04    0.28801E-05   -0.27402E-05  1743   0.955E-03    0.140E-02
RMM:   7    -0.112079563879E+04   -0.13644E-05   -0.10601E-05  1544   0.362E-03    0.124E-02
RMM:   8    -0.112079564001E+04   -0.12124E-05   -0.36883E-06  1296   0.338E-03
   2 F= -.11207956E+04 E0= -.11207956E+04  d E =-.765123E-03  mag=    40.0000
       N       E                     dE             d eps       ncg     rms          rms(c)
DAV:   1    -0.112079564655E+04   -0.77569E-05   -0.14148E-02  3200   0.137E-01    0.683E-02
RMM:   2    -0.112079568632E+04   -0.39768E-04   -0.41290E-04  2280   0.288E-02    0.610E-02
RMM:   3    -0.112079568929E+04   -0.29696E-05   -0.27016E-05  1662   0.103E-02    0.363E-02
RMM:   4    -0.112079568765E+04    0.16378E-05   -0.66210E-06  1469   0.410E-03    0.202E-02
RMM:   5    -0.112079568684E+04    0.80965E-06   -0.49048E-06  1274   0.321E-03    0.617E-03
RMM:   6    -0.112079568686E+04   -0.15731E-07   -0.36785E-07   601   0.193E-03    0.263E-03
RMM:   7    -0.112079568681E+04    0.46464E-07   -0.61550E-09   280   0.158E-03    0.144E-03
RMM:   8    -0.112079568680E+04    0.95315E-08   -0.12707E-09   255   0.161E-03
   3 F= -.11207957E+04 E0= -.11207957E+04  d E =-.811917E-03  mag=    40.0000
