<?xml version="1.0" encoding="ISO-8859-1"?>
<modeling>
 <generator>
  <i name="program" type="string">vasp </i>
  <i name="version" type="string">5.4.1  </i>
  <i name="subversion" type="string">05Feb16 (build Jan 25 2017 20:16:33) complex                          parallel </i>
  <i name="platform" type="string">BWXE6 </i>
  <i name="date" type="string">2019 08 11 </i>
  <i name="time" type="string">11:32:39 </i>
 </generator>
 <incar>
  <i type="string" name="SYSTEM"> STF</i>
  <i type="string" name="PREC">normal</i>
  <i type="string" name="ALGO"> Fast</i>
  <i type="int" name="ISPIN">     2</i>
  <i type="int" name="NELM">    40</i>
  <i type="int" name="NELMIN">     8</i>
  <i type="int" name="IBRION">     2</i>
  <i name="EDIFF">      0.00010000</i>
  <i name="EDIFFG">     -0.03000000</i>
  <i type="int" name="NSW">    30</i>
  <i type="int" name="ISIF">     3</i>
  <i name="ENCUT">    520.00000000</i>
  <i type="int" name="NBANDS">   768</i>
  <v name="MAGMOM">      0.60000000      0.60000000      0.60000000      0.60000000      0.60000000      0.60000000      0.60000000      0.60000000      0.60000000      0.60000000      0.60000000      0.60000000      0.60000000      0.60000000      0.60000000      0.60000000      0.60000000      0.60000000      0.60000000      0.60000000
      0.60000000      0.60000000      0.60000000      0.60000000      0.60000000      0.60000000      0.60000000      0.60000000      0.60000000      0.60000000      0.60000000      0.60000000      0.60000000      0.60000000      0.60000000      0.60000000      0.60000000      0.60000000      0.60000000      0.60000000
      0.60000000      0.60000000      0.60000000      0.60000000      0.60000000      0.60000000      0.60000000      0.60000000      0.60000000      0.60000000      0.60000000      0.60000000      0.60000000      0.60000000      0.60000000      0.60000000      5.00000000      5.00000000      5.00000000      5.00000000
      5.00000000      5.00000000      5.00000000      5.00000000      0.60000000      0.60000000      0.60000000      0.60000000      0.60000000      0.60000000      0.60000000      0.60000000      0.60000000      0.60000000      0.60000000      0.60000000      0.60000000      0.60000000      0.60000000      0.60000000
      0.60000000      0.60000000      0.60000000      0.60000000      0.60000000      0.60000000      0.60000000      0.60000000      0.60000000      0.60000000      0.60000000      0.60000000      0.60000000      0.60000000      0.60000000      0.60000000      0.60000000      0.60000000      0.60000000      0.60000000
      0.60000000      0.60000000      0.60000000      0.60000000      0.60000000      0.60000000      0.60000000      0.60000000      0.60000000      0.60000000      0.60000000      0.60000000      0.60000000      0.60000000      0.60000000      0.60000000      0.60000000      0.60000000      0.60000000      0.60000000
      0.60000000      0.60000000      0.60000000      0.60000000      0.60000000      0.60000000      0.60000000      0.60000000      0.60000000      0.60000000      0.60000000      0.60000000      0.60000000      0.60000000      0.60000000      0.60000000      0.60000000      0.60000000      0.60000000      0.60000000
      0.60000000      0.60000000      0.60000000      0.60000000      0.60000000      0.60000000      0.60000000      0.60000000      0.60000000      0.60000000      0.60000000      0.60000000      0.60000000      0.60000000      0.60000000      0.60000000</v>
  <i type="string" name="LREAL"> Auto</i>
  <i type="int" name="ISMEAR">     0</i>
  <i name="SIGMA">      0.05000000</i>
  <i type="int" name="LMAXMIX">     4</i>
  <v type="int" name="KPOINT_BSE">    -1     0     0     0</v>
  <i type="int" name="NELM">    40</i>
  <i type="logical" name="LDAU"> T  </i>
  <v type="int" name="LDAUTYPE">     2</v>
  <v type="int" name="LDAUL">     0     2     2     0</v>
  <v name="LDAUU">      0.00000000      3.00000000      5.00000000      0.00000000</v>
  <v name="LDAUJ">      0.00000000      0.00000000      0.00000000      0.00000000</v>
  <i type="int" name="LDAUPRINT">     1</i>
 </incar>
 <kpoints>
  <generation param="Monkhorst-Pack">
   <v type="int" name="divisions">       2        2        2 </v>
   <v name="usershift">      0.00000000       0.00000000       0.00000000 </v>
   <v name="genvec1">      0.50000000       0.00000000       0.00000000 </v>
   <v name="genvec2">      0.00000000       0.50000000       0.00000000 </v>
   <v name="genvec3">      0.00000000       0.00000000       0.50000000 </v>
   <v name="shift">      0.50000000       0.50000000       0.50000000 </v>
  </generation>
  <varray name="kpointlist" >
   <v>       0.25000000       0.25000000       0.25000000 </v>
  </varray>
  <varray name="weights" >
   <v>       1.00000000 </v>
  </varray>
 </kpoints>
 <parameters>
  <separator name="general" >
   <i type="string" name="SYSTEM">STF</i>
   <i type="logical" name="LCOMPAT"> F  </i>
  </separator>
  <separator name="electronic" >
   <i type="string" name="PREC">normal</i>
   <i name="ENMAX">    520.00000000</i>
   <i name="ENAUG">    605.39200000</i>
   <i name="EDIFF">      0.00010000</i>
   <i type="int" name="IALGO">    68</i>
   <i type="int" name="IWAVPR">    11</i>
   <i type="int" name="NBANDS">   768</i>
   <i name="NELECT">   1032.00000000</i>
   <i type="int" name="TURBO">     0</i>
   <i type="int" name="IRESTART">     0</i>
   <i type="int" name="NREBOOT">     0</i>
   <i type="int" name="NMIN">     0</i>
   <i name="EREF">      0.00000000</i>
   <separator name="electronic smearing" >
    <i type="int" name="ISMEAR">     0</i>
    <i name="SIGMA">      0.05000000</i>
    <i name="KSPACING">      0.50000000</i>
    <i type="logical" name="KGAMMA"> T  </i>
   </separator>
   <separator name="electronic projectors" >
    <i type="logical" name="LREAL"> T  </i>
    <v name="ROPT">     -0.00050000     -0.00050000     -0.00050000     -0.00050000</v>
    <i type="int" name="LMAXPAW">  -100</i>
    <i type="int" name="LMAXMIX">     4</i>
    <i type="logical" name="NLSPLINE"> F  </i>
   </separator>
   <separator name="electronic startup" >
    <i type="int" name="ISTART">     1</i>
    <i type="int" name="ICHARG">     0</i>
    <i type="int" name="INIWAV">     1</i>
   </separator>
   <separator name="electronic spin" >
    <i type="int" name="ISPIN">     2</i>
    <i type="logical" name="LNONCOLLINEAR"> F  </i>
    <v name="MAGMOM">      0.60000000      0.60000000      0.60000000      0.60000000      0.60000000      0.60000000      0.60000000      0.60000000      0.60000000      0.60000000      0.60000000      0.60000000      0.60000000      0.60000000      0.60000000      0.60000000      0.60000000      0.60000000      0.60000000      0.60000000
      0.60000000      0.60000000      0.60000000      0.60000000      0.60000000      0.60000000      0.60000000      0.60000000      0.60000000      0.60000000      0.60000000      0.60000000      0.60000000      0.60000000      0.60000000      0.60000000      0.60000000      0.60000000      0.60000000      0.60000000
      0.60000000      0.60000000      0.60000000      0.60000000      0.60000000      0.60000000      0.60000000      0.60000000      0.60000000      0.60000000      0.60000000      0.60000000      0.60000000      0.60000000      0.60000000      0.60000000      5.00000000      5.00000000      5.00000000      5.00000000
      5.00000000      5.00000000      5.00000000      5.00000000      0.60000000      0.60000000      0.60000000      0.60000000      0.60000000      0.60000000      0.60000000      0.60000000      0.60000000      0.60000000      0.60000000      0.60000000      0.60000000      0.60000000      0.60000000      0.60000000
      0.60000000      0.60000000      0.60000000      0.60000000      0.60000000      0.60000000      0.60000000      0.60000000      0.60000000      0.60000000      0.60000000      0.60000000      0.60000000      0.60000000      0.60000000      0.60000000      0.60000000      0.60000000      0.60000000      0.60000000
      0.60000000      0.60000000      0.60000000      0.60000000      0.60000000      0.60000000      0.60000000      0.60000000      0.60000000      0.60000000      0.60000000      0.60000000      0.60000000      0.60000000      0.60000000      0.60000000      0.60000000      0.60000000      0.60000000      0.60000000
      0.60000000      0.60000000      0.60000000      0.60000000      0.60000000      0.60000000      0.60000000      0.60000000      0.60000000      0.60000000      0.60000000      0.60000000      0.60000000      0.60000000      0.60000000      0.60000000      0.60000000      0.60000000      0.60000000      0.60000000
      0.60000000      0.60000000      0.60000000      0.60000000      0.60000000      0.60000000      0.60000000      0.60000000      0.60000000      0.60000000      0.60000000      0.60000000      0.60000000      0.60000000      0.60000000      0.60000000</v>
    <i name="NUPDOWN">     -1.00000000</i>
    <i type="logical" name="LSORBIT"> F  </i>
    <v name="SAXIS">      0.00000000      0.00000000      1.00000000</v>
    <i type="logical" name="LSPIRAL"> F  </i>
    <v name="QSPIRAL">      0.00000000      0.00000000      0.00000000</v>
    <i type="logical" name="LZEROZ"> F  </i>
   </separator>
   <separator name="electronic exchange-correlation" >
    <i type="logical" name="LASPH"> F  </i>
    <i type="logical" name="LMETAGGA"> F  </i>
   </separator>
   <separator name="electronic convergence" >
    <i type="int" name="NELM">    40</i>
    <i type="int" name="NELMDL">     0</i>
    <i type="int" name="NELMIN">     8</i>
    <i name="ENINI">    520.00000000</i>
    <separator name="electronic convergence detail" >
     <i type="logical" name="LDIAG"> T  </i>
     <i type="logical" name="LSUBROT"> F  </i>
     <i name="WEIMIN">      0.00100000</i>
     <i name="EBREAK">      0.00000003</i>
     <i name="DEPER">      0.30000000</i>
     <i type="int" name="NRMM">     4</i>
     <i name="TIME">      0.40000000</i>
    </separator>
   </separator>
   <separator name="electronic mixer" >
    <i name="AMIX">      0.40000000</i>
    <i name="BMIX">      1.00000000</i>
    <i name="AMIN">      0.10000000</i>
    <i name="AMIX_MAG">      1.60000000</i>
    <i name="BMIX_MAG">      1.00000000</i>
    <separator name="electronic mixer details" >
     <i type="int" name="IMIX">     4</i>
     <i type="logical" name="MIXFIRST"> F  </i>
     <i type="int" name="MAXMIX">   -45</i>
     <i name="WC">    100.00000000</i>
     <i type="int" name="INIMIX">     1</i>
     <i type="int" name="MIXPRE">     1</i>
     <i type="int" name="MREMOVE">     5</i>
    </separator>
   </separator>
   <separator name="electronic dipolcorrection" >
    <i type="logical" name="LDIPOL"> F  </i>
    <i type="logical" name="LMONO"> F  </i>
    <i type="int" name="IDIPOL">     0</i>
    <i name="EPSILON">      1.00000000</i>
    <v name="DIPOL">   -100.00000000   -100.00000000   -100.00000000</v>
    <i name="EFIELD">      0.00000000</i>
   </separator>
  </separator>
  <separator name="grids" >
   <i type="int" name="NGX">    64</i>
   <i type="int" name="NGY">    64</i>
   <i type="int" name="NGZ">    90</i>
   <i type="int" name="NGXF">   128</i>
   <i type="int" name="NGYF">   128</i>
   <i type="int" name="NGZF">   180</i>
   <i type="logical" name="ADDGRID"> F  </i>
  </separator>
  <separator name="ionic" >
   <i type="int" name="NSW">    30</i>
   <i type="int" name="IBRION">     2</i>
   <i type="int" name="ISIF">     3</i>
   <i name="PSTRESS">      0.00000000</i>
   <i name="EDIFFG">     -0.03000000</i>
   <i type="int" name="NFREE">     1</i>
   <i name="POTIM">      0.50000000</i>
   <i name="SMASS">     -3.00000000</i>
   <i name="SCALEE">      1.00000000</i>
  </separator>
  <separator name="ionic md" >
   <i name="TEBEG">      0.00010000</i>
   <i name="TEEND">      0.00010000</i>
   <i type="int" name="NBLOCK">     1</i>
   <i type="int" name="KBLOCK">    30</i>
   <i type="int" name="NPACO">   256</i>
   <i name="APACO">     16.00000000</i>
  </separator>
  <separator name="symmetry" >
   <i type="int" name="ISYM">     2</i>
   <i name="SYMPREC">      0.00001000</i>
  </separator>
  <separator name="dos" >
   <i type="logical" name="LORBIT"> F  </i>
   <v name="RWIGS">     -1.00000000     -1.00000000     -1.00000000     -1.00000000</v>
   <i type="int" name="NEDOS">   301</i>
   <i name="EMIN">     10.00000000</i>
   <i name="EMAX">    -10.00000000</i>
   <i name="EFERMI">      0.00000000</i>
  </separator>
  <separator name="writing" >
   <i type="int" name="NWRITE">     2</i>
   <i type="logical" name="LWAVE"> T  </i>
   <i type="logical" name="LCHARG"> T  </i>
   <i type="logical" name="LPARD"> F  </i>
   <i type="logical" name="LVTOT"> F  </i>
   <i type="logical" name="LVHAR"> F  </i>
   <i type="logical" name="LELF"> F  </i>
   <i type="logical" name="LOPTICS"> F  </i>
   <v name="STM">      0.00000000      0.00000000      0.00000000      0.00000000      0.00000000      0.00000000      0.00000000</v>
  </separator>
  <separator name="performance" >
   <i type="int" name="NPAR">     2</i>
   <i type="int" name="NSIM">     4</i>
   <i type="int" name="NBLK">    -1</i>
   <i type="logical" name="LPLANE"> T  </i>
   <i type="logical" name="LSCALAPACK"> T  </i>
   <i type="logical" name="LSCAAWARE"> F  </i>
   <i type="logical" name="LSCALU"> F  </i>
   <i type="logical" name="LASYNC"> F  </i>
   <i type="logical" name="LORBITALREAL"> F  </i>
  </separator>
  <separator name="miscellaneous" >
   <i type="int" name="IDIOT">     3</i>
   <i type="logical" name="LMUSIC"> F  </i>
   <v name="POMASS">     87.62000000     47.88000000     55.84700000     16.00000000</v>
   <v name="DARWINR">      0.00000000      0.00000000      0.00000000      0.00000000</v>
   <v name="DARWINV">      1.00000000      1.00000000      1.00000000      1.00000000</v>
   <i type="logical" name="LCORR"> T  </i>
  </separator>
  <i type="logical" name="GGA_COMPAT"> T  </i>
  <i type="logical" name="LBERRY"> F  </i>
  <i type="int" name="ICORELEVEL">     0</i>
  <i type="logical" name="LDAU"> T  </i>
  <v type="int" name="LDAUTYPE">     2</v>
  <v type="int" name="LDAUL">     0</v>
  <v name="LDAUU">      0.00000000</v>
  <v name="LDAUJ">      0.00000000</v>
  <i type="int" name="LDAUPRINT">     1</i>
  <i type="int" name="I_CONSTRAINED_M">     0</i>
  <separator name="electronic exchange-correlation" >
   <i type="string" name="GGA">--</i>
   <i type="int" name="VOSKOWN">     0</i>
   <i type="logical" name="LHFCALC"> F  </i>
   <i type="string" name="PRECFOCK"></i>
   <i type="logical" name="LSYMGRAD"> F  </i>
   <i type="logical" name="LHFONE"> F  </i>
   <i type="logical" name="LRHFCALC"> F  </i>
   <i type="logical" name="LTHOMAS"> F  </i>
   <i type="logical" name="LMODELHF"> F  </i>
   <i name="ENCUT4O">     -1.00000000</i>
   <i type="int" name="EXXOEP">     0</i>
   <i type="int" name="FOURORBIT">     0</i>
   <i name="AEXX">      0.00000000</i>
   <i name="HFALPHA">      0.00000000</i>
   <i name="MCALPHA">      0.00000000</i>
   <i name="ALDAX">      1.00000000</i>
   <i name="AGGAX">      1.00000000</i>
   <i name="ALDAC">      1.00000000</i>
   <i name="AGGAC">      1.00000000</i>
   <i type="int" name="NKREDX">     1</i>
   <i type="int" name="NKREDY">     1</i>
   <i type="int" name="NKREDZ">     1</i>
   <i type="logical" name="SHIFTRED"> F  </i>
   <i type="logical" name="ODDONLY"> F  </i>
   <i type="logical" name="EVENONLY"> F  </i>
   <i type="int" name="LMAXFOCK">     0</i>
   <i type="int" name="NMAXFOCKAE">     0</i>
   <i type="logical" name="LFOCKAEDFT"> F  </i>
   <i name="HFSCREEN">      0.00000000</i>
   <i name="HFSCREENC">      0.00000000</i>
   <i type="int" name="NBANDSGWLOW">     0</i>
  </separator>
  <separator name="vdW DFT" >
   <i type="logical" name="LUSE_VDW"> F  </i>
   <i name="Zab_VDW">     -0.84910000</i>
   <i name="PARAM1">      0.12340000</i>
   <i name="PARAM2">      1.00000000</i>
   <i name="PARAM3">      0.00000000</i>
  </separator>
  <separator name="model GW" >
   <i type="int" name="MODEL_GW">     0</i>
   <i name="MODEL_EPS0">      7.67859148</i>
   <i name="MODEL_ALPHA">      1.00000000</i>
  </separator>
  <separator name="linear response parameters" >
   <i type="logical" name="LEPSILON"> F  </i>
   <i type="logical" name="LRPA"> F  </i>
   <i type="logical" name="LNABLA"> F  </i>
   <i type="logical" name="LVEL"> F  </i>
   <i type="int" name="KINTER">     0</i>
   <i name="CSHIFT">      0.10000000</i>
   <i name="OMEGAMAX">     -1.00000000</i>
   <i name="DEG_THRESHOLD">      0.00200000</i>
  </separator>
  <separator name="orbital magnetization" >
   <i type="logical" name="NUCIND"> F  </i>
   <v name="MAGPOS">      0.00000000      0.00000000      0.00000000</v>
   <i type="logical" name="LNICSALL"> T  </i>
   <i type="logical" name="ORBITALMAG"> F  </i>
   <i type="logical" name="LMAGBLOCH"> F  </i>
   <i type="logical" name="LCHIMAG"> F  </i>
   <i type="logical" name="LGAUGE"> T  </i>
   <i type="int" name="MAGATOM">     0</i>
   <v name="MAGDIPOL">      0.00000000      0.00000000      0.00000000</v>
   <v name="AVECCONST">      0.00000000      0.00000000      0.00000000</v>
  </separator>
  <separator name="response functions" >
   <i type="logical" name="LADDER"> F  </i>
   <i type="logical" name="LFXC"> F  </i>
   <i type="logical" name="LHARTREE"> T  </i>
   <i type="int" name="IBSE">     0</i>
   <v type="int" name="KPOINT">    -1     0     0     0</v>
   <i type="logical" name="LTCTE"> F  </i>
   <i type="logical" name="LTETE"> F  </i>
   <i type="logical" name="LTRIPLET"> F  </i>
   <i type="logical" name="LFXCEPS"> F  </i>
   <i type="logical" name="LFXHEG"> F  </i>
   <i type="int" name="NATURALO">     0</i>
   <i type="logical" name="L2ORDER"> F  </i>
   <i type="logical" name="LUSEW"> F  </i>
   <i name="ENCUTGW">     -2.00000000</i>
   <i name="ENCUTGWSOFT">     -2.00000000</i>
   <i name="ENCUTLF">     -1.00000000</i>
   <i type="int" name="LMAXMP2">    -1</i>
   <i name="SCISSOR">      0.00000000</i>
   <i type="int" name="NOMEGA">     0</i>
   <i type="int" name="NOMEGAR">     0</i>
   <i type="int" name="NBANDSGW">    -1</i>
   <i type="int" name="NBANDSO">    -1</i>
   <i type="int" name="NBANDSV">    -1</i>
   <i type="int" name="NELM">    40</i>
   <i type="int" name="NELMHF">     1</i>
   <i type="int" name="DIM">     3</i>
   <i type="int" name="ANTIRES">     0</i>
   <i name="OMEGAMAX">    -30.00000000</i>
   <i name="OMEGAMIN">    -30.00000000</i>
   <i name="OMEGATL">   -200.00000000</i>
   <i type="int" name="OMEGAGRID">     0</i>
   <i name="CSHIFT">     -0.10000000</i>
   <i type="logical" name="SELFENERGY"> F  </i>
   <i type="logical" name="LSPECTRAL"> F  </i>
   <i type="logical" name="LSPECTRALGW"> F  </i>
   <i type="logical" name="LSINGLES"> F  </i>
   <i type="logical" name="LFERMIGW"> F  </i>
   <i type="logical" name="ODDONLYGW"> F  </i>
   <i type="logical" name="EVENONLYGW"> F  </i>
   <i type="int" name="NKREDLFX">     1</i>
   <i type="int" name="NKREDLFY">     1</i>
   <i type="int" name="NKREDLFZ">     1</i>
   <i type="int" name="MAXMEM">  1800</i>
   <i type="int" name="TELESCOPE">     0</i>
   <i type="int" name="TAUPAR">     1</i>
   <i type="int" name="OMEGAPAR">    -1</i>
   <i name="LAMBDA">      1.00000000</i>
  </separator>
  <separator name="External order field" >
   <i name="OFIELD_KAPPA">      0.00000000</i>
   <v name="OFIELD_K">      0.00000000      0.00000000      0.00000000</v>
   <i name="OFIELD_Q6_NEAR">      0.00000000</i>
   <i name="OFIELD_Q6_FAR">      0.00000000</i>
   <i name="OFIELD_A">      0.00000000</i>
  </separator>
 </parameters>
 <atominfo>
  <atoms>     156 </atoms>
  <types>       4 </types>
  <array name="atoms" >
   <dimension dim="1">ion</dimension>
   <field type="string">element</field>
   <field type="int">atomtype</field>
   <set>
    <rc><c>Sr</c><c>   1</c></rc>
    <rc><c>Sr</c><c>   1</c></rc>
    <rc><c>Sr</c><c>   1</c></rc>
    <rc><c>Sr</c><c>   1</c></rc>
    <rc><c>Sr</c><c>   1</c></rc>
    <rc><c>Sr</c><c>   1</c></rc>
    <rc><c>Sr</c><c>   1</c></rc>
    <rc><c>Sr</c><c>   1</c></rc>
    <rc><c>Sr</c><c>   1</c></rc>
    <rc><c>Sr</c><c>   1</c></rc>
    <rc><c>Sr</c><c>   1</c></rc>
    <rc><c>Sr</c><c>   1</c></rc>
    <rc><c>Sr</c><c>   1</c></rc>
    <rc><c>Sr</c><c>   1</c></rc>
    <rc><c>Sr</c><c>   1</c></rc>
    <rc><c>Sr</c><c>   1</c></rc>
    <rc><c>Sr</c><c>   1</c></rc>
    <rc><c>Sr</c><c>   1</c></rc>
    <rc><c>Sr</c><c>   1</c></rc>
    <rc><c>Sr</c><c>   1</c></rc>
    <rc><c>Sr</c><c>   1</c></rc>
    <rc><c>Sr</c><c>   1</c></rc>
    <rc><c>Sr</c><c>   1</c></rc>
    <rc><c>Sr</c><c>   1</c></rc>
    <rc><c>Sr</c><c>   1</c></rc>
    <rc><c>Sr</c><c>   1</c></rc>
    <rc><c>Sr</c><c>   1</c></rc>
    <rc><c>Sr</c><c>   1</c></rc>
    <rc><c>Sr</c><c>   1</c></rc>
    <rc><c>Sr</c><c>   1</c></rc>
    <rc><c>Sr</c><c>   1</c></rc>
    <rc><c>Sr</c><c>   1</c></rc>
    <rc><c>Ti</c><c>   2</c></rc>
    <rc><c>Ti</c><c>   2</c></rc>
    <rc><c>Ti</c><c>   2</c></rc>
    <rc><c>Ti</c><c>   2</c></rc>
    <rc><c>Ti</c><c>   2</c></rc>
    <rc><c>Ti</c><c>   2</c></rc>
    <rc><c>Ti</c><c>   2</c></rc>
    <rc><c>Ti</c><c>   2</c></rc>
    <rc><c>Ti</c><c>   2</c></rc>
    <rc><c>Ti</c><c>   2</c></rc>
    <rc><c>Ti</c><c>   2</c></rc>
    <rc><c>Ti</c><c>   2</c></rc>
    <rc><c>Ti</c><c>   2</c></rc>
    <rc><c>Ti</c><c>   2</c></rc>
    <rc><c>Ti</c><c>   2</c></rc>
    <rc><c>Ti</c><c>   2</c></rc>
    <rc><c>Ti</c><c>   2</c></rc>
    <rc><c>Ti</c><c>   2</c></rc>
    <rc><c>Ti</c><c>   2</c></rc>
    <rc><c>Ti</c><c>   2</c></rc>
    <rc><c>Ti</c><c>   2</c></rc>
    <rc><c>Ti</c><c>   2</c></rc>
    <rc><c>Ti</c><c>   2</c></rc>
    <rc><c>Ti</c><c>   2</c></rc>
    <rc><c>Fe</c><c>   3</c></rc>
    <rc><c>Fe</c><c>   3</c></rc>
    <rc><c>Fe</c><c>   3</c></rc>
    <rc><c>Fe</c><c>   3</c></rc>
    <rc><c>Fe</c><c>   3</c></rc>
    <rc><c>Fe</c><c>   3</c></rc>
    <rc><c>Fe</c><c>   3</c></rc>
    <rc><c>Fe</c><c>   3</c></rc>
    <rc><c>O </c><c>   4</c></rc>
    <rc><c>O </c><c>   4</c></rc>
    <rc><c>O </c><c>   4</c></rc>
    <rc><c>O </c><c>   4</c></rc>
    <rc><c>O </c><c>   4</c></rc>
    <rc><c>O </c><c>   4</c></rc>
    <rc><c>O </c><c>   4</c></rc>
    <rc><c>O </c><c>   4</c></rc>
    <rc><c>O </c><c>   4</c></rc>
    <rc><c>O </c><c>   4</c></rc>
    <rc><c>O </c><c>   4</c></rc>
    <rc><c>O </c><c>   4</c></rc>
    <rc><c>O </c><c>   4</c></rc>
    <rc><c>O </c><c>   4</c></rc>
    <rc><c>O </c><c>   4</c></rc>
    <rc><c>O </c><c>   4</c></rc>
    <rc><c>O </c><c>   4</c></rc>
    <rc><c>O </c><c>   4</c></rc>
    <rc><c>O </c><c>   4</c></rc>
    <rc><c>O </c><c>   4</c></rc>
    <rc><c>O </c><c>   4</c></rc>
    <rc><c>O </c><c>   4</c></rc>
    <rc><c>O </c><c>   4</c></rc>
    <rc><c>O </c><c>   4</c></rc>
    <rc><c>O </c><c>   4</c></rc>
    <rc><c>O </c><c>   4</c></rc>
    <rc><c>O </c><c>   4</c></rc>
    <rc><c>O </c><c>   4</c></rc>
    <rc><c>O </c><c>   4</c></rc>
    <rc><c>O </c><c>   4</c></rc>
    <rc><c>O </c><c>   4</c></rc>
    <rc><c>O </c><c>   4</c></rc>
    <rc><c>O </c><c>   4</c></rc>
    <rc><c>O </c><c>   4</c></rc>
    <rc><c>O </c><c>   4</c></rc>
    <rc><c>O </c><c>   4</c></rc>
    <rc><c>O </c><c>   4</c></rc>
    <rc><c>O </c><c>   4</c></rc>
    <rc><c>O </c><c>   4</c></rc>
    <rc><c>O </c><c>   4</c></rc>
    <rc><c>O </c><c>   4</c></rc>
    <rc><c>O </c><c>   4</c></rc>
    <rc><c>O </c><c>   4</c></rc>
    <rc><c>O </c><c>   4</c></rc>
    <rc><c>O </c><c>   4</c></rc>
    <rc><c>O </c><c>   4</c></rc>
    <rc><c>O </c><c>   4</c></rc>
    <rc><c>O </c><c>   4</c></rc>
    <rc><c>O </c><c>   4</c></rc>
    <rc><c>O </c><c>   4</c></rc>
    <rc><c>O </c><c>   4</c></rc>
    <rc><c>O </c><c>   4</c></rc>
    <rc><c>O </c><c>   4</c></rc>
    <rc><c>O </c><c>   4</c></rc>
    <rc><c>O </c><c>   4</c></rc>
    <rc><c>O </c><c>   4</c></rc>
    <rc><c>O </c><c>   4</c></rc>
    <rc><c>O </c><c>   4</c></rc>
    <rc><c>O </c><c>   4</c></rc>
    <rc><c>O </c><c>   4</c></rc>
    <rc><c>O </c><c>   4</c></rc>
    <rc><c>O </c><c>   4</c></rc>
    <rc><c>O </c><c>   4</c></rc>
    <rc><c>O </c><c>   4</c></rc>
    <rc><c>O </c><c>   4</c></rc>
    <rc><c>O </c><c>   4</c></rc>
    <rc><c>O </c><c>   4</c></rc>
    <rc><c>O </c><c>   4</c></rc>
    <rc><c>O </c><c>   4</c></rc>
    <rc><c>O </c><c>   4</c></rc>
    <rc><c>O </c><c>   4</c></rc>
    <rc><c>O </c><c>   4</c></rc>
    <rc><c>O </c><c>   4</c></rc>
    <rc><c>O </c><c>   4</c></rc>
    <rc><c>O </c><c>   4</c></rc>
    <rc><c>O </c><c>   4</c></rc>
    <rc><c>O </c><c>   4</c></rc>
    <rc><c>O </c><c>   4</c></rc>
    <rc><c>O </c><c>   4</c></rc>
    <rc><c>O </c><c>   4</c></rc>
    <rc><c>O </c><c>   4</c></rc>
    <rc><c>O </c><c>   4</c></rc>
    <rc><c>O </c><c>   4</c></rc>
    <rc><c>O </c><c>   4</c></rc>
    <rc><c>O </c><c>   4</c></rc>
    <rc><c>O </c><c>   4</c></rc>
    <rc><c>O </c><c>   4</c></rc>
    <rc><c>O </c><c>   4</c></rc>
    <rc><c>O </c><c>   4</c></rc>
    <rc><c>O </c><c>   4</c></rc>
    <rc><c>O </c><c>   4</c></rc>
    <rc><c>O </c><c>   4</c></rc>
   </set>
  </array>
  <array name="atomtypes" >
   <dimension dim="1">type</dimension>
   <field type="int">atomspertype</field>
   <field type="string">element</field>
   <field>mass</field>
   <field>valence</field>
   <field type="string">pseudopotential</field>
   <set>
    <rc><c>  32</c><c>Sr</c><c>     87.62000000</c><c>     10.00000000</c><c>  PAW_PBE Sr_sv 07Sep2000               </c></rc>
    <rc><c>  24</c><c>Ti</c><c>     47.88000000</c><c>      4.00000000</c><c>  PAW_PBE Ti 08Apr2002                  </c></rc>
    <rc><c>   8</c><c>Fe</c><c>     55.84700000</c><c>      8.00000000</c><c>  PAW_PBE Fe 06Sep2000                  </c></rc>
    <rc><c>  92</c><c>O </c><c>     16.00000000</c><c>      6.00000000</c><c>  PAW_PBE O 08Apr2002                   </c></rc>
   </set>
  </array>
 </atominfo>
 <structure name="initialpos" >
  <crystal>
   <varray name="basis" >
    <v>      11.18200098       0.00000000       0.00000000 </v>
    <v>       0.00000000      11.18200098       0.00000000 </v>
    <v>       0.00000000       0.00000000      15.96672551 </v>
   </varray>
   <i name="volume">   1996.43378550 </i>
   <varray name="rec_basis" >
    <v>       0.08942943       0.00000000       0.00000000 </v>
    <v>       0.00000000       0.08942943       0.00000000 </v>
    <v>       0.00000000       0.00000000       0.06263025 </v>
   </varray>
  </crystal>
  <varray name="positions" >
   <v>       0.00000000       0.25000000       0.12500000 </v>
   <v>       0.00000000       0.25000000       0.62500000 </v>
   <v>       0.00000000       0.75000000       0.12500000 </v>
   <v>       0.00000000       0.75000000       0.62500000 </v>
   <v>       0.50000000       0.25000000       0.12500000 </v>
   <v>       0.50000000       0.25000000       0.62500000 </v>
   <v>       0.50000000       0.75000000       0.12500000 </v>
   <v>       0.50000000       0.75000000       0.62500000 </v>
   <v>       0.00000000       0.25000000       0.37076091 </v>
   <v>       0.00000000       0.25000000       0.87923909 </v>
   <v>       0.00000000       0.75000000       0.37076091 </v>
   <v>       0.00000000       0.75000000       0.87923909 </v>
   <v>       0.50000000       0.25000000       0.37076091 </v>
   <v>       0.50000000       0.25000000       0.87923909 </v>
   <v>       0.50000000       0.75000000       0.37076091 </v>
   <v>       0.50000000       0.75000000       0.87923909 </v>
   <v>       0.25000000       0.00000000       0.12500000 </v>
   <v>       0.25000000       0.00000000       0.62500000 </v>
   <v>       0.25000000       0.50000000       0.12500000 </v>
   <v>       0.25000000       0.50000000       0.62500000 </v>
   <v>       0.75000000       0.00000000       0.12500000 </v>
   <v>       0.75000000       0.00000000       0.62500000 </v>
   <v>       0.75000000       0.50000000       0.12500000 </v>
   <v>       0.75000000       0.50000000       0.62500000 </v>
   <v>       0.25000000       0.00000000       0.37076091 </v>
   <v>       0.25000000       0.00000000       0.87923909 </v>
   <v>       0.25000000       0.50000000       0.37076091 </v>
   <v>       0.25000000       0.50000000       0.87923909 </v>
   <v>       0.75000000       0.00000000       0.37076091 </v>
   <v>       0.75000000       0.00000000       0.87923909 </v>
   <v>       0.75000000       0.50000000       0.37076091 </v>
   <v>       0.75000000       0.50000000       0.87923909 </v>
   <v>       0.00000000       0.00000000       0.00378706 </v>
   <v>       0.00000000       0.00000000       0.49936648 </v>
   <v>       0.00000000       0.50000000       0.00378706 </v>
   <v>       0.00000000       0.50000000       0.49936648 </v>
   <v>       0.50000000       0.00000000       0.00378706 </v>
   <v>       0.50000000       0.00000000       0.49936648 </v>
   <v>       0.50000000       0.50000000       0.00378706 </v>
   <v>       0.50000000       0.50000000       0.49936648 </v>
   <v>       0.25000000       0.25000000       0.50044155 </v>
   <v>       0.25000000       0.75000000       0.50044155 </v>
   <v>       0.75000000       0.25000000       0.50044155 </v>
   <v>       0.75000000       0.75000000       0.50044155 </v>
   <v>       0.25000000       0.25000000       0.74955845 </v>
   <v>       0.25000000       0.75000000       0.74955845 </v>
   <v>       0.75000000       0.25000000       0.74955845 </v>
   <v>       0.75000000       0.75000000       0.74955845 </v>
   <v>       0.00000000       0.00000000       0.24621294 </v>
   <v>       0.00000000       0.00000000       0.75063352 </v>
   <v>       0.00000000       0.50000000       0.24621294 </v>
   <v>       0.00000000       0.50000000       0.75063352 </v>
   <v>       0.50000000       0.00000000       0.24621294 </v>
   <v>       0.50000000       0.00000000       0.75063352 </v>
   <v>       0.50000000       0.50000000       0.24621294 </v>
   <v>       0.50000000       0.50000000       0.75063352 </v>
   <v>       0.75000000       0.25000000       0.26018922 </v>
   <v>       0.75000000       0.25000000       0.98981078 </v>
   <v>       0.25000000       0.75000000       0.26018922 </v>
   <v>       0.25000000       0.75000000       0.98981078 </v>
   <v>       0.25000000       0.25000000       0.26018922 </v>
   <v>       0.25000000       0.25000000       0.98981078 </v>
   <v>       0.75000000       0.75000000       0.26018922 </v>
   <v>       0.75000000       0.75000000       0.98981078 </v>
   <v>       0.00000000       0.00000000       0.12500000 </v>
   <v>       0.00000000       0.00000000       0.62500000 </v>
   <v>       0.00000000       0.50000000       0.12500000 </v>
   <v>       0.00000000       0.50000000       0.62500000 </v>
   <v>       0.50000000       0.00000000       0.12500000 </v>
   <v>       0.50000000       0.00000000       0.62500000 </v>
   <v>       0.50000000       0.50000000       0.12500000 </v>
   <v>       0.50000000       0.50000000       0.62500000 </v>
   <v>       0.00000000       0.00000000       0.37176074 </v>
   <v>       0.00000000       0.00000000       0.87823926 </v>
   <v>       0.00000000       0.50000000       0.37176074 </v>
   <v>       0.00000000       0.50000000       0.87823926 </v>
   <v>       0.50000000       0.00000000       0.37176074 </v>
   <v>       0.50000000       0.00000000       0.87823926 </v>
   <v>       0.50000000       0.50000000       0.37176074 </v>
   <v>       0.50000000       0.50000000       0.87823926 </v>
   <v>       0.25000000       0.25000000       0.37763856 </v>
   <v>       0.25000000       0.25000000       0.87236144 </v>
   <v>       0.25000000       0.75000000       0.37763856 </v>
   <v>       0.25000000       0.75000000       0.87236144 </v>
   <v>       0.75000000       0.25000000       0.37763856 </v>
   <v>       0.75000000       0.25000000       0.87236144 </v>
   <v>       0.75000000       0.75000000       0.37763856 </v>
   <v>       0.75000000       0.75000000       0.87236144 </v>
   <v>       0.25000000       0.25000000       0.62500000 </v>
   <v>       0.25000000       0.75000000       0.62500000 </v>
   <v>       0.75000000       0.25000000       0.62500000 </v>
   <v>       0.75000000       0.75000000       0.62500000 </v>
   <v>       0.11937624       0.13482849       0.24169677 </v>
   <v>       0.36517151       0.11937624       0.24169677 </v>
   <v>       0.61937624       0.13482849       0.24169677 </v>
   <v>       0.86517151       0.11937624       0.24169677 </v>
   <v>       0.13482849       0.38062376       0.24169677 </v>
   <v>       0.38062376       0.36517151       0.24169677 </v>
   <v>       0.63482849       0.38062376       0.24169677 </v>
   <v>       0.88062376       0.36517151       0.24169677 </v>
   <v>       0.11937624       0.63482849       0.24169677 </v>
   <v>       0.36517151       0.61937624       0.24169677 </v>
   <v>       0.61937624       0.63482849       0.24169677 </v>
   <v>       0.86517151       0.61937624       0.24169677 </v>
   <v>       0.13482849       0.88062376       0.24169677 </v>
   <v>       0.38062376       0.86517151       0.24169677 </v>
   <v>       0.63482849       0.88062376       0.24169677 </v>
   <v>       0.88062376       0.86517151       0.24169677 </v>
   <v>       0.14265239       0.10683947       0.49926767 </v>
   <v>       0.39316053       0.14265239       0.49926767 </v>
   <v>       0.64265239       0.10683947       0.49926767 </v>
   <v>       0.89316053       0.14265239       0.49926767 </v>
   <v>       0.10683947       0.35734761       0.49926767 </v>
   <v>       0.35734761       0.39316053       0.49926767 </v>
   <v>       0.60683947       0.35734761       0.49926767 </v>
   <v>       0.85734761       0.39316053       0.49926767 </v>
   <v>       0.14265239       0.60683947       0.49926767 </v>
   <v>       0.39316053       0.64265239       0.49926767 </v>
   <v>       0.64265239       0.60683947       0.49926767 </v>
   <v>       0.89316053       0.64265239       0.49926767 </v>
   <v>       0.10683947       0.85734761       0.49926767 </v>
   <v>       0.35734761       0.89316053       0.49926767 </v>
   <v>       0.60683947       0.85734761       0.49926767 </v>
   <v>       0.85734761       0.89316053       0.49926767 </v>
   <v>       0.10683947       0.14265239       0.75073233 </v>
   <v>       0.35734761       0.10683947       0.75073233 </v>
   <v>       0.60683947       0.14265239       0.75073233 </v>
   <v>       0.85734761       0.10683947       0.75073233 </v>
   <v>       0.14265239       0.39316053       0.75073233 </v>
   <v>       0.39316053       0.35734761       0.75073233 </v>
   <v>       0.64265239       0.39316053       0.75073233 </v>
   <v>       0.89316053       0.35734761       0.75073233 </v>
   <v>       0.10683947       0.64265239       0.75073233 </v>
   <v>       0.35734761       0.60683947       0.75073233 </v>
   <v>       0.60683947       0.64265239       0.75073233 </v>
   <v>       0.85734761       0.60683947       0.75073233 </v>
   <v>       0.14265239       0.89316053       0.75073233 </v>
   <v>       0.39316053       0.85734761       0.75073233 </v>
   <v>       0.64265239       0.89316053       0.75073233 </v>
   <v>       0.89316053       0.85734761       0.75073233 </v>
   <v>       0.13482849       0.11937624       0.00830323 </v>
   <v>       0.38062376       0.13482849       0.00830323 </v>
   <v>       0.63482849       0.11937624       0.00830323 </v>
   <v>       0.88062376       0.13482849       0.00830323 </v>
   <v>       0.11937624       0.36517151       0.00830323 </v>
   <v>       0.36517151       0.38062376       0.00830323 </v>
   <v>       0.61937624       0.36517151       0.00830323 </v>
   <v>       0.86517151       0.38062376       0.00830323 </v>
   <v>       0.13482849       0.61937624       0.00830323 </v>
   <v>       0.38062376       0.63482849       0.00830323 </v>
   <v>       0.63482849       0.61937624       0.00830323 </v>
   <v>       0.88062376       0.63482849       0.00830323 </v>
   <v>       0.11937624       0.86517151       0.00830323 </v>
   <v>       0.36517151       0.88062376       0.00830323 </v>
   <v>       0.61937624       0.86517151       0.00830323 </v>
   <v>       0.86517151       0.88062376       0.00830323 </v>
  </varray>
 </structure>
 <calculation>
  <scstep>
   <time name="dav">   50.94   50.96</time>
   <time name="total">   52.94   52.99</time>
   <energy>
    <i name="alphaZ">   5652.75764207 </i>
    <i name="ewald"> -61821.14347455 </i>
    <i name="hartreedc"> -15767.39390561 </i>
    <i name="XCdc">   2963.72068395 </i>
    <i name="pawpsdc"> 111315.04672728 </i>
    <i name="pawaedc">-110216.42872021 </i>
    <i name="eentropy">     -0.00000000 </i>
    <i name="bandstr">  -7030.80162378 </i>
    <i name="atom">  73783.44779670 </i>
    <i name="e_fr_energy">  -1120.79487415 </i>
    <i name="e_wo_entrp">  -1120.79487415 </i>
    <i name="e_0_energy">  -1120.79487415 </i>
   </energy>
  </scstep>
  <scstep>
   <time name="diag">    8.25    8.26</time>
   <time name="diis">    6.86    6.87</time>
   <time name="orth">    4.70    4.71</time>
   <time name="total">   21.83   21.88</time>
   <energy>
    <i name="e_fr_energy">  -1120.79487489 </i>
    <i name="e_wo_entrp">  -1120.79487489 </i>
    <i name="e_0_energy">  -1120.79487489 </i>
   </energy>
  </scstep>
  <scstep>
   <time name="diag">    8.26    8.26</time>
   <time name="diis">    5.88    5.88</time>
   <time name="orth">    4.69    4.69</time>
   <time name="total">   20.83   20.88</time>
   <energy>
    <i name="e_fr_energy">  -1120.79487522 </i>
    <i name="e_wo_entrp">  -1120.79487522 </i>
    <i name="e_0_energy">  -1120.79487522 </i>
   </energy>
  </scstep>
  <scstep>
   <time name="diag">    8.26    8.27</time>
   <time name="diis">    5.41    5.42</time>
   <time name="orth">    4.71    4.70</time>
   <time name="total">   20.39   20.41</time>
   <energy>
    <i name="e_fr_energy">  -1120.79487517 </i>
    <i name="e_wo_entrp">  -1120.79487517 </i>
    <i name="e_0_energy">  -1120.79487517 </i>
   </energy>
  </scstep>
  <scstep>
   <time name="diag">    8.25    8.26</time>
   <time name="diis">    5.26    5.26</time>
   <time name="orth">    4.70    4.70</time>
   <time name="total">   20.21   20.30</time>
   <energy>
    <i name="e_fr_energy">  -1120.79487510 </i>
    <i name="e_wo_entrp">  -1120.79487510 </i>
    <i name="e_0_energy">  -1120.79487510 </i>
   </energy>
  </scstep>
  <scstep>
   <time name="diag">    8.27    8.28</time>
   <time name="diis">    5.22    5.22</time>
   <time name="orth">    4.69    4.69</time>
   <time name="total">   20.19   20.23</time>
   <energy>
    <i name="e_fr_energy">  -1120.79487487 </i>
    <i name="e_wo_entrp">  -1120.79487487 </i>
    <i name="e_0_energy">  -1120.79487487 </i>
   </energy>
  </scstep>
  <scstep>
   <time name="diag">    8.28    8.28</time>
   <time name="diis">    5.20    5.20</time>
   <time name="orth">    4.67    4.67</time>
   <time name="total">   20.18   20.20</time>
   <energy>
    <i name="e_fr_energy">  -1120.79487488 </i>
    <i name="e_wo_entrp">  -1120.79487488 </i>
    <i name="e_0_energy">  -1120.79487488 </i>
   </energy>
  </scstep>
  <scstep>
   <time name="diag">    8.24    8.25</time>
   <time name="diis">    5.16    5.17</time>
   <time name="orth">    4.69    4.69</time>
   <time name="total">   18.67   18.69</time>
   <energy>
    <i name="alphaZ">   5652.75764207 </i>
    <i name="ewald"> -61821.14347455 </i>
    <i name="hartreedc"> -15767.37467963 </i>
    <i name="XCdc">   2963.71931969 </i>
    <i name="pawpsdc"> 111315.28783483 </i>
    <i name="pawaedc">-110216.67131425 </i>
    <i name="eentropy">     -0.00000000 </i>
    <i name="bandstr">  -7030.81799974 </i>
    <i name="atom">  73783.44779670 </i>
    <i name="e_fr_energy">  -1120.79487488 </i>
    <i name="e_wo_entrp">  -1120.79487488 </i>
    <i name="e_0_energy">  -1120.79487488 </i>
   </energy>
  </scstep>
  <structure>
   <crystal>
    <varray name="basis" >
     <v>      11.18200098       0.00000000       0.00000000 </v>
     <v>       0.00000000      11.18200098       0.00000000 </v>
     <v>       0.00000000       0.00000000      15.96672551 </v>
    </varray>
    <i name="volume">   1996.43378550 </i>
    <varray name="rec_basis" >
     <v>       0.08942943       0.00000000       0.00000000 </v>
     <v>       0.00000000       0.08942943       0.00000000 </v>
     <v>       0.00000000       0.00000000       0.06263025 </v>
    </varray>
   </crystal>
   <varray name="positions" >
    <v>       0.00000000       0.25000000       0.12500000 </v>
    <v>       0.00000000       0.25000000       0.62500000 </v>
    <v>       0.00000000       0.75000000       0.12500000 </v>
    <v>       0.00000000       0.75000000       0.62500000 </v>
    <v>       0.50000000       0.25000000       0.12500000 </v>
    <v>       0.50000000       0.25000000       0.62500000 </v>
    <v>       0.50000000       0.75000000       0.12500000 </v>
    <v>       0.50000000       0.75000000       0.62500000 </v>
    <v>       0.00000000       0.25000000       0.37076091 </v>
    <v>       0.00000000       0.25000000       0.87923909 </v>
    <v>       0.00000000       0.75000000       0.37076091 </v>
    <v>       0.00000000       0.75000000       0.87923909 </v>
    <v>       0.50000000       0.25000000       0.37076091 </v>
    <v>       0.50000000       0.25000000       0.87923909 </v>
    <v>       0.50000000       0.75000000       0.37076091 </v>
    <v>       0.50000000       0.75000000       0.87923909 </v>
    <v>       0.25000000       0.00000000       0.12500000 </v>
    <v>       0.25000000       0.00000000       0.62500000 </v>
    <v>       0.25000000       0.50000000       0.12500000 </v>
    <v>       0.25000000       0.50000000       0.62500000 </v>
    <v>       0.75000000       0.00000000       0.12500000 </v>
    <v>       0.75000000       0.00000000       0.62500000 </v>
    <v>       0.75000000       0.50000000       0.12500000 </v>
    <v>       0.75000000       0.50000000       0.62500000 </v>
    <v>       0.25000000       0.00000000       0.37076091 </v>
    <v>       0.25000000       0.00000000       0.87923909 </v>
    <v>       0.25000000       0.50000000       0.37076091 </v>
    <v>       0.25000000       0.50000000       0.87923909 </v>
    <v>       0.75000000       0.00000000       0.37076091 </v>
    <v>       0.75000000       0.00000000       0.87923909 </v>
    <v>       0.75000000       0.50000000       0.37076091 </v>
    <v>       0.75000000       0.50000000       0.87923909 </v>
    <v>       0.00000000       0.00000000       0.00378706 </v>
    <v>       0.00000000       0.00000000       0.49936648 </v>
    <v>       0.00000000       0.50000000       0.00378706 </v>
    <v>       0.00000000       0.50000000       0.49936648 </v>
    <v>       0.50000000       0.00000000       0.00378706 </v>
    <v>       0.50000000       0.00000000       0.49936648 </v>
    <v>       0.50000000       0.50000000       0.00378706 </v>
    <v>       0.50000000       0.50000000       0.49936648 </v>
    <v>       0.25000000       0.25000000       0.50044155 </v>
    <v>       0.25000000       0.75000000       0.50044155 </v>
    <v>       0.75000000       0.25000000       0.50044155 </v>
    <v>       0.75000000       0.75000000       0.50044155 </v>
    <v>       0.25000000       0.25000000       0.74955845 </v>
    <v>       0.25000000       0.75000000       0.74955845 </v>
    <v>       0.75000000       0.25000000       0.74955845 </v>
    <v>       0.75000000       0.75000000       0.74955845 </v>
    <v>       0.00000000       0.00000000       0.24621294 </v>
    <v>       0.00000000       0.00000000       0.75063352 </v>
    <v>       0.00000000       0.50000000       0.24621294 </v>
    <v>       0.00000000       0.50000000       0.75063352 </v>
    <v>       0.50000000       0.00000000       0.24621294 </v>
    <v>       0.50000000       0.00000000       0.75063352 </v>
    <v>       0.50000000       0.50000000       0.24621294 </v>
    <v>       0.50000000       0.50000000       0.75063352 </v>
    <v>       0.75000000       0.25000000       0.26018922 </v>
    <v>       0.75000000       0.25000000       0.98981078 </v>
    <v>       0.25000000       0.75000000       0.26018922 </v>
    <v>       0.25000000       0.75000000       0.98981078 </v>
    <v>       0.25000000       0.25000000       0.26018922 </v>
    <v>       0.25000000       0.25000000       0.98981078 </v>
    <v>       0.75000000       0.75000000       0.26018922 </v>
    <v>       0.75000000       0.75000000       0.98981078 </v>
    <v>       0.00000000       0.00000000       0.12500000 </v>
    <v>       0.00000000       0.00000000       0.62500000 </v>
    <v>       0.00000000       0.50000000       0.12500000 </v>
    <v>       0.00000000       0.50000000       0.62500000 </v>
    <v>       0.50000000       0.00000000       0.12500000 </v>
    <v>       0.50000000       0.00000000       0.62500000 </v>
    <v>       0.50000000       0.50000000       0.12500000 </v>
    <v>       0.50000000       0.50000000       0.62500000 </v>
    <v>       0.00000000       0.00000000       0.37176074 </v>
    <v>       0.00000000       0.00000000       0.87823926 </v>
    <v>       0.00000000       0.50000000       0.37176074 </v>
    <v>       0.00000000       0.50000000       0.87823926 </v>
    <v>       0.50000000       0.00000000       0.37176074 </v>
    <v>       0.50000000       0.00000000       0.87823926 </v>
    <v>       0.50000000       0.50000000       0.37176074 </v>
    <v>       0.50000000       0.50000000       0.87823926 </v>
    <v>       0.25000000       0.25000000       0.37763856 </v>
    <v>       0.25000000       0.25000000       0.87236144 </v>
    <v>       0.25000000       0.75000000       0.37763856 </v>
    <v>       0.25000000       0.75000000       0.87236144 </v>
    <v>       0.75000000       0.25000000       0.37763856 </v>
    <v>       0.75000000       0.25000000       0.87236144 </v>
    <v>       0.75000000       0.75000000       0.37763856 </v>
    <v>       0.75000000       0.75000000       0.87236144 </v>
    <v>       0.25000000       0.25000000       0.62500000 </v>
    <v>       0.25000000       0.75000000       0.62500000 </v>
    <v>       0.75000000       0.25000000       0.62500000 </v>
    <v>       0.75000000       0.75000000       0.62500000 </v>
    <v>       0.11937624       0.13482849       0.24169677 </v>
    <v>       0.36517151       0.11937624       0.24169677 </v>
    <v>       0.61937624       0.13482849       0.24169677 </v>
    <v>       0.86517151       0.11937624       0.24169677 </v>
    <v>       0.13482849       0.38062376       0.24169677 </v>
    <v>       0.38062376       0.36517151       0.24169677 </v>
    <v>       0.63482849       0.38062376       0.24169677 </v>
    <v>       0.88062376       0.36517151       0.24169677 </v>
    <v>       0.11937624       0.63482849       0.24169677 </v>
    <v>       0.36517151       0.61937624       0.24169677 </v>
    <v>       0.61937624       0.63482849       0.24169677 </v>
    <v>       0.86517151       0.61937624       0.24169677 </v>
    <v>       0.13482849       0.88062376       0.24169677 </v>
    <v>       0.38062376       0.86517151       0.24169677 </v>
    <v>       0.63482849       0.88062376       0.24169677 </v>
    <v>       0.88062376       0.86517151       0.24169677 </v>
    <v>       0.14265239       0.10683947       0.49926767 </v>
    <v>       0.39316053       0.14265239       0.49926767 </v>
    <v>       0.64265239       0.10683947       0.49926767 </v>
    <v>       0.89316053       0.14265239       0.49926767 </v>
    <v>       0.10683947       0.35734761       0.49926767 </v>
    <v>       0.35734761       0.39316053       0.49926767 </v>
    <v>       0.60683947       0.35734761       0.49926767 </v>
    <v>       0.85734761       0.39316053       0.49926767 </v>
    <v>       0.14265239       0.60683947       0.49926767 </v>
    <v>       0.39316053       0.64265239       0.49926767 </v>
    <v>       0.64265239       0.60683947       0.49926767 </v>
    <v>       0.89316053       0.64265239       0.49926767 </v>
    <v>       0.10683947       0.85734761       0.49926767 </v>
    <v>       0.35734761       0.89316053       0.49926767 </v>
    <v>       0.60683947       0.85734761       0.49926767 </v>
    <v>       0.85734761       0.89316053       0.49926767 </v>
    <v>       0.10683947       0.14265239       0.75073233 </v>
    <v>       0.35734761       0.10683947       0.75073233 </v>
    <v>       0.60683947       0.14265239       0.75073233 </v>
    <v>       0.85734761       0.10683947       0.75073233 </v>
    <v>       0.14265239       0.39316053       0.75073233 </v>
    <v>       0.39316053       0.35734761       0.75073233 </v>
    <v>       0.64265239       0.39316053       0.75073233 </v>
    <v>       0.89316053       0.35734761       0.75073233 </v>
    <v>       0.10683947       0.64265239       0.75073233 </v>
    <v>       0.35734761       0.60683947       0.75073233 </v>
    <v>       0.60683947       0.64265239       0.75073233 </v>
    <v>       0.85734761       0.60683947       0.75073233 </v>
    <v>       0.14265239       0.89316053       0.75073233 </v>
    <v>       0.39316053       0.85734761       0.75073233 </v>
    <v>       0.64265239       0.89316053       0.75073233 </v>
    <v>       0.89316053       0.85734761       0.75073233 </v>
    <v>       0.13482849       0.11937624       0.00830323 </v>
    <v>       0.38062376       0.13482849       0.00830323 </v>
    <v>       0.63482849       0.11937624       0.00830323 </v>
    <v>       0.88062376       0.13482849       0.00830323 </v>
    <v>       0.11937624       0.36517151       0.00830323 </v>
    <v>       0.36517151       0.38062376       0.00830323 </v>
    <v>       0.61937624       0.36517151       0.00830323 </v>
    <v>       0.86517151       0.38062376       0.00830323 </v>
    <v>       0.13482849       0.61937624       0.00830323 </v>
    <v>       0.38062376       0.63482849       0.00830323 </v>
    <v>       0.63482849       0.61937624       0.00830323 </v>
    <v>       0.88062376       0.63482849       0.00830323 </v>
    <v>       0.11937624       0.86517151       0.00830323 </v>
    <v>       0.36517151       0.88062376       0.00830323 </v>
    <v>       0.61937624       0.86517151       0.00830323 </v>
    <v>       0.86517151       0.88062376       0.00830323 </v>
   </varray>
  </structure>
  <varray name="forces" >
   <v>       0.00000000       0.00000000       0.00000000 </v>
   <v>       0.00000000       0.00000000       0.00000000 </v>
   <v>       0.00000000       0.00000000       0.00000000 </v>
   <v>       0.00000000       0.00000000       0.00000000 </v>
   <v>       0.00000000       0.00000000       0.00000000 </v>
   <v>       0.00000000       0.00000000       0.00000000 </v>
   <v>       0.00000000       0.00000000       0.00000000 </v>
   <v>       0.00000000       0.00000000       0.00000000 </v>
   <v>       0.00000000       0.00000000       0.01861171 </v>
   <v>       0.00000000       0.00000000      -0.01861171 </v>
   <v>       0.00000000       0.00000000       0.01861171 </v>
   <v>       0.00000000       0.00000000      -0.01861171 </v>
   <v>       0.00000000       0.00000000       0.01861171 </v>
   <v>       0.00000000       0.00000000      -0.01861171 </v>
   <v>       0.00000000       0.00000000       0.01861171 </v>
   <v>       0.00000000       0.00000000      -0.01861171 </v>
   <v>       0.00000000       0.00000000       0.00000000 </v>
   <v>       0.00000000       0.00000000       0.00000000 </v>
   <v>       0.00000000       0.00000000       0.00000000 </v>
   <v>       0.00000000       0.00000000       0.00000000 </v>
   <v>       0.00000000       0.00000000       0.00000000 </v>
   <v>       0.00000000       0.00000000       0.00000000 </v>
   <v>       0.00000000       0.00000000       0.00000000 </v>
   <v>       0.00000000       0.00000000       0.00000000 </v>
   <v>       0.00000000       0.00000000       0.01861171 </v>
   <v>       0.00000000       0.00000000      -0.01861171 </v>
   <v>       0.00000000       0.00000000       0.01861171 </v>
   <v>       0.00000000       0.00000000      -0.01861171 </v>
   <v>       0.00000000       0.00000000       0.01861171 </v>
   <v>       0.00000000       0.00000000      -0.01861171 </v>
   <v>       0.00000000       0.00000000       0.01861171 </v>
   <v>       0.00000000       0.00000000      -0.01861171 </v>
   <v>       0.00000000       0.00000000      -0.01007014 </v>
   <v>       0.00000000       0.00000000      -0.00694977 </v>
   <v>       0.00000000       0.00000000      -0.01007014 </v>
   <v>       0.00000000       0.00000000      -0.00694977 </v>
   <v>       0.00000000       0.00000000      -0.01007014 </v>
   <v>       0.00000000       0.00000000      -0.00694977 </v>
   <v>       0.00000000       0.00000000      -0.01007014 </v>
   <v>       0.00000000       0.00000000      -0.00694977 </v>
   <v>       0.00000000       0.00000000      -0.01223099 </v>
   <v>       0.00000000       0.00000000      -0.01223099 </v>
   <v>       0.00000000       0.00000000      -0.01223099 </v>
   <v>       0.00000000       0.00000000      -0.01223099 </v>
   <v>       0.00000000       0.00000000       0.01223099 </v>
   <v>       0.00000000       0.00000000       0.01223099 </v>
   <v>       0.00000000       0.00000000       0.01223099 </v>
   <v>       0.00000000       0.00000000       0.01223099 </v>
   <v>       0.00000000       0.00000000       0.01007014 </v>
   <v>       0.00000000       0.00000000       0.00694977 </v>
   <v>       0.00000000       0.00000000       0.01007014 </v>
   <v>       0.00000000       0.00000000       0.00694977 </v>
   <v>       0.00000000       0.00000000       0.01007014 </v>
   <v>       0.00000000       0.00000000       0.00694977 </v>
   <v>       0.00000000       0.00000000       0.01007014 </v>
   <v>       0.00000000       0.00000000       0.00694977 </v>
   <v>       0.00000000       0.00000000      -0.02275228 </v>
   <v>       0.00000000       0.00000000       0.02275228 </v>
   <v>       0.00000000       0.00000000      -0.02275228 </v>
   <v>       0.00000000       0.00000000       0.02275228 </v>
   <v>       0.00000000       0.00000000      -0.02275228 </v>
   <v>       0.00000000       0.00000000       0.02275228 </v>
   <v>       0.00000000       0.00000000      -0.02275228 </v>
   <v>       0.00000000       0.00000000       0.02275228 </v>
   <v>       0.00000000       0.00000000       0.00000000 </v>
   <v>       0.00000000       0.00000000       0.00000000 </v>
   <v>       0.00000000       0.00000000       0.00000000 </v>
   <v>       0.00000000       0.00000000       0.00000000 </v>
   <v>       0.00000000       0.00000000       0.00000000 </v>
   <v>       0.00000000       0.00000000       0.00000000 </v>
   <v>       0.00000000       0.00000000       0.00000000 </v>
   <v>       0.00000000       0.00000000       0.00000000 </v>
   <v>       0.00000000       0.00000000       0.02740242 </v>
   <v>       0.00000000       0.00000000      -0.02740242 </v>
   <v>       0.00000000       0.00000000       0.02740242 </v>
   <v>       0.00000000       0.00000000      -0.02740242 </v>
   <v>       0.00000000       0.00000000       0.02740242 </v>
   <v>       0.00000000       0.00000000      -0.02740242 </v>
   <v>       0.00000000       0.00000000       0.02740242 </v>
   <v>       0.00000000       0.00000000      -0.02740242 </v>
   <v>       0.00000000       0.00000000       0.03123121 </v>
   <v>       0.00000000       0.00000000      -0.03123121 </v>
   <v>       0.00000000       0.00000000       0.03123121 </v>
   <v>       0.00000000       0.00000000      -0.03123121 </v>
   <v>       0.00000000       0.00000000       0.03123121 </v>
   <v>       0.00000000       0.00000000      -0.03123121 </v>
   <v>       0.00000000       0.00000000       0.03123121 </v>
   <v>       0.00000000       0.00000000      -0.03123121 </v>
   <v>       0.00000000       0.00000000       0.00000000 </v>
   <v>       0.00000000       0.00000000       0.00000000 </v>
   <v>       0.00000000       0.00000000       0.00000000 </v>
   <v>       0.00000000       0.00000000       0.00000000 </v>
   <v>      -0.00558066      -0.01680328      -0.01197497 </v>
   <v>       0.01680328      -0.00558066      -0.01197497 </v>
   <v>      -0.00558066      -0.01680328      -0.01197497 </v>
   <v>       0.01680328      -0.00558066      -0.01197497 </v>
   <v>      -0.01680328       0.00558066      -0.01197497 </v>
   <v>       0.00558066       0.01680328      -0.01197497 </v>
   <v>      -0.01680328       0.00558066      -0.01197497 </v>
   <v>       0.00558066       0.01680328      -0.01197497 </v>
   <v>      -0.00558066      -0.01680328      -0.01197497 </v>
   <v>       0.01680328      -0.00558066      -0.01197497 </v>
   <v>      -0.00558066      -0.01680328      -0.01197497 </v>
   <v>       0.01680328      -0.00558066      -0.01197497 </v>
   <v>      -0.01680328       0.00558066      -0.01197497 </v>
   <v>       0.00558066       0.01680328      -0.01197497 </v>
   <v>      -0.01680328       0.00558066      -0.01197497 </v>
   <v>       0.00558066       0.01680328      -0.01197497 </v>
   <v>      -0.00586610      -0.00306458      -0.00212061 </v>
   <v>       0.00306458      -0.00586610      -0.00212061 </v>
   <v>      -0.00586610      -0.00306458      -0.00212061 </v>
   <v>       0.00306458      -0.00586610      -0.00212061 </v>
   <v>      -0.00306458       0.00586610      -0.00212061 </v>
   <v>       0.00586610       0.00306458      -0.00212061 </v>
   <v>      -0.00306458       0.00586610      -0.00212061 </v>
   <v>       0.00586610       0.00306458      -0.00212061 </v>
   <v>      -0.00586610      -0.00306458      -0.00212061 </v>
   <v>       0.00306458      -0.00586610      -0.00212061 </v>
   <v>      -0.00586610      -0.00306458      -0.00212061 </v>
   <v>       0.00306458      -0.00586610      -0.00212061 </v>
   <v>      -0.00306458       0.00586610      -0.00212061 </v>
   <v>       0.00586610       0.00306458      -0.00212061 </v>
   <v>      -0.00306458       0.00586610      -0.00212061 </v>
   <v>       0.00586610       0.00306458      -0.00212061 </v>
   <v>      -0.00306458      -0.00586610       0.00212061 </v>
   <v>       0.00586610      -0.00306458       0.00212061 </v>
   <v>      -0.00306458      -0.00586610       0.00212061 </v>
   <v>       0.00586610      -0.00306458       0.00212061 </v>
   <v>      -0.00586610       0.00306458       0.00212061 </v>
   <v>       0.00306458       0.00586610       0.00212061 </v>
   <v>      -0.00586610       0.00306458       0.00212061 </v>
   <v>       0.00306458       0.00586610       0.00212061 </v>
   <v>      -0.00306458      -0.00586610       0.00212061 </v>
   <v>       0.00586610      -0.00306458       0.00212061 </v>
   <v>      -0.00306458      -0.00586610       0.00212061 </v>
   <v>       0.00586610      -0.00306458       0.00212061 </v>
   <v>      -0.00586610       0.00306458       0.00212061 </v>
   <v>       0.00306458       0.00586610       0.00212061 </v>
   <v>      -0.00586610       0.00306458       0.00212061 </v>
   <v>       0.00306458       0.00586610       0.00212061 </v>
   <v>      -0.01680328      -0.00558066       0.01197497 </v>
   <v>       0.00558066      -0.01680328       0.01197497 </v>
   <v>      -0.01680328      -0.00558066       0.01197497 </v>
   <v>       0.00558066      -0.01680328       0.01197497 </v>
   <v>      -0.00558066       0.01680328       0.01197497 </v>
   <v>       0.01680328       0.00558066       0.01197497 </v>
   <v>      -0.00558066       0.01680328       0.01197497 </v>
   <v>       0.01680328       0.00558066       0.01197497 </v>
   <v>      -0.01680328      -0.00558066       0.01197497 </v>
   <v>       0.00558066      -0.01680328       0.01197497 </v>
   <v>      -0.01680328      -0.00558066       0.01197497 </v>
   <v>       0.00558066      -0.01680328       0.01197497 </v>
   <v>      -0.00558066       0.01680328       0.01197497 </v>
   <v>       0.01680328       0.00558066       0.01197497 </v>
   <v>      -0.00558066       0.01680328       0.01197497 </v>
   <v>       0.01680328       0.00558066       0.01197497 </v>
  </varray>
  <varray name="stress" >
   <v>      -0.01869402       0.00000000       0.00000000 </v>
   <v>       0.00000000      -0.01869402       0.00000000 </v>
   <v>       0.00000000       0.00000000      -0.25424413 </v>
  </varray>
  <energy>
   <i name="e_fr_energy">  -1120.79487488 </i>
   <i name="e_wo_entrp">  -1120.79487488 </i>
   <i name="e_0_energy">     -0.00000000 </i>
  </energy>
  <time name="totalsc">  257.41  259.46</time>
 </calculation>
 <calculation>
  <scstep>
   <time name="dav">   72.40   72.42</time>
   <time name="total">   74.38   74.45</time>
   <energy>
    <i name="alphaZ">   5653.39295818 </i>
    <i name="ewald"> -61827.92569047 </i>
    <i name="hartreedc"> -15763.68057018 </i>
    <i name="XCdc">   2963.84350762 </i>
    <i name="pawpsdc"> 111315.27916897 </i>
    <i name="pawaedc">-110216.66255372 </i>
    <i name="eentropy">     -0.00000000 </i>
    <i name="bandstr">  -7028.48890169 </i>
    <i name="atom">  73783.44779670 </i>
    <i name="e_fr_energy">  -1120.79428459 </i>
    <i name="e_wo_entrp">  -1120.79428459 </i>
    <i name="e_0_energy">  -1120.79428459 </i>
   </energy>
  </scstep>
  <scstep>
   <time name="diag">    8.27    8.28</time>
   <time name="diis">   12.88   12.89</time>
   <time name="orth">    4.69    4.69</time>
   <time name="total">   27.86   27.87</time>
   <energy>
    <i name="e_fr_energy">  -1120.79565507 </i>
    <i name="e_wo_entrp">  -1120.79565507 </i>
    <i name="e_0_energy">  -1120.79565507 </i>
   </energy>
  </scstep>
  <scstep>
   <time name="diag">    8.27    8.27</time>
   <time name="diis">   11.38   11.39</time>
   <time name="orth">    4.70    4.70</time>
   <time name="total">   26.37   26.38</time>
   <energy>
    <i name="e_fr_energy">  -1120.79570466 </i>
    <i name="e_wo_entrp">  -1120.79570466 </i>
    <i name="e_0_energy">  -1120.79570466 </i>
   </energy>
  </scstep>
  <scstep>
   <time name="diag">    8.24    8.24</time>
   <time name="diis">    8.49    8.49</time>
   <time name="orth">    4.71    4.71</time>
   <time name="total">   23.43   23.45</time>
   <energy>
    <i name="e_fr_energy">  -1120.79564173 </i>
    <i name="e_wo_entrp">  -1120.79564173 </i>
    <i name="e_0_energy">  -1120.79564173 </i>
   </energy>
  </scstep>
  <scstep>
   <time name="diag">    8.25    8.26</time>
   <time name="diis">    8.18    8.18</time>
   <time name="orth">    4.69    4.69</time>
   <time name="total">   23.13   23.15</time>
   <energy>
    <i name="e_fr_energy">  -1120.79564031 </i>
    <i name="e_wo_entrp">  -1120.79564031 </i>
    <i name="e_0_energy">  -1120.79564031 </i>
   </energy>
  </scstep>
  <scstep>
   <time name="diag">    8.25    8.26</time>
   <time name="diis">    7.83    7.83</time>
   <time name="orth">    4.70    4.71</time>
   <time name="total">   22.79   22.81</time>
   <energy>
    <i name="e_fr_energy">  -1120.79563743 </i>
    <i name="e_wo_entrp">  -1120.79563743 </i>
    <i name="e_0_energy">  -1120.79563743 </i>
   </energy>
  </scstep>
  <scstep>
   <time name="diag">    8.27    8.28</time>
   <time name="diis">    7.43    7.44</time>
   <time name="orth">    4.68    4.69</time>
   <time name="total">   22.40   22.46</time>
   <energy>
    <i name="e_fr_energy">  -1120.79563879 </i>
    <i name="e_wo_entrp">  -1120.79563879 </i>
    <i name="e_0_energy">  -1120.79563879 </i>
   </energy>
  </scstep>
  <scstep>
   <time name="diag">    8.27    8.27</time>
   <time name="diis">    7.04    7.04</time>
   <time name="orth">    4.72    4.72</time>
   <time name="total">   20.62   20.68</time>
   <energy>
    <i name="alphaZ">   5653.39295818 </i>
    <i name="ewald"> -61827.92569047 </i>
    <i name="hartreedc"> -15761.85647757 </i>
    <i name="XCdc">   2963.73807067 </i>
    <i name="pawpsdc"> 111336.14177494 </i>
    <i name="pawaedc">-110237.50857597 </i>
    <i name="eentropy">     -0.00000000 </i>
    <i name="bandstr">  -7030.22549649 </i>
    <i name="atom">  73783.44779670 </i>
    <i name="e_fr_energy">  -1120.79564001 </i>
    <i name="e_wo_entrp">  -1120.79564001 </i>
    <i name="e_0_energy">  -1120.79564001 </i>
   </energy>
  </scstep>
  <structure>
   <crystal>
    <varray name="basis" >
     <v>      11.18192042       0.00000000       0.00000000 </v>
     <v>       0.00000000      11.18192042       0.00000000 </v>
     <v>       0.00000000       0.00000000      15.96516121 </v>
    </varray>
    <i name="volume">   1996.20943057 </i>
    <varray name="rec_basis" >
     <v>       0.08943008       0.00000000       0.00000000 </v>
     <v>       0.00000000       0.08943008       0.00000000 </v>
     <v>       0.00000000      -0.00000000       0.06263639 </v>
    </varray>
   </crystal>
   <varray name="positions" >
    <v>       0.00000000       0.25000000       0.12500000 </v>
    <v>       0.00000000       0.25000000       0.62500000 </v>
    <v>       0.00000000       0.75000000       0.12500000 </v>
    <v>       0.00000000       0.75000000       0.62500000 </v>
    <v>       0.50000000       0.25000000       0.12500000 </v>
    <v>       0.50000000       0.25000000       0.62500000 </v>
    <v>       0.50000000       0.75000000       0.12500000 </v>
    <v>       0.50000000       0.75000000       0.62500000 </v>
    <v>       0.00000000       0.25000000       0.37081715 </v>
    <v>       0.00000000       0.25000000       0.87918285 </v>
    <v>       0.00000000       0.75000000       0.37081715 </v>
    <v>       0.00000000       0.75000000       0.87918285 </v>
    <v>       0.50000000       0.25000000       0.37081715 </v>
    <v>       0.50000000       0.25000000       0.87918285 </v>
    <v>       0.50000000       0.75000000       0.37081715 </v>
    <v>       0.50000000       0.75000000       0.87918285 </v>
    <v>       0.25000000       0.00000000       0.12500000 </v>
    <v>       0.25000000       0.00000000       0.62500000 </v>
    <v>       0.25000000       0.50000000       0.12500000 </v>
    <v>       0.25000000       0.50000000       0.62500000 </v>
    <v>       0.75000000       0.00000000       0.12500000 </v>
    <v>       0.75000000       0.00000000       0.62500000 </v>
    <v>       0.75000000       0.50000000       0.12500000 </v>
    <v>       0.75000000       0.50000000       0.62500000 </v>
    <v>       0.25000000       0.00000000       0.37081715 </v>
    <v>       0.25000000       0.00000000       0.87918285 </v>
    <v>       0.25000000       0.50000000       0.37081715 </v>
    <v>       0.25000000       0.50000000       0.87918285 </v>
    <v>       0.75000000       0.00000000       0.37081715 </v>
    <v>       0.75000000       0.00000000       0.87918285 </v>
    <v>       0.75000000       0.50000000       0.37081715 </v>
    <v>       0.75000000       0.50000000       0.87918285 </v>
    <v>       0.00000000       0.00000000       0.00375664 </v>
    <v>       0.00000000       0.00000000       0.49934549 </v>
    <v>       0.00000000       0.50000000       0.00375664 </v>
    <v>       0.00000000       0.50000000       0.49934549 </v>
    <v>       0.50000000       0.00000000       0.00375664 </v>
    <v>       0.50000000       0.00000000       0.49934549 </v>
    <v>       0.50000000       0.50000000       0.00375664 </v>
    <v>       0.50000000       0.50000000       0.49934549 </v>
    <v>       0.25000000       0.25000000       0.50040460 </v>
    <v>       0.25000000       0.75000000       0.50040460 </v>
    <v>       0.75000000       0.25000000       0.50040460 </v>
    <v>       0.75000000       0.75000000       0.50040460 </v>
    <v>       0.25000000       0.25000000       0.74959540 </v>
    <v>       0.25000000       0.75000000       0.74959540 </v>
    <v>       0.75000000       0.25000000       0.74959540 </v>
    <v>       0.75000000       0.75000000       0.74959540 </v>
    <v>       0.00000000       0.00000000       0.24624336 </v>
    <v>       0.00000000       0.00000000       0.75065451 </v>
    <v>       0.00000000       0.50000000       0.24624336 </v>
    <v>       0.00000000       0.50000000       0.75065451 </v>
    <v>       0.50000000       0.00000000       0.24624336 </v>
    <v>       0.50000000       0.00000000       0.75065451 </v>
    <v>       0.50000000       0.50000000       0.24624336 </v>
    <v>       0.50000000       0.50000000       0.75065451 </v>
    <v>       0.75000000       0.25000000       0.26012047 </v>
    <v>       0.75000000       0.25000000       0.98987953 </v>
    <v>       0.25000000       0.75000000       0.26012047 </v>
    <v>       0.25000000       0.75000000       0.98987953 </v>
    <v>       0.25000000       0.25000000       0.26012047 </v>
    <v>       0.25000000       0.25000000       0.98987953 </v>
    <v>       0.75000000       0.75000000       0.26012047 </v>
    <v>       0.75000000       0.75000000       0.98987953 </v>
    <v>       0.00000000       0.00000000       0.12500000 </v>
    <v>       0.00000000       0.00000000       0.62500000 </v>
    <v>       0.00000000       0.50000000       0.12500000 </v>
    <v>       0.00000000       0.50000000       0.62500000 </v>
    <v>       0.50000000       0.00000000       0.12500000 </v>
    <v>       0.50000000       0.00000000       0.62500000 </v>
    <v>       0.50000000       0.50000000       0.12500000 </v>
    <v>       0.50000000       0.50000000       0.62500000 </v>
    <v>       0.00000000       0.00000000       0.37184353 </v>
    <v>       0.00000000       0.00000000       0.87815647 </v>
    <v>       0.00000000       0.50000000       0.37184353 </v>
    <v>       0.00000000       0.50000000       0.87815647 </v>
    <v>       0.50000000       0.00000000       0.37184353 </v>
    <v>       0.50000000       0.00000000       0.87815647 </v>
    <v>       0.50000000       0.50000000       0.37184353 </v>
    <v>       0.50000000       0.50000000       0.87815647 </v>
    <v>       0.25000000       0.25000000       0.37773293 </v>
    <v>       0.25000000       0.25000000       0.87226707 </v>
    <v>       0.25000000       0.75000000       0.37773293 </v>
    <v>       0.25000000       0.75000000       0.87226707 </v>
    <v>       0.75000000       0.25000000       0.37773293 </v>
    <v>       0.75000000       0.25000000       0.87226707 </v>
    <v>       0.75000000       0.75000000       0.37773293 </v>
    <v>       0.75000000       0.75000000       0.87226707 </v>
    <v>       0.25000000       0.25000000       0.62500000 </v>
    <v>       0.25000000       0.75000000       0.62500000 </v>
    <v>       0.75000000       0.25000000       0.62500000 </v>
    <v>       0.75000000       0.75000000       0.62500000 </v>
    <v>       0.11935217       0.13475600       0.24166059 </v>
    <v>       0.36524400       0.11935217       0.24166059 </v>
    <v>       0.61935217       0.13475600       0.24166059 </v>
    <v>       0.86524400       0.11935217       0.24166059 </v>
    <v>       0.13475600       0.38064783       0.24166059 </v>
    <v>       0.38064783       0.36524400       0.24166059 </v>
    <v>       0.63475600       0.38064783       0.24166059 </v>
    <v>       0.88064783       0.36524400       0.24166059 </v>
    <v>       0.11935217       0.63475600       0.24166059 </v>
    <v>       0.36524400       0.61935217       0.24166059 </v>
    <v>       0.61935217       0.63475600       0.24166059 </v>
    <v>       0.86524400       0.61935217       0.24166059 </v>
    <v>       0.13475600       0.88064783       0.24166059 </v>
    <v>       0.38064783       0.86524400       0.24166059 </v>
    <v>       0.63475600       0.88064783       0.24166059 </v>
    <v>       0.88064783       0.86524400       0.24166059 </v>
    <v>       0.14262708       0.10682625       0.49926126 </v>
    <v>       0.39317375       0.14262708       0.49926126 </v>
    <v>       0.64262708       0.10682625       0.49926126 </v>
    <v>       0.89317375       0.14262708       0.49926126 </v>
    <v>       0.10682625       0.35737292       0.49926126 </v>
    <v>       0.35737292       0.39317375       0.49926126 </v>
    <v>       0.60682625       0.35737292       0.49926126 </v>
    <v>       0.85737292       0.39317375       0.49926126 </v>
    <v>       0.14262708       0.60682625       0.49926126 </v>
    <v>       0.39317375       0.64262708       0.49926126 </v>
    <v>       0.64262708       0.60682625       0.49926126 </v>
    <v>       0.89317375       0.64262708       0.49926126 </v>
    <v>       0.10682625       0.85737292       0.49926126 </v>
    <v>       0.35737292       0.89317375       0.49926126 </v>
    <v>       0.60682625       0.85737292       0.49926126 </v>
    <v>       0.85737292       0.89317375       0.49926126 </v>
    <v>       0.10682625       0.14262708       0.75073874 </v>
    <v>       0.35737292       0.10682625       0.75073874 </v>
    <v>       0.60682625       0.14262708       0.75073874 </v>
    <v>       0.85737292       0.10682625       0.75073874 </v>
    <v>       0.14262708       0.39317375       0.75073874 </v>
    <v>       0.39317375       0.35737292       0.75073874 </v>
    <v>       0.64262708       0.39317375       0.75073874 </v>
    <v>       0.89317375       0.35737292       0.75073874 </v>
    <v>       0.10682625       0.64262708       0.75073874 </v>
    <v>       0.35737292       0.60682625       0.75073874 </v>
    <v>       0.60682625       0.64262708       0.75073874 </v>
    <v>       0.85737292       0.60682625       0.75073874 </v>
    <v>       0.14262708       0.89317375       0.75073874 </v>
    <v>       0.39317375       0.85737292       0.75073874 </v>
    <v>       0.64262708       0.89317375       0.75073874 </v>
    <v>       0.89317375       0.85737292       0.75073874 </v>
    <v>       0.13475600       0.11935217       0.00833941 </v>
    <v>       0.38064783       0.13475600       0.00833941 </v>
    <v>       0.63475600       0.11935217       0.00833941 </v>
    <v>       0.88064783       0.13475600       0.00833941 </v>
    <v>       0.11935217       0.36524400       0.00833941 </v>
    <v>       0.36524400       0.38064783       0.00833941 </v>
    <v>       0.61935217       0.36524400       0.00833941 </v>
    <v>       0.86524400       0.38064783       0.00833941 </v>
    <v>       0.13475600       0.61935217       0.00833941 </v>
    <v>       0.38064783       0.63475600       0.00833941 </v>
    <v>       0.63475600       0.61935217       0.00833941 </v>
    <v>       0.88064783       0.63475600       0.00833941 </v>
    <v>       0.11935217       0.86524400       0.00833941 </v>
    <v>       0.36524400       0.88064783       0.00833941 </v>
    <v>       0.61935217       0.86524400       0.00833941 </v>
    <v>       0.86524400       0.88064783       0.00833941 </v>
   </varray>
  </structure>
  <varray name="forces" >
   <v>       0.00000000      -0.00000000       0.00000000 </v>
   <v>       0.00000000      -0.00000000       0.00000000 </v>
   <v>       0.00000000      -0.00000000       0.00000000 </v>
   <v>       0.00000000      -0.00000000       0.00000000 </v>
   <v>       0.00000000      -0.00000000       0.00000000 </v>
   <v>       0.00000000      -0.00000000       0.00000000 </v>
   <v>       0.00000000      -0.00000000       0.00000000 </v>
   <v>       0.00000000      -0.00000000       0.00000000 </v>
   <v>       0.00000000      -0.00000000       0.01810998 </v>
   <v>       0.00000000      -0.00000000      -0.01810998 </v>
   <v>       0.00000000      -0.00000000       0.01810998 </v>
   <v>       0.00000000      -0.00000000      -0.01810998 </v>
   <v>       0.00000000      -0.00000000       0.01810998 </v>
   <v>       0.00000000      -0.00000000      -0.01810998 </v>
   <v>       0.00000000      -0.00000000       0.01810998 </v>
   <v>       0.00000000      -0.00000000      -0.01810998 </v>
   <v>       0.00000000      -0.00000000       0.00000000 </v>
   <v>       0.00000000      -0.00000000       0.00000000 </v>
   <v>       0.00000000      -0.00000000       0.00000000 </v>
   <v>       0.00000000      -0.00000000       0.00000000 </v>
   <v>       0.00000000      -0.00000000       0.00000000 </v>
   <v>       0.00000000      -0.00000000       0.00000000 </v>
   <v>       0.00000000      -0.00000000       0.00000000 </v>
   <v>       0.00000000      -0.00000000       0.00000000 </v>
   <v>       0.00000000      -0.00000000       0.01810998 </v>
   <v>       0.00000000      -0.00000000      -0.01810998 </v>
   <v>       0.00000000      -0.00000000       0.01810998 </v>
   <v>       0.00000000      -0.00000000      -0.01810998 </v>
   <v>       0.00000000      -0.00000000       0.01810998 </v>
   <v>       0.00000000      -0.00000000      -0.01810998 </v>
   <v>       0.00000000      -0.00000000       0.01810998 </v>
   <v>       0.00000000      -0.00000000      -0.01810998 </v>
   <v>       0.00000000      -0.00000000       0.00744319 </v>
   <v>       0.00000000      -0.00000000       0.01676943 </v>
   <v>       0.00000000      -0.00000000       0.00744319 </v>
   <v>       0.00000000      -0.00000000       0.01676943 </v>
   <v>       0.00000000      -0.00000000       0.00744319 </v>
   <v>       0.00000000      -0.00000000       0.01676943 </v>
   <v>       0.00000000      -0.00000000       0.00744319 </v>
   <v>       0.00000000      -0.00000000       0.01676943 </v>
   <v>       0.00000000      -0.00000000       0.01702832 </v>
   <v>       0.00000000      -0.00000000       0.01702832 </v>
   <v>       0.00000000      -0.00000000       0.01702832 </v>
   <v>       0.00000000      -0.00000000       0.01702832 </v>
   <v>       0.00000000      -0.00000000      -0.01702832 </v>
   <v>       0.00000000      -0.00000000      -0.01702832 </v>
   <v>       0.00000000      -0.00000000      -0.01702832 </v>
   <v>       0.00000000      -0.00000000      -0.01702832 </v>
   <v>       0.00000000      -0.00000000      -0.00744319 </v>
   <v>       0.00000000      -0.00000000      -0.01676943 </v>
   <v>       0.00000000      -0.00000000      -0.00744319 </v>
   <v>       0.00000000      -0.00000000      -0.01676943 </v>
   <v>       0.00000000      -0.00000000      -0.00744319 </v>
   <v>       0.00000000      -0.00000000      -0.01676943 </v>
   <v>       0.00000000      -0.00000000      -0.00744319 </v>
   <v>       0.00000000      -0.00000000      -0.01676943 </v>
   <v>       0.00000000      -0.00000000       0.00530582 </v>
   <v>       0.00000000      -0.00000000      -0.00530582 </v>
   <v>       0.00000000      -0.00000000       0.00530582 </v>
   <v>       0.00000000      -0.00000000      -0.00530582 </v>
   <v>       0.00000000      -0.00000000       0.00530582 </v>
   <v>       0.00000000      -0.00000000      -0.00530582 </v>
   <v>       0.00000000      -0.00000000       0.00530582 </v>
   <v>       0.00000000      -0.00000000      -0.00530582 </v>
   <v>       0.00000000      -0.00000000       0.00000000 </v>
   <v>       0.00000000      -0.00000000       0.00000000 </v>
   <v>       0.00000000      -0.00000000       0.00000000 </v>
   <v>       0.00000000      -0.00000000       0.00000000 </v>
   <v>       0.00000000      -0.00000000       0.00000000 </v>
   <v>       0.00000000      -0.00000000       0.00000000 </v>
   <v>       0.00000000      -0.00000000       0.00000000 </v>
   <v>       0.00000000      -0.00000000       0.00000000 </v>
   <v>       0.00000000      -0.00000000      -0.00427754 </v>
[...]
       <r>   -16.2230     0.0000    32.0000 </r>
       <r>   -16.0707     0.0000    32.0000 </r>
       <r>   -15.9184     0.0000    32.0000 </r>
       <r>   -15.7661     0.0000    32.0000 </r>
       <r>   -15.6138     0.0000    32.0000 </r>
       <r>   -15.4615     0.0000    32.0000 </r>
       <r>   -15.3092     0.0000    32.0000 </r>
       <r>   -15.1569     0.0147    32.0022 </r>
       <r>   -15.0046    11.5442    33.7604 </r>
       <r>   -14.8523    51.0635    41.5375 </r>
       <r>   -14.7000    48.1154    48.8655 </r>
       <r>   -14.5477    35.9833    54.3458 </r>
       <r>   -14.3954    28.7117    58.7186 </r>
       <r>   -14.2431    26.8270    62.8044 </r>
       <r>   -14.0908    81.4950    75.2162 </r>
       <r>   -13.9385   140.8028    96.6606 </r>
       <r>   -13.7862   104.6249   112.5951 </r>
       <r>   -13.6339    47.7544   119.8682 </r>
       <r>   -13.4816    26.0464   123.8351 </r>
       <r>   -13.3293     1.0828   124.0000 </r>
       <r>   -13.1770     0.0000   124.0000 </r>
       <r>   -13.0247     0.0000   124.0000 </r>
       <r>   -12.8724     0.0000   124.0000 </r>
       <r>   -12.7201     1.9921   124.3034 </r>
       <r>   -12.5678    68.7166   134.7690 </r>
       <r>   -12.4155   148.0964   157.3243 </r>
       <r>   -12.2632   128.0340   176.8240 </r>
       <r>   -12.1109   119.3639   195.0033 </r>
       <r>   -11.9586   103.2969   210.7356 </r>
       <r>   -11.8063    52.6530   218.7547 </r>
       <r>   -11.6540     8.1719   219.9993 </r>
       <r>   -11.5017     0.0049   220.0000 </r>
       <r>   -11.3494     0.0000   220.0000 </r>
       <r>   -11.1971     0.0000   220.0000 </r>
       <r>   -11.0447     0.0000   220.0000 </r>
       <r>   -10.8924     0.0000   220.0000 </r>
       <r>   -10.7401     0.0000   220.0000 </r>
       <r>   -10.5878     0.0000   220.0000 </r>
       <r>   -10.4355     0.0000   220.0000 </r>
       <r>   -10.2832     0.0000   220.0000 </r>
       <r>   -10.1309     0.0000   220.0000 </r>
       <r>    -9.9786     0.0000   220.0000 </r>
       <r>    -9.8263     0.0000   220.0000 </r>
       <r>    -9.6740     0.0000   220.0000 </r>
       <r>    -9.5217     0.0000   220.0000 </r>
       <r>    -9.3694     0.0000   220.0000 </r>
       <r>    -9.2171     0.0000   220.0000 </r>
       <r>    -9.0648     0.0000   220.0000 </r>
       <r>    -8.9125     0.0000   220.0000 </r>
       <r>    -8.7602     0.0000   220.0000 </r>
       <r>    -8.6079     0.0000   220.0000 </r>
       <r>    -8.4556     0.0000   220.0000 </r>
       <r>    -8.3033     0.0000   220.0000 </r>
       <r>    -8.1510     0.0000   220.0000 </r>
       <r>    -7.9987     0.0000   220.0000 </r>
       <r>    -7.8464     0.0000   220.0000 </r>
       <r>    -7.6941     0.0000   220.0000 </r>
       <r>    -7.5418     0.0000   220.0000 </r>
       <r>    -7.3895     0.0000   220.0000 </r>
       <r>    -7.2372     0.0000   220.0000 </r>
       <r>    -7.0849     0.0000   220.0000 </r>
       <r>    -6.9326     0.0000   220.0000 </r>
       <r>    -6.7803     0.0000   220.0000 </r>
       <r>    -6.6280     0.0000   220.0000 </r>
       <r>    -6.4757     0.0000   220.0000 </r>
       <r>    -6.3234     0.0000   220.0000 </r>
       <r>    -6.1711     0.0000   220.0000 </r>
       <r>    -6.0188     0.0000   220.0000 </r>
       <r>    -5.8665     0.0000   220.0000 </r>
       <r>    -5.7142     0.0000   220.0000 </r>
       <r>    -5.5619     0.0000   220.0000 </r>
       <r>    -5.4096     0.0000   220.0000 </r>
       <r>    -5.2573     0.0000   220.0000 </r>
       <r>    -5.1050     0.0000   220.0000 </r>
       <r>    -4.9527     0.0000   220.0000 </r>
       <r>    -4.8004     0.0000   220.0000 </r>
       <r>    -4.6481     0.0000   220.0000 </r>
       <r>    -4.4958     0.0000   220.0000 </r>
       <r>    -4.3435     0.0000   220.0000 </r>
       <r>    -4.1912     0.0000   220.0000 </r>
       <r>    -4.0389     0.0000   220.0000 </r>
       <r>    -3.8866     0.0000   220.0000 </r>
       <r>    -3.7343     0.0000   220.0000 </r>
       <r>    -3.5820     0.0000   220.0000 </r>
       <r>    -3.4297     0.0000   220.0000 </r>
       <r>    -3.2774     0.0000   220.0000 </r>
       <r>    -3.1251     0.0000   220.0000 </r>
       <r>    -2.9728     0.0000   220.0000 </r>
       <r>    -2.8205     0.0000   220.0000 </r>
       <r>    -2.6682     0.0000   220.0000 </r>
       <r>    -2.5159     0.0000   220.0000 </r>
       <r>    -2.3636     0.1931   220.0294 </r>
       <r>    -2.2113    10.6561   221.6523 </r>
       <r>    -2.0590    22.2409   225.0397 </r>
       <r>    -1.9067    36.7369   230.6348 </r>
       <r>    -1.7544    38.9943   236.5736 </r>
       <r>    -1.6021    52.5699   244.5801 </r>
       <r>    -1.4498    45.4936   251.5088 </r>
       <r>    -1.2975    57.6300   260.2859 </r>
       <r>    -1.1452    75.8781   271.8423 </r>
       <r>    -0.9929    76.3820   283.4753 </r>
       <r>    -0.8406    65.8261   293.5007 </r>
       <r>    -0.6883    82.9854   306.1395 </r>
       <r>    -0.5360   105.1198   322.1494 </r>
       <r>    -0.3837   109.3477   338.8032 </r>
       <r>    -0.2314    72.6679   349.8706 </r>
       <r>    -0.0791    53.6091   358.0353 </r>
       <r>     0.0732    45.4242   364.9535 </r>
       <r>     0.2255    39.8920   371.0291 </r>
       <r>     0.3778    51.8760   378.9299 </r>
       <r>     0.5301    52.2247   386.8838 </r>
       <r>     0.6824    63.4080   396.5409 </r>
       <r>     0.8347    43.4167   403.1533 </r>
       <r>     0.9870    56.5116   411.7601 </r>
       <r>     1.1394    55.2713   420.1780 </r>
       <r>     1.2917    77.3141   431.9530 </r>
       <r>     1.4440    76.8711   443.6606 </r>
       <r>     1.5963   104.5042   459.5767 </r>
       <r>     1.7486    72.4626   470.6128 </r>
       <r>     1.9009    65.9989   480.6646 </r>
       <r>     2.0532    53.4397   488.8035 </r>
       <r>     2.2055    33.6316   493.9256 </r>
       <r>     2.3578     0.5072   494.0029 </r>
       <r>     2.5101    11.8966   495.8147 </r>
       <r>     2.6624     1.2164   496.0000 </r>
       <r>     2.8147     0.0000   496.0000 </r>
       <r>     2.9670     0.0000   496.0000 </r>
       <r>     3.1193     0.0000   496.0000 </r>
       <r>     3.2716     0.0000   496.0000 </r>
       <r>     3.4239     0.0000   496.0000 </r>
       <r>     3.5762     0.0000   496.0000 </r>
       <r>     3.7285     0.0000   496.0000 </r>
       <r>     3.8808     0.0000   496.0000 </r>
       <r>     4.0331     0.0000   496.0000 </r>
       <r>     4.1854     0.0000   496.0000 </r>
       <r>     4.3377     0.0941   496.0143 </r>
       <r>     4.4900    13.3656   498.0499 </r>
       <r>     4.6423    26.5120   502.0877 </r>
       <r>     4.7946    34.8208   507.3910 </r>
       <r>     4.9469    42.4397   513.8546 </r>
       <r>     5.0992    47.1160   521.0304 </r>
       <r>     5.2515    20.6524   524.1758 </r>
       <r>     5.4038    60.6324   533.4102 </r>
       <r>     5.5561    68.2471   543.8043 </r>
       <r>     5.7084    57.7611   552.6014 </r>
       <r>     5.8607    84.1191   565.4128 </r>
       <r>     6.0130   105.6536   581.5040 </r>
       <r>     6.1653    72.2757   592.5117 </r>
       <r>     6.3176    73.1570   603.6536 </r>
       <r>     6.4699    47.3979   610.8723 </r>
       <r>     6.6222    20.1079   613.9348 </r>
       <r>     6.7745    18.7515   616.7907 </r>
       <r>     6.9268    21.2670   620.0297 </r>
       <r>     7.0791    18.7318   622.8825 </r>
       <r>     7.2314    20.1923   625.9579 </r>
       <r>     7.3837     9.5840   627.4175 </r>
       <r>     7.5360    32.8088   632.4143 </r>
       <r>     7.6883     3.8456   633.0000 </r>
       <r>     7.8406     5.8502   633.8910 </r>
       <r>     7.9929    39.2342   639.8664 </r>
       <r>     8.1452    11.3268   641.5915 </r>
       <r>     8.2975    32.7723   646.5828 </r>
       <r>     8.4498    27.7053   650.8023 </r>
       <r>     8.6021    16.0063   653.2401 </r>
       <r>     8.7544    36.3350   658.7740 </r>
       <r>     8.9067    28.9926   663.1896 </r>
       <r>     9.0590    36.6527   668.7718 </r>
       <r>     9.2113    25.2030   672.6103 </r>
       <r>     9.3636    40.1031   678.7180 </r>
       <r>     9.5159    42.1840   685.1427 </r>
       <r>     9.6682    33.1196   690.1869 </r>
       <r>     9.8205    54.5043   698.4879 </r>
       <r>     9.9728    75.5774   709.9985 </r>
       <r>    10.1251    61.1965   719.3188 </r>
       <r>    10.2774    80.6552   731.6027 </r>
       <r>    10.4297    63.7886   741.3178 </r>
       <r>    10.5820    50.8990   749.0697 </r>
       <r>    10.7343    50.3172   756.7331 </r>
       <r>    10.8866    55.1948   765.1393 </r>
       <r>    11.0389    18.7546   767.9957 </r>
       <r>    11.1912     0.0282   768.0000 </r>
       <r>    11.3435     0.0000   768.0000 </r>
       <r>    11.4958     0.0000   768.0000 </r>
       <r>    11.6481     0.0000   768.0000 </r>
       <r>    11.8004     0.0000   768.0000 </r>
       <r>    11.9527     0.0000   768.0000 </r>
       <r>    12.1050     0.0000   768.0000 </r>
       <r>    12.2573     0.0000   768.0000 </r>
       <r>    12.4096     0.0000   768.0000 </r>
       <r>    12.5619     0.0000   768.0000 </r>
       <r>    12.7142     0.0000   768.0000 </r>
       <r>    12.8665     0.0000   768.0000 </r>
       <r>    13.0188     0.0000   768.0000 </r>
      </set>
     </set>
    </array>
   </total>
  </dos>
 </calculation>
 <structure name="finalpos" >
  <crystal>
   <varray name="basis" >
    <v>      11.18193468       0.00000000       0.00000000 </v>
    <v>       0.00000000      11.18193468       0.00000000 </v>
    <v>       0.00000000       0.00000000      15.96543796 </v>
   </varray>
   <i name="volume">   1996.24912164 </i>
   <varray name="rec_basis" >
    <v>       0.08942996       0.00000000       0.00000000 </v>
    <v>       0.00000000       0.08942996       0.00000000 </v>
    <v>       0.00000000      -0.00000000       0.06263530 </v>
   </varray>
  </crystal>
  <varray name="positions" >
   <v>       0.00000000       0.25000000       0.12500000 </v>
   <v>       0.00000000       0.25000000       0.62500000 </v>
   <v>       0.00000000       0.75000000       0.12500000 </v>
   <v>       0.00000000       0.75000000       0.62500000 </v>
   <v>       0.50000000       0.25000000       0.12500000 </v>
   <v>       0.50000000       0.25000000       0.62500000 </v>
   <v>       0.50000000       0.75000000       0.12500000 </v>
   <v>       0.50000000       0.75000000       0.62500000 </v>
   <v>       0.00000000       0.25000000       0.37080720 </v>
   <v>       0.00000000       0.25000000       0.87919280 </v>
   <v>       0.00000000       0.75000000       0.37080720 </v>
   <v>       0.00000000       0.75000000       0.87919280 </v>
   <v>       0.50000000       0.25000000       0.37080720 </v>
   <v>       0.50000000       0.25000000       0.87919280 </v>
   <v>       0.50000000       0.75000000       0.37080720 </v>
   <v>       0.50000000       0.75000000       0.87919280 </v>
   <v>       0.25000000       0.00000000       0.12500000 </v>
   <v>       0.25000000       0.00000000       0.62500000 </v>
   <v>       0.25000000       0.50000000       0.12500000 </v>
   <v>       0.25000000       0.50000000       0.62500000 </v>
   <v>       0.75000000       0.00000000       0.12500000 </v>
   <v>       0.75000000       0.00000000       0.62500000 </v>
   <v>       0.75000000       0.50000000       0.12500000 </v>
   <v>       0.75000000       0.50000000       0.62500000 </v>
   <v>       0.25000000       0.00000000       0.37080720 </v>
   <v>       0.25000000       0.00000000       0.87919280 </v>
   <v>       0.25000000       0.50000000       0.37080720 </v>
   <v>       0.25000000       0.50000000       0.87919280 </v>
   <v>       0.75000000       0.00000000       0.37080720 </v>
   <v>       0.75000000       0.00000000       0.87919280 </v>
   <v>       0.75000000       0.50000000       0.37080720 </v>
   <v>       0.75000000       0.50000000       0.87919280 </v>
   <v>       0.00000000       0.00000000       0.00376202 </v>
   <v>       0.00000000       0.00000000       0.49934920 </v>
   <v>       0.00000000       0.50000000       0.00376202 </v>
   <v>       0.00000000       0.50000000       0.49934920 </v>
   <v>       0.50000000       0.00000000       0.00376202 </v>
   <v>       0.50000000       0.00000000       0.49934920 </v>
   <v>       0.50000000       0.50000000       0.00376202 </v>
   <v>       0.50000000       0.50000000       0.49934920 </v>
   <v>       0.25000000       0.25000000       0.50041114 </v>
   <v>       0.25000000       0.75000000       0.50041114 </v>
   <v>       0.75000000       0.25000000       0.50041114 </v>
   <v>       0.75000000       0.75000000       0.50041114 </v>
   <v>       0.25000000       0.25000000       0.74958886 </v>
   <v>       0.25000000       0.75000000       0.74958886 </v>
   <v>       0.75000000       0.25000000       0.74958886 </v>
   <v>       0.75000000       0.75000000       0.74958886 </v>
   <v>       0.00000000       0.00000000       0.24623798 </v>
   <v>       0.00000000       0.00000000       0.75065080 </v>
   <v>       0.00000000       0.50000000       0.24623798 </v>
   <v>       0.00000000       0.50000000       0.75065080 </v>
   <v>       0.50000000       0.00000000       0.24623798 </v>
   <v>       0.50000000       0.00000000       0.75065080 </v>
   <v>       0.50000000       0.50000000       0.24623798 </v>
   <v>       0.50000000       0.50000000       0.75065080 </v>
   <v>       0.75000000       0.25000000       0.26013263 </v>
   <v>       0.75000000       0.25000000       0.98986737 </v>
   <v>       0.25000000       0.75000000       0.26013263 </v>
   <v>       0.25000000       0.75000000       0.98986737 </v>
   <v>       0.25000000       0.25000000       0.26013263 </v>
   <v>       0.25000000       0.25000000       0.98986737 </v>
   <v>       0.75000000       0.75000000       0.26013263 </v>
   <v>       0.75000000       0.75000000       0.98986737 </v>
   <v>       0.00000000       0.00000000       0.12500000 </v>
   <v>       0.00000000       0.00000000       0.62500000 </v>
   <v>       0.00000000       0.50000000       0.12500000 </v>
   <v>       0.00000000       0.50000000       0.62500000 </v>
   <v>       0.50000000       0.00000000       0.12500000 </v>
   <v>       0.50000000       0.00000000       0.62500000 </v>
   <v>       0.50000000       0.50000000       0.12500000 </v>
   <v>       0.50000000       0.50000000       0.62500000 </v>
   <v>       0.00000000       0.00000000       0.37182888 </v>
   <v>       0.00000000       0.00000000       0.87817112 </v>
   <v>       0.00000000       0.50000000       0.37182888 </v>
   <v>       0.00000000       0.50000000       0.87817112 </v>
   <v>       0.50000000       0.00000000       0.37182888 </v>
   <v>       0.50000000       0.00000000       0.87817112 </v>
   <v>       0.50000000       0.50000000       0.37182888 </v>
   <v>       0.50000000       0.50000000       0.87817112 </v>
   <v>       0.25000000       0.25000000       0.37771623 </v>
   <v>       0.25000000       0.25000000       0.87228377 </v>
   <v>       0.25000000       0.75000000       0.37771623 </v>
   <v>       0.25000000       0.75000000       0.87228377 </v>
   <v>       0.75000000       0.25000000       0.37771623 </v>
   <v>       0.75000000       0.25000000       0.87228377 </v>
   <v>       0.75000000       0.75000000       0.37771623 </v>
   <v>       0.75000000       0.75000000       0.87228377 </v>
   <v>       0.25000000       0.25000000       0.62500000 </v>
   <v>       0.25000000       0.75000000       0.62500000 </v>
   <v>       0.75000000       0.25000000       0.62500000 </v>
   <v>       0.75000000       0.75000000       0.62500000 </v>
   <v>       0.11935643       0.13476882       0.24166699 </v>
   <v>       0.36523118       0.11935643       0.24166699 </v>
   <v>       0.61935643       0.13476882       0.24166699 </v>
   <v>       0.86523118       0.11935643       0.24166699 </v>
   <v>       0.13476882       0.38064357       0.24166699 </v>
   <v>       0.38064357       0.36523118       0.24166699 </v>
   <v>       0.63476882       0.38064357       0.24166699 </v>
   <v>       0.88064357       0.36523118       0.24166699 </v>
   <v>       0.11935643       0.63476882       0.24166699 </v>
   <v>       0.36523118       0.61935643       0.24166699 </v>
   <v>       0.61935643       0.63476882       0.24166699 </v>
   <v>       0.86523118       0.61935643       0.24166699 </v>
   <v>       0.13476882       0.88064357       0.24166699 </v>
   <v>       0.38064357       0.86523118       0.24166699 </v>
   <v>       0.63476882       0.88064357       0.24166699 </v>
   <v>       0.88064357       0.86523118       0.24166699 </v>
   <v>       0.14263156       0.10682858       0.49926240 </v>
   <v>       0.39317142       0.14263156       0.49926240 </v>
   <v>       0.64263156       0.10682858       0.49926240 </v>
   <v>       0.89317142       0.14263156       0.49926240 </v>
   <v>       0.10682858       0.35736844       0.49926240 </v>
   <v>       0.35736844       0.39317142       0.49926240 </v>
   <v>       0.60682858       0.35736844       0.49926240 </v>
   <v>       0.85736844       0.39317142       0.49926240 </v>
   <v>       0.14263156       0.60682858       0.49926240 </v>
   <v>       0.39317142       0.64263156       0.49926240 </v>
   <v>       0.64263156       0.60682858       0.49926240 </v>
   <v>       0.89317142       0.64263156       0.49926240 </v>
   <v>       0.10682858       0.85736844       0.49926240 </v>
   <v>       0.35736844       0.89317142       0.49926240 </v>
   <v>       0.60682858       0.85736844       0.49926240 </v>
   <v>       0.85736844       0.89317142       0.49926240 </v>
   <v>       0.10682858       0.14263156       0.75073760 </v>
   <v>       0.35736844       0.10682858       0.75073760 </v>
   <v>       0.60682858       0.14263156       0.75073760 </v>
   <v>       0.85736844       0.10682858       0.75073760 </v>
   <v>       0.14263156       0.39317142       0.75073760 </v>
   <v>       0.39317142       0.35736844       0.75073760 </v>
   <v>       0.64263156       0.39317142       0.75073760 </v>
   <v>       0.89317142       0.35736844       0.75073760 </v>
   <v>       0.10682858       0.64263156       0.75073760 </v>
   <v>       0.35736844       0.60682858       0.75073760 </v>
   <v>       0.60682858       0.64263156       0.75073760 </v>
   <v>       0.85736844       0.60682858       0.75073760 </v>
   <v>       0.14263156       0.89317142       0.75073760 </v>
   <v>       0.39317142       0.85736844       0.75073760 </v>
   <v>       0.64263156       0.89317142       0.75073760 </v>
   <v>       0.89317142       0.85736844       0.75073760 </v>
   <v>       0.13476882       0.11935643       0.00833301 </v>
   <v>       0.38064357       0.13476882       0.00833301 </v>
   <v>       0.63476882       0.11935643       0.00833301 </v>
   <v>       0.88064357       0.13476882       0.00833301 </v>
   <v>       0.11935643       0.36523118       0.00833301 </v>
   <v>       0.36523118       0.38064357       0.00833301 </v>
   <v>       0.61935643       0.36523118       0.00833301 </v>
   <v>       0.86523118       0.38064357       0.00833301 </v>
   <v>       0.13476882       0.61935643       0.00833301 </v>
   <v>       0.38064357       0.63476882       0.00833301 </v>
   <v>       0.63476882       0.61935643       0.00833301 </v>
   <v>       0.88064357       0.63476882       0.00833301 </v>
   <v>       0.11935643       0.86523118       0.00833301 </v>
   <v>       0.36523118       0.88064357       0.00833301 </v>
   <v>       0.61935643       0.86523118       0.00833301 </v>
   <v>       0.86523118       0.88064357       0.00833301 </v>
  </varray>
 </structure>
</modeling>
