       N       E                     dE             d eps       ncg     rms          rms(c)
DAV:   1    -0.105359863357E+04   -0.10536E+04   -0.16529E-02 13536   0.303E-01    0.315E-02
RMM:   2    -0.105359863227E+04    0.12944E-05   -0.25182E-05  6654   0.842E-03    0.544E-02
RMM:   3    -0.105359863267E+04   -0.39456E-06   -0.72524E-06  6103   0.500E-03    0.460E-03
RMM:   4    -0.105359863277E+04   -0.10488E-06   -0.22350E-06  3384   0.216E-03    0.379E-03
RMM:   5    -0.105359863282E+04   -0.45533E-07   -0.14910E-06  3366   0.247E-03    0.404E-03
RMM:   6    -0.105359863289E+04   -0.70460E-07   -0.67101E-07  2495   0.190E-03    0.132E-03
RMM:   7    -0.105359863291E+04   -0.19136E-07   -0.39480E-07  2151   0.197E-03    0.671E-04
RMM:   8    -0.105359863294E+04   -0.31068E-07   -0.18160E-07  1772   0.183E-03
   1 F= -.10535986E+04 E0= -.10535986E+04  d E =-.105360E+04  mag=    80.0000
       N       E                     dE             d eps       ncg     rms          rms(c)
DAV:   1    -0.105359822333E+04    0.40958E-03   -0.51540E-01 12544   0.847E-01    0.325E-01
RMM:   2    -0.105359996838E+04   -0.17451E-02   -0.15633E-02 12363   0.172E-01    0.248E-01
RMM:   3    -0.105360005781E+04   -0.89433E-04   -0.82678E-04 11421   0.514E-02    0.141E-01
RMM:   4    -0.105359997920E+04    0.78616E-04   -0.17677E-04  7952   0.186E-02    0.822E-02
RMM:   5    -0.105359996370E+04    0.15493E-04   -0.10871E-04  7452   0.136E-02    0.470E-02
RMM:   6    -0.105359996487E+04   -0.11712E-05   -0.23136E-05  7069   0.874E-03    0.195E-02
RMM:   7    -0.105359996515E+04   -0.27394E-06   -0.95794E-06  6462   0.396E-03    0.104E-02
RMM:   8    -0.105359996550E+04   -0.35422E-06   -0.44718E-06  5814   0.393E-03
   2 F= -.10536000E+04 E0= -.10536000E+04  d E =-.133257E-02  mag=    80.0000
       N       E                     dE             d eps       ncg     rms          rms(c)
DAV:   1    -0.105359996565E+04   -0.49823E-06   -0.20470E-05  7808   0.648E-03    0.104E-02
RMM:   2    -0.105359996606E+04   -0.40951E-06   -0.43650E-06  5655   0.437E-03    0.177E-02
RMM:   3    -0.105359996609E+04   -0.31694E-07   -0.64382E-07  2431   0.192E-03    0.516E-03
RMM:   4    -0.105359996610E+04   -0.11307E-07   -0.21149E-07  1996   0.192E-03    0.362E-03
RMM:   5    -0.105359996611E+04   -0.12093E-07   -0.87577E-08  1734   0.181E-03    0.190E-03
RMM:   6    -0.105359996612E+04   -0.45839E-08   -0.18194E-08  1305   0.177E-03    0.957E-04
RMM:   7    -0.105359996612E+04   -0.32451E-08   -0.11006E-08  1109   0.177E-03    0.323E-04
RMM:   8    -0.105359996612E+04   -0.25320E-08   -0.25150E-08  1017   0.177E-03
   3 F= -.10536000E+04 E0= -.10536000E+04  d E =-.133318E-02  mag=    80.0000
       N       E                     dE             d eps       ncg     rms          rms(c)
DAV:   1    -0.105359953938E+04    0.42674E-03   -0.46715E-01 12784   0.816E-01    0.266E-01
RMM:   2    -0.105360095842E+04   -0.14190E-02   -0.12960E-02 12391   0.154E-01    0.177E-01
RMM:   3    -0.105360102012E+04   -0.61696E-04   -0.68577E-04 10841   0.490E-02    0.101E-01
RMM:   4    -0.105360097763E+04    0.42487E-04   -0.14799E-04  7423   0.168E-02    0.580E-02
RMM:   5    -0.105360097263E+04    0.50007E-05   -0.65092E-05  7233   0.116E-02    0.402E-02
RMM:   6    -0.105360097532E+04   -0.26936E-05   -0.21092E-05  7071   0.797E-03    0.206E-02
RMM:   7    -0.105360097720E+04   -0.18732E-05   -0.10564E-05  6755   0.461E-03    0.103E-02
RMM:   8    -0.105360097884E+04   -0.16416E-05   -0.59677E-06  6193   0.430E-03
   4 F= -.10536010E+04 E0= -.10536010E+04  d E =-.101272E-02  mag=    80.0000
       N       E                     dE             d eps       ncg     rms          rms(c)
DAV:   1    -0.105360081960E+04    0.15760E-03   -0.80237E-02 12416   0.338E-01    0.111E-01
RMM:   2    -0.105360106758E+04   -0.24798E-03   -0.22478E-03 12245   0.637E-02    0.741E-02
RMM:   3    -0.105360107621E+04   -0.86324E-05   -0.98922E-05  7222   0.212E-02    0.430E-02
RMM:   4    -0.105360107177E+04    0.44389E-05   -0.34957E-05  7053   0.867E-03    0.260E-02
RMM:   5    -0.105360107206E+04   -0.28613E-06   -0.16408E-05  6718   0.643E-03    0.312E-02
RMM:   6    -0.105360107279E+04   -0.73215E-06   -0.70348E-06  6052   0.416E-03    0.738E-03
RMM:   7    -0.105360107334E+04   -0.55293E-06   -0.25163E-06  4657   0.285E-03    0.453E-03
RMM:   8    -0.105360107374E+04   -0.39222E-06   -0.14563E-06  3712   0.236E-03
   5 F= -.10536011E+04 E0= -.10536011E+04  d E =-.110762E-02  mag=    80.0000
       N       E                     dE             d eps       ncg     rms          rms(c)
DAV:   1    -0.105360100510E+04    0.68241E-04   -0.32810E-01 12848   0.678E-01    0.195E-01
RMM:   2    -0.105360192493E+04   -0.91983E-03   -0.86670E-03 12575   0.122E-01    0.125E-01
RMM:   3    -0.105360195540E+04   -0.30468E-04   -0.41092E-04  9642   0.387E-02    0.727E-02
RMM:   4    -0.105360193438E+04    0.21017E-04   -0.94927E-05  7187   0.136E-02    0.401E-02
RMM:   5    -0.105360193128E+04    0.31041E-05   -0.38266E-05  7065   0.915E-03    0.270E-02
RMM:   6    -0.105360193240E+04   -0.11225E-05   -0.14095E-05  6938   0.603E-03    0.120E-02
RMM:   7    -0.105360193271E+04   -0.30430E-06   -0.71864E-06  6091   0.403E-03    0.639E-03
RMM:   8    -0.105360193251E+04    0.19524E-06   -0.40133E-06  5116   0.329E-03
   6 F= -.10536019E+04 E0= -.10536019E+04  d E =-.858773E-03  mag=    80.0000
       N       E                     dE             d eps       ncg     rms          rms(c)
DAV:   1    -0.105360046580E+04    0.14669E-02   -0.69288E-01 12696   0.986E-01    0.284E-01
RMM:   2    -0.105360240448E+04   -0.19387E-02   -0.18280E-02 12578   0.177E-01    0.183E-01
RMM:   3    -0.105360247463E+04   -0.70157E-04   -0.93254E-04 11322   0.571E-02    0.105E-01
RMM:   4    -0.105360242628E+04    0.48355E-04   -0.18598E-04  7632   0.186E-02    0.589E-02
RMM:   5    -0.105360241831E+04    0.79705E-05   -0.75844E-05  7210   0.127E-02    0.458E-02
RMM:   6    -0.105360242028E+04   -0.19696E-05   -0.25432E-05  7108   0.856E-03    0.180E-02
RMM:   7    -0.105360242102E+04   -0.74360E-06   -0.13396E-05  6917   0.521E-03    0.125E-02
RMM:   8    -0.105360242104E+04   -0.22308E-07   -0.77813E-06  6554   0.469E-03
   7 F= -.10536024E+04 E0= -.10536024E+04  d E =-.134731E-02  mag=    80.0000
       N       E                     dE             d eps       ncg     rms          rms(c)
DAV:   1    -0.105360223778E+04    0.18324E-03   -0.34203E-01 12688   0.683E-01    0.179E-01
RMM:   2    -0.105360316647E+04   -0.92869E-03   -0.87808E-03 12460   0.122E-01    0.111E-01
RMM:   3    -0.105360319578E+04   -0.29318E-04   -0.42554E-04  9557   0.397E-02    0.649E-02
RMM:   4    -0.105360317696E+04    0.18827E-04   -0.94869E-05  7200   0.133E-02    0.366E-02
RMM:   5    -0.105360317323E+04    0.37244E-05   -0.39569E-05  7075   0.916E-03    0.284E-02
RMM:   6    -0.105360317445E+04   -0.12139E-05   -0.15554E-05  6923   0.617E-03    0.124E-02
RMM:   7    -0.105360317496E+04   -0.51000E-06   -0.77284E-06  6031   0.415E-03    0.654E-03
RMM:   8    -0.105360317504E+04   -0.78653E-07   -0.45338E-06  5044   0.334E-03
   8 F= -.10536032E+04 E0= -.10536032E+04  d E =-.753993E-03  mag=    80.0000
       N       E                     dE             d eps       ncg     rms          rms(c)
DAV:   1    -0.105360179164E+04    0.13833E-02   -0.67230E-01 12656   0.958E-01    0.251E-01
RMM:   2    -0.105360361010E+04   -0.18185E-02   -0.17189E-02 12451   0.170E-01    0.155E-01
RMM:   3    -0.105360367536E+04   -0.65261E-04   -0.89472E-04 11309   0.558E-02    0.903E-02
RMM:   4    -0.105360363386E+04    0.41500E-04   -0.17034E-04  7606   0.174E-02    0.516E-02
RMM:   5    -0.105360362584E+04    0.80193E-05   -0.70142E-05  7218   0.120E-02    0.458E-02
RMM:   6    -0.105360362773E+04   -0.18847E-05   -0.24354E-05  7082   0.820E-03    0.163E-02
RMM:   7    -0.105360362851E+04   -0.77946E-06   -0.12315E-05  6795   0.496E-03    0.121E-02
RMM:   8    -0.105360362866E+04   -0.15233E-06   -0.70108E-06  6133   0.445E-03
   9 F= -.10536036E+04 E0= -.10536036E+04  d E =-.120762E-02  mag=    80.0000
       N       E                     dE             d eps       ncg     rms          rms(c)
DAV:   1    -0.105360334316E+04    0.28535E-03   -0.40460E-01 12704   0.734E-01    0.186E-01
RMM:   2    -0.105360444843E+04   -0.11053E-02   -0.10201E-02 12482   0.130E-01    0.116E-01
RMM:   3    -0.105360448303E+04   -0.34596E-04   -0.49132E-04  9783   0.415E-02    0.661E-02
RMM:   4    -0.105360446052E+04    0.22510E-04   -0.10054E-04  7194   0.136E-02    0.376E-02
RMM:   5    -0.105360445877E+04    0.17521E-05   -0.44055E-05  7081   0.941E-03    0.203E-02
RMM:   6    -0.105360446070E+04   -0.19286E-05   -0.14843E-05  6885   0.605E-03    0.121E-02
RMM:   7    -0.105360446171E+04   -0.10121E-05   -0.78147E-06  5968   0.403E-03    0.556E-03
RMM:   8    -0.105360446242E+04   -0.71013E-06   -0.44790E-06  5026   0.337E-03
  10 F= -.10536045E+04 E0= -.10536045E+04  d E =-.833757E-03  mag=    80.0000
       N       E                     dE             d eps       ncg     rms          rms(c)
DAV:   1    -0.105359993941E+04    0.45223E-02   -0.19467E+00 12640   0.161E+00    0.408E-01
RMM:   2    -0.105360521637E+04   -0.52770E-02   -0.48718E-02 12460   0.285E-01    0.253E-01
RMM:   3    -0.105360541629E+04   -0.19992E-03   -0.25648E-03 12378   0.919E-02    0.144E-01
RMM:   4    -0.105360530682E+04    0.10947E-03   -0.54884E-04 11298   0.276E-02    0.803E-02
RMM:   5    -0.105360528238E+04    0.24446E-04   -0.17587E-04  7559   0.179E-02    0.468E-02
RMM:   6    -0.105360528741E+04   -0.50324E-05   -0.44172E-05  7202   0.112E-02    0.270E-02
RMM:   7    -0.105360529039E+04   -0.29775E-05   -0.22578E-05  7130   0.649E-03    0.142E-02
RMM:   8    -0.105360529212E+04   -0.17311E-05   -0.13233E-05  6976   0.621E-03
  11 F= -.10536053E+04 E0= -.10536053E+04  d E =-.166346E-02  mag=    80.0000
       N       E                     dE             d eps       ncg     rms          rms(c)
DAV:   1    -0.105360468519E+04    0.60519E-03   -0.58547E-01 12608   0.875E-01    0.200E-01
RMM:   2    -0.105360620778E+04   -0.15226E-02   -0.14627E-02 12567   0.153E-01    0.122E-01
RMM:   3    -0.105360624111E+04   -0.33335E-04   -0.72387E-04 10747   0.483E-02    0.717E-02
RMM:   4    -0.105360620789E+04    0.33218E-04   -0.12893E-04  7341   0.153E-02    0.411E-02
RMM:   5    -0.105360620370E+04    0.41976E-05   -0.59547E-05  7089   0.105E-02    0.190E-02
RMM:   6    -0.105360620579E+04   -0.20901E-05   -0.18666E-05  6869   0.669E-03    0.122E-02
RMM:   7    -0.105360620673E+04   -0.93925E-06   -0.10057E-05  6142   0.430E-03    0.628E-03
RMM:   8    -0.105360620716E+04   -0.43574E-06   -0.57423E-06  5455   0.376E-03
  12 F= -.10536062E+04 E0= -.10536062E+04  d E =-.915046E-03  mag=    80.0000
