       N       E                     dE             d eps       ncg     rms          rms(c)
DAV:   1    -0.108722277928E+04   -0.10872E+04   -0.28445E-02 13592   0.392E-01    0.205E-02
RMM:   2    -0.108722278149E+04   -0.22067E-05   -0.32867E-05  7092   0.100E-02    0.333E-02
RMM:   3    -0.108722278253E+04   -0.10364E-05   -0.13887E-05  6676   0.693E-03    0.663E-03
RMM:   4    -0.108722278362E+04   -0.10903E-05   -0.87761E-06  5624   0.424E-03    0.479E-03
RMM:   5    -0.108722278449E+04   -0.87410E-06   -0.59232E-06  5499   0.435E-03    0.298E-03
RMM:   6    -0.108722278541E+04   -0.91759E-06   -0.42612E-06  4276   0.303E-03    0.169E-03
RMM:   7    -0.108722278592E+04   -0.50748E-06   -0.29143E-06  4037   0.312E-03    0.135E-03
RMM:   8    -0.108722278626E+04   -0.34033E-06   -0.21202E-06  3428   0.248E-03
   1 F= -.10872228E+04 E0= -.10872228E+04  d E =-.108722E+04  mag=    48.0000
       N       E                     dE             d eps       ncg     rms          rms(c)
DAV:   1    -0.108722304263E+04   -0.25672E-03   -0.85778E-01 12736   0.109E+00    0.380E-01
RMM:   2    -0.108722545965E+04   -0.24170E-02   -0.24114E-02 12330   0.213E-01    0.285E-01
RMM:   3    -0.108722556452E+04   -0.10488E-03   -0.15131E-03 12485   0.786E-02    0.171E-01
RMM:   4    -0.108722544629E+04    0.11823E-03   -0.37079E-04  9939   0.250E-02    0.107E-01
RMM:   5    -0.108722539889E+04    0.47399E-04   -0.15575E-04  7648   0.197E-02    0.584E-02
RMM:   6    -0.108722540269E+04   -0.37991E-05   -0.47249E-05  7227   0.134E-02    0.268E-02
RMM:   7    -0.108722540435E+04   -0.16635E-05   -0.22037E-05  7139   0.766E-03    0.163E-02
RMM:   8    -0.108722540450E+04   -0.14222E-06   -0.10896E-05  7038   0.650E-03
   2 F= -.10872254E+04 E0= -.10872254E+04  d E =-.261824E-02  mag=    48.0000
       N       E                     dE             d eps       ncg     rms          rms(c)
DAV:   1    -0.108722538557E+04    0.18782E-04   -0.37814E-02 13064   0.229E-01    0.806E-02
RMM:   2    -0.108722549544E+04   -0.10986E-03   -0.11009E-03 12053   0.464E-02    0.623E-02
RMM:   3    -0.108722549936E+04   -0.39279E-05   -0.57833E-05  7099   0.178E-02    0.366E-02
RMM:   4    -0.108722549563E+04    0.37372E-05   -0.23133E-05  7026   0.737E-03    0.253E-02
RMM:   5    -0.108722549380E+04    0.18285E-05   -0.12378E-05  6800   0.601E-03    0.200E-02
RMM:   6    -0.108722549394E+04   -0.14224E-06   -0.61228E-06  6141   0.408E-03    0.573E-03
RMM:   7    -0.108722549415E+04   -0.20693E-06   -0.27137E-06  5145   0.315E-03    0.377E-03
RMM:   8    -0.108722549419E+04   -0.43496E-07   -0.13360E-06  3945   0.247E-03
   3 F= -.10872255E+04 E0= -.10872255E+04  d E =-.270793E-02  mag=    48.0000
       N       E                     dE             d eps       ncg     rms          rms(c)
DAV:   1    -0.108722615055E+04   -0.65640E-03   -0.48658E-01 12792   0.825E-01    0.221E-01
RMM:   2    -0.108722744656E+04   -0.12960E-02   -0.12564E-02 12510   0.151E-01    0.147E-01
RMM:   3    -0.108722749527E+04   -0.48717E-04   -0.73689E-04 11136   0.597E-02    0.878E-02
RMM:   4    -0.108722746956E+04    0.25708E-04   -0.14901E-04  7400   0.178E-02    0.672E-02
RMM:   5    -0.108722746313E+04    0.64370E-05   -0.57988E-05  7134   0.129E-02    0.357E-02
RMM:   6    -0.108722746669E+04   -0.35641E-05   -0.25705E-05  7024   0.933E-03    0.119E-02
RMM:   7    -0.108722746840E+04   -0.17128E-05   -0.13268E-05  6918   0.619E-03    0.974E-03
RMM:   8    -0.108722746936E+04   -0.95837E-06   -0.77573E-06  6613   0.498E-03
   4 F= -.10872275E+04 E0= -.10872275E+04  d E =-.197517E-02  mag=    48.0000
       N       E                     dE             d eps       ncg     rms          rms(c)
DAV:   1    -0.108722089046E+04    0.65779E-02   -0.32302E+00 12600   0.212E+00    0.569E-01
RMM:   2    -0.108722947747E+04   -0.85870E-02   -0.83344E-02 12469   0.388E-01    0.377E-01
RMM:   3    -0.108722981795E+04   -0.34047E-03   -0.50395E-03 12686   0.153E-01    0.226E-01
RMM:   4    -0.108722966400E+04    0.15394E-03   -0.12687E-03 13988   0.435E-02    0.157E-01
RMM:   5    -0.108722960315E+04    0.60854E-04   -0.37643E-04  9430   0.240E-02    0.725E-02
RMM:   6    -0.108722961444E+04   -0.11294E-04   -0.86617E-05  7310   0.168E-02    0.247E-02
RMM:   7    -0.108722962031E+04   -0.58714E-05   -0.47395E-05  7207   0.112E-02    0.153E-02
RMM:   8    -0.108722962355E+04   -0.32338E-05   -0.25612E-05  7151   0.884E-03
   5 F= -.10872296E+04 E0= -.10872296E+04  d E =-.412936E-02  mag=    48.0000
       N       E                     dE             d eps       ncg     rms          rms(c)
DAV:   1    -0.108722906462E+04    0.55569E-03   -0.94572E-01 12488   0.114E+00    0.293E-01
RMM:   2    -0.108723151712E+04   -0.24525E-02   -0.24075E-02 12639   0.208E-01    0.210E-01
RMM:   3    -0.108723160773E+04   -0.90612E-04   -0.15033E-03 12204   0.826E-02    0.129E-01
RMM:   4    -0.108723155673E+04    0.51003E-04   -0.30146E-04  8584   0.233E-02    0.891E-02
RMM:   5    -0.108723153880E+04    0.17929E-04   -0.99040E-05  7246   0.165E-02    0.579E-02
RMM:   6    -0.108723154375E+04   -0.49476E-05   -0.47223E-05  7136   0.126E-02    0.168E-02
RMM:   7    -0.108723154652E+04   -0.27701E-05   -0.23858E-05  7041   0.838E-03    0.135E-02
RMM:   8    -0.108723154772E+04   -0.11974E-05   -0.13724E-05  6810   0.669E-03
   6 F= -.10872315E+04 E0= -.10872315E+04  d E =-.192417E-02  mag=    48.0000
       N       E                     dE             d eps       ncg     rms          rms(c)
DAV:   1    -0.108722845534E+04    0.30912E-02   -0.15367E+00 12496   0.145E+00    0.375E-01
RMM:   2    -0.108723242431E+04   -0.39690E-02   -0.38966E-02 12576   0.264E-01    0.268E-01
RMM:   3    -0.108723256903E+04   -0.14472E-03   -0.23680E-03 12646   0.102E-01    0.165E-01
RMM:   4    -0.108723249129E+04    0.77742E-04   -0.52835E-04 10544   0.285E-02    0.112E-01
RMM:   5    -0.108723245677E+04    0.34520E-04   -0.14417E-04  7427   0.191E-02    0.700E-02
RMM:   6    -0.108723246339E+04   -0.66196E-05   -0.65113E-05  7195   0.148E-02    0.207E-02
RMM:   7    -0.108723246722E+04   -0.38284E-05   -0.31601E-05  7115   0.960E-03    0.143E-02
RMM:   8    -0.108723246864E+04   -0.14236E-05   -0.17328E-05  6925   0.770E-03
   7 F= -.10872325E+04 E0= -.10872325E+04  d E =-.284509E-02  mag=    48.0000
       N       E                     dE             d eps       ncg     rms          rms(c)
DAV:   1    -0.108723134350E+04    0.11237E-02   -0.12012E+00 12304   0.126E+00    0.337E-01
RMM:   2    -0.108723431615E+04   -0.29727E-02   -0.29879E-02 12701   0.229E-01    0.218E-01
RMM:   3    -0.108723440055E+04   -0.84396E-04   -0.18010E-03 12238   0.891E-02    0.126E-01
RMM:   4    -0.108723433572E+04    0.64824E-04   -0.40953E-04  9553   0.252E-02    0.788E-02
RMM:   5    -0.108723430691E+04    0.28815E-04   -0.12283E-04  7305   0.181E-02    0.419E-02
RMM:   6    -0.108723431173E+04   -0.48199E-05   -0.46069E-05  7139   0.129E-02    0.166E-02
RMM:   7    -0.108723431373E+04   -0.20088E-05   -0.24499E-05  7066   0.800E-03    0.108E-02
RMM:   8    -0.108723431405E+04   -0.31649E-06   -0.13997E-05  6791   0.703E-03
   8 F= -.10872343E+04 E0= -.10872343E+04  d E =-.184541E-02  mag=    48.0000
       N       E                     dE             d eps       ncg     rms          rms(c)
DAV:   1    -0.108723232045E+04    0.19933E-02   -0.10582E+00 12336   0.119E+00    0.316E-01
RMM:   2    -0.108723493993E+04   -0.26195E-02   -0.26334E-02 12712   0.215E-01    0.204E-01
RMM:   3    -0.108723501117E+04   -0.71240E-04   -0.15738E-03 12119   0.833E-02    0.119E-01
RMM:   4    -0.108723495271E+04    0.58460E-04   -0.34588E-04  9026   0.238E-02    0.755E-02
RMM:   5    -0.108723492785E+04    0.24858E-04   -0.10969E-04  7284   0.172E-02    0.411E-02
RMM:   6    -0.108723493212E+04   -0.42662E-05   -0.42666E-05  7136   0.123E-02    0.147E-02
RMM:   7    -0.108723493392E+04   -0.17977E-05   -0.22642E-05  7061   0.775E-03    0.994E-03
RMM:   8    -0.108723493417E+04   -0.24888E-06   -0.13163E-05  6790   0.675E-03
   9 F= -.10872349E+04 E0= -.10872349E+04  d E =-.246553E-02  mag=    48.0000
       N       E                     dE             d eps       ncg     rms          rms(c)
DAV:   1    -0.108723291528E+04    0.20186E-02   -0.15603E+00 12640   0.144E+00    0.334E-01
RMM:   2    -0.108723671906E+04   -0.38038E-02   -0.38085E-02 12761   0.255E-01    0.218E-01
RMM:   3    -0.108723679585E+04   -0.76783E-04   -0.21463E-03 12382   0.970E-02    0.128E-01
RMM:   4    -0.108723672657E+04    0.69276E-04   -0.51076E-04 10228   0.279E-02    0.810E-02
RMM:   5    -0.108723670430E+04    0.22265E-04   -0.13660E-04  7390   0.190E-02    0.478E-02
RMM:   6    -0.108723671154E+04   -0.72407E-05   -0.49657E-05  7172   0.135E-02    0.167E-02
RMM:   7    -0.108723671542E+04   -0.38707E-05   -0.26912E-05  7072   0.834E-03    0.121E-02
RMM:   8    -0.108723671765E+04   -0.22358E-05   -0.15113E-05  7012   0.752E-03
  10 F= -.10872367E+04 E0= -.10872367E+04  d E =-.178348E-02  mag=    48.0000
       N       E                     dE             d eps       ncg     rms          rms(c)
DAV:   1    -0.108723292755E+04    0.37879E-02   -0.18380E+00 12448   0.156E+00    0.362E-01
RMM:   2    -0.108723741493E+04   -0.44874E-02   -0.44928E-02 12772   0.278E-01    0.238E-01
RMM:   3    -0.108723751403E+04   -0.99094E-04   -0.25822E-03 12606   0.107E-01    0.140E-01
RMM:   4    -0.108723743555E+04    0.78476E-04   -0.61082E-04 11025   0.302E-02    0.926E-02
RMM:   5    -0.108723740686E+04    0.28692E-04   -0.15612E-04  7516   0.200E-02    0.558E-02
RMM:   6    -0.108723741540E+04   -0.85457E-05   -0.60318E-05  7209   0.142E-02    0.181E-02
RMM:   7    -0.108723741982E+04   -0.44189E-05   -0.30869E-05  7109   0.926E-03    0.134E-02
RMM:   8    -0.108723742227E+04   -0.24472E-05   -0.17678E-05  6973   0.778E-03
  11 F= -.10872374E+04 E0= -.10872374E+04  d E =-.248810E-02  mag=    48.0000
       N       E                     dE             d eps       ncg     rms          rms(c)
DAV:   1    -0.108723432390E+04    0.30959E-02   -0.19730E+00 12608   0.162E+00    0.373E-01
RMM:   2    -0.108723909231E+04   -0.47684E-02   -0.47757E-02 12697   0.288E-01    0.254E-01
RMM:   3    -0.108723923149E+04   -0.13918E-03   -0.28481E-03 12624   0.112E-01    0.154E-01
RMM:   4    -0.108723916302E+04    0.68465E-04   -0.60678E-04 10861   0.304E-02    0.108E-01
RMM:   5    -0.108723911465E+04    0.48371E-04   -0.19806E-04  7717   0.204E-02    0.635E-02
RMM:   6    -0.108723912277E+04   -0.81222E-05   -0.78919E-05  7213   0.157E-02    0.219E-02
RMM:   7    -0.108723912735E+04   -0.45803E-05   -0.35325E-05  7108   0.103E-02    0.143E-02
RMM:   8    -0.108723912949E+04   -0.21414E-05   -0.19946E-05  7040   0.807E-03
  12 F= -.10872391E+04 E0= -.10872391E+04  d E =-.170722E-02  mag=    48.0000
