<?xml version="1.0" encoding="ISO-8859-1"?>
<modeling>
 <generator>
  <i name="program" type="string">vasp </i>
  <i name="version" type="string">5.4.1  </i>
  <i name="subversion" type="string">05Feb16 (build Jan 25 2017 20:16:33) complex                          parallel </i>
  <i name="platform" type="string">BWXE6 </i>
  <i name="date" type="string">2019 07 25 </i>
  <i name="time" type="string">12:21:33 </i>
 </generator>
 <incar>
  <i type="string" name="SYSTEM"> STF</i>
  <i type="string" name="PREC">normal</i>
  <i type="string" name="ALGO"> Fast</i>
  <i type="int" name="ISPIN">     2</i>
  <i type="int" name="NELM">    40</i>
  <i type="int" name="NELMIN">     8</i>
  <i type="int" name="IBRION">     2</i>
  <i name="EDIFF">      0.00010000</i>
  <i name="EDIFFG">     -0.03000000</i>
  <i type="int" name="NSW">    30</i>
  <i type="int" name="ISIF">     3</i>
  <i name="ENCUT">    520.00000000</i>
  <i type="int" name="NBANDS">   768</i>
  <v name="MAGMOM">      0.60000000      0.60000000      0.60000000      0.60000000      0.60000000      0.60000000      0.60000000      0.60000000      0.60000000      0.60000000      0.60000000      0.60000000      0.60000000      0.60000000      0.60000000      0.60000000      0.60000000      0.60000000      0.60000000      0.60000000
      0.60000000      0.60000000      0.60000000      0.60000000      0.60000000      0.60000000      0.60000000      0.60000000      0.60000000      0.60000000      0.60000000      0.60000000      0.60000000      0.60000000      0.60000000      0.60000000      0.60000000      0.60000000      0.60000000      0.60000000
      0.60000000      0.60000000      0.60000000      0.60000000      0.60000000      0.60000000      0.60000000      0.60000000      0.60000000      0.60000000      0.60000000      0.60000000      5.00000000      5.00000000      5.00000000      5.00000000      5.00000000      5.00000000      5.00000000      5.00000000
      5.00000000      5.00000000      5.00000000      5.00000000      0.60000000      0.60000000      0.60000000      0.60000000      0.60000000      0.60000000      0.60000000      0.60000000      0.60000000      0.60000000      0.60000000      0.60000000      0.60000000      0.60000000      0.60000000      0.60000000
      0.60000000      0.60000000      0.60000000      0.60000000      0.60000000      0.60000000      0.60000000      0.60000000      0.60000000      0.60000000      0.60000000      0.60000000      0.60000000      0.60000000      0.60000000      0.60000000      0.60000000      0.60000000      0.60000000      0.60000000
      0.60000000      0.60000000      0.60000000      0.60000000      0.60000000      0.60000000      0.60000000      0.60000000      0.60000000      0.60000000      0.60000000      0.60000000      0.60000000      0.60000000      0.60000000      0.60000000      0.60000000      0.60000000      0.60000000      0.60000000
      0.60000000      0.60000000      0.60000000      0.60000000      0.60000000      0.60000000      0.60000000      0.60000000      0.60000000      0.60000000      0.60000000      0.60000000      0.60000000      0.60000000      0.60000000      0.60000000      0.60000000      0.60000000      0.60000000      0.60000000
      0.60000000      0.60000000      0.60000000      0.60000000      0.60000000      0.60000000      0.60000000      0.60000000      0.60000000      0.60000000      0.60000000      0.60000000      0.60000000      0.60000000</v>
  <i type="string" name="LREAL"> Auto</i>
  <i type="int" name="ISMEAR">     0</i>
  <i name="SIGMA">      0.05000000</i>
  <i type="int" name="LMAXMIX">     4</i>
  <v type="int" name="KPOINT_BSE">    -1     0     0     0</v>
  <i type="int" name="NELM">    40</i>
  <i type="logical" name="LDAU"> T  </i>
  <v type="int" name="LDAUTYPE">     2</v>
  <v type="int" name="LDAUL">     0     2     2     0</v>
  <v name="LDAUU">      0.00000000      3.00000000      5.00000000      0.00000000</v>
  <v name="LDAUJ">      0.00000000      0.00000000      0.00000000      0.00000000</v>
  <i type="int" name="LDAUPRINT">     1</i>
 </incar>
 <kpoints>
  <generation param="Monkhorst-Pack">
   <v type="int" name="divisions">       2        2        2 </v>
   <v name="usershift">      0.00000000       0.00000000       0.00000000 </v>
   <v name="genvec1">      0.50000000       0.00000000       0.00000000 </v>
   <v name="genvec2">     -0.00000000       0.50000000       0.00000000 </v>
   <v name="genvec3">     -0.00000000      -0.00000000       0.50000000 </v>
   <v name="shift">      0.50000000       0.50000000       0.50000000 </v>
  </generation>
  <varray name="kpointlist" >
   <v>       0.25000000       0.25000000       0.25000000 </v>
   <v>      -0.25000000       0.25000000       0.25000000 </v>
   <v>       0.25000000      -0.25000000       0.25000000 </v>
   <v>      -0.25000000      -0.25000000       0.25000000 </v>
  </varray>
  <varray name="weights" >
   <v>       0.25000000 </v>
   <v>       0.25000000 </v>
   <v>       0.25000000 </v>
   <v>       0.25000000 </v>
  </varray>
 </kpoints>
 <parameters>
  <separator name="general" >
   <i type="string" name="SYSTEM">STF</i>
   <i type="logical" name="LCOMPAT"> F  </i>
  </separator>
  <separator name="electronic" >
   <i type="string" name="PREC">normal</i>
   <i name="ENMAX">    520.00000000</i>
   <i name="ENAUG">    605.39200000</i>
   <i name="EDIFF">      0.00010000</i>
   <i type="int" name="IALGO">    68</i>
   <i type="int" name="IWAVPR">    11</i>
   <i type="int" name="NBANDS">   768</i>
   <i name="NELECT">   1036.00000000</i>
   <i type="int" name="TURBO">     0</i>
   <i type="int" name="IRESTART">     0</i>
   <i type="int" name="NREBOOT">     0</i>
   <i type="int" name="NMIN">     0</i>
   <i name="EREF">      0.00000000</i>
   <separator name="electronic smearing" >
    <i type="int" name="ISMEAR">     0</i>
    <i name="SIGMA">      0.05000000</i>
    <i name="KSPACING">      0.50000000</i>
    <i type="logical" name="KGAMMA"> T  </i>
   </separator>
   <separator name="electronic projectors" >
    <i type="logical" name="LREAL"> T  </i>
    <v name="ROPT">     -0.00050000     -0.00050000     -0.00050000     -0.00050000</v>
    <i type="int" name="LMAXPAW">  -100</i>
    <i type="int" name="LMAXMIX">     4</i>
    <i type="logical" name="NLSPLINE"> F  </i>
   </separator>
   <separator name="electronic startup" >
    <i type="int" name="ISTART">     1</i>
    <i type="int" name="ICHARG">     0</i>
    <i type="int" name="INIWAV">     1</i>
   </separator>
   <separator name="electronic spin" >
    <i type="int" name="ISPIN">     2</i>
    <i type="logical" name="LNONCOLLINEAR"> F  </i>
    <v name="MAGMOM">      0.60000000      0.60000000      0.60000000      0.60000000      0.60000000      0.60000000      0.60000000      0.60000000      0.60000000      0.60000000      0.60000000      0.60000000      0.60000000      0.60000000      0.60000000      0.60000000      0.60000000      0.60000000      0.60000000      0.60000000
      0.60000000      0.60000000      0.60000000      0.60000000      0.60000000      0.60000000      0.60000000      0.60000000      0.60000000      0.60000000      0.60000000      0.60000000      0.60000000      0.60000000      0.60000000      0.60000000      0.60000000      0.60000000      0.60000000      0.60000000
      0.60000000      0.60000000      0.60000000      0.60000000      0.60000000      0.60000000      0.60000000      0.60000000      0.60000000      0.60000000      0.60000000      0.60000000      5.00000000      5.00000000      5.00000000      5.00000000      5.00000000      5.00000000      5.00000000      5.00000000
      5.00000000      5.00000000      5.00000000      5.00000000      0.60000000      0.60000000      0.60000000      0.60000000      0.60000000      0.60000000      0.60000000      0.60000000      0.60000000      0.60000000      0.60000000      0.60000000      0.60000000      0.60000000      0.60000000      0.60000000
      0.60000000      0.60000000      0.60000000      0.60000000      0.60000000      0.60000000      0.60000000      0.60000000      0.60000000      0.60000000      0.60000000      0.60000000      0.60000000      0.60000000      0.60000000      0.60000000      0.60000000      0.60000000      0.60000000      0.60000000
      0.60000000      0.60000000      0.60000000      0.60000000      0.60000000      0.60000000      0.60000000      0.60000000      0.60000000      0.60000000      0.60000000      0.60000000      0.60000000      0.60000000      0.60000000      0.60000000      0.60000000      0.60000000      0.60000000      0.60000000
      0.60000000      0.60000000      0.60000000      0.60000000      0.60000000      0.60000000      0.60000000      0.60000000      0.60000000      0.60000000      0.60000000      0.60000000      0.60000000      0.60000000      0.60000000      0.60000000      0.60000000      0.60000000      0.60000000      0.60000000
      0.60000000      0.60000000      0.60000000      0.60000000      0.60000000      0.60000000      0.60000000      0.60000000      0.60000000      0.60000000      0.60000000      0.60000000      0.60000000      0.60000000</v>
    <i name="NUPDOWN">     -1.00000000</i>
    <i type="logical" name="LSORBIT"> F  </i>
    <v name="SAXIS">      0.00000000      0.00000000      1.00000000</v>
    <i type="logical" name="LSPIRAL"> F  </i>
    <v name="QSPIRAL">      0.00000000      0.00000000      0.00000000</v>
    <i type="logical" name="LZEROZ"> F  </i>
   </separator>
   <separator name="electronic exchange-correlation" >
    <i type="logical" name="LASPH"> F  </i>
    <i type="logical" name="LMETAGGA"> F  </i>
   </separator>
   <separator name="electronic convergence" >
    <i type="int" name="NELM">    40</i>
    <i type="int" name="NELMDL">     0</i>
    <i type="int" name="NELMIN">     8</i>
    <i name="ENINI">    520.00000000</i>
    <separator name="electronic convergence detail" >
     <i type="logical" name="LDIAG"> T  </i>
     <i type="logical" name="LSUBROT"> F  </i>
     <i name="WEIMIN">      0.00100000</i>
     <i name="EBREAK">      0.00000003</i>
     <i name="DEPER">      0.30000000</i>
     <i type="int" name="NRMM">     4</i>
     <i name="TIME">      0.40000000</i>
    </separator>
   </separator>
   <separator name="electronic mixer" >
    <i name="AMIX">      0.40000000</i>
    <i name="BMIX">      1.00000000</i>
    <i name="AMIN">      0.10000000</i>
    <i name="AMIX_MAG">      1.60000000</i>
    <i name="BMIX_MAG">      1.00000000</i>
    <separator name="electronic mixer details" >
     <i type="int" name="IMIX">     4</i>
     <i type="logical" name="MIXFIRST"> F  </i>
     <i type="int" name="MAXMIX">   -45</i>
     <i name="WC">    100.00000000</i>
     <i type="int" name="INIMIX">     1</i>
     <i type="int" name="MIXPRE">     1</i>
     <i type="int" name="MREMOVE">     5</i>
    </separator>
   </separator>
   <separator name="electronic dipolcorrection" >
    <i type="logical" name="LDIPOL"> F  </i>
    <i type="logical" name="LMONO"> F  </i>
    <i type="int" name="IDIPOL">     0</i>
    <i name="EPSILON">      1.00000000</i>
    <v name="DIPOL">   -100.00000000   -100.00000000   -100.00000000</v>
    <i name="EFIELD">      0.00000000</i>
   </separator>
  </separator>
  <separator name="grids" >
   <i type="int" name="NGX">    64</i>
   <i type="int" name="NGY">    64</i>
   <i type="int" name="NGZ">    90</i>
   <i type="int" name="NGXF">   128</i>
   <i type="int" name="NGYF">   128</i>
   <i type="int" name="NGZF">   180</i>
   <i type="logical" name="ADDGRID"> F  </i>
  </separator>
  <separator name="ionic" >
   <i type="int" name="NSW">    30</i>
   <i type="int" name="IBRION">     2</i>
   <i type="int" name="ISIF">     3</i>
   <i name="PSTRESS">      0.00000000</i>
   <i name="EDIFFG">     -0.03000000</i>
   <i type="int" name="NFREE">     1</i>
   <i name="POTIM">      0.50000000</i>
   <i name="SMASS">     -3.00000000</i>
   <i name="SCALEE">      1.00000000</i>
  </separator>
  <separator name="ionic md" >
   <i name="TEBEG">      0.00010000</i>
   <i name="TEEND">      0.00010000</i>
   <i type="int" name="NBLOCK">     1</i>
   <i type="int" name="KBLOCK">    30</i>
   <i type="int" name="NPACO">   256</i>
   <i name="APACO">     16.00000000</i>
  </separator>
  <separator name="symmetry" >
   <i type="int" name="ISYM">     2</i>
   <i name="SYMPREC">      0.00001000</i>
  </separator>
  <separator name="dos" >
   <i type="logical" name="LORBIT"> F  </i>
   <v name="RWIGS">     -1.00000000     -1.00000000     -1.00000000     -1.00000000</v>
   <i type="int" name="NEDOS">   301</i>
   <i name="EMIN">     10.00000000</i>
   <i name="EMAX">    -10.00000000</i>
   <i name="EFERMI">      0.00000000</i>
  </separator>
  <separator name="writing" >
   <i type="int" name="NWRITE">     2</i>
   <i type="logical" name="LWAVE"> T  </i>
   <i type="logical" name="LCHARG"> T  </i>
   <i type="logical" name="LPARD"> F  </i>
   <i type="logical" name="LVTOT"> F  </i>
   <i type="logical" name="LVHAR"> F  </i>
   <i type="logical" name="LELF"> F  </i>
   <i type="logical" name="LOPTICS"> F  </i>
   <v name="STM">      0.00000000      0.00000000      0.00000000      0.00000000      0.00000000      0.00000000      0.00000000</v>
  </separator>
  <separator name="performance" >
   <i type="int" name="NPAR">     2</i>
   <i type="int" name="NSIM">     4</i>
   <i type="int" name="NBLK">    -1</i>
   <i type="logical" name="LPLANE"> T  </i>
   <i type="logical" name="LSCALAPACK"> T  </i>
   <i type="logical" name="LSCAAWARE"> F  </i>
   <i type="logical" name="LSCALU"> F  </i>
   <i type="logical" name="LASYNC"> F  </i>
   <i type="logical" name="LORBITALREAL"> F  </i>
  </separator>
  <separator name="miscellaneous" >
   <i type="int" name="IDIOT">     3</i>
   <i type="logical" name="LMUSIC"> F  </i>
   <v name="POMASS">     87.62000000     47.88000000     55.84700000     16.00000000</v>
   <v name="DARWINR">      0.00000000      0.00000000      0.00000000      0.00000000</v>
   <v name="DARWINV">      1.00000000      1.00000000      1.00000000      1.00000000</v>
   <i type="logical" name="LCORR"> T  </i>
  </separator>
  <i type="logical" name="GGA_COMPAT"> T  </i>
  <i type="logical" name="LBERRY"> F  </i>
  <i type="int" name="ICORELEVEL">     0</i>
  <i type="logical" name="LDAU"> T  </i>
  <v type="int" name="LDAUTYPE">     2</v>
  <v type="int" name="LDAUL">     0</v>
  <v name="LDAUU">      0.00000000</v>
  <v name="LDAUJ">      0.00000000</v>
  <i type="int" name="LDAUPRINT">     1</i>
  <i type="int" name="I_CONSTRAINED_M">     0</i>
  <separator name="electronic exchange-correlation" >
   <i type="string" name="GGA">--</i>
   <i type="int" name="VOSKOWN">     0</i>
   <i type="logical" name="LHFCALC"> F  </i>
   <i type="string" name="PRECFOCK"></i>
   <i type="logical" name="LSYMGRAD"> F  </i>
   <i type="logical" name="LHFONE"> F  </i>
   <i type="logical" name="LRHFCALC"> F  </i>
   <i type="logical" name="LTHOMAS"> F  </i>
   <i type="logical" name="LMODELHF"> F  </i>
   <i name="ENCUT4O">     -1.00000000</i>
   <i type="int" name="EXXOEP">     0</i>
   <i type="int" name="FOURORBIT">     0</i>
   <i name="AEXX">      0.00000000</i>
   <i name="HFALPHA">      0.00000000</i>
   <i name="MCALPHA">      0.00000000</i>
   <i name="ALDAX">      1.00000000</i>
   <i name="AGGAX">      1.00000000</i>
   <i name="ALDAC">      1.00000000</i>
   <i name="AGGAC">      1.00000000</i>
   <i type="int" name="NKREDX">     1</i>
   <i type="int" name="NKREDY">     1</i>
   <i type="int" name="NKREDZ">     1</i>
   <i type="logical" name="SHIFTRED"> F  </i>
   <i type="logical" name="ODDONLY"> F  </i>
   <i type="logical" name="EVENONLY"> F  </i>
   <i type="int" name="LMAXFOCK">     0</i>
   <i type="int" name="NMAXFOCKAE">     0</i>
   <i type="logical" name="LFOCKAEDFT"> F  </i>
   <i name="HFSCREEN">      0.00000000</i>
   <i name="HFSCREENC">      0.00000000</i>
   <i type="int" name="NBANDSGWLOW">     0</i>
  </separator>
  <separator name="vdW DFT" >
   <i type="logical" name="LUSE_VDW"> F  </i>
   <i name="Zab_VDW">     -0.84910000</i>
   <i name="PARAM1">      0.12340000</i>
   <i name="PARAM2">      1.00000000</i>
   <i name="PARAM3">      0.00000000</i>
  </separator>
  <separator name="model GW" >
   <i type="int" name="MODEL_GW">     0</i>
   <i name="MODEL_EPS0">      7.85082625</i>
   <i name="MODEL_ALPHA">      1.00000000</i>
  </separator>
  <separator name="linear response parameters" >
   <i type="logical" name="LEPSILON"> F  </i>
   <i type="logical" name="LRPA"> F  </i>
   <i type="logical" name="LNABLA"> F  </i>
   <i type="logical" name="LVEL"> F  </i>
   <i type="int" name="KINTER">     0</i>
   <i name="CSHIFT">      0.10000000</i>
   <i name="OMEGAMAX">     -1.00000000</i>
   <i name="DEG_THRESHOLD">      0.00200000</i>
  </separator>
  <separator name="orbital magnetization" >
   <i type="logical" name="NUCIND"> F  </i>
   <v name="MAGPOS">      0.00000000      0.00000000      0.00000000</v>
   <i type="logical" name="LNICSALL"> T  </i>
   <i type="logical" name="ORBITALMAG"> F  </i>
   <i type="logical" name="LMAGBLOCH"> F  </i>
   <i type="logical" name="LCHIMAG"> F  </i>
   <i type="logical" name="LGAUGE"> T  </i>
   <i type="int" name="MAGATOM">     0</i>
   <v name="MAGDIPOL">      0.00000000      0.00000000      0.00000000</v>
   <v name="AVECCONST">      0.00000000      0.00000000      0.00000000</v>
  </separator>
  <separator name="response functions" >
   <i type="logical" name="LADDER"> F  </i>
   <i type="logical" name="LFXC"> F  </i>
   <i type="logical" name="LHARTREE"> T  </i>
   <i type="int" name="IBSE">     0</i>
   <v type="int" name="KPOINT">    -1     0     0     0</v>
   <i type="logical" name="LTCTE"> F  </i>
   <i type="logical" name="LTETE"> F  </i>
   <i type="logical" name="LTRIPLET"> F  </i>
   <i type="logical" name="LFXCEPS"> F  </i>
   <i type="logical" name="LFXHEG"> F  </i>
   <i type="int" name="NATURALO">     0</i>
   <i type="logical" name="L2ORDER"> F  </i>
   <i type="logical" name="LUSEW"> F  </i>
   <i name="ENCUTGW">     -2.00000000</i>
   <i name="ENCUTGWSOFT">     -2.00000000</i>
   <i name="ENCUTLF">     -1.00000000</i>
   <i type="int" name="LMAXMP2">    -1</i>
   <i name="SCISSOR">      0.00000000</i>
   <i type="int" name="NOMEGA">     0</i>
   <i type="int" name="NOMEGAR">     0</i>
   <i type="int" name="NBANDSGW">    -1</i>
   <i type="int" name="NBANDSO">    -1</i>
   <i type="int" name="NBANDSV">    -1</i>
   <i type="int" name="NELM">    40</i>
   <i type="int" name="NELMHF">     1</i>
   <i type="int" name="DIM">     3</i>
   <i type="int" name="ANTIRES">     0</i>
   <i name="OMEGAMAX">    -30.00000000</i>
   <i name="OMEGAMIN">    -30.00000000</i>
   <i name="OMEGATL">   -200.00000000</i>
   <i type="int" name="OMEGAGRID">     0</i>
   <i name="CSHIFT">     -0.10000000</i>
   <i type="logical" name="SELFENERGY"> F  </i>
   <i type="logical" name="LSPECTRAL"> F  </i>
   <i type="logical" name="LSPECTRALGW"> F  </i>
   <i type="logical" name="LSINGLES"> F  </i>
   <i type="logical" name="LFERMIGW"> F  </i>
   <i type="logical" name="ODDONLYGW"> F  </i>
   <i type="logical" name="EVENONLYGW"> F  </i>
   <i type="int" name="NKREDLFX">     1</i>
   <i type="int" name="NKREDLFY">     1</i>
   <i type="int" name="NKREDLFZ">     1</i>
   <i type="int" name="MAXMEM">  1800</i>
   <i type="int" name="TELESCOPE">     0</i>
   <i type="int" name="TAUPAR">     1</i>
   <i type="int" name="OMEGAPAR">    -1</i>
   <i name="LAMBDA">      1.00000000</i>
  </separator>
  <separator name="External order field" >
   <i name="OFIELD_KAPPA">      0.00000000</i>
   <v name="OFIELD_K">      0.00000000      0.00000000      0.00000000</v>
   <i name="OFIELD_Q6_NEAR">      0.00000000</i>
   <i name="OFIELD_Q6_FAR">      0.00000000</i>
   <i name="OFIELD_A">      0.00000000</i>
  </separator>
 </parameters>
 <atominfo>
  <atoms>     154 </atoms>
  <types>       4 </types>
  <array name="atoms" >
   <dimension dim="1">ion</dimension>
   <field type="string">element</field>
   <field type="int">atomtype</field>
   <set>
    <rc><c>Sr</c><c>   1</c></rc>
    <rc><c>Sr</c><c>   1</c></rc>
    <rc><c>Sr</c><c>   1</c></rc>
    <rc><c>Sr</c><c>   1</c></rc>
    <rc><c>Sr</c><c>   1</c></rc>
    <rc><c>Sr</c><c>   1</c></rc>
    <rc><c>Sr</c><c>   1</c></rc>
    <rc><c>Sr</c><c>   1</c></rc>
    <rc><c>Sr</c><c>   1</c></rc>
    <rc><c>Sr</c><c>   1</c></rc>
    <rc><c>Sr</c><c>   1</c></rc>
    <rc><c>Sr</c><c>   1</c></rc>
    <rc><c>Sr</c><c>   1</c></rc>
    <rc><c>Sr</c><c>   1</c></rc>
    <rc><c>Sr</c><c>   1</c></rc>
    <rc><c>Sr</c><c>   1</c></rc>
    <rc><c>Sr</c><c>   1</c></rc>
    <rc><c>Sr</c><c>   1</c></rc>
    <rc><c>Sr</c><c>   1</c></rc>
    <rc><c>Sr</c><c>   1</c></rc>
    <rc><c>Sr</c><c>   1</c></rc>
    <rc><c>Sr</c><c>   1</c></rc>
    <rc><c>Sr</c><c>   1</c></rc>
    <rc><c>Sr</c><c>   1</c></rc>
    <rc><c>Sr</c><c>   1</c></rc>
    <rc><c>Sr</c><c>   1</c></rc>
    <rc><c>Sr</c><c>   1</c></rc>
    <rc><c>Sr</c><c>   1</c></rc>
    <rc><c>Sr</c><c>   1</c></rc>
    <rc><c>Sr</c><c>   1</c></rc>
    <rc><c>Sr</c><c>   1</c></rc>
    <rc><c>Sr</c><c>   1</c></rc>
    <rc><c>Ti</c><c>   2</c></rc>
    <rc><c>Ti</c><c>   2</c></rc>
    <rc><c>Ti</c><c>   2</c></rc>
    <rc><c>Ti</c><c>   2</c></rc>
    <rc><c>Ti</c><c>   2</c></rc>
    <rc><c>Ti</c><c>   2</c></rc>
    <rc><c>Ti</c><c>   2</c></rc>
    <rc><c>Ti</c><c>   2</c></rc>
    <rc><c>Ti</c><c>   2</c></rc>
    <rc><c>Ti</c><c>   2</c></rc>
    <rc><c>Ti</c><c>   2</c></rc>
    <rc><c>Ti</c><c>   2</c></rc>
    <rc><c>Ti</c><c>   2</c></rc>
    <rc><c>Ti</c><c>   2</c></rc>
    <rc><c>Ti</c><c>   2</c></rc>
    <rc><c>Ti</c><c>   2</c></rc>
    <rc><c>Ti</c><c>   2</c></rc>
    <rc><c>Ti</c><c>   2</c></rc>
    <rc><c>Ti</c><c>   2</c></rc>
    <rc><c>Ti</c><c>   2</c></rc>
    <rc><c>Fe</c><c>   3</c></rc>
    <rc><c>Fe</c><c>   3</c></rc>
    <rc><c>Fe</c><c>   3</c></rc>
    <rc><c>Fe</c><c>   3</c></rc>
    <rc><c>Fe</c><c>   3</c></rc>
    <rc><c>Fe</c><c>   3</c></rc>
    <rc><c>Fe</c><c>   3</c></rc>
    <rc><c>Fe</c><c>   3</c></rc>
    <rc><c>Fe</c><c>   3</c></rc>
    <rc><c>Fe</c><c>   3</c></rc>
    <rc><c>Fe</c><c>   3</c></rc>
    <rc><c>Fe</c><c>   3</c></rc>
    <rc><c>O </c><c>   4</c></rc>
    <rc><c>O </c><c>   4</c></rc>
    <rc><c>O </c><c>   4</c></rc>
    <rc><c>O </c><c>   4</c></rc>
    <rc><c>O </c><c>   4</c></rc>
    <rc><c>O </c><c>   4</c></rc>
    <rc><c>O </c><c>   4</c></rc>
    <rc><c>O </c><c>   4</c></rc>
    <rc><c>O </c><c>   4</c></rc>
    <rc><c>O </c><c>   4</c></rc>
    <rc><c>O </c><c>   4</c></rc>
    <rc><c>O </c><c>   4</c></rc>
    <rc><c>O </c><c>   4</c></rc>
    <rc><c>O </c><c>   4</c></rc>
    <rc><c>O </c><c>   4</c></rc>
    <rc><c>O </c><c>   4</c></rc>
    <rc><c>O </c><c>   4</c></rc>
    <rc><c>O </c><c>   4</c></rc>
    <rc><c>O </c><c>   4</c></rc>
    <rc><c>O </c><c>   4</c></rc>
    <rc><c>O </c><c>   4</c></rc>
    <rc><c>O </c><c>   4</c></rc>
    <rc><c>O </c><c>   4</c></rc>
    <rc><c>O </c><c>   4</c></rc>
    <rc><c>O </c><c>   4</c></rc>
    <rc><c>O </c><c>   4</c></rc>
    <rc><c>O </c><c>   4</c></rc>
    <rc><c>O </c><c>   4</c></rc>
    <rc><c>O </c><c>   4</c></rc>
    <rc><c>O </c><c>   4</c></rc>
    <rc><c>O </c><c>   4</c></rc>
    <rc><c>O </c><c>   4</c></rc>
    <rc><c>O </c><c>   4</c></rc>
    <rc><c>O </c><c>   4</c></rc>
    <rc><c>O </c><c>   4</c></rc>
    <rc><c>O </c><c>   4</c></rc>
    <rc><c>O </c><c>   4</c></rc>
    <rc><c>O </c><c>   4</c></rc>
    <rc><c>O </c><c>   4</c></rc>
    <rc><c>O </c><c>   4</c></rc>
    <rc><c>O </c><c>   4</c></rc>
    <rc><c>O </c><c>   4</c></rc>
    <rc><c>O </c><c>   4</c></rc>
    <rc><c>O </c><c>   4</c></rc>
    <rc><c>O </c><c>   4</c></rc>
    <rc><c>O </c><c>   4</c></rc>
    <rc><c>O </c><c>   4</c></rc>
    <rc><c>O </c><c>   4</c></rc>
    <rc><c>O </c><c>   4</c></rc>
    <rc><c>O </c><c>   4</c></rc>
    <rc><c>O </c><c>   4</c></rc>
    <rc><c>O </c><c>   4</c></rc>
    <rc><c>O </c><c>   4</c></rc>
    <rc><c>O </c><c>   4</c></rc>
    <rc><c>O </c><c>   4</c></rc>
    <rc><c>O </c><c>   4</c></rc>
    <rc><c>O </c><c>   4</c></rc>
    <rc><c>O </c><c>   4</c></rc>
    <rc><c>O </c><c>   4</c></rc>
    <rc><c>O </c><c>   4</c></rc>
    <rc><c>O </c><c>   4</c></rc>
    <rc><c>O </c><c>   4</c></rc>
    <rc><c>O </c><c>   4</c></rc>
    <rc><c>O </c><c>   4</c></rc>
    <rc><c>O </c><c>   4</c></rc>
    <rc><c>O </c><c>   4</c></rc>
    <rc><c>O </c><c>   4</c></rc>
    <rc><c>O </c><c>   4</c></rc>
    <rc><c>O </c><c>   4</c></rc>
    <rc><c>O </c><c>   4</c></rc>
    <rc><c>O </c><c>   4</c></rc>
    <rc><c>O </c><c>   4</c></rc>
    <rc><c>O </c><c>   4</c></rc>
    <rc><c>O </c><c>   4</c></rc>
    <rc><c>O </c><c>   4</c></rc>
    <rc><c>O </c><c>   4</c></rc>
    <rc><c>O </c><c>   4</c></rc>
    <rc><c>O </c><c>   4</c></rc>
    <rc><c>O </c><c>   4</c></rc>
    <rc><c>O </c><c>   4</c></rc>
    <rc><c>O </c><c>   4</c></rc>
    <rc><c>O </c><c>   4</c></rc>
    <rc><c>O </c><c>   4</c></rc>
    <rc><c>O </c><c>   4</c></rc>
    <rc><c>O </c><c>   4</c></rc>
    <rc><c>O </c><c>   4</c></rc>
    <rc><c>O </c><c>   4</c></rc>
    <rc><c>O </c><c>   4</c></rc>
    <rc><c>O </c><c>   4</c></rc>
    <rc><c>O </c><c>   4</c></rc>
   </set>
  </array>
  <array name="atomtypes" >
   <dimension dim="1">type</dimension>
   <field type="int">atomspertype</field>
   <field type="string">element</field>
   <field>mass</field>
   <field>valence</field>
   <field type="string">pseudopotential</field>
   <set>
    <rc><c>  32</c><c>Sr</c><c>     87.62000000</c><c>     10.00000000</c><c>  PAW_PBE Sr_sv 07Sep2000               </c></rc>
    <rc><c>  20</c><c>Ti</c><c>     47.88000000</c><c>      4.00000000</c><c>  PAW_PBE Ti 08Apr2002                  </c></rc>
    <rc><c>  12</c><c>Fe</c><c>     55.84700000</c><c>      8.00000000</c><c>  PAW_PBE Fe 06Sep2000                  </c></rc>
    <rc><c>  90</c><c>O </c><c>     16.00000000</c><c>      6.00000000</c><c>  PAW_PBE O 08Apr2002                   </c></rc>
   </set>
  </array>
 </atominfo>
 <structure name="initialpos" >
  <crystal>
   <varray name="basis" >
    <v>      11.23173331      -0.02163983       0.05448396 </v>
    <v>      -0.02169149      11.25161252       0.00090557 </v>
    <v>       0.07768220       0.00114242      15.94539073 </v>
   </varray>
   <i name="volume">   2015.04540298 </i>
   <varray name="rec_basis" >
    <v>       0.08903589       0.00017168      -0.00043377 </v>
    <v>       0.00017127       0.08887648      -0.00000720 </v>
    <v>      -0.00030424      -0.00000563       0.06271553 </v>
   </varray>
  </crystal>
  <varray name="positions" >
   <v>       0.00491073       0.25859346       0.13739369 </v>
   <v>       0.00265996       0.24690369       0.62401840 </v>
   <v>       0.00789009       0.74795979       0.13624093 </v>
   <v>       0.00340134       0.74620934       0.62255047 </v>
   <v>       0.48856001       0.25635775       0.13877741 </v>
   <v>       0.49611553       0.25182898       0.62279038 </v>
   <v>       0.48805141       0.75042564       0.13695672 </v>
   <v>       0.49770989       0.75139706       0.62148155 </v>
   <v>       0.99764810       0.25385863       0.37714304 </v>
   <v>       0.01351051       0.24295423       0.86527068 </v>
   <v>       0.99894985       0.75060965       0.37716104 </v>
   <v>       0.01708208       0.74082017       0.86300235 </v>
   <v>       0.49858011       0.25491176       0.37860895 </v>
   <v>       0.48497080       0.25132844       0.86420059 </v>
   <v>       0.49794372       0.74995648       0.37865816 </v>
   <v>       0.48576343       0.74998138       0.86393821 </v>
   <v>       0.26275373       0.99839611       0.13224977 </v>
   <v>       0.25439522       0.00123570       0.62464794 </v>
   <v>       0.26359523       0.49983382       0.13327743 </v>
   <v>       0.25362438       0.49758301       0.62415415 </v>
   <v>       0.74946131       0.00217472       0.13757360 </v>
   <v>       0.74550533       0.00225417       0.61929206 </v>
   <v>       0.74908541       0.49918425       0.13838454 </v>
   <v>       0.74563547       0.49901490       0.62011308 </v>
   <v>       0.25125511       0.00217063       0.37744063 </v>
   <v>       0.25715234       0.00163511       0.86581348 </v>
   <v>       0.25189639       0.50194164       0.37664859 </v>
   <v>       0.25716589       0.50026656       0.86489600 </v>
   <v>       0.74576672       0.00367003       0.37652534 </v>
   <v>       0.73830487       0.00128678       0.86244532 </v>
   <v>       0.74469122       0.50143771       0.37668442 </v>
   <v>       0.73807665       0.49581941       0.86139632 </v>
   <v>       0.25030589       0.75136870       0.50312717 </v>
   <v>       0.99921864       0.50046823       0.49823434 </v>
   <v>       0.24825174       0.25368559       0.25193567 </v>
   <v>       0.50235194       0.00187978       0.25265614 </v>
   <v>       0.25011101       0.25100888       0.50253306 </v>
   <v>       0.00048849       0.00247513       0.25003268 </v>
   <v>       0.25442737       0.24574843       0.00024424 </v>
   <v>       0.74662709       0.25158656       0.49860903 </v>
   <v>       0.99898389       0.00009918       0.49828316 </v>
   <v>       0.49907511       0.49616963       0.99636259 </v>
   <v>       0.74727948       0.75187129       0.49950194 </v>
   <v>       0.24898070       0.74778508       0.25230493 </v>
   <v>       0.25736654       0.74569634       0.99905005 </v>
   <v>       0.75243394       0.25490049       0.25172082 </v>
   <v>       0.75152210       0.74909628       0.25398442 </v>
   <v>       0.50088129       0.00264435       0.99750218 </v>
   <v>       0.99421783       0.49812312       0.75073091 </v>
   <v>       0.99300287       0.99490055       0.75142789 </v>
   <v>       0.49745237       0.99898374       0.74634969 </v>
   <v>       0.49654678       0.50329424       0.74520880 </v>
   <v>       0.03419895       0.99005207       0.00318515 </v>
   <v>       0.03434782       0.48965253       0.00032922 </v>
   <v>       0.74985520       0.75188470       0.73830139 </v>
   <v>       0.24926368       0.75039783       0.74742705 </v>
   <v>       0.70418104       0.24321637       0.01978909 </v>
   <v>       0.00019876       0.50343812       0.25436928 </v>
   <v>       0.71801328       0.74392394       0.01371871 </v>
   <v>       0.74842823       0.25056199       0.73992794 </v>
   <v>       0.50265828       0.50248618       0.25459714 </v>
   <v>       0.49973508       0.00207865       0.49912892 </v>
   <v>       0.24843931       0.24970687       0.74859306 </v>
   <v>       0.49979887       0.50216852       0.49792365 </v>
   <v>       0.86041278       0.12397121       0.75583981 </v>
   <v>       0.11280699       0.12224920       0.75039472 </v>
   <v>       0.12363314       0.62857208       0.23807742 </v>
   <v>       0.11625148       0.62235977       0.74744623 </v>
   <v>       0.88125676       0.37296410       0.26022287 </v>
   <v>       0.62616809       0.13569555       0.75214895 </v>
   <v>       0.62425340       0.63496722       0.23530602 </v>
   <v>       0.62469069       0.62977997       0.74982667 </v>
   <v>       0.50575587       0.48455422       0.11719695 </v>
   <v>       0.38009142       0.87216163       0.25764965 </v>
   <v>       0.37828180       0.37105510       0.25815469 </v>
   <v>       0.86770160       0.35936282       0.77451950 </v>
   <v>       0.88179149       0.87286101       0.25834272 </v>
   <v>       0.87230425       0.86536579       0.77840806 </v>
   <v>       0.37270583       0.12141666       0.24428605 </v>
   <v>       0.37207803       0.12272345       0.74298374 </v>
   <v>       0.37223975       0.62406584       0.24569968 </v>
   <v>       0.37158664       0.62342416       0.73977078 </v>
   <v>       0.87250119       0.12136437       0.24984689 </v>
   <v>       0.98153071       0.98369876       0.63128205 </v>
   <v>       0.87146200       0.62435351       0.24833078 </v>
   <v>       0.86621940       0.62049960       0.75656675 </v>
   <v>       0.12809881       0.37963431       0.24541933 </v>
   <v>       0.11862803       0.37748562       0.76189050 </v>
   <v>       0.12838765       0.88056704       0.24542853 </v>
   <v>       0.11946351       0.87939625       0.76282802 </v>
   <v>       0.63229689       0.37916506       0.25158189 </v>
   <v>       0.63102047       0.37111796       0.75638426 </v>
   <v>       0.63331379       0.88163852       0.25127621 </v>
   <v>       0.62683817       0.87694194       0.75708362 </v>
   <v>       0.35848842       0.39362541       0.99124890 </v>
   <v>       0.35964969       0.38634534       0.49318469 </v>
   <v>       0.36044421       0.89290192       0.99068296 </v>
   <v>       0.36049182       0.88716630       0.49290465 </v>
   <v>       0.24466784       0.76785036       0.62582985 </v>
   <v>       0.86214329       0.38944830       0.48799535 </v>
   <v>       0.37588885       0.87569494       0.75409356 </v>
   <v>       0.86280938       0.89002896       0.48652329 </v>
   <v>       0.16601404       0.09311135       0.00630182 </v>
   <v>       0.13421563       0.11052648       0.51223034 </v>
   <v>       0.16479100       0.59463439       0.00455807 </v>
   <v>       0.13442637       0.61205427       0.51464190 </v>
   <v>       0.66494297       0.08433898       0.99905250 </v>
   <v>       0.63794158       0.11655029       0.50652783 </v>
   <v>       0.67160227       0.59313122       0.99687757 </v>
   <v>       0.63853230       0.61802086       0.50914802 </v>
   <v>       0.09666380       0.33234023       0.99891162 </v>
   <v>       0.10858846       0.36231298       0.49945685 </v>
   <v>       0.09471666       0.83278106       0.99704248 </v>
   <v>       0.10791270       0.86258897       0.49825457 </v>
   <v>       0.61667929       0.36231596       0.96904098 </v>
   <v>       0.61478511       0.36347123       0.49662585 </v>
   <v>       0.01450738       0.51513700       0.37708367 </v>
   <v>       0.40901739       0.14747239       0.00695370 </v>
   <v>       0.38319871       0.13894402       0.50300618 </v>
   <v>       0.40823113       0.64773692       0.00417597 </v>
   <v>       0.38289921       0.63967481       0.50465989 </v>
   <v>       0.88866169       0.13749792       0.50184794 </v>
   <v>       0.97622133       0.99822453       0.11504238 </v>
   <v>       0.88791243       0.63839501       0.50267723 </v>
   <v>       0.50798023       0.51536785       0.37501853 </v>
   <v>       0.98160708       0.48319231       0.63099231 </v>
   <v>       0.50382599       0.98012668       0.12024171 </v>
   <v>       0.50307519       0.99313811       0.62572533 </v>
   <v>       0.76344364       0.76939082       0.62214202 </v>
   <v>       0.50303909       0.49002022       0.62539690 </v>
   <v>       0.01376808       0.01359526       0.37352357 </v>
   <v>       0.96900430       0.02110564       0.89747414 </v>
   <v>       0.37604309       0.37530752       0.75363463 </v>
   <v>       0.97391267       0.51206894       0.89102552 </v>
   <v>       0.50724246       0.01509460       0.37229254 </v>
   <v>       0.49771297       0.01688014       0.87349085 </v>
   <v>       0.12254630       0.12770441       0.23631005 </v>
   <v>       0.49523221       0.51639091       0.87156774 </v>
   <v>       0.23775012       0.23832640       0.37418524 </v>
   <v>       0.25217332       0.23665470       0.87726102 </v>
   <v>       0.23865831       0.73991501       0.37495152 </v>
   <v>       0.25238146       0.73701534       0.87508240 </v>
   <v>       0.74372450       0.23773199       0.37368656 </v>
   <v>       0.62007552       0.85289099       0.97083057 </v>
   <v>       0.74283642       0.73789863       0.37383285 </v>
   <v>       0.96823676       0.50312580       0.10714765 </v>
   <v>       0.25927882       0.26202494       0.12365458 </v>
   <v>       0.24473338       0.26204412       0.62558282 </v>
   <v>       0.25813605       0.76167781       0.12304179 </v>
   <v>       0.61416730       0.86375805       0.49606687 </v>
   <v>       0.77863193       0.26646553       0.12277184 </v>
   <v>       0.76069179       0.26381626       0.62245734 </v>
   <v>       0.77558387       0.77059182       0.11724193 </v>
   <v>       0.62293511       0.13158975       0.23576972 </v>
  </varray>
 </structure>
 <calculation>
  <scstep>
   <time name="dav">  307.29  307.39</time>
   <time name="total">  311.06  311.24</time>
   <energy>
    <i name="alphaZ">   5594.91592354 </i>
    <i name="ewald"> -60959.13828585 </i>
    <i name="hartreedc"> -17553.04523292 </i>
    <i name="XCdc">   3072.74144119 </i>
    <i name="pawpsdc"> 115182.87362729 </i>
    <i name="pawaedc">-114232.46475754 </i>
    <i name="eentropy">     -0.00000002 </i>
    <i name="bandstr">  -7109.91745651 </i>
    <i name="atom">  74916.81196153 </i>
    <i name="e_fr_energy">  -1087.22277928 </i>
    <i name="e_wo_entrp">  -1087.22277927 </i>
    <i name="e_0_energy">  -1087.22277927 </i>
   </energy>
  </scstep>
  <scstep>
   <time name="diag">   33.37   33.37</time>
   <time name="diis">   31.61   31.64</time>
   <time name="orth">   18.90   18.91</time>
   <time name="total">   87.60   87.70</time>
   <energy>
    <i name="e_fr_energy">  -1087.22278149 </i>
    <i name="e_wo_entrp">  -1087.22278147 </i>
    <i name="e_0_energy">  -1087.22278148 </i>
   </energy>
  </scstep>
  <scstep>
   <time name="diag">   33.32   33.32</time>
   <time name="diis">   30.30   30.32</time>
   <time name="orth">   18.91   18.90</time>
   <time name="total">   86.29   86.34</time>
   <energy>
    <i name="e_fr_energy">  -1087.22278253 </i>
    <i name="e_wo_entrp">  -1087.22278251 </i>
    <i name="e_0_energy">  -1087.22278252 </i>
   </energy>
  </scstep>
  <scstep>
   <time name="diag">   33.36   33.36</time>
   <time name="diis">   28.46   28.48</time>
   <time name="orth">   18.91   18.92</time>
   <time name="total">   84.45   84.55</time>
   <energy>
    <i name="e_fr_energy">  -1087.22278362 </i>
    <i name="e_wo_entrp">  -1087.22278360 </i>
    <i name="e_0_energy">  -1087.22278361 </i>
   </energy>
  </scstep>
  <scstep>
   <time name="diag">   33.37   33.37</time>
   <time name="diis">   28.10   28.12</time>
   <time name="orth">   18.90   18.90</time>
   <time name="total">   84.11   84.18</time>
   <energy>
    <i name="e_fr_energy">  -1087.22278449 </i>
    <i name="e_wo_entrp">  -1087.22278447 </i>
    <i name="e_0_energy">  -1087.22278448 </i>
   </energy>
  </scstep>
  <scstep>
   <time name="diag">   33.36   33.36</time>
   <time name="diis">   26.25   26.25</time>
   <time name="orth">   18.93   18.93</time>
   <time name="total">   82.31   82.34</time>
   <energy>
    <i name="e_fr_energy">  -1087.22278541 </i>
    <i name="e_wo_entrp">  -1087.22278539 </i>
    <i name="e_0_energy">  -1087.22278540 </i>
   </energy>
  </scstep>
  <scstep>
   <time name="diag">   33.34   33.34</time>
   <time name="diis">   25.82   25.84</time>
   <time name="orth">   18.90   18.92</time>
   <time name="total">   81.84   81.95</time>
   <energy>
    <i name="e_fr_energy">  -1087.22278592 </i>
    <i name="e_wo_entrp">  -1087.22278590 </i>
    <i name="e_0_energy">  -1087.22278591 </i>
   </energy>
  </scstep>
  <scstep>
   <time name="diag">   33.35   33.36</time>
   <time name="diis">   24.86   24.89</time>
   <time name="orth">   18.92   18.92</time>
   <time name="total">   77.72   77.78</time>
   <energy>
    <i name="alphaZ">   5594.91592354 </i>
    <i name="ewald"> -60959.13828585 </i>
    <i name="hartreedc"> -17553.05522225 </i>
    <i name="XCdc">   3072.74073503 </i>
    <i name="pawpsdc"> 115182.81616455 </i>
    <i name="pawaedc">-114232.38991003 </i>
    <i name="eentropy">     -0.00000002 </i>
    <i name="bandstr">  -7109.92415277 </i>
    <i name="atom">  74916.81196153 </i>
    <i name="e_fr_energy">  -1087.22278626 </i>
    <i name="e_wo_entrp">  -1087.22278624 </i>
    <i name="e_0_energy">  -1087.22278625 </i>
   </energy>
  </scstep>
  <structure>
   <crystal>
    <varray name="basis" >
     <v>      11.23173331      -0.02163983       0.05448396 </v>
     <v>      -0.02169149      11.25161252       0.00090557 </v>
     <v>       0.07768220       0.00114242      15.94539073 </v>
    </varray>
    <i name="volume">   2015.04540298 </i>
    <varray name="rec_basis" >
     <v>       0.08903589       0.00017168      -0.00043377 </v>
     <v>       0.00017127       0.08887648      -0.00000720 </v>
     <v>      -0.00030424      -0.00000563       0.06271553 </v>
    </varray>
   </crystal>
   <varray name="positions" >
    <v>       0.00491073       0.25859346       0.13739369 </v>
    <v>       0.00265996       0.24690369       0.62401840 </v>
    <v>       0.00789009       0.74795979       0.13624093 </v>
    <v>       0.00340134       0.74620934       0.62255047 </v>
    <v>       0.48856001       0.25635775       0.13877741 </v>
    <v>       0.49611553       0.25182898       0.62279038 </v>
    <v>       0.48805141       0.75042564       0.13695672 </v>
    <v>       0.49770989       0.75139706       0.62148155 </v>
    <v>       0.99764810       0.25385863       0.37714304 </v>
    <v>       0.01351051       0.24295423       0.86527068 </v>
    <v>       0.99894985       0.75060965       0.37716104 </v>
    <v>       0.01708208       0.74082017       0.86300235 </v>
    <v>       0.49858011       0.25491176       0.37860895 </v>
    <v>       0.48497080       0.25132844       0.86420059 </v>
    <v>       0.49794372       0.74995648       0.37865816 </v>
    <v>       0.48576343       0.74998138       0.86393821 </v>
    <v>       0.26275373       0.99839611       0.13224977 </v>
    <v>       0.25439522       0.00123570       0.62464794 </v>
    <v>       0.26359523       0.49983382       0.13327743 </v>
    <v>       0.25362438       0.49758301       0.62415415 </v>
    <v>       0.74946131       0.00217472       0.13757360 </v>
    <v>       0.74550533       0.00225417       0.61929206 </v>
    <v>       0.74908541       0.49918425       0.13838454 </v>
    <v>       0.74563547       0.49901490       0.62011308 </v>
    <v>       0.25125511       0.00217063       0.37744063 </v>
    <v>       0.25715234       0.00163511       0.86581348 </v>
    <v>       0.25189639       0.50194164       0.37664859 </v>
    <v>       0.25716589       0.50026656       0.86489600 </v>
    <v>       0.74576672       0.00367003       0.37652534 </v>
    <v>       0.73830487       0.00128678       0.86244532 </v>
    <v>       0.74469122       0.50143771       0.37668442 </v>
    <v>       0.73807665       0.49581941       0.86139632 </v>
    <v>       0.25030589       0.75136870       0.50312717 </v>
    <v>       0.99921864       0.50046823       0.49823434 </v>
    <v>       0.24825174       0.25368559       0.25193567 </v>
    <v>       0.50235194       0.00187978       0.25265614 </v>
    <v>       0.25011101       0.25100888       0.50253306 </v>
    <v>       0.00048849       0.00247513       0.25003268 </v>
    <v>       0.25442737       0.24574843       0.00024424 </v>
    <v>       0.74662709       0.25158656       0.49860903 </v>
    <v>       0.99898389       0.00009918       0.49828316 </v>
    <v>       0.49907511       0.49616963       0.99636259 </v>
    <v>       0.74727948       0.75187129       0.49950194 </v>
    <v>       0.24898070       0.74778508       0.25230493 </v>
    <v>       0.25736654       0.74569634       0.99905005 </v>
    <v>       0.75243394       0.25490049       0.25172082 </v>
    <v>       0.75152210       0.74909628       0.25398442 </v>
    <v>       0.50088129       0.00264435       0.99750218 </v>
    <v>       0.99421783       0.49812312       0.75073091 </v>
    <v>       0.99300287       0.99490055       0.75142789 </v>
    <v>       0.49745237       0.99898374       0.74634969 </v>
    <v>       0.49654678       0.50329424       0.74520880 </v>
    <v>       0.03419895       0.99005207       0.00318515 </v>
    <v>       0.03434782       0.48965253       0.00032922 </v>
    <v>       0.74985520       0.75188470       0.73830139 </v>
    <v>       0.24926368       0.75039783       0.74742705 </v>
    <v>       0.70418104       0.24321637       0.01978909 </v>
    <v>       0.00019876       0.50343812       0.25436928 </v>
    <v>       0.71801328       0.74392394       0.01371871 </v>
    <v>       0.74842823       0.25056199       0.73992794 </v>
    <v>       0.50265828       0.50248618       0.25459714 </v>
    <v>       0.49973508       0.00207865       0.49912892 </v>
    <v>       0.24843931       0.24970687       0.74859306 </v>
    <v>       0.49979887       0.50216852       0.49792365 </v>
    <v>       0.86041278       0.12397121       0.75583981 </v>
    <v>       0.11280699       0.12224920       0.75039472 </v>
    <v>       0.12363314       0.62857208       0.23807742 </v>
    <v>       0.11625148       0.62235977       0.74744623 </v>
    <v>       0.88125676       0.37296410       0.26022287 </v>
    <v>       0.62616809       0.13569555       0.75214895 </v>
    <v>       0.62425340       0.63496722       0.23530602 </v>
    <v>       0.62469069       0.62977997       0.74982667 </v>
    <v>       0.50575587       0.48455422       0.11719695 </v>
    <v>       0.38009142       0.87216163       0.25764965 </v>
    <v>       0.37828180       0.37105510       0.25815469 </v>
    <v>       0.86770160       0.35936282       0.77451950 </v>
    <v>       0.88179149       0.87286101       0.25834272 </v>
    <v>       0.87230425       0.86536579       0.77840806 </v>
    <v>       0.37270583       0.12141666       0.24428605 </v>
    <v>       0.37207803       0.12272345       0.74298374 </v>
    <v>       0.37223975       0.62406584       0.24569968 </v>
    <v>       0.37158664       0.62342416       0.73977078 </v>
    <v>       0.87250119       0.12136437       0.24984689 </v>
    <v>       0.98153071       0.98369876       0.63128205 </v>
    <v>       0.87146200       0.62435351       0.24833078 </v>
    <v>       0.86621940       0.62049960       0.75656675 </v>
    <v>       0.12809881       0.37963431       0.24541933 </v>
    <v>       0.11862803       0.37748562       0.76189050 </v>
    <v>       0.12838765       0.88056704       0.24542853 </v>
    <v>       0.11946351       0.87939625       0.76282802 </v>
    <v>       0.63229689       0.37916506       0.25158189 </v>
    <v>       0.63102047       0.37111796       0.75638426 </v>
    <v>       0.63331379       0.88163852       0.25127621 </v>
    <v>       0.62683817       0.87694194       0.75708362 </v>
    <v>       0.35848842       0.39362541       0.99124890 </v>
    <v>       0.35964969       0.38634534       0.49318469 </v>
    <v>       0.36044421       0.89290192       0.99068296 </v>
    <v>       0.36049182       0.88716630       0.49290465 </v>
    <v>       0.24466784       0.76785036       0.62582985 </v>
    <v>       0.86214329       0.38944830       0.48799535 </v>
    <v>       0.37588885       0.87569494       0.75409356 </v>
    <v>       0.86280938       0.89002896       0.48652329 </v>
    <v>       0.16601404       0.09311135       0.00630182 </v>
    <v>       0.13421563       0.11052648       0.51223034 </v>
    <v>       0.16479100       0.59463439       0.00455807 </v>
    <v>       0.13442637       0.61205427       0.51464190 </v>
    <v>       0.66494297       0.08433898       0.99905250 </v>
    <v>       0.63794158       0.11655029       0.50652783 </v>
    <v>       0.67160227       0.59313122       0.99687757 </v>
    <v>       0.63853230       0.61802086       0.50914802 </v>
    <v>       0.09666380       0.33234023       0.99891162 </v>
    <v>       0.10858846       0.36231298       0.49945685 </v>
    <v>       0.09471666       0.83278106       0.99704248 </v>
    <v>       0.10791270       0.86258897       0.49825457 </v>
    <v>       0.61667929       0.36231596       0.96904098 </v>
    <v>       0.61478511       0.36347123       0.49662585 </v>
    <v>       0.01450738       0.51513700       0.37708367 </v>
    <v>       0.40901739       0.14747239       0.00695370 </v>
    <v>       0.38319871       0.13894402       0.50300618 </v>
    <v>       0.40823113       0.64773692       0.00417597 </v>
    <v>       0.38289921       0.63967481       0.50465989 </v>
    <v>       0.88866169       0.13749792       0.50184794 </v>
    <v>       0.97622133       0.99822453       0.11504238 </v>
    <v>       0.88791243       0.63839501       0.50267723 </v>
    <v>       0.50798023       0.51536785       0.37501853 </v>
    <v>       0.98160708       0.48319231       0.63099231 </v>
    <v>       0.50382599       0.98012668       0.12024171 </v>
    <v>       0.50307519       0.99313811       0.62572533 </v>
    <v>       0.76344364       0.76939082       0.62214202 </v>
    <v>       0.50303909       0.49002022       0.62539690 </v>
    <v>       0.01376808       0.01359526       0.37352357 </v>
    <v>       0.96900430       0.02110564       0.89747414 </v>
    <v>       0.37604309       0.37530752       0.75363463 </v>
    <v>       0.97391267       0.51206894       0.89102552 </v>
    <v>       0.50724246       0.01509460       0.37229254 </v>
    <v>       0.49771297       0.01688014       0.87349085 </v>
    <v>       0.12254630       0.12770441       0.23631005 </v>
    <v>       0.49523221       0.51639091       0.87156774 </v>
    <v>       0.23775012       0.23832640       0.37418524 </v>
    <v>       0.25217332       0.23665470       0.87726102 </v>
    <v>       0.23865831       0.73991501       0.37495152 </v>
    <v>       0.25238146       0.73701534       0.87508240 </v>
    <v>       0.74372450       0.23773199       0.37368656 </v>
    <v>       0.62007552       0.85289099       0.97083057 </v>
    <v>       0.74283642       0.73789863       0.37383285 </v>
    <v>       0.96823676       0.50312580       0.10714765 </v>
    <v>       0.25927882       0.26202494       0.12365458 </v>
    <v>       0.24473338       0.26204412       0.62558282 </v>
    <v>       0.25813605       0.76167781       0.12304179 </v>
    <v>       0.61416730       0.86375805       0.49606687 </v>
    <v>       0.77863193       0.26646553       0.12277184 </v>
    <v>       0.76069179       0.26381626       0.62245734 </v>
    <v>       0.77558387       0.77059182       0.11724193 </v>
    <v>       0.62293511       0.13158975       0.23576972 </v>
   </varray>
  </structure>
  <varray name="forces" >
   <v>      -0.01224217       0.00379822       0.00157913 </v>
   <v>      -0.00439483       0.00184899      -0.01979668 </v>
   <v>       0.00063982       0.00898833       0.00885252 </v>
   <v>      -0.01124463      -0.00349774      -0.00997927 </v>
   <v>       0.00034749       0.01082462       0.01454265 </v>
   <v>       0.00158506      -0.00270320      -0.00040456 </v>
   <v>      -0.02890335      -0.00464827       0.00474479 </v>
   <v>       0.00507855       0.00982964       0.00694741 </v>
   <v>       0.00996874      -0.01816190       0.02445762 </v>
   <v>      -0.01622501      -0.00474570      -0.00027129 </v>
   <v>      -0.01236411      -0.00089932       0.01066972 </v>
   <v>      -0.00326516       0.01742415      -0.00013706 </v>
   <v>      -0.01010945       0.01553797       0.01077334 </v>
   <v>      -0.00189502       0.00639375      -0.02716059 </v>
   <v>       0.00105530       0.00791814       0.01473284 </v>
   <v>      -0.01560551      -0.01017339      -0.00870341 </v>
   <v>       0.02687097      -0.01142884       0.01540225 </v>
   <v>      -0.00310767       0.01332449      -0.00444547 </v>
   <v>       0.00220713      -0.00973595       0.00576563 </v>
   <v>      -0.00330191       0.00701566      -0.01003926 </v>
   <v>       0.00969699       0.00025619      -0.00253980 </v>
   <v>      -0.00503227      -0.01144808       0.00661634 </v>
   <v>       0.00762863      -0.01123197      -0.00347971 </v>
   <v>      -0.00264151       0.01259260      -0.00634946 </v>
   <v>       0.00139434      -0.00960469       0.01282879 </v>
   <v>       0.02440091       0.00627414       0.00509238 </v>
   <v>       0.00799453       0.00100975       0.00771425 </v>
   <v>       0.01390816       0.00783773       0.00232640 </v>
   <v>       0.01379181      -0.01218859       0.03427535 </v>
   <v>       0.01028681       0.00297309      -0.00549737 </v>
   <v>       0.01113954      -0.00181006       0.02402170 </v>
   <v>       0.01362359       0.01336645      -0.01292822 </v>
   <v>       0.00103584       0.00097991      -0.01548462 </v>
   <v>       0.01085519      -0.04393185       0.01105199 </v>
   <v>      -0.00040247      -0.02013273       0.00944583 </v>
   <v>      -0.02491753       0.02809984      -0.01299188 </v>
   <v>      -0.02834381      -0.01077628       0.01785848 </v>
   <v>       0.02887888       0.01612770       0.00328366 </v>
   <v>      -0.01889811      -0.01060592      -0.01595775 </v>
   <v>       0.01508897      -0.00155651      -0.01224867 </v>
   <v>       0.02889085       0.04245100       0.00188031 </v>
   <v>       0.01264881       0.00270511      -0.01226724 </v>
   <v>      -0.01865604      -0.03428337       0.00058612 </v>
   <v>      -0.00365705       0.01200418      -0.01111256 </v>
   <v>      -0.01098147      -0.00306066      -0.00031165 </v>
   <v>      -0.00532968      -0.01880301      -0.00356546 </v>
   <v>       0.01471105       0.00162315       0.01251248 </v>
   <v>      -0.01034132       0.00493899      -0.00708738 </v>
   <v>      -0.02011197      -0.01481546      -0.00332653 </v>
   <v>      -0.03025567       0.01200146       0.01678307 </v>
   <v>       0.01924152       0.01663058      -0.01267117 </v>
   <v>       0.04042824      -0.00507953      -0.02068766 </v>
   <v>      -0.01489817      -0.00906348       0.00066569 </v>
   <v>       0.00672552       0.01487510       0.00404540 </v>
   <v>      -0.00034645      -0.00665966       0.01118004 </v>
   <v>      -0.00702982       0.01242904      -0.01135640 </v>
   <v>      -0.00765533      -0.00953434       0.01617825 </v>
   <v>       0.00551082      -0.00261552       0.00321260 </v>
   <v>       0.00044329       0.03466219      -0.02145611 </v>
   <v>       0.00493590      -0.00458559       0.00316353 </v>
   <v>      -0.00492461       0.00362858      -0.01363708 </v>
   <v>       0.00065530       0.00098084       0.03523025 </v>
   <v>      -0.00509566       0.00620486      -0.03270569 </v>
   <v>       0.01354312      -0.01078802       0.01028303 </v>
   <v>       0.02365712       0.00568347      -0.00906861 </v>
   <v>       0.00887518       0.01319198       0.01382040 </v>
   <v>      -0.00425406      -0.01090576      -0.00735047 </v>
   <v>       0.00699034       0.01582766       0.01442527 </v>
   <v>      -0.01273492      -0.00026142       0.01476958 </v>
   <v>       0.00087827      -0.01557367      -0.00822286 </v>
   <v>      -0.00470848      -0.00962795      -0.00550314 </v>
   <v>      -0.00497234       0.00975816       0.00081763 </v>
   <v>       0.00830921       0.01840500       0.01914993 </v>
   <v>       0.00453738       0.01024061       0.00448881 </v>
   <v>       0.00306360       0.02146690       0.00244410 </v>
   <v>       0.01648887       0.02604023      -0.00185109 </v>
   <v>      -0.01149458      -0.01013032      -0.00437034 </v>
   <v>       0.02145971       0.00764808      -0.02760167 </v>
   <v>       0.01446574      -0.01784942       0.01067879 </v>
   <v>      -0.01307016      -0.00867216      -0.02337500 </v>
   <v>      -0.00186798      -0.00828893      -0.01234844 </v>
   <v>      -0.01944544       0.00439237      -0.00093388 </v>
   <v>      -0.01669903       0.01177492       0.02934946 </v>
   <v>      -0.00269313      -0.00275087       0.00185382 </v>
   <v>       0.00969232      -0.00635452       0.00423192 </v>
   <v>       0.01282306       0.00287405      -0.00615476 </v>
   <v>      -0.01751810       0.00778210       0.00628255 </v>
   <v>       0.01155050       0.02789488       0.00179564 </v>
   <v>      -0.00373727      -0.01392171      -0.01476645 </v>
   <v>       0.01523500      -0.00362316       0.00139676 </v>
   <v>       0.00662534      -0.01068071       0.00173259 </v>
   <v>      -0.02092721      -0.00019739      -0.00568819 </v>
   <v>      -0.00540041      -0.00115979      -0.00661203 </v>
   <v>      -0.00144860      -0.00946610       0.00938099 </v>
   <v>       0.01537647      -0.01027243      -0.01009711 </v>
   <v>       0.02874845      -0.01353684      -0.02194693 </v>
   <v>       0.01999442      -0.00014378      -0.00043106 </v>
   <v>       0.01916937      -0.01767227      -0.00281866 </v>
   <v>       0.00284300      -0.00571954       0.00848149 </v>
   <v>       0.02368627      -0.01713145      -0.00018176 </v>
   <v>      -0.01065309      -0.01917279       0.01580597 </v>
   <v>       0.00329350      -0.02506652      -0.00889369 </v>
   <v>      -0.01462072       0.02693600      -0.00958914 </v>
   <v>      -0.02533172      -0.00252428       0.00300531 </v>
   <v>      -0.01362853      -0.00106034       0.00966679 </v>
   <v>      -0.01163329       0.02441534      -0.01156448 </v>
   <v>      -0.00025133       0.00687651      -0.01764989 </v>
   <v>      -0.00770499      -0.00822444       0.01226903 </v>
   <v>      -0.01978442      -0.01289904      -0.00799338 </v>
   <v>      -0.03322809       0.00579641      -0.00830244 </v>
   <v>       0.02564088       0.02476006      -0.01095597 </v>
   <v>       0.01383549       0.01098515      -0.01051454 </v>
   <v>       0.02164425       0.01727132      -0.00192626 </v>
   <v>       0.01358614       0.02369692      -0.00473587 </v>
   <v>       0.01637228       0.03486088       0.01596524 </v>
   <v>       0.00564576       0.02223729      -0.02205138 </v>
   <v>      -0.00891070      -0.01268521      -0.03028084 </v>
   <v>      -0.01322005       0.00204706      -0.00730220 </v>
   <v>       0.01159197      -0.03005901      -0.00993818 </v>
   <v>      -0.01476668      -0.00569851       0.00534218 </v>
   <v>      -0.00781193      -0.02849104       0.00549389 </v>
   <v>      -0.03106872      -0.02698591      -0.00528814 </v>
   <v>      -0.03006807      -0.02139795      -0.00106525 </v>
   <v>      -0.01575557      -0.00249061      -0.01371783 </v>
   <v>      -0.00352523       0.01106322      -0.00116901 </v>
   <v>      -0.00212421      -0.00567227       0.00478901 </v>
   <v>       0.02089554       0.01368061       0.01154671 </v>
   <v>       0.00019339      -0.01469213       0.00096399 </v>
   <v>      -0.02056722      -0.00998517      -0.00002311 </v>
   <v>       0.00080406      -0.01614588      -0.00747388 </v>
   <v>      -0.03076087      -0.01254414      -0.01051492 </v>
   <v>      -0.03738451      -0.02138394      -0.00685235 </v>
   <v>      -0.01224098      -0.00910322       0.02798231 </v>
   <v>      -0.02869557       0.01742873       0.01228624 </v>
   <v>       0.00387014      -0.00041350       0.00668245 </v>
   <v>      -0.01882742      -0.01705195       0.00543312 </v>
   <v>      -0.01445793      -0.02019027      -0.00432013 </v>
   <v>       0.00294479       0.01190024       0.00334614 </v>
   <v>      -0.00402793      -0.00095250      -0.00673050 </v>
   <v>       0.01651112       0.00711489       0.01097087 </v>
   <v>       0.00633270       0.00213174      -0.01308273 </v>
   <v>       0.00765881      -0.00351201      -0.00293919 </v>
   <v>       0.01725736      -0.00232642      -0.02370425 </v>
   <v>       0.01601403       0.02457253       0.01580051 </v>
   <v>       0.02003271      -0.00269452      -0.00263697 </v>
   <v>      -0.02315239       0.00776827       0.00608306 </v>
   <v>      -0.01772248       0.00511844      -0.00163575 </v>
   <v>       0.00430454      -0.00054986       0.00393670 </v>
   <v>       0.00678437      -0.01218653       0.01655400 </v>
   <v>       0.01681081       0.02805998      -0.01667479 </v>
   <v>       0.02634223      -0.01720644      -0.00168360 </v>
   <v>       0.00685972       0.00214337       0.02158398 </v>
   <v>       0.03395106      -0.01042470       0.03192268 </v>
   <v>      -0.00378482       0.01489912       0.00789930 </v>
  </varray>
  <varray name="stress" >
   <v>       0.08352860      -0.07784796      -0.04308412 </v>
   <v>      -0.07784774       0.06141712       0.00028429 </v>
   <v>      -0.04308428       0.00028444       0.05405291 </v>
  </varray>
  <energy>
   <i name="e_fr_energy">  -1087.22278626 </i>
   <i name="e_wo_entrp">  -1087.22278625 </i>
   <i name="e_0_energy">     -0.00000002 </i>
  </energy>
  <time name="totalsc"> 1047.58 1050.89</time>
 </calculation>
 <calculation>
  <scstep>
   <time name="dav">  291.64  291.66</time>
   <time name="total">  295.37  295.45</time>
   <energy>
    <i name="alphaZ">   5594.47729319 </i>
    <i name="ewald"> -60956.43909890 </i>
    <i name="hartreedc"> -17553.82819012 </i>
    <i name="XCdc">   3072.63457920 </i>
    <i name="pawpsdc"> 115182.84144876 </i>
    <i name="pawaedc">-114232.41421766 </i>
    <i name="eentropy">     -0.00000002 </i>
    <i name="bandstr">  -7111.30681860 </i>
    <i name="atom">  74916.81196153 </i>
    <i name="e_fr_energy">  -1087.22304263 </i>
    <i name="e_wo_entrp">  -1087.22304261 </i>
    <i name="e_0_energy">  -1087.22304262 </i>
   </energy>
  </scstep>
  <scstep>
   <time name="diag">   33.33   33.35</time>
   <time name="diis">   52.21   52.28</time>
   <time name="orth">   18.89   18.89</time>
   <time name="total">  108.18  108.27</time>
   <energy>
    <i name="e_fr_energy">  -1087.22545965 </i>
    <i name="e_wo_entrp">  -1087.22545961 </i>
    <i name="e_0_energy">  -1087.22545963 </i>
   </energy>
  </scstep>
  <scstep>
   <time name="diag">   33.29   33.30</time>
   <time name="diis">   53.01   53.01</time>
   <time name="orth">   18.88   18.88</time>
   <time name="total">  108.93  109.02</time>
   <energy>
    <i name="e_fr_energy">  -1087.22556452 </i>
    <i name="e_wo_entrp">  -1087.22556449 </i>
    <i name="e_0_energy">  -1087.22556451 </i>
   </energy>
  </scstep>
  <scstep>
   <time name="diag">   33.32   33.35</time>
   <time name="diis">   42.89   42.89</time>
   <time name="orth">   18.90   18.90</time>
   <time name="total">   98.86   98.96</time>
   <energy>
    <i name="e_fr_energy">  -1087.22544629 </i>
    <i name="e_wo_entrp">  -1087.22544626 </i>
    <i name="e_0_energy">  -1087.22544627 </i>
   </energy>
  </scstep>
  <scstep>
   <time name="diag">   33.29   33.29</time>
   <time name="diis">   34.04   34.05</time>
   <time name="orth">   18.89   18.89</time>
   <time name="total">   89.96   90.05</time>
   <energy>
    <i name="e_fr_energy">  -1087.22539889 </i>
    <i name="e_wo_entrp">  -1087.22539886 </i>
    <i name="e_0_energy">  -1087.22539887 </i>
   </energy>
  </scstep>
  <scstep>
   <time name="diag">   33.33   33.35</time>
   <time name="diis">   32.34   32.35</time>
   <time name="orth">   18.90   18.90</time>
   <time name="total">   88.32   88.40</time>
   <energy>
    <i name="e_fr_energy">  -1087.22540269 </i>
    <i name="e_wo_entrp">  -1087.22540265 </i>
    <i name="e_0_energy">  -1087.22540267 </i>
   </energy>
  </scstep>
  <scstep>
   <time name="diag">   33.31   33.32</time>
   <time name="diis">   31.99   32.01</time>
   <time name="orth">   18.89   18.89</time>
   <time name="total">   87.96   88.02</time>
   <energy>
    <i name="e_fr_energy">  -1087.22540435 </i>
    <i name="e_wo_entrp">  -1087.22540432 </i>
    <i name="e_0_energy">  -1087.22540434 </i>
   </energy>
  </scstep>
  <scstep>
   <time name="diag">   33.34   33.36</time>
   <time name="diis">   31.70   31.71</time>
   <time name="orth">   18.87   18.87</time>
   <time name="total">   84.49   84.60</time>
   <energy>
    <i name="alphaZ">   5594.47729319 </i>
    <i name="ewald"> -60956.43909890 </i>
    <i name="hartreedc"> -17554.98264779 </i>
    <i name="XCdc">   3072.71423784 </i>
    <i name="pawpsdc"> 115154.93336128 </i>
    <i name="pawaedc">-114204.49087690 </i>
    <i name="eentropy">     -0.00000004 </i>
    <i name="bandstr">  -7110.24963472 </i>
    <i name="atom">  74916.81196153 </i>
    <i name="e_fr_energy">  -1087.22540450 </i>
    <i name="e_wo_entrp">  -1087.22540446 </i>
    <i name="e_0_energy">  -1087.22540448 </i>
   </energy>
  </scstep>
  <structure>
   <crystal>
    <varray name="basis" >
     <v>      11.23210268      -0.02198484       0.05429447 </v>
     <v>      -0.02203732      11.25188545       0.00090722 </v>
     <v>       0.07741405       0.00114185      15.94572898 </v>
    </varray>
    <i name="volume">   2015.20339094 </i>
    <varray name="rec_basis" >
     <v>       0.08903296       0.00017441      -0.00043225 </v>
     <v>       0.00017399       0.08887434      -0.00000721 </v>
     <v>      -0.00030316      -0.00000565       0.06271419 </v>
    </varray>
   </crystal>
   <varray name="positions" >
    <v>       0.00485814       0.25860964       0.13739865 </v>
    <v>       0.00264152       0.24691159       0.62395857 </v>
    <v>       0.00789273       0.74799833       0.13626770 </v>
    <v>       0.00335322       0.74619426       0.62252044 </v>
    <v>       0.48856129       0.25640416       0.13882140 </v>
    <v>       0.49612233       0.25181741       0.62278913 </v>
    <v>       0.48792713       0.75040547       0.13697150 </v>
    <v>       0.49773164       0.75143924       0.62150249 </v>
    <v>       0.99769025       0.25378083       0.37721690 </v>
    <v>       0.01344078       0.24293375       0.86527010 </v>
    <v>       0.99889651       0.75060568       0.37719351 </v>
    <v>       0.01706820       0.74089485       0.86300198 </v>
    <v>       0.49853659       0.25497829       0.37864169 </v>
    <v>       0.48496328       0.25135585       0.86411844 </v>
    <v>       0.49794801       0.74999043       0.37870272 </v>
    <v>       0.48569650       0.74993763       0.86391211 </v>
    <v>       0.26286874       0.99834732       0.13229598 </v>
    <v>       0.25438207       0.00129281       0.62463453 </v>
    <v>       0.26360451       0.49979209       0.13329484 </v>
    <v>       0.25361046       0.49761307       0.62412382 </v>
    <v>       0.74950302       0.00217590       0.13756577 </v>
    <v>       0.74548348       0.00220504       0.61931215 </v>
    <v>       0.74911816       0.49913616       0.13837390 </v>
    <v>       0.74562436       0.49906888       0.62009391 </v>
    <v>       0.25126075       0.00212946       0.37747943 </v>
    <v>       0.25725709       0.00166221       0.86582853 </v>
    <v>       0.25193058       0.50194604       0.37667181 </v>
    <v>       0.25722565       0.50030028       0.86490283 </v>
    <v>       0.74582514       0.00361787       0.37662884 </v>
    <v>       0.73834919       0.00129962       0.86242853 </v>
    <v>       0.74473855       0.50143003       0.37675693 </v>
    <v>       0.73813555       0.49587684       0.86135700 </v>
    <v>       0.25031067       0.75137291       0.50308031 </v>
    <v>       0.99926467       0.50027995       0.49826763 </v>
    <v>       0.24824965       0.25359926       0.25196426 </v>
    <v>       0.50224542       0.00200006       0.25261719 </v>
    <v>       0.24998881       0.25096243       0.50258751 </v>
    <v>       0.00061260       0.00254451       0.25004219 </v>
    <v>       0.25434644       0.24570280       0.00019624 </v>
    <v>       0.74669215       0.25158001       0.49857175 </v>
    <v>       0.99910830       0.00028144       0.49828841 </v>
    <v>       0.49912972       0.49618133       0.99632529 </v>
    <v>       0.74719905       0.75172414       0.49950399 </v>
    <v>       0.24896532       0.74783653       0.25227135 </v>
    <v>       0.25731935       0.74568313       0.99904927 </v>
    <v>       0.75241097       0.25481983       0.25171011 </v>
    <v>       0.75158504       0.74910335       0.25402206 </v>
    <v>       0.50083706       0.00266544       0.99748089 </v>
    <v>       0.99413139       0.49805943       0.75072115 </v>
    <v>       0.99287266       0.99495175       0.75147911 </v>
    <v>       0.49753542       0.99905521       0.74631107 </v>
    <v>       0.49672082       0.50327280       0.74514562 </v>
    <v>       0.03413487       0.99001309       0.00318738 </v>
    <v>       0.03437675       0.48971636       0.00034136 </v>
    <v>       0.74985343       0.75185613       0.73833522 </v>
    <v>       0.24923382       0.75045107       0.74739279 </v>
    <v>       0.70414774       0.24317542       0.01983815 </v>
    <v>       0.00022235       0.50342695       0.25437892 </v>
    <v>       0.71801592       0.74407257       0.01365378 </v>
    <v>       0.74844933       0.25054237       0.73993744 </v>
    <v>       0.50263744       0.50250170       0.25455596 </v>
    <v>       0.49973716       0.00208285       0.49923550 </v>
    <v>       0.24841816       0.24973345       0.74849418 </v>
    <v>       0.49985674       0.50212238       0.49795457 </v>
    <v>       0.86051464       0.12399577       0.75581203 </v>
    <v>       0.11284493       0.12230583       0.75043640 </v>
    <v>       0.12361493       0.62852529       0.23805524 </v>
    <v>       0.11628133       0.62242768       0.74748977 </v>
    <v>       0.88120175       0.37296287       0.26026774 </v>
    <v>       0.62617191       0.13562879       0.75212406 </v>
    <v>       0.62423321       0.63492590       0.23528944 </v>
    <v>       0.62466940       0.62982177       0.74982922 </v>
    <v>       0.50579131       0.48463320       0.11725476 </v>
    <v>       0.38011090       0.87220558       0.25766316 </v>
    <v>       0.37829509       0.37114716       0.25816204 </v>
    <v>       0.86777268       0.35947460       0.77451365 </v>
    <v>       0.88174213       0.87281748       0.25832966 </v>
    <v>       0.87239706       0.86539877       0.77832424 </v>
    <v>       0.37276760       0.12134024       0.24431815 </v>
    <v>       0.37202231       0.12268616       0.74291321 </v>
    <v>       0.37223192       0.62403029       0.24566235 </v>
    <v>       0.37150318       0.62344283       0.73976824 </v>
    <v>       0.87242895       0.12141471       0.24993593 </v>
    <v>       0.98151908       0.98368694       0.63128770 </v>
    <v>       0.87150349       0.62432635       0.24834345 </v>
    <v>       0.86627464       0.62051204       0.75654794 </v>
    <v>       0.12802350       0.37966753       0.24543860 </v>
    <v>       0.11867784       0.37760531       0.76189576 </v>
    <v>       0.12837179       0.88050733       0.24538391 </v>
    <v>       0.11952889       0.87938084       0.76283203 </v>
    <v>       0.63232523       0.37911932       0.25158704 </v>
    <v>       0.63093070       0.37111695       0.75636735 </v>
    <v>       0.63329072       0.88163351       0.25125628 </v>
    <v>       0.62683167       0.87690134       0.75711202 </v>
    <v>       0.35855459       0.39358150       0.99121813 </v>
    <v>       0.35977352       0.38628755       0.49311787 </v>
    <v>       0.36053010       0.89290147       0.99068136 </v>
    <v>       0.36057407       0.88709069       0.49289585 </v>
    <v>       0.24467983       0.76782586       0.62585548 </v>
    <v>       0.86224490       0.38937504       0.48799445 </v>
    <v>       0.37584260       0.87561264       0.75414155 </v>
    <v>       0.86282351       0.88992152       0.48649634 </v>
    <v>       0.16595166       0.09322673       0.00627302 </v>
    <v>       0.13410674       0.11051545       0.51223980 </v>
    <v>       0.16473225       0.59462972       0.00458751 </v>
    <v>       0.13437685       0.61215886       0.51460707 </v>
    <v>       0.66494232       0.08436847       0.99899910 </v>
    <v>       0.63790816       0.11651496       0.50656507 </v>
    <v>       0.67151735       0.59307576       0.99685368 </v>
    <v>       0.63838979       0.61804544       0.50912339 </v>
    <v>       0.09677437       0.33244661       0.99887809 </v>
    <v>       0.10864820       0.36236019       0.49942483 </v>
    <v>       0.09480981       0.83285530       0.99703633 </v>
    <v>       0.10797135       0.86269069       0.49824003 </v>
    <v>       0.61674957       0.36246556       0.96908903 </v>
    <v>       0.61481001       0.36356663       0.49655904 </v>
    <v>       0.01446964       0.51508254       0.37699218 </v>
    <v>       0.40896077       0.14748106       0.00693180 </v>
    <v>       0.38324846       0.13881523       0.50297595 </v>
    <v>       0.40816754       0.64771236       0.00419235 </v>
    <v>       0.38286531       0.63955258       0.50467663 </v>
    <v>       0.88852813       0.13738196       0.50183240 </v>
    <v>       0.97609202       0.99813254       0.11503960 </v>
    <v>       0.88784502       0.63838421       0.50263596 </v>
    <v>       0.50796521       0.51541526       0.37501504 </v>
    <v>       0.98159781       0.48316797       0.63100683 </v>
    <v>       0.50391561       0.98018551       0.12027634 </v>
    <v>       0.50307588       0.99307511       0.62572824 </v>
    <v>       0.76335522       0.76934784       0.62214226 </v>
    <v>       0.50304257       0.48995100       0.62537428 </v>
    <v>       0.01363607       0.01354123       0.37349221 </v>
    <v>       0.96884369       0.02101365       0.89745396 </v>
    <v>       0.37598985       0.37526838       0.75371948 </v>
    <v>       0.97378930       0.51214343       0.89106311 </v>
    <v>       0.50725894       0.01509286       0.37231270 </v>
    <v>       0.49763184       0.01680687       0.87350757 </v>
    <v>       0.12248412       0.12761773       0.23629719 </v>
    <v>       0.49524489       0.51644196       0.87157781 </v>
    <v>       0.23773295       0.23832228       0.37416493 </v>
    <v>       0.25224407       0.23668534       0.87729397 </v>
    <v>       0.23868581       0.73992421       0.37491184 </v>
    <v>       0.25241439       0.73700034       0.87507340 </v>
    <v>       0.74379910       0.23772217       0.37361459 </v>
    <v>       0.62014418       0.85299647       0.97087813 </v>
    <v>       0.74292250       0.73788724       0.37382458 </v>
    <v>       0.96813725       0.50315892       0.10716640 </v>
    <v>       0.25920278       0.26204674       0.12364989 </v>
    <v>       0.24475178       0.26204180       0.62559467 </v>
    <v>       0.25816474       0.76162561       0.12309178 </v>
    <v>       0.61424009       0.86387850       0.49601616 </v>
    <v>       0.77874497       0.26639198       0.12276637 </v>
    <v>       0.76072082       0.26382550       0.62252255 </v>
    <v>       0.77572895       0.77054739       0.11733802 </v>
    <v>       0.62291882       0.13165360       0.23579367 </v>
   </varray>
  </structure>
  <varray name="forces" >
   <v>      -0.01233167       0.01074844       0.00277401 </v>
   <v>      -0.01456939      -0.00211025      -0.00355773 </v>
   <v>      -0.00699466       0.00237663       0.01339087 </v>
   <v>      -0.00902477       0.00249526      -0.01149468 </v>
   <v>      -0.00225602       0.01756894       0.00831902 </v>
   <v>       0.00338872      -0.00169204      -0.00531302 </v>
   <v>      -0.00972426      -0.01060688       0.00854919 </v>
   <v>      -0.00324273       0.01015385       0.00473487 </v>
   <v>      -0.00344063      -0.00661285      -0.00226882 </v>
   <v>      -0.00524866      -0.00041176       0.00121009 </v>
   <v>      -0.01888769      -0.00551491       0.00866511 </v>
   <v>       0.00732743       0.00905566      -0.00692211 </v>
   <v>      -0.00472902       0.01332292       0.00555590 </v>
   <v>      -0.00641803       0.00627152      -0.01006590 </v>
   <v>       0.00303836       0.00928540       0.00545651 </v>
   <v>      -0.01501403      -0.00934888      -0.00437445 </v>
   <v>       0.02311211      -0.01142291       0.00235973 </v>
   <v>      -0.00334338      -0.00380614       0.00700751 </v>
   <v>       0.00390592      -0.01201920       0.00598536 </v>
   <v>       0.00126243       0.02131766      -0.00321205 </v>
   <v>       0.00269017      -0.00615347       0.00788341 </v>
   <v>       0.00117067      -0.01834534      -0.00410382 </v>
   <v>       0.00218737      -0.00225974       0.00256301 </v>
   <v>      -0.00125480       0.01062132      -0.00924943 </v>
   <v>       0.01181892      -0.01638248       0.01115600 </v>
   <v>       0.02110184       0.00372119       0.00082063 </v>
   <v>       0.01206400       0.00574255      -0.00233668 </v>
   <v>       0.01544846       0.00782779       0.00046644 </v>
   <v>       0.00560527      -0.01912282       0.02350877 </v>
   <v>       0.00374810       0.00201917       0.00225055 </v>
   <v>       0.00888707      -0.00159128       0.00269189 </v>
   <v>       0.00787266       0.01193804       0.00117051 </v>
   <v>       0.00545322      -0.00465841      -0.00401663 </v>
   <v>      -0.00453159       0.03753625      -0.02307427 </v>
   <v>      -0.00141457       0.02685292      -0.01337984 </v>
   <v>       0.03904083      -0.01598949       0.01263722 </v>
   <v>       0.04599657       0.00539563      -0.00380738 </v>
   <v>      -0.02853441      -0.00711599      -0.00046582 </v>
   <v>       0.00586884       0.01034778      -0.00387566 </v>
   <v>      -0.01647724      -0.01241146      -0.01870028 </v>
   <v>      -0.03245874      -0.03751177      -0.00128872 </v>
   <v>       0.00696550       0.00076562       0.01184827 </v>
   <v>       0.02883951       0.04248231      -0.01798884 </v>
   <v>       0.00013675      -0.01538273      -0.00093727 </v>
   <v>       0.00430278      -0.01091020      -0.00512842 </v>
   <v>       0.00115303       0.00011128      -0.00945605 </v>
   <v>      -0.00999062      -0.00283606      -0.01305867 </v>
   <v>      -0.00485204       0.01306948       0.00513254 </v>
   <v>       0.01265156       0.00661773       0.02449255 </v>
   <v>       0.01711590      -0.01276863       0.00080870 </v>
   <v>      -0.00916765       0.00095686       0.00813118 </v>
   <v>      -0.00823124      -0.00598320       0.01305943 </v>
   <v>      -0.00787027       0.00313856       0.00354261 </v>
   <v>      -0.01326232       0.00593311       0.01145026 </v>
   <v>       0.00348609      -0.00006458      -0.00271304 </v>
   <v>      -0.00800110       0.00369941      -0.00635885 </v>
   <v>      -0.01223445       0.00539268       0.01053813 </v>
   <v>      -0.00954277      -0.00307273      -0.00524011 </v>
   <v>       0.01714067      -0.02874384       0.03510394 </v>
   <v>       0.00762403       0.00588274      -0.00277391 </v>
   <v>       0.01166860       0.01123840      -0.01221617 </v>
   <v>       0.00601442      -0.00592222      -0.00132898 </v>
   <v>      -0.00703457       0.00637166       0.00341144 </v>
   <v>      -0.00094237      -0.00140364      -0.01662042 </v>
   <v>       0.01733338       0.00451755      -0.00649332 </v>
   <v>      -0.00205321       0.00870713       0.00956265 </v>
   <v>       0.00751728       0.00167081      -0.00696482 </v>
   <v>      -0.01365606      -0.00259762       0.00943406 </v>
   <v>      -0.00903764      -0.00231617       0.01030142 </v>
   <v>      -0.00199467      -0.02042816      -0.00718155 </v>
   <v>       0.00328801      -0.00159447      -0.00224938 </v>
   <v>      -0.00011418       0.00202475      -0.00253341 </v>
   <v>       0.00124289       0.01192402      -0.00196541 </v>
   <v>      -0.00982334       0.00666689       0.00160761 </v>
   <v>      -0.02103396      -0.00789330       0.00313191 </v>
   <v>       0.00826126       0.01672473      -0.00093781 </v>
   <v>       0.01067741       0.01110015      -0.00190115 </v>
   <v>       0.00323205      -0.00170146      -0.02376597 </v>
[...]
       <r>   -16.5106     0.0000    32.0000 </r>
       <r>   -16.3582     0.0000    32.0000 </r>
       <r>   -16.2058     0.0000    32.0000 </r>
       <r>   -16.0534     0.0000    32.0000 </r>
       <r>   -15.9011     0.0000    32.0000 </r>
       <r>   -15.7487     0.0000    32.0000 </r>
       <r>   -15.5963     0.0000    32.0000 </r>
       <r>   -15.4440     0.0000    32.0000 </r>
       <r>   -15.2916     0.0749    32.0114 </r>
       <r>   -15.1392     8.0178    33.2331 </r>
       <r>   -14.9868    36.4394    38.7856 </r>
       <r>   -14.8345    54.6738    47.1165 </r>
       <r>   -14.6821    43.1514    53.6917 </r>
       <r>   -14.5297    34.5881    58.9620 </r>
       <r>   -14.3773    37.7071    64.7076 </r>
       <r>   -14.2250    65.8103    74.7354 </r>
       <r>   -14.0726    98.3657    89.7239 </r>
       <r>   -13.9202   109.4224   106.3971 </r>
       <r>   -13.7678    76.2515   118.0159 </r>
       <r>   -13.6155    25.7510   121.9397 </r>
       <r>   -13.4631     0.3957   122.0000 </r>
       <r>   -13.3107     0.0000   122.0000 </r>
       <r>   -13.1583     0.0000   122.0000 </r>
       <r>   -13.0060     0.0000   122.0000 </r>
       <r>   -12.8536     0.0000   122.0000 </r>
       <r>   -12.7012     3.3460   122.5098 </r>
       <r>   -12.5488    62.9697   132.1048 </r>
       <r>   -12.3965   167.4591   157.6214 </r>
       <r>   -12.2441   126.7612   176.9366 </r>
       <r>   -12.0917   130.5655   196.8315 </r>
       <r>   -11.9393    96.6592   211.5599 </r>
       <r>   -11.7870    36.2387   217.0818 </r>
       <r>   -11.6346     6.0260   218.0000 </r>
       <r>   -11.4822     0.0002   218.0000 </r>
       <r>   -11.3298     0.0000   218.0000 </r>
       <r>   -11.1775     0.0000   218.0000 </r>
       <r>   -11.0251     0.0000   218.0000 </r>
       <r>   -10.8727     0.0000   218.0000 </r>
       <r>   -10.7203     0.0000   218.0000 </r>
       <r>   -10.5680     0.0000   218.0000 </r>
       <r>   -10.4156     0.0000   218.0000 </r>
       <r>   -10.2632     0.0000   218.0000 </r>
       <r>   -10.1108     0.0000   218.0000 </r>
       <r>    -9.9585     0.0000   218.0000 </r>
       <r>    -9.8061     0.0000   218.0000 </r>
       <r>    -9.6537     0.0000   218.0000 </r>
       <r>    -9.5013     0.0000   218.0000 </r>
       <r>    -9.3490     0.0000   218.0000 </r>
       <r>    -9.1966     0.0000   218.0000 </r>
       <r>    -9.0442     0.0000   218.0000 </r>
       <r>    -8.8918     0.0000   218.0000 </r>
       <r>    -8.7395     0.0000   218.0000 </r>
       <r>    -8.5871     0.0000   218.0000 </r>
       <r>    -8.4347     0.0000   218.0000 </r>
       <r>    -8.2823     0.0000   218.0000 </r>
       <r>    -8.1300     0.0000   218.0000 </r>
       <r>    -7.9776     0.0000   218.0000 </r>
       <r>    -7.8252     0.0000   218.0000 </r>
       <r>    -7.6728     0.0000   218.0000 </r>
       <r>    -7.5205     0.0000   218.0000 </r>
       <r>    -7.3681     0.0000   218.0000 </r>
       <r>    -7.2157     0.0000   218.0000 </r>
       <r>    -7.0633     0.0000   218.0000 </r>
       <r>    -6.9110     0.0000   218.0000 </r>
       <r>    -6.7586     0.0000   218.0000 </r>
       <r>    -6.6062     0.0000   218.0000 </r>
       <r>    -6.4538     0.0000   218.0000 </r>
       <r>    -6.3015     0.0000   218.0000 </r>
       <r>    -6.1491     0.0000   218.0000 </r>
       <r>    -5.9967     0.0000   218.0000 </r>
       <r>    -5.8443     0.0000   218.0000 </r>
       <r>    -5.6920     0.0000   218.0000 </r>
       <r>    -5.5396     0.0000   218.0000 </r>
       <r>    -5.3872     0.0000   218.0000 </r>
       <r>    -5.2348     0.0000   218.0000 </r>
       <r>    -5.0825     0.0000   218.0000 </r>
       <r>    -4.9301     0.0000   218.0000 </r>
       <r>    -4.7777     1.9521   218.2974 </r>
       <r>    -4.6253    11.1654   219.9988 </r>
       <r>    -4.4730     0.0080   220.0000 </r>
       <r>    -4.3206     2.3978   220.3654 </r>
       <r>    -4.1682    17.2726   222.9973 </r>
       <r>    -4.0158     0.0179   223.0000 </r>
       <r>    -3.8635     0.0000   223.0000 </r>
       <r>    -3.7111     0.0000   223.0000 </r>
       <r>    -3.5587     0.0000   223.0000 </r>
       <r>    -3.4063     0.0000   223.0000 </r>
       <r>    -3.2540     0.0000   223.0000 </r>
       <r>    -3.1016     0.0000   223.0000 </r>
       <r>    -2.9492     0.0000   223.0000 </r>
       <r>    -2.7968     0.0000   223.0000 </r>
       <r>    -2.6445     0.0280   223.0043 </r>
       <r>    -2.4921     7.8921   224.2068 </r>
       <r>    -2.3397     6.7192   225.2307 </r>
       <r>    -2.1873    23.0383   228.7411 </r>
       <r>    -2.0350    20.7081   231.8965 </r>
       <r>    -1.8826    24.4013   235.6146 </r>
       <r>    -1.7302    44.0918   242.3331 </r>
       <r>    -1.5778    40.4204   248.4922 </r>
       <r>    -1.4255    55.3895   256.9321 </r>
       <r>    -1.2731    64.2124   266.7165 </r>
       <r>    -1.1207    68.5727   277.1652 </r>
       <r>    -0.9683    74.0904   288.4547 </r>
       <r>    -0.8160    83.5368   301.1836 </r>
       <r>    -0.6636    90.6820   315.0013 </r>
       <r>    -0.5112    94.1356   329.3451 </r>
       <r>    -0.3588    86.7880   342.5694 </r>
       <r>    -0.2065    64.4345   352.3876 </r>
       <r>    -0.0541    50.5945   360.0970 </r>
       <r>     0.0983    44.2557   366.8404 </r>
       <r>     0.2506    55.8678   375.3533 </r>
       <r>     0.4030    55.5371   383.8157 </r>
       <r>     0.5554    52.0921   391.7532 </r>
       <r>     0.7078    54.7251   400.0919 </r>
       <r>     0.8601    54.0667   408.3303 </r>
       <r>     1.0125    62.6837   417.8818 </r>
       <r>     1.1649    69.4377   428.4623 </r>
       <r>     1.3173    86.0139   441.5687 </r>
       <r>     1.4696    91.1187   455.4528 </r>
       <r>     1.6220    77.2043   467.2168 </r>
       <r>     1.7744    66.6013   477.3652 </r>
       <r>     1.9268    50.1676   485.0095 </r>
       <r>     2.0791    37.4909   490.7221 </r>
       <r>     2.2315    21.2438   493.9592 </r>
       <r>     2.3839     0.2681   494.0000 </r>
       <r>     2.5363     0.0000   494.0000 </r>
       <r>     2.6886     0.0000   494.0000 </r>
       <r>     2.8410     0.0000   494.0000 </r>
       <r>     2.9934     0.0000   494.0000 </r>
       <r>     3.1458     0.0000   494.0000 </r>
       <r>     3.2981     0.9884   494.1506 </r>
       <r>     3.4505     5.5709   494.9995 </r>
       <r>     3.6029     0.0035   495.0000 </r>
       <r>     3.7553     0.0000   495.0000 </r>
       <r>     3.9076     0.0000   495.0000 </r>
       <r>     4.0600     4.2728   495.6511 </r>
       <r>     4.2124     8.8512   496.9998 </r>
       <r>     4.3648     1.1473   497.1746 </r>
       <r>     4.5171    16.9851   499.7627 </r>
       <r>     4.6695    37.2651   505.4410 </r>
       <r>     4.8219    40.9566   511.6817 </r>
       <r>     4.9743    51.3699   519.5092 </r>
       <r>     5.1266    50.7916   527.2485 </r>
       <r>     5.2790    60.1056   536.4071 </r>
       <r>     5.4314    63.7225   546.1168 </r>
       <r>     5.5838    62.8462   555.6930 </r>
       <r>     5.7361    69.4709   566.2786 </r>
       <r>     5.8885    74.8268   577.6803 </r>
       <r>     6.0409    89.5851   591.3308 </r>
       <r>     6.1933    60.9925   600.6245 </r>
       <r>     6.3456    39.3338   606.6180 </r>
       <r>     6.4980    14.4859   608.8253 </r>
       <r>     6.6504    17.8597   611.5467 </r>
       <r>     6.8028    27.4468   615.7289 </r>
       <r>     6.9551    24.7918   619.5065 </r>
       <r>     7.1075    15.8794   621.9261 </r>
       <r>     7.2599    18.3659   624.7246 </r>
       <r>     7.4123    12.7942   626.6741 </r>
       <r>     7.5646    19.0312   629.5740 </r>
       <r>     7.7170    18.6677   632.4185 </r>
       <r>     7.8694    17.1191   635.0270 </r>
       <r>     8.0218    25.8789   638.9703 </r>
       <r>     8.1741    31.2860   643.7375 </r>
       <r>     8.3265    24.6725   647.4970 </r>
       <r>     8.4789    23.0327   651.0066 </r>
       <r>     8.6313    24.5551   654.7482 </r>
       <r>     8.7836    25.3148   658.6055 </r>
       <r>     8.9360    29.2653   663.0648 </r>
       <r>     9.0884    41.1782   669.3393 </r>
       <r>     9.2408    26.8093   673.4244 </r>
       <r>     9.3931    40.4005   679.5804 </r>
       <r>     9.5455    45.2779   686.4796 </r>
       <r>     9.6979    49.8248   694.0716 </r>
       <r>     9.8503    57.4148   702.8202 </r>
       <r>    10.0026    61.2077   712.1467 </r>
       <r>    10.1550    62.7185   721.7034 </r>
       <r>    10.3074    59.8580   730.8243 </r>
       <r>    10.4598    57.9197   739.6498 </r>
       <r>    10.6121    53.0394   747.7316 </r>
       <r>    10.7645    53.6533   755.9071 </r>
       <r>    10.9169    56.3374   764.4914 </r>
       <r>    11.0693    23.0093   767.9975 </r>
       <r>    11.2216     0.0166   768.0000 </r>
       <r>    11.3740     0.0000   768.0000 </r>
       <r>    11.5264     0.0000   768.0000 </r>
       <r>    11.6788     0.0000   768.0000 </r>
       <r>    11.8311     0.0000   768.0000 </r>
       <r>    11.9835     0.0000   768.0000 </r>
       <r>    12.1359     0.0000   768.0000 </r>
       <r>    12.2883     0.0000   768.0000 </r>
       <r>    12.4406     0.0000   768.0000 </r>
       <r>    12.5930     0.0000   768.0000 </r>
       <r>    12.7454     0.0000   768.0000 </r>
       <r>    12.8978     0.0000   768.0000 </r>
       <r>    13.0501     0.0000   768.0000 </r>
      </set>
     </set>
    </array>
   </total>
  </dos>
 </calculation>
 <structure name="finalpos" >
  <crystal>
   <varray name="basis" >
    <v>      11.23525333      -0.02155581       0.05381553 </v>
    <v>      -0.02160884      11.25438396       0.00087816 </v>
    <v>       0.07679523       0.00110263      15.93734199 </v>
   </varray>
   <i name="volume">   2015.15688307 </i>
   <varray name="rec_basis" >
    <v>       0.08900794       0.00017093      -0.00042890 </v>
    <v>       0.00017051       0.08885459      -0.00000697 </v>
    <v>      -0.00030056      -0.00000547       0.06274717 </v>
   </varray>
  </crystal>
  <varray name="positions" >
   <v>       0.00515729       0.25878764       0.13715305 </v>
   <v>       0.00220980       0.24700802       0.62355673 </v>
   <v>       0.00790376       0.74824265       0.13638248 </v>
   <v>       0.00279717       0.74620945       0.62222454 </v>
   <v>       0.48791140       0.25705907       0.13913527 </v>
   <v>       0.49622695       0.25173715       0.62257501 </v>
   <v>       0.48754670       0.75028542       0.13703756 </v>
   <v>       0.49772099       0.75172151       0.62165749 </v>
   <v>       0.99770163       0.25310521       0.37729563 </v>
   <v>       0.01330811       0.24288406       0.86535351 </v>
   <v>       0.99843335       0.75018478       0.37732860 </v>
   <v>       0.01719596       0.74167392       0.86307690 </v>
   <v>       0.49814800       0.25547456       0.37861611 </v>
   <v>       0.48519320       0.25157137       0.86420882 </v>
   <v>       0.49801243       0.75028711       0.37897553 </v>
   <v>       0.48589078       0.74992411       0.86412852 </v>
   <v>       0.26343193       0.99828612       0.13211775 </v>
   <v>       0.25410461       0.00133089       0.62463768 </v>
   <v>       0.26352038       0.49948370       0.13324844 </v>
   <v>       0.25366180       0.49822734       0.62373895 </v>
   <v>       0.74923599       0.00213182       0.13759290 </v>
   <v>       0.74542804       0.00150625       0.61961998 </v>
   <v>       0.74906033       0.49899693       0.13832213 </v>
   <v>       0.74560941       0.49965379       0.61967999 </v>
   <v>       0.25144186       0.00149497       0.37775533 </v>
   <v>       0.25813115       0.00189158       0.86611901 </v>
   <v>       0.25254922       0.50200317       0.37657624 </v>
   <v>       0.25774480       0.50065579       0.86506915 </v>
   <v>       0.74628964       0.00295890       0.37734481 </v>
   <v>       0.73851714       0.00128335       0.86226088 </v>
   <v>       0.74530768       0.50104286       0.37696834 </v>
   <v>       0.73826808       0.49651407       0.86130694 </v>
   <v>       0.25034316       0.75130670       0.50301402 </v>
   <v>       0.99942955       0.50006611       0.49806742 </v>
   <v>       0.24786707       0.25331938       0.25205594 </v>
   <v>       0.50263965       0.00224361       0.25286790 </v>
   <v>       0.25007540       0.25087741       0.50255502 </v>
   <v>       0.00027873       0.00223275       0.24997715 </v>
   <v>       0.25443297       0.24604183       0.00000763 </v>
   <v>       0.74668828       0.25143471       0.49860662 </v>
   <v>       0.99914656      -0.00000920       0.49839899 </v>
   <v>       0.49962405       0.49661265       0.99639335 </v>
   <v>       0.74716354       0.75167609       0.49933619 </v>
   <v>       0.24889750       0.74767941       0.25220538 </v>
   <v>       0.25732449       0.74580024       0.99911709 </v>
   <v>       0.75249453       0.25452083       0.25190978 </v>
   <v>       0.75183016       0.74893006       0.25389882 </v>
   <v>       0.50103879       0.00295119       0.99759848 </v>
   <v>       0.99408235       0.49843888       0.75071646 </v>
   <v>       0.99322951       0.99510883       0.75142355 </v>
   <v>       0.49743909       0.99891161       0.74631000 </v>
   <v>       0.49678360       0.50300544       0.74503361 </v>
   <v>       0.03339101       0.99012877       0.00325375 </v>
   <v>       0.03382402       0.49050778       0.00034075 </v>
   <v>       0.74968667       0.75171251       0.73828834 </v>
   <v>       0.24930866       0.75039225       0.74736294 </v>
   <v>       0.70400891       0.24336661       0.02021316 </v>
   <v>       0.00005416       0.50309901       0.25437546 </v>
   <v>       0.71826426       0.74450418       0.01398114 </v>
   <v>       0.74863457       0.25079609       0.73982366 </v>
   <v>       0.50289404       0.50288649       0.25440165 </v>
   <v>       0.49993842       0.00212663       0.49939057 </v>
   <v>       0.24841440       0.25002029       0.74847518 </v>
   <v>       0.49987870       0.50206803       0.49780878 </v>
   <v>       0.86112204       0.12477866       0.75568957 </v>
   <v>       0.11271678       0.12281806       0.75088994 </v>
   <v>       0.12373099       0.62799138       0.23797191 </v>
   <v>       0.11601112       0.62291782       0.74763010 </v>
   <v>       0.88079675       0.37293009       0.26052816 </v>
   <v>       0.62673612       0.13509385       0.75174018 </v>
   <v>       0.62447153       0.63489404       0.23517062 </v>
   <v>       0.62449247       0.62961982       0.74962822 </v>
   <v>       0.50590455       0.48530758       0.11746674 </v>
   <v>       0.37991705       0.87260858       0.25768384 </v>
   <v>       0.37758166       0.37139666       0.25823601 </v>
   <v>       0.86777552       0.36006740       0.77452681 </v>
   <v>       0.88155350       0.87269536       0.25839346 </v>
   <v>       0.87270022       0.86568890       0.77698101 </v>
   <v>       0.37277371       0.12160922       0.24459778 </v>
   <v>       0.37201310       0.12252332       0.74217825 </v>
   <v>       0.37216940       0.62407263       0.24550121 </v>
   <v>       0.37144235       0.62304933       0.73938702 </v>
   <v>       0.87236018       0.12108279       0.25039839 </v>
   <v>       0.98188914       0.98379433       0.63118320 </v>
   <v>       0.87171231       0.62413143       0.24869821 </v>
   <v>       0.86637681       0.62098576       0.75599649 </v>
   <v>       0.12741745       0.37898900       0.24566902 </v>
   <v>       0.11881288       0.37835992       0.76241541 </v>
   <v>       0.12805272       0.88008484       0.24514370 </v>
   <v>       0.12011543       0.88015808       0.76295711 </v>
   <v>       0.63210471       0.37878227       0.25151820 </v>
   <v>       0.63073133       0.37072171       0.75643062 </v>
   <v>       0.63321419       0.88154083       0.25128389 </v>
   <v>       0.62689181       0.87669951       0.75744047 </v>
   <v>       0.35955736       0.39302264       0.99116930 </v>
   <v>       0.36116475       0.38472879       0.49240231 </v>
   <v>       0.36123730       0.89263010       0.99105655 </v>
   <v>       0.36214640       0.88563486       0.49276424 </v>
   <v>       0.24439672       0.76772580       0.62577005 </v>
   <v>       0.86363463       0.38774849       0.48811684 </v>
   <v>       0.37605893       0.87528345       0.75413982 </v>
   <v>       0.86424177       0.88815625       0.48696891 </v>
   <v>       0.16425300       0.09432503       0.00619121 </v>
   <v>       0.13289076       0.11158003       0.51243245 </v>
   <v>       0.16423507       0.59527967       0.00493032 </v>
   <v>       0.13321590       0.61303255       0.51424792 </v>
   <v>       0.66451766       0.08506464       0.99829317 </v>
   <v>       0.63696213       0.11746929       0.50748511 </v>
   <v>       0.67065238       0.59416175       0.99662098 </v>
   <v>       0.63691323       0.61905116       0.50900985 </v>
   <v>       0.09767503       0.33405470       0.99831963 </v>
   <v>       0.10986908       0.36320416       0.49928863 </v>
   <v>       0.09605173       0.83388928       0.99707628 </v>
   <v>       0.10946051       0.86376273       0.49796853 </v>
   <v>       0.61770246       0.36339500       0.96941411 </v>
   <v>       0.61605380       0.36468315       0.49593581 </v>
   <v>       0.01408286       0.51449318       0.37700571 </v>
   <v>       0.40842583       0.14719182       0.00687545 </v>
   <v>       0.38219476       0.13748424       0.50312214 </v>
   <v>       0.40769651       0.64737480       0.00418198 </v>
   <v>       0.38148507       0.63794359       0.50500023 </v>
   <v>       0.88724624       0.13563554       0.50179506 </v>
   <v>       0.97474355       0.99719976       0.11496976 </v>
   <v>       0.88654167       0.63682221       0.50268265 </v>
   <v>       0.50779677       0.51594984       0.37485783 </v>
   <v>       0.98187994       0.48311041       0.63097604 </v>
   <v>       0.50439428       0.98105769       0.12036230 </v>
   <v>       0.50329212       0.99163683       0.62573791 </v>
   <v>       0.76213715       0.76868615       0.62204470 </v>
   <v>       0.50312577       0.48870056       0.62527188 </v>
   <v>       0.01315582       0.01305231       0.37351760 </v>
   <v>       0.96691782       0.01993527       0.89763741 </v>
   <v>       0.37607643       0.37520087       0.75397918 </v>
   <v>       0.97164728       0.51385077       0.89163240 </v>
   <v>       0.50772315       0.01530241       0.37253256 </v>
   <v>       0.49694886       0.01680175       0.87331113 </v>
   <v>       0.12229791       0.12710908       0.23598888 </v>
   <v>       0.49554039       0.51689080       0.87155563 </v>
   <v>       0.23731455       0.23746387       0.37422242 </v>
   <v>       0.25265461       0.23663387       0.87710069 </v>
   <v>       0.23878152       0.73990311       0.37485507 </v>
   <v>       0.25260266       0.73676385       0.87507166 </v>
   <v>       0.74398950       0.23718194       0.37382328 </v>
   <v>       0.62085541       0.85391386       0.97118761 </v>
   <v>       0.74347260       0.73764952       0.37380467 </v>
   <v>       0.96738075       0.50288629       0.10715745 </v>
   <v>       0.25876071       0.26198815       0.12364781 </v>
   <v>       0.24480699       0.26244780       0.62553303 </v>
   <v>       0.25845386       0.76163548       0.12322639 </v>
   <v>       0.61576172       0.86514912       0.49540315 </v>
   <v>       0.77968100       0.26525628       0.12287779 </v>
   <v>       0.76113515       0.26452224       0.62243316 </v>
   <v>       0.77698937       0.76966015       0.11748770 </v>
   <v>       0.62276458       0.13186318       0.23591908 </v>
  </varray>
 </structure>
</modeling>
