<?xml version="1.0" encoding="ISO-8859-1"?>
<modeling>
 <generator>
  <i name="program" type="string">vasp </i>
  <i name="version" type="string">5.4.1  </i>
  <i name="subversion" type="string">05Feb16 (build Jan 25 2017 20:16:33) complex                          parallel </i>
  <i name="platform" type="string">BWXE6 </i>
  <i name="date" type="string">2019 07 03 </i>
  <i name="time" type="string">09:49:38 </i>
 </generator>
 <incar>
  <i type="string" name="SYSTEM"> STF</i>
  <i type="string" name="PREC">normal</i>
  <i type="string" name="ALGO"> Fast</i>
  <i type="int" name="ISPIN">     2</i>
  <i type="int" name="NELM">    40</i>
  <i type="int" name="NELMIN">     8</i>
  <i type="int" name="IBRION">     2</i>
  <i name="EDIFF">      0.00010000</i>
  <i name="EDIFFG">     -0.03000000</i>
  <i type="int" name="NSW">    30</i>
  <i type="int" name="ISIF">     3</i>
  <i name="ENCUT">    520.00000000</i>
  <i type="int" name="NBANDS">   768</i>
  <v name="MAGMOM">      0.60000000      0.60000000      0.60000000      0.60000000      0.60000000      0.60000000      0.60000000      0.60000000      0.60000000      0.60000000      0.60000000      0.60000000      0.60000000      0.60000000      0.60000000      0.60000000      0.60000000      0.60000000      0.60000000      0.60000000
      0.60000000      0.60000000      0.60000000      0.60000000      0.60000000      0.60000000      0.60000000      0.60000000      0.60000000      0.60000000      0.60000000      0.60000000      0.60000000      0.60000000      0.60000000      0.60000000      0.60000000      0.60000000      0.60000000      0.60000000
      5.00000000      5.00000000      5.00000000      5.00000000      5.00000000      5.00000000      5.00000000      5.00000000      5.00000000      5.00000000      5.00000000      5.00000000      5.00000000      5.00000000      5.00000000      5.00000000      5.00000000      5.00000000      5.00000000      5.00000000
      5.00000000      5.00000000      5.00000000      5.00000000      0.60000000      0.60000000      0.60000000      0.60000000      0.60000000      0.60000000      0.60000000      0.60000000      0.60000000      0.60000000      0.60000000      0.60000000      0.60000000      0.60000000      0.60000000      0.60000000
      0.60000000      0.60000000      0.60000000      0.60000000      0.60000000      0.60000000      0.60000000      0.60000000      0.60000000      0.60000000      0.60000000      0.60000000      0.60000000      0.60000000      0.60000000      0.60000000      0.60000000      0.60000000      0.60000000      0.60000000
      0.60000000      0.60000000      0.60000000      0.60000000      0.60000000      0.60000000      0.60000000      0.60000000      0.60000000      0.60000000      0.60000000      0.60000000      0.60000000      0.60000000      0.60000000      0.60000000      0.60000000      0.60000000      0.60000000      0.60000000
      0.60000000      0.60000000      0.60000000      0.60000000      0.60000000      0.60000000      0.60000000      0.60000000      0.60000000      0.60000000      0.60000000      0.60000000      0.60000000      0.60000000      0.60000000      0.60000000      0.60000000      0.60000000      0.60000000      0.60000000
      0.60000000      0.60000000      0.60000000      0.60000000      0.60000000      0.60000000      0.60000000      0.60000000</v>
  <i type="string" name="LREAL"> Auto</i>
  <i type="int" name="ISMEAR">     0</i>
  <i name="SIGMA">      0.05000000</i>
  <i type="int" name="LMAXMIX">     4</i>
  <v type="int" name="KPOINT_BSE">    -1     0     0     0</v>
  <i type="int" name="NELM">    40</i>
  <i type="logical" name="LDAU"> T  </i>
  <v type="int" name="LDAUTYPE">     2</v>
  <v type="int" name="LDAUL">     0     2     2     0</v>
  <v name="LDAUU">      0.00000000      3.00000000      5.00000000      0.00000000</v>
  <v name="LDAUJ">      0.00000000      0.00000000      0.00000000      0.00000000</v>
  <i type="int" name="LDAUPRINT">     1</i>
 </incar>
 <kpoints>
  <generation param="Monkhorst-Pack">
   <v type="int" name="divisions">       2        2        2 </v>
   <v name="usershift">      0.00000000       0.00000000       0.00000000 </v>
   <v name="genvec1">      0.50000000      -0.00000000       0.00000000 </v>
   <v name="genvec2">      0.00000000       0.50000000      -0.00000000 </v>
   <v name="genvec3">     -0.00000000      -0.00000000       0.50000000 </v>
   <v name="shift">      0.50000000       0.50000000       0.50000000 </v>
  </generation>
  <varray name="kpointlist" >
   <v>       0.25000000       0.25000000       0.25000000 </v>
   <v>      -0.25000000       0.25000000       0.25000000 </v>
   <v>       0.25000000      -0.25000000       0.25000000 </v>
   <v>      -0.25000000      -0.25000000       0.25000000 </v>
  </varray>
  <varray name="weights" >
   <v>       0.25000000 </v>
   <v>       0.25000000 </v>
   <v>       0.25000000 </v>
   <v>       0.25000000 </v>
  </varray>
 </kpoints>
 <parameters>
  <separator name="general" >
   <i type="string" name="SYSTEM">STF</i>
   <i type="logical" name="LCOMPAT"> F  </i>
  </separator>
  <separator name="electronic" >
   <i type="string" name="PREC">normal</i>
   <i name="ENMAX">    520.00000000</i>
   <i name="ENAUG">    605.39200000</i>
   <i name="EDIFF">      0.00010000</i>
   <i type="int" name="IALGO">    68</i>
   <i type="int" name="IWAVPR">    11</i>
   <i type="int" name="NBANDS">   768</i>
   <i name="NELECT">   1048.00000000</i>
   <i type="int" name="TURBO">     0</i>
   <i type="int" name="IRESTART">     0</i>
   <i type="int" name="NREBOOT">     0</i>
   <i type="int" name="NMIN">     0</i>
   <i name="EREF">      0.00000000</i>
   <separator name="electronic smearing" >
    <i type="int" name="ISMEAR">     0</i>
    <i name="SIGMA">      0.05000000</i>
    <i name="KSPACING">      0.50000000</i>
    <i type="logical" name="KGAMMA"> T  </i>
   </separator>
   <separator name="electronic projectors" >
    <i type="logical" name="LREAL"> T  </i>
    <v name="ROPT">     -0.00050000     -0.00050000     -0.00050000     -0.00050000</v>
    <i type="int" name="LMAXPAW">  -100</i>
    <i type="int" name="LMAXMIX">     4</i>
    <i type="logical" name="NLSPLINE"> F  </i>
   </separator>
   <separator name="electronic startup" >
    <i type="int" name="ISTART">     1</i>
    <i type="int" name="ICHARG">     0</i>
    <i type="int" name="INIWAV">     1</i>
   </separator>
   <separator name="electronic spin" >
    <i type="int" name="ISPIN">     2</i>
    <i type="logical" name="LNONCOLLINEAR"> F  </i>
    <v name="MAGMOM">      0.60000000      0.60000000      0.60000000      0.60000000      0.60000000      0.60000000      0.60000000      0.60000000      0.60000000      0.60000000      0.60000000      0.60000000      0.60000000      0.60000000      0.60000000      0.60000000      0.60000000      0.60000000      0.60000000      0.60000000
      0.60000000      0.60000000      0.60000000      0.60000000      0.60000000      0.60000000      0.60000000      0.60000000      0.60000000      0.60000000      0.60000000      0.60000000      0.60000000      0.60000000      0.60000000      0.60000000      0.60000000      0.60000000      0.60000000      0.60000000
      5.00000000      5.00000000      5.00000000      5.00000000      5.00000000      5.00000000      5.00000000      5.00000000      5.00000000      5.00000000      5.00000000      5.00000000      5.00000000      5.00000000      5.00000000      5.00000000      5.00000000      5.00000000      5.00000000      5.00000000
      5.00000000      5.00000000      5.00000000      5.00000000      0.60000000      0.60000000      0.60000000      0.60000000      0.60000000      0.60000000      0.60000000      0.60000000      0.60000000      0.60000000      0.60000000      0.60000000      0.60000000      0.60000000      0.60000000      0.60000000
      0.60000000      0.60000000      0.60000000      0.60000000      0.60000000      0.60000000      0.60000000      0.60000000      0.60000000      0.60000000      0.60000000      0.60000000      0.60000000      0.60000000      0.60000000      0.60000000      0.60000000      0.60000000      0.60000000      0.60000000
      0.60000000      0.60000000      0.60000000      0.60000000      0.60000000      0.60000000      0.60000000      0.60000000      0.60000000      0.60000000      0.60000000      0.60000000      0.60000000      0.60000000      0.60000000      0.60000000      0.60000000      0.60000000      0.60000000      0.60000000
      0.60000000      0.60000000      0.60000000      0.60000000      0.60000000      0.60000000      0.60000000      0.60000000      0.60000000      0.60000000      0.60000000      0.60000000      0.60000000      0.60000000      0.60000000      0.60000000      0.60000000      0.60000000      0.60000000      0.60000000
      0.60000000      0.60000000      0.60000000      0.60000000      0.60000000      0.60000000      0.60000000      0.60000000</v>
    <i name="NUPDOWN">     -1.00000000</i>
    <i type="logical" name="LSORBIT"> F  </i>
    <v name="SAXIS">      0.00000000      0.00000000      1.00000000</v>
    <i type="logical" name="LSPIRAL"> F  </i>
    <v name="QSPIRAL">      0.00000000      0.00000000      0.00000000</v>
    <i type="logical" name="LZEROZ"> F  </i>
   </separator>
   <separator name="electronic exchange-correlation" >
    <i type="logical" name="LASPH"> F  </i>
    <i type="logical" name="LMETAGGA"> F  </i>
   </separator>
   <separator name="electronic convergence" >
    <i type="int" name="NELM">    40</i>
    <i type="int" name="NELMDL">     0</i>
    <i type="int" name="NELMIN">     8</i>
    <i name="ENINI">    520.00000000</i>
    <separator name="electronic convergence detail" >
     <i type="logical" name="LDIAG"> T  </i>
     <i type="logical" name="LSUBROT"> F  </i>
     <i name="WEIMIN">      0.00100000</i>
     <i name="EBREAK">      0.00000003</i>
     <i name="DEPER">      0.30000000</i>
     <i type="int" name="NRMM">     4</i>
     <i name="TIME">      0.40000000</i>
    </separator>
   </separator>
   <separator name="electronic mixer" >
    <i name="AMIX">      0.40000000</i>
    <i name="BMIX">      1.00000000</i>
    <i name="AMIN">      0.10000000</i>
    <i name="AMIX_MAG">      1.60000000</i>
    <i name="BMIX_MAG">      1.00000000</i>
    <separator name="electronic mixer details" >
     <i type="int" name="IMIX">     4</i>
     <i type="logical" name="MIXFIRST"> F  </i>
     <i type="int" name="MAXMIX">   -45</i>
     <i name="WC">    100.00000000</i>
     <i type="int" name="INIMIX">     1</i>
     <i type="int" name="MIXPRE">     1</i>
     <i type="int" name="MREMOVE">     5</i>
    </separator>
   </separator>
   <separator name="electronic dipolcorrection" >
    <i type="logical" name="LDIPOL"> F  </i>
    <i type="logical" name="LMONO"> F  </i>
    <i type="int" name="IDIPOL">     0</i>
    <i name="EPSILON">      1.00000000</i>
    <v name="DIPOL">   -100.00000000   -100.00000000   -100.00000000</v>
    <i name="EFIELD">      0.00000000</i>
   </separator>
  </separator>
  <separator name="grids" >
   <i type="int" name="NGX">    64</i>
   <i type="int" name="NGY">    64</i>
   <i type="int" name="NGZ">    90</i>
   <i type="int" name="NGXF">   128</i>
   <i type="int" name="NGYF">   128</i>
   <i type="int" name="NGZF">   180</i>
   <i type="logical" name="ADDGRID"> F  </i>
  </separator>
  <separator name="ionic" >
   <i type="int" name="NSW">    30</i>
   <i type="int" name="IBRION">     2</i>
   <i type="int" name="ISIF">     3</i>
   <i name="PSTRESS">      0.00000000</i>
   <i name="EDIFFG">     -0.03000000</i>
   <i type="int" name="NFREE">     1</i>
   <i name="POTIM">      0.50000000</i>
   <i name="SMASS">     -3.00000000</i>
   <i name="SCALEE">      1.00000000</i>
  </separator>
  <separator name="ionic md" >
   <i name="TEBEG">      0.00010000</i>
   <i name="TEEND">      0.00010000</i>
   <i type="int" name="NBLOCK">     1</i>
   <i type="int" name="KBLOCK">    30</i>
   <i type="int" name="NPACO">   256</i>
   <i name="APACO">     16.00000000</i>
  </separator>
  <separator name="symmetry" >
   <i type="int" name="ISYM">     2</i>
   <i name="SYMPREC">      0.00001000</i>
  </separator>
  <separator name="dos" >
   <i type="logical" name="LORBIT"> F  </i>
   <v name="RWIGS">     -1.00000000     -1.00000000     -1.00000000     -1.00000000</v>
   <i type="int" name="NEDOS">   301</i>
   <i name="EMIN">     10.00000000</i>
   <i name="EMAX">    -10.00000000</i>
   <i name="EFERMI">      0.00000000</i>
  </separator>
  <separator name="writing" >
   <i type="int" name="NWRITE">     2</i>
   <i type="logical" name="LWAVE"> T  </i>
   <i type="logical" name="LCHARG"> T  </i>
   <i type="logical" name="LPARD"> F  </i>
   <i type="logical" name="LVTOT"> F  </i>
   <i type="logical" name="LVHAR"> F  </i>
   <i type="logical" name="LELF"> F  </i>
   <i type="logical" name="LOPTICS"> F  </i>
   <v name="STM">      0.00000000      0.00000000      0.00000000      0.00000000      0.00000000      0.00000000      0.00000000</v>
  </separator>
  <separator name="performance" >
   <i type="int" name="NPAR">     2</i>
   <i type="int" name="NSIM">     4</i>
   <i type="int" name="NBLK">    -1</i>
   <i type="logical" name="LPLANE"> T  </i>
   <i type="logical" name="LSCALAPACK"> T  </i>
   <i type="logical" name="LSCAAWARE"> F  </i>
   <i type="logical" name="LSCALU"> F  </i>
   <i type="logical" name="LASYNC"> F  </i>
   <i type="logical" name="LORBITALREAL"> F  </i>
  </separator>
  <separator name="miscellaneous" >
   <i type="int" name="IDIOT">     3</i>
   <i type="logical" name="LMUSIC"> F  </i>
   <v name="POMASS">     87.62000000     47.88000000     55.84700000     16.00000000</v>
   <v name="DARWINR">      0.00000000      0.00000000      0.00000000      0.00000000</v>
   <v name="DARWINV">      1.00000000      1.00000000      1.00000000      1.00000000</v>
   <i type="logical" name="LCORR"> T  </i>
  </separator>
  <i type="logical" name="GGA_COMPAT"> T  </i>
  <i type="logical" name="LBERRY"> F  </i>
  <i type="int" name="ICORELEVEL">     0</i>
  <i type="logical" name="LDAU"> T  </i>
  <v type="int" name="LDAUTYPE">     2</v>
  <v type="int" name="LDAUL">     0</v>
  <v name="LDAUU">      0.00000000</v>
  <v name="LDAUJ">      0.00000000</v>
  <i type="int" name="LDAUPRINT">     1</i>
  <i type="int" name="I_CONSTRAINED_M">     0</i>
  <separator name="electronic exchange-correlation" >
   <i type="string" name="GGA">--</i>
   <i type="int" name="VOSKOWN">     0</i>
   <i type="logical" name="LHFCALC"> F  </i>
   <i type="string" name="PRECFOCK"></i>
   <i type="logical" name="LSYMGRAD"> F  </i>
   <i type="logical" name="LHFONE"> F  </i>
   <i type="logical" name="LRHFCALC"> F  </i>
   <i type="logical" name="LTHOMAS"> F  </i>
   <i type="logical" name="LMODELHF"> F  </i>
   <i name="ENCUT4O">     -1.00000000</i>
   <i type="int" name="EXXOEP">     0</i>
   <i type="int" name="FOURORBIT">     0</i>
   <i name="AEXX">      0.00000000</i>
   <i name="HFALPHA">      0.00000000</i>
   <i name="MCALPHA">      0.00000000</i>
   <i name="ALDAX">      1.00000000</i>
   <i name="AGGAX">      1.00000000</i>
   <i name="ALDAC">      1.00000000</i>
   <i name="AGGAC">      1.00000000</i>
   <i type="int" name="NKREDX">     1</i>
   <i type="int" name="NKREDY">     1</i>
   <i type="int" name="NKREDZ">     1</i>
   <i type="logical" name="SHIFTRED"> F  </i>
   <i type="logical" name="ODDONLY"> F  </i>
   <i type="logical" name="EVENONLY"> F  </i>
   <i type="int" name="LMAXFOCK">     0</i>
   <i type="int" name="NMAXFOCKAE">     0</i>
   <i type="logical" name="LFOCKAEDFT"> F  </i>
   <i name="HFSCREEN">      0.00000000</i>
   <i name="HFSCREENC">      0.00000000</i>
   <i type="int" name="NBANDSGWLOW">     0</i>
  </separator>
  <separator name="vdW DFT" >
   <i type="logical" name="LUSE_VDW"> F  </i>
   <i name="Zab_VDW">     -0.84910000</i>
   <i name="PARAM1">      0.12340000</i>
   <i name="PARAM2">      1.00000000</i>
   <i name="PARAM3">      0.00000000</i>
  </separator>
  <separator name="model GW" >
   <i type="int" name="MODEL_GW">     0</i>
   <i name="MODEL_EPS0">      8.07327822</i>
   <i name="MODEL_ALPHA">      1.00000000</i>
  </separator>
  <separator name="linear response parameters" >
   <i type="logical" name="LEPSILON"> F  </i>
   <i type="logical" name="LRPA"> F  </i>
   <i type="logical" name="LNABLA"> F  </i>
   <i type="logical" name="LVEL"> F  </i>
   <i type="int" name="KINTER">     0</i>
   <i name="CSHIFT">      0.10000000</i>
   <i name="OMEGAMAX">     -1.00000000</i>
   <i name="DEG_THRESHOLD">      0.00200000</i>
  </separator>
  <separator name="orbital magnetization" >
   <i type="logical" name="NUCIND"> F  </i>
   <v name="MAGPOS">      0.00000000      0.00000000      0.00000000</v>
   <i type="logical" name="LNICSALL"> T  </i>
   <i type="logical" name="ORBITALMAG"> F  </i>
   <i type="logical" name="LMAGBLOCH"> F  </i>
   <i type="logical" name="LCHIMAG"> F  </i>
   <i type="logical" name="LGAUGE"> T  </i>
   <i type="int" name="MAGATOM">     0</i>
   <v name="MAGDIPOL">      0.00000000      0.00000000      0.00000000</v>
   <v name="AVECCONST">      0.00000000      0.00000000      0.00000000</v>
  </separator>
  <separator name="response functions" >
   <i type="logical" name="LADDER"> F  </i>
   <i type="logical" name="LFXC"> F  </i>
   <i type="logical" name="LHARTREE"> T  </i>
   <i type="int" name="IBSE">     0</i>
   <v type="int" name="KPOINT">    -1     0     0     0</v>
   <i type="logical" name="LTCTE"> F  </i>
   <i type="logical" name="LTETE"> F  </i>
   <i type="logical" name="LTRIPLET"> F  </i>
   <i type="logical" name="LFXCEPS"> F  </i>
   <i type="logical" name="LFXHEG"> F  </i>
   <i type="int" name="NATURALO">     0</i>
   <i type="logical" name="L2ORDER"> F  </i>
   <i type="logical" name="LUSEW"> F  </i>
   <i name="ENCUTGW">     -2.00000000</i>
   <i name="ENCUTGWSOFT">     -2.00000000</i>
   <i name="ENCUTLF">     -1.00000000</i>
   <i type="int" name="LMAXMP2">    -1</i>
   <i name="SCISSOR">      0.00000000</i>
   <i type="int" name="NOMEGA">     0</i>
   <i type="int" name="NOMEGAR">     0</i>
   <i type="int" name="NBANDSGW">    -1</i>
   <i type="int" name="NBANDSO">    -1</i>
   <i type="int" name="NBANDSV">    -1</i>
   <i type="int" name="NELM">    40</i>
   <i type="int" name="NELMHF">     1</i>
   <i type="int" name="DIM">     3</i>
   <i type="int" name="ANTIRES">     0</i>
   <i name="OMEGAMAX">    -30.00000000</i>
   <i name="OMEGAMIN">    -30.00000000</i>
   <i name="OMEGATL">   -200.00000000</i>
   <i type="int" name="OMEGAGRID">     0</i>
   <i name="CSHIFT">     -0.10000000</i>
   <i type="logical" name="SELFENERGY"> F  </i>
   <i type="logical" name="LSPECTRAL"> F  </i>
   <i type="logical" name="LSPECTRALGW"> F  </i>
   <i type="logical" name="LSINGLES"> F  </i>
   <i type="logical" name="LFERMIGW"> F  </i>
   <i type="logical" name="ODDONLYGW"> F  </i>
   <i type="logical" name="EVENONLYGW"> F  </i>
   <i type="int" name="NKREDLFX">     1</i>
   <i type="int" name="NKREDLFY">     1</i>
   <i type="int" name="NKREDLFZ">     1</i>
   <i type="int" name="MAXMEM">  1800</i>
   <i type="int" name="TELESCOPE">     0</i>
   <i type="int" name="TAUPAR">     1</i>
   <i type="int" name="OMEGAPAR">    -1</i>
   <i name="LAMBDA">      1.00000000</i>
  </separator>
  <separator name="External order field" >
   <i name="OFIELD_KAPPA">      0.00000000</i>
   <v name="OFIELD_K">      0.00000000      0.00000000      0.00000000</v>
   <i name="OFIELD_Q6_NEAR">      0.00000000</i>
   <i name="OFIELD_Q6_FAR">      0.00000000</i>
   <i name="OFIELD_A">      0.00000000</i>
  </separator>
 </parameters>
 <atominfo>
  <atoms>     148 </atoms>
  <types>       4 </types>
  <array name="atoms" >
   <dimension dim="1">ion</dimension>
   <field type="string">element</field>
   <field type="int">atomtype</field>
   <set>
    <rc><c>Sr</c><c>   1</c></rc>
    <rc><c>Sr</c><c>   1</c></rc>
    <rc><c>Sr</c><c>   1</c></rc>
    <rc><c>Sr</c><c>   1</c></rc>
    <rc><c>Sr</c><c>   1</c></rc>
    <rc><c>Sr</c><c>   1</c></rc>
    <rc><c>Sr</c><c>   1</c></rc>
    <rc><c>Sr</c><c>   1</c></rc>
    <rc><c>Sr</c><c>   1</c></rc>
    <rc><c>Sr</c><c>   1</c></rc>
    <rc><c>Sr</c><c>   1</c></rc>
    <rc><c>Sr</c><c>   1</c></rc>
    <rc><c>Sr</c><c>   1</c></rc>
    <rc><c>Sr</c><c>   1</c></rc>
    <rc><c>Sr</c><c>   1</c></rc>
    <rc><c>Sr</c><c>   1</c></rc>
    <rc><c>Sr</c><c>   1</c></rc>
    <rc><c>Sr</c><c>   1</c></rc>
    <rc><c>Sr</c><c>   1</c></rc>
    <rc><c>Sr</c><c>   1</c></rc>
    <rc><c>Sr</c><c>   1</c></rc>
    <rc><c>Sr</c><c>   1</c></rc>
    <rc><c>Sr</c><c>   1</c></rc>
    <rc><c>Sr</c><c>   1</c></rc>
    <rc><c>Sr</c><c>   1</c></rc>
    <rc><c>Sr</c><c>   1</c></rc>
    <rc><c>Sr</c><c>   1</c></rc>
    <rc><c>Sr</c><c>   1</c></rc>
    <rc><c>Sr</c><c>   1</c></rc>
    <rc><c>Sr</c><c>   1</c></rc>
    <rc><c>Sr</c><c>   1</c></rc>
    <rc><c>Sr</c><c>   1</c></rc>
    <rc><c>Ti</c><c>   2</c></rc>
    <rc><c>Ti</c><c>   2</c></rc>
    <rc><c>Ti</c><c>   2</c></rc>
    <rc><c>Ti</c><c>   2</c></rc>
    <rc><c>Ti</c><c>   2</c></rc>
    <rc><c>Ti</c><c>   2</c></rc>
    <rc><c>Ti</c><c>   2</c></rc>
    <rc><c>Ti</c><c>   2</c></rc>
    <rc><c>Fe</c><c>   3</c></rc>
    <rc><c>Fe</c><c>   3</c></rc>
    <rc><c>Fe</c><c>   3</c></rc>
    <rc><c>Fe</c><c>   3</c></rc>
    <rc><c>Fe</c><c>   3</c></rc>
    <rc><c>Fe</c><c>   3</c></rc>
    <rc><c>Fe</c><c>   3</c></rc>
    <rc><c>Fe</c><c>   3</c></rc>
    <rc><c>Fe</c><c>   3</c></rc>
    <rc><c>Fe</c><c>   3</c></rc>
    <rc><c>Fe</c><c>   3</c></rc>
    <rc><c>Fe</c><c>   3</c></rc>
    <rc><c>Fe</c><c>   3</c></rc>
    <rc><c>Fe</c><c>   3</c></rc>
    <rc><c>Fe</c><c>   3</c></rc>
    <rc><c>Fe</c><c>   3</c></rc>
    <rc><c>Fe</c><c>   3</c></rc>
    <rc><c>Fe</c><c>   3</c></rc>
    <rc><c>Fe</c><c>   3</c></rc>
    <rc><c>Fe</c><c>   3</c></rc>
    <rc><c>Fe</c><c>   3</c></rc>
    <rc><c>Fe</c><c>   3</c></rc>
    <rc><c>Fe</c><c>   3</c></rc>
    <rc><c>Fe</c><c>   3</c></rc>
    <rc><c>O </c><c>   4</c></rc>
    <rc><c>O </c><c>   4</c></rc>
    <rc><c>O </c><c>   4</c></rc>
    <rc><c>O </c><c>   4</c></rc>
    <rc><c>O </c><c>   4</c></rc>
    <rc><c>O </c><c>   4</c></rc>
    <rc><c>O </c><c>   4</c></rc>
    <rc><c>O </c><c>   4</c></rc>
    <rc><c>O </c><c>   4</c></rc>
    <rc><c>O </c><c>   4</c></rc>
    <rc><c>O </c><c>   4</c></rc>
    <rc><c>O </c><c>   4</c></rc>
    <rc><c>O </c><c>   4</c></rc>
    <rc><c>O </c><c>   4</c></rc>
    <rc><c>O </c><c>   4</c></rc>
    <rc><c>O </c><c>   4</c></rc>
    <rc><c>O </c><c>   4</c></rc>
    <rc><c>O </c><c>   4</c></rc>
    <rc><c>O </c><c>   4</c></rc>
    <rc><c>O </c><c>   4</c></rc>
    <rc><c>O </c><c>   4</c></rc>
    <rc><c>O </c><c>   4</c></rc>
    <rc><c>O </c><c>   4</c></rc>
    <rc><c>O </c><c>   4</c></rc>
    <rc><c>O </c><c>   4</c></rc>
    <rc><c>O </c><c>   4</c></rc>
    <rc><c>O </c><c>   4</c></rc>
    <rc><c>O </c><c>   4</c></rc>
    <rc><c>O </c><c>   4</c></rc>
    <rc><c>O </c><c>   4</c></rc>
    <rc><c>O </c><c>   4</c></rc>
    <rc><c>O </c><c>   4</c></rc>
    <rc><c>O </c><c>   4</c></rc>
    <rc><c>O </c><c>   4</c></rc>
    <rc><c>O </c><c>   4</c></rc>
    <rc><c>O </c><c>   4</c></rc>
    <rc><c>O </c><c>   4</c></rc>
    <rc><c>O </c><c>   4</c></rc>
    <rc><c>O </c><c>   4</c></rc>
    <rc><c>O </c><c>   4</c></rc>
    <rc><c>O </c><c>   4</c></rc>
    <rc><c>O </c><c>   4</c></rc>
    <rc><c>O </c><c>   4</c></rc>
    <rc><c>O </c><c>   4</c></rc>
    <rc><c>O </c><c>   4</c></rc>
    <rc><c>O </c><c>   4</c></rc>
    <rc><c>O </c><c>   4</c></rc>
    <rc><c>O </c><c>   4</c></rc>
    <rc><c>O </c><c>   4</c></rc>
    <rc><c>O </c><c>   4</c></rc>
    <rc><c>O </c><c>   4</c></rc>
    <rc><c>O </c><c>   4</c></rc>
    <rc><c>O </c><c>   4</c></rc>
    <rc><c>O </c><c>   4</c></rc>
    <rc><c>O </c><c>   4</c></rc>
    <rc><c>O </c><c>   4</c></rc>
    <rc><c>O </c><c>   4</c></rc>
    <rc><c>O </c><c>   4</c></rc>
    <rc><c>O </c><c>   4</c></rc>
    <rc><c>O </c><c>   4</c></rc>
    <rc><c>O </c><c>   4</c></rc>
    <rc><c>O </c><c>   4</c></rc>
    <rc><c>O </c><c>   4</c></rc>
    <rc><c>O </c><c>   4</c></rc>
    <rc><c>O </c><c>   4</c></rc>
    <rc><c>O </c><c>   4</c></rc>
    <rc><c>O </c><c>   4</c></rc>
    <rc><c>O </c><c>   4</c></rc>
    <rc><c>O </c><c>   4</c></rc>
    <rc><c>O </c><c>   4</c></rc>
    <rc><c>O </c><c>   4</c></rc>
    <rc><c>O </c><c>   4</c></rc>
    <rc><c>O </c><c>   4</c></rc>
    <rc><c>O </c><c>   4</c></rc>
    <rc><c>O </c><c>   4</c></rc>
    <rc><c>O </c><c>   4</c></rc>
    <rc><c>O </c><c>   4</c></rc>
    <rc><c>O </c><c>   4</c></rc>
    <rc><c>O </c><c>   4</c></rc>
    <rc><c>O </c><c>   4</c></rc>
    <rc><c>O </c><c>   4</c></rc>
    <rc><c>O </c><c>   4</c></rc>
    <rc><c>O </c><c>   4</c></rc>
    <rc><c>O </c><c>   4</c></rc>
   </set>
  </array>
  <array name="atomtypes" >
   <dimension dim="1">type</dimension>
   <field type="int">atomspertype</field>
   <field type="string">element</field>
   <field>mass</field>
   <field>valence</field>
   <field type="string">pseudopotential</field>
   <set>
    <rc><c>  32</c><c>Sr</c><c>     87.62000000</c><c>     10.00000000</c><c>  PAW_PBE Sr_sv 07Sep2000               </c></rc>
    <rc><c>   8</c><c>Ti</c><c>     47.88000000</c><c>      4.00000000</c><c>  PAW_PBE Ti 08Apr2002                  </c></rc>
    <rc><c>  24</c><c>Fe</c><c>     55.84700000</c><c>      8.00000000</c><c>  PAW_PBE Fe 06Sep2000                  </c></rc>
    <rc><c>  84</c><c>O </c><c>     16.00000000</c><c>      6.00000000</c><c>  PAW_PBE O 08Apr2002                   </c></rc>
   </set>
  </array>
 </atominfo>
 <structure name="initialpos" >
  <crystal>
   <varray name="basis" >
    <v>      11.21159975       0.04908483      -0.00839425 </v>
    <v>       0.04916323      11.20005119      -0.01438627 </v>
    <v>      -0.01202859      -0.02067634      15.85923038 </v>
   </varray>
   <i name="volume">   1991.40862738 </i>
   <varray name="rec_basis" >
    <v>       0.08919510      -0.00039144       0.00006714 </v>
    <v>      -0.00039082       0.08928717       0.00011611 </v>
    <v>       0.00004686       0.00008079       0.06305490 </v>
   </varray>
  </crystal>
  <varray name="positions" >
   <v>       0.99105564       0.25026770       0.12611567 </v>
   <v>       0.99480108       0.24476525       0.63339290 </v>
   <v>       0.98803714       0.74359683       0.13134354 </v>
   <v>       0.00124441       0.75080702       0.61963833 </v>
   <v>       0.50247237       0.25621611       0.13696695 </v>
   <v>       0.50799940       0.25595752       0.61743537 </v>
   <v>       0.51443027       0.74498991       0.12636655 </v>
   <v>       0.49432861       0.74999585       0.61633310 </v>
   <v>       0.99865604       0.24742186       0.37058001 </v>
   <v>       0.98126784       0.25465394       0.87936371 </v>
   <v>       0.98975732       0.74166833       0.38166004 </v>
   <v>       0.99949229       0.74715164       0.87182863 </v>
   <v>       0.49967922       0.26881514       0.37117348 </v>
   <v>       0.50105419       0.24508172       0.87639009 </v>
   <v>       0.50869099       0.74045218       0.37915945 </v>
   <v>       0.49101717       0.74945428       0.87120483 </v>
   <v>       0.23924034       0.00988426       0.12270015 </v>
   <v>       0.24403408       0.98386883       0.62246093 </v>
   <v>       0.23975626       0.49784137       0.13132647 </v>
   <v>       0.24770695       0.50713109       0.61546437 </v>
   <v>       0.75308299       0.00760165       0.12620206 </v>
   <v>       0.75612506       0.99682542       0.61958722 </v>
   <v>       0.75482022       0.48939791       0.13485752 </v>
   <v>       0.74012195       0.51292331       0.62482319 </v>
   <v>       0.23788133       0.99337672       0.37834683 </v>
   <v>       0.24243408       0.98994201       0.87835234 </v>
   <v>       0.25102412       0.49733026       0.37934797 </v>
   <v>       0.22941751       0.49384281       0.87064937 </v>
   <v>       0.76491156       0.98595004       0.37496464 </v>
   <v>       0.75648612       0.01707843       0.87094930 </v>
   <v>       0.74250827       0.50602859       0.36913863 </v>
   <v>       0.75685578       0.50144902       0.87646177 </v>
   <v>       0.99631412       0.99403846       0.99566185 </v>
   <v>       0.99825446       0.50059304       0.99937186 </v>
   <v>       0.48585098       0.51502959       0.99821645 </v>
   <v>       0.24765911       0.24976446       0.00740105 </v>
   <v>       0.73570933       0.24014859       0.49706884 </v>
   <v>       0.24969876       0.25008791       0.25571840 </v>
   <v>       0.99865503       0.99728041       0.24885172 </v>
   <v>       0.50972176       0.01060431       0.25713111 </v>
   <v>       0.00442673       0.99929139       0.50238452 </v>
   <v>       0.00398112       0.50660230       0.50224053 </v>
   <v>       0.48193727       0.00947837       0.01323196 </v>
   <v>       0.50487940       0.98592905       0.49487419 </v>
   <v>       0.49825569       0.50240134       0.49709311 </v>
   <v>       0.23801275       0.25376199       0.50005466 </v>
   <v>       0.24822123       0.74658491       0.98332637 </v>
   <v>       0.25242149       0.75046525       0.50037244 </v>
   <v>       0.75212515       0.23916667       0.00050310 </v>
   <v>       0.75740445       0.74416108       0.00946084 </v>
   <v>       0.74958380       0.74744379       0.49903119 </v>
   <v>       0.28101304       0.24139597       0.73486292 </v>
   <v>       0.23742119       0.73555749       0.26194853 </v>
   <v>       0.23893031       0.75624066       0.74624033 </v>
   <v>       0.75208057       0.25425543       0.25177631 </v>
   <v>       0.75369905       0.24488901       0.74988637 </v>
   <v>       0.74798880       0.74826671       0.25085054 </v>
   <v>       0.73675637       0.75860935       0.74379101 </v>
   <v>       0.98573449       0.98840359       0.75122512 </v>
   <v>       0.99341562       0.49511592       0.25354717 </v>
   <v>       0.97947391       0.51129472       0.74860497 </v>
   <v>       0.50056498       0.99762550       0.73984881 </v>
   <v>       0.50067795       0.50313528       0.24911549 </v>
   <v>       0.49934457       0.49980754       0.75496698 </v>
   <v>       0.12035836       0.12906097       0.24425314 </v>
   <v>       0.12870436       0.26738871       0.76815570 </v>
   <v>       0.11497719       0.62511411       0.25492644 </v>
   <v>       0.12792510       0.60867287       0.74330014 </v>
   <v>       0.62289394       0.12919491       0.25758797 </v>
   <v>       0.61422028       0.14070120       0.75408423 </v>
   <v>       0.61762536       0.62834129       0.24622066 </v>
   <v>       0.61048139       0.62688486       0.75738251 </v>
   <v>       0.37384436       0.37642039       0.24444275 </v>
   <v>       0.38513970       0.85895113       0.74876175 </v>
   <v>       0.88066571       0.36510598       0.24059302 </v>
   <v>       0.85425954       0.38617822       0.75113324 </v>
   <v>       0.88783210       0.86595628       0.25403688 </v>
   <v>       0.86299101       0.87523596       0.76037219 </v>
   <v>       0.36859321       0.11753173       0.23758039 </v>
   <v>       0.36934327       0.10808713       0.77809777 </v>
   <v>       0.36701368       0.64689574       0.21742952 </v>
   <v>       0.87023071       0.11519586       0.24441143 </v>
   <v>       0.87845697       0.13146206       0.75494376 </v>
   <v>       0.86741718       0.61752041       0.23870524 </v>
   <v>       0.86026884       0.63668267       0.76346826 </v>
   <v>       0.12958008       0.37509401       0.26095827 </v>
   <v>       0.37224600       0.38261381       0.75823951 </v>
   <v>       0.15612948       0.87907605       0.23253470 </v>
   <v>       0.12757669       0.88264822       0.75448791 </v>
   <v>       0.62401092       0.37627487       0.25685785 </v>
   <v>       0.61577841       0.87660590       0.27242369 </v>
   <v>       0.62157113       0.88386449       0.78963276 </v>
   <v>       0.37672681       0.37390464       0.98941623 </v>
   <v>       0.37686665       0.36789643       0.50205920 </v>
   <v>       0.37709935       0.87036516       0.98817231 </v>
   <v>       0.36784930       0.88674417       0.50998213 </v>
   <v>       0.86358061       0.38225067       0.00173784 </v>
   <v>       0.86149292       0.88149608       0.97981867 </v>
   <v>       0.87592372       0.87498902       0.50419196 </v>
   <v>       0.12659766       0.12370811       0.00076114 </v>
   <v>       0.14196284       0.11087654       0.49865448 </v>
   <v>       0.13187283       0.62086101       0.00394576 </v>
   <v>       0.12944354       0.61764847       0.49438412 </v>
   <v>       0.62042895       0.11128630       0.99186128 </v>
   <v>       0.60615971       0.13604571       0.49068454 </v>
   <v>       0.61878646       0.63669817       0.98778124 </v>
   <v>       0.61922754       0.62872045       0.50186227 </v>
   <v>       0.12659543       0.36684856       0.98310003 </v>
   <v>       0.10689726       0.36161278       0.50336700 </v>
   <v>       0.12446449       0.86705715       0.99725565 </v>
   <v>       0.12081079       0.86330520       0.50289181 </v>
   <v>       0.63622093       0.38589874       0.49705312 </v>
   <v>       0.62957349       0.87858486       0.48469285 </v>
   <v>       0.36173030       0.13226374       0.96978610 </v>
   <v>       0.37002391       0.62838369       0.01999732 </v>
   <v>       0.37541675       0.62451823       0.50839004 </v>
   <v>       0.87771087       0.12666935       0.99959871 </v>
   <v>       0.87632078       0.13519532       0.50529038 </v>
   <v>       0.88416428       0.62721378       0.98411029 </v>
   <v>       0.87022211       0.61618410       0.51550113 </v>
   <v>       0.99444602       0.98834962       0.12018024 </v>
   <v>       0.00668366       0.00809621       0.63135599 </v>
   <v>       0.00949335       0.49213852       0.12078115 </v>
   <v>       0.99374435       0.48278707       0.62643140 </v>
   <v>       0.49512365       0.96979671       0.13638160 </v>
   <v>       0.50983527       0.00779651       0.62158676 </v>
   <v>       0.52857732       0.47591464       0.10910114 </v>
   <v>       0.50179953       0.49478924       0.63909310 </v>
   <v>       0.00478553       0.99774190       0.37220964 </v>
   <v>       0.01208857       0.01280536       0.87283194 </v>
   <v>       0.97254708       0.48778335       0.38374279 </v>
   <v>       0.00572804       0.49073233       0.86894002 </v>
   <v>       0.46193759       0.01012594       0.37579067 </v>
   <v>       0.48193079       0.51001728       0.37251303 </v>
   <v>       0.51043647       0.48961439       0.87355776 </v>
   <v>       0.26631176       0.23702247       0.37705987 </v>
   <v>       0.27451473       0.75651434       0.37502650 </v>
   <v>       0.26554995       0.71698054       0.86517241 </v>
   <v>       0.76906351       0.26287650       0.37999058 </v>
   <v>       0.72509232       0.27473768       0.87897788 </v>
   <v>       0.76349266       0.73619216       0.37668521 </v>
   <v>       0.25010239       0.25536004       0.12329640 </v>
   <v>       0.28429427       0.21261298       0.61799946 </v>
   <v>       0.25380557       0.73619050       0.62851784 </v>
   <v>       0.72745436       0.25338022       0.11952762 </v>
   <v>       0.74318336       0.26364588       0.62323598 </v>
   <v>       0.73608573       0.78185522       0.12831793 </v>
   <v>       0.72698286       0.76695907       0.62708163 </v>
  </varray>
 </structure>
 <calculation>
  <scstep>
   <time name="dav">  614.58  614.63</time>
   <time name="total">  621.89  622.02</time>
   <energy>
    <i name="alphaZ">   5642.94887541 </i>
    <i name="ewald"> -62885.54763813 </i>
    <i name="hartreedc"> -18868.92905831 </i>
    <i name="XCdc">   3403.75451657 </i>
    <i name="pawpsdc"> 115868.46763986 </i>
    <i name="pawaedc">-115371.29816338 </i>
    <i name="eentropy">     -0.00830403 </i>
    <i name="bandstr">  -7095.16208254 </i>
    <i name="atom">  78316.90445604 </i>
    <i name="e_fr_energy">   -988.86975850 </i>
    <i name="e_wo_entrp">   -988.86145447 </i>
    <i name="e_0_energy">   -988.86560649 </i>
   </energy>
  </scstep>
  <scstep>
   <time name="diag">   64.60   64.61</time>
   <time name="diis">   64.07   64.08</time>
   <time name="orth">   33.13   33.13</time>
   <time name="total">  169.18  169.23</time>
   <energy>
    <i name="e_fr_energy">   -988.86976046 </i>
    <i name="e_wo_entrp">   -988.86149854 </i>
    <i name="e_0_energy">   -988.86562950 </i>
   </energy>
  </scstep>
  <scstep>
   <time name="diag">   64.69   64.73</time>
   <time name="diis">   61.24   61.24</time>
   <time name="orth">   33.16   33.16</time>
   <time name="total">  166.56  166.68</time>
   <energy>
    <i name="e_fr_energy">   -988.86976120 </i>
    <i name="e_wo_entrp">   -988.86148987 </i>
    <i name="e_0_energy">   -988.86562553 </i>
   </energy>
  </scstep>
  <scstep>
   <time name="diag">   64.74   64.75</time>
   <time name="diis">   56.40   56.41</time>
   <time name="orth">   33.14   33.14</time>
   <time name="total">  161.67  161.81</time>
   <energy>
    <i name="e_fr_energy">   -988.86976294 </i>
    <i name="e_wo_entrp">   -988.86148975 </i>
    <i name="e_0_energy">   -988.86562635 </i>
   </energy>
  </scstep>
  <scstep>
   <time name="diag">   64.74   64.75</time>
   <time name="diis">   55.95   55.95</time>
   <time name="orth">   33.12   33.12</time>
   <time name="total">  161.21  161.31</time>
   <energy>
    <i name="e_fr_energy">   -988.86976454 </i>
    <i name="e_wo_entrp">   -988.86148926 </i>
    <i name="e_0_energy">   -988.86562690 </i>
   </energy>
  </scstep>
  <scstep>
   <time name="diag">   64.75   64.75</time>
   <time name="diis">   50.82   50.85</time>
   <time name="orth">   33.09   33.09</time>
   <time name="total">  156.05  156.15</time>
   <energy>
    <i name="e_fr_energy">   -988.86976705 </i>
    <i name="e_wo_entrp">   -988.86149224 </i>
    <i name="e_0_energy">   -988.86562964 </i>
   </energy>
  </scstep>
  <scstep>
   <time name="diag">   64.78   64.81</time>
   <time name="diis">   49.48   49.48</time>
   <time name="orth">   33.12   33.12</time>
   <time name="total">  154.76  154.80</time>
   <energy>
    <i name="e_fr_energy">   -988.86976889 </i>
    <i name="e_wo_entrp">   -988.86149416 </i>
    <i name="e_0_energy">   -988.86563152 </i>
   </energy>
  </scstep>
  <scstep>
   <time name="diag">   64.81   64.81</time>
   <time name="diis">   51.31   51.31</time>
   <time name="orth">   33.11   33.11</time>
   <time name="total">  150.29  150.39</time>
   <energy>
    <i name="alphaZ">   5642.94887541 </i>
    <i name="ewald"> -62885.54763813 </i>
    <i name="hartreedc"> -18868.97241428 </i>
    <i name="XCdc">   3403.75692115 </i>
    <i name="pawpsdc"> 115868.69522009 </i>
    <i name="pawaedc">-115371.48909257 </i>
    <i name="eentropy">     -0.00827380 </i>
    <i name="bandstr">  -7095.15782651 </i>
    <i name="atom">  78316.90445604 </i>
    <i name="e_fr_energy">   -988.86977260 </i>
    <i name="e_wo_entrp">   -988.86149881 </i>
    <i name="e_0_energy">   -988.86563570 </i>
   </energy>
  </scstep>
  <structure>
   <crystal>
    <varray name="basis" >
     <v>      11.21159975       0.04908483      -0.00839425 </v>
     <v>       0.04916323      11.20005119      -0.01438627 </v>
     <v>      -0.01202859      -0.02067634      15.85923038 </v>
    </varray>
    <i name="volume">   1991.40862738 </i>
    <varray name="rec_basis" >
     <v>       0.08919510      -0.00039144       0.00006714 </v>
     <v>      -0.00039082       0.08928717       0.00011611 </v>
     <v>       0.00004686       0.00008079       0.06305490 </v>
    </varray>
   </crystal>
   <varray name="positions" >
    <v>       0.99105564       0.25026770       0.12611567 </v>
    <v>       0.99480108       0.24476525       0.63339290 </v>
    <v>       0.98803714       0.74359683       0.13134354 </v>
    <v>       0.00124441       0.75080702       0.61963833 </v>
    <v>       0.50247237       0.25621611       0.13696695 </v>
    <v>       0.50799940       0.25595752       0.61743537 </v>
    <v>       0.51443027       0.74498991       0.12636655 </v>
    <v>       0.49432861       0.74999585       0.61633310 </v>
    <v>       0.99865604       0.24742186       0.37058001 </v>
    <v>       0.98126784       0.25465394       0.87936371 </v>
    <v>       0.98975732       0.74166833       0.38166004 </v>
    <v>       0.99949229       0.74715164       0.87182863 </v>
    <v>       0.49967922       0.26881514       0.37117348 </v>
    <v>       0.50105419       0.24508172       0.87639009 </v>
    <v>       0.50869099       0.74045218       0.37915945 </v>
    <v>       0.49101717       0.74945428       0.87120483 </v>
    <v>       0.23924034       0.00988426       0.12270015 </v>
    <v>       0.24403408       0.98386883       0.62246093 </v>
    <v>       0.23975626       0.49784137       0.13132647 </v>
    <v>       0.24770695       0.50713109       0.61546437 </v>
    <v>       0.75308299       0.00760165       0.12620206 </v>
    <v>       0.75612506       0.99682542       0.61958722 </v>
    <v>       0.75482022       0.48939791       0.13485752 </v>
    <v>       0.74012195       0.51292331       0.62482319 </v>
    <v>       0.23788133       0.99337672       0.37834683 </v>
    <v>       0.24243408       0.98994201       0.87835234 </v>
    <v>       0.25102412       0.49733026       0.37934797 </v>
    <v>       0.22941751       0.49384281       0.87064937 </v>
    <v>       0.76491156       0.98595004       0.37496464 </v>
    <v>       0.75648612       0.01707843       0.87094930 </v>
    <v>       0.74250827       0.50602859       0.36913863 </v>
    <v>       0.75685578       0.50144902       0.87646177 </v>
    <v>       0.99631412       0.99403846       0.99566185 </v>
    <v>       0.99825446       0.50059304       0.99937186 </v>
    <v>       0.48585098       0.51502959       0.99821645 </v>
    <v>       0.24765911       0.24976446       0.00740105 </v>
    <v>       0.73570933       0.24014859       0.49706884 </v>
    <v>       0.24969876       0.25008791       0.25571840 </v>
    <v>       0.99865503       0.99728041       0.24885172 </v>
    <v>       0.50972176       0.01060431       0.25713111 </v>
    <v>       0.00442673       0.99929139       0.50238452 </v>
    <v>       0.00398112       0.50660230       0.50224053 </v>
    <v>       0.48193727       0.00947837       0.01323196 </v>
    <v>       0.50487940       0.98592905       0.49487419 </v>
    <v>       0.49825569       0.50240134       0.49709311 </v>
    <v>       0.23801275       0.25376199       0.50005466 </v>
    <v>       0.24822123       0.74658491       0.98332637 </v>
    <v>       0.25242149       0.75046525       0.50037244 </v>
    <v>       0.75212515       0.23916667       0.00050310 </v>
    <v>       0.75740445       0.74416108       0.00946084 </v>
    <v>       0.74958380       0.74744379       0.49903119 </v>
    <v>       0.28101304       0.24139597       0.73486292 </v>
    <v>       0.23742119       0.73555749       0.26194853 </v>
    <v>       0.23893031       0.75624066       0.74624033 </v>
    <v>       0.75208057       0.25425543       0.25177631 </v>
    <v>       0.75369905       0.24488901       0.74988637 </v>
    <v>       0.74798880       0.74826671       0.25085054 </v>
    <v>       0.73675637       0.75860935       0.74379101 </v>
    <v>       0.98573449       0.98840359       0.75122512 </v>
    <v>       0.99341562       0.49511592       0.25354717 </v>
    <v>       0.97947391       0.51129472       0.74860497 </v>
    <v>       0.50056498       0.99762550       0.73984881 </v>
    <v>       0.50067795       0.50313528       0.24911549 </v>
    <v>       0.49934457       0.49980754       0.75496698 </v>
    <v>       0.12035836       0.12906097       0.24425314 </v>
    <v>       0.12870436       0.26738871       0.76815570 </v>
    <v>       0.11497719       0.62511411       0.25492644 </v>
    <v>       0.12792510       0.60867287       0.74330014 </v>
    <v>       0.62289394       0.12919491       0.25758797 </v>
    <v>       0.61422028       0.14070120       0.75408423 </v>
    <v>       0.61762536       0.62834129       0.24622066 </v>
    <v>       0.61048139       0.62688486       0.75738251 </v>
    <v>       0.37384436       0.37642039       0.24444275 </v>
    <v>       0.38513970       0.85895113       0.74876175 </v>
    <v>       0.88066571       0.36510598       0.24059302 </v>
    <v>       0.85425954       0.38617822       0.75113324 </v>
    <v>       0.88783210       0.86595628       0.25403688 </v>
    <v>       0.86299101       0.87523596       0.76037219 </v>
    <v>       0.36859321       0.11753173       0.23758039 </v>
    <v>       0.36934327       0.10808713       0.77809777 </v>
    <v>       0.36701368       0.64689574       0.21742952 </v>
    <v>       0.87023071       0.11519586       0.24441143 </v>
    <v>       0.87845697       0.13146206       0.75494376 </v>
    <v>       0.86741718       0.61752041       0.23870524 </v>
    <v>       0.86026884       0.63668267       0.76346826 </v>
    <v>       0.12958008       0.37509401       0.26095827 </v>
    <v>       0.37224600       0.38261381       0.75823951 </v>
    <v>       0.15612948       0.87907605       0.23253470 </v>
    <v>       0.12757669       0.88264822       0.75448791 </v>
    <v>       0.62401092       0.37627487       0.25685785 </v>
    <v>       0.61577841       0.87660590       0.27242369 </v>
    <v>       0.62157113       0.88386449       0.78963276 </v>
    <v>       0.37672681       0.37390464       0.98941623 </v>
    <v>       0.37686665       0.36789643       0.50205920 </v>
    <v>       0.37709935       0.87036516       0.98817231 </v>
    <v>       0.36784930       0.88674417       0.50998213 </v>
    <v>       0.86358061       0.38225067       0.00173784 </v>
    <v>       0.86149292       0.88149608       0.97981867 </v>
    <v>       0.87592372       0.87498902       0.50419196 </v>
    <v>       0.12659766       0.12370811       0.00076114 </v>
    <v>       0.14196284       0.11087654       0.49865448 </v>
    <v>       0.13187283       0.62086101       0.00394576 </v>
    <v>       0.12944354       0.61764847       0.49438412 </v>
    <v>       0.62042895       0.11128630       0.99186128 </v>
    <v>       0.60615971       0.13604571       0.49068454 </v>
    <v>       0.61878646       0.63669817       0.98778124 </v>
    <v>       0.61922754       0.62872045       0.50186227 </v>
    <v>       0.12659543       0.36684856       0.98310003 </v>
    <v>       0.10689726       0.36161278       0.50336700 </v>
    <v>       0.12446449       0.86705715       0.99725565 </v>
    <v>       0.12081079       0.86330520       0.50289181 </v>
    <v>       0.63622093       0.38589874       0.49705312 </v>
    <v>       0.62957349       0.87858486       0.48469285 </v>
    <v>       0.36173030       0.13226374       0.96978610 </v>
    <v>       0.37002391       0.62838369       0.01999732 </v>
    <v>       0.37541675       0.62451823       0.50839004 </v>
    <v>       0.87771087       0.12666935       0.99959871 </v>
    <v>       0.87632078       0.13519532       0.50529038 </v>
    <v>       0.88416428       0.62721378       0.98411029 </v>
    <v>       0.87022211       0.61618410       0.51550113 </v>
    <v>       0.99444602       0.98834962       0.12018024 </v>
    <v>       0.00668366       0.00809621       0.63135599 </v>
    <v>       0.00949335       0.49213852       0.12078115 </v>
    <v>       0.99374435       0.48278707       0.62643140 </v>
    <v>       0.49512365       0.96979671       0.13638160 </v>
    <v>       0.50983527       0.00779651       0.62158676 </v>
    <v>       0.52857732       0.47591464       0.10910114 </v>
    <v>       0.50179953       0.49478924       0.63909310 </v>
    <v>       0.00478553       0.99774190       0.37220964 </v>
    <v>       0.01208857       0.01280536       0.87283194 </v>
    <v>       0.97254708       0.48778335       0.38374279 </v>
    <v>       0.00572804       0.49073233       0.86894002 </v>
    <v>       0.46193759       0.01012594       0.37579067 </v>
    <v>       0.48193079       0.51001728       0.37251303 </v>
    <v>       0.51043647       0.48961439       0.87355776 </v>
    <v>       0.26631176       0.23702247       0.37705987 </v>
    <v>       0.27451473       0.75651434       0.37502650 </v>
    <v>       0.26554995       0.71698054       0.86517241 </v>
    <v>       0.76906351       0.26287650       0.37999058 </v>
    <v>       0.72509232       0.27473768       0.87897788 </v>
    <v>       0.76349266       0.73619216       0.37668521 </v>
    <v>       0.25010239       0.25536004       0.12329640 </v>
    <v>       0.28429427       0.21261298       0.61799946 </v>
    <v>       0.25380557       0.73619050       0.62851784 </v>
    <v>       0.72745436       0.25338022       0.11952762 </v>
    <v>       0.74318336       0.26364588       0.62323598 </v>
    <v>       0.73608573       0.78185522       0.12831793 </v>
    <v>       0.72698286       0.76695907       0.62708163 </v>
   </varray>
  </structure>
  <varray name="forces" >
   <v>      -0.00463854      -0.01063885       0.01756957 </v>
   <v>      -0.00869946      -0.01017552      -0.00445234 </v>
   <v>       0.00995039       0.00729970       0.00129424 </v>
   <v>      -0.01551120       0.00653940      -0.02368252 </v>
   <v>      -0.00666699       0.00601098       0.00098208 </v>
   <v>      -0.01506550      -0.03156072       0.00204137 </v>
   <v>      -0.00242386      -0.00529492       0.01594075 </v>
   <v>       0.01300936       0.00621247       0.00282445 </v>
   <v>      -0.00635337      -0.01467786      -0.00576908 </v>
   <v>       0.00483316      -0.00432356      -0.04604503 </v>
   <v>      -0.01023581       0.00809768      -0.02389229 </v>
   <v>       0.01482839      -0.02409592       0.00502408 </v>
   <v>      -0.01880791      -0.01974921       0.01238794 </v>
   <v>       0.02160972      -0.00068454      -0.02487981 </v>
   <v>      -0.01994477      -0.02097507      -0.00172200 </v>
   <v>      -0.02792363      -0.00901486      -0.01460035 </v>
   <v>       0.00493251      -0.01815894       0.01972564 </v>
   <v>      -0.01443586       0.01943191       0.00152419 </v>
   <v>       0.03011468      -0.01464646       0.02098495 </v>
   <v>      -0.02133824      -0.01286796      -0.03321977 </v>
   <v>       0.00223953       0.00950329       0.01741871 </v>
   <v>       0.00621277      -0.00267255      -0.00517297 </v>
   <v>      -0.01853361       0.01323071       0.01276314 </v>
   <v>       0.02780096       0.00218155       0.01192602 </v>
   <v>       0.00960221      -0.01642136       0.00385648 </v>
   <v>      -0.01383768      -0.00680892      -0.02924298 </v>
   <v>      -0.00475966       0.00903927       0.00103246 </v>
   <v>       0.02243116       0.01298990      -0.04346122 </v>
   <v>      -0.02085869      -0.00757014       0.00082662 </v>
   <v>       0.00041768       0.01703763      -0.01611870 </v>
   <v>       0.01167795      -0.00725734       0.01307750 </v>
   <v>       0.02000877      -0.00508992      -0.02651790 </v>
   <v>       0.04203138       0.00057761      -0.00754142 </v>
   <v>      -0.00913482      -0.01388695      -0.03499110 </v>
   <v>      -0.04529380       0.04475236      -0.00132372 </v>
   <v>       0.00927048       0.01258917      -0.02138247 </v>
   <v>      -0.06000996       0.00721086       0.03027526 </v>
   <v>       0.02485383      -0.01015699       0.01134254 </v>
   <v>       0.02073153      -0.02748210      -0.01139185 </v>
   <v>       0.02866932       0.07495997      -0.00815700 </v>
   <v>      -0.00612838       0.00290024       0.01016881 </v>
   <v>      -0.00135284       0.03836971       0.00646643 </v>
   <v>      -0.00576603      -0.01778464       0.01112428 </v>
   <v>      -0.00674218       0.01610123       0.01721132 </v>
   <v>       0.02380701      -0.03942003       0.02997563 </v>
   <v>      -0.01676383       0.00988357       0.03853167 </v>
   <v>       0.01525777      -0.03904369       0.02221923 </v>
   <v>       0.01910420      -0.02844098      -0.01619836 </v>
   <v>       0.00041381       0.03867964       0.01276735 </v>
   <v>      -0.01390315       0.00212442      -0.01287109 </v>
   <v>       0.01359449       0.00219554      -0.00522501 </v>
   <v>      -0.05711821      -0.00373206      -0.01481526 </v>
   <v>      -0.00145825      -0.01056545       0.01025881 </v>
   <v>       0.02129946      -0.01857850       0.01547159 </v>
   <v>       0.00719478       0.01385172      -0.00034252 </v>
   <v>       0.00997609       0.04793886      -0.03076215 </v>
   <v>       0.01759810      -0.00094977       0.01972335 </v>
   <v>      -0.06823899      -0.05092132      -0.03780135 </v>
   <v>       0.02904718       0.05587119       0.02197150 </v>
   <v>       0.00889518       0.00110032       0.02499318 </v>
   <v>      -0.00044303      -0.01332798      -0.00786307 </v>
   <v>      -0.03813476       0.00451715      -0.03693982 </v>
   <v>      -0.01689723      -0.01261892      -0.02766633 </v>
   <v>       0.02732879      -0.00959846      -0.00083629 </v>
   <v>      -0.01193964      -0.03408614       0.00390488 </v>
   <v>       0.07808332       0.10750757      -0.04421916 </v>
   <v>      -0.01124833      -0.02164107       0.01658114 </v>
   <v>       0.00991112      -0.03501638       0.01290079 </v>
   <v>      -0.00686548      -0.03524196      -0.00680929 </v>
   <v>      -0.04834657       0.02199215       0.00694159 </v>
   <v>      -0.01543554       0.01272693       0.00584717 </v>
   <v>       0.02190724       0.01772757      -0.04903223 </v>
   <v>       0.01119910      -0.01083598       0.00345379 </v>
   <v>      -0.00444669      -0.00438674       0.03342320 </v>
   <v>      -0.01381366      -0.01477701       0.00147428 </v>
   <v>      -0.06200489       0.03842240       0.00490050 </v>
   <v>       0.00055172       0.00782719      -0.00274458 </v>
   <v>       0.03295749       0.02308904       0.01981021 </v>
   <v>       0.00127888       0.00346768       0.01690143 </v>
   <v>      -0.06932402       0.08067758      -0.01269859 </v>
   <v>      -0.00874908      -0.00820179       0.05188302 </v>
   <v>       0.00407984       0.01467582       0.00324220 </v>
   <v>      -0.05010893       0.00969930       0.01315355 </v>
   <v>       0.00283454      -0.01333847       0.03139209 </v>
   <v>      -0.00252069       0.00044532       0.00074347 </v>
   <v>      -0.02936039       0.02963351      -0.00407507 </v>
   <v>       0.08838699       0.01220256      -0.05546462 </v>
   <v>      -0.00546251       0.01455289      -0.00942416 </v>
   <v>       0.00351342      -0.06324728      -0.00627513 </v>
   <v>       0.01397271       0.01507196       0.00497011 </v>
   <v>       0.00454931      -0.02001258      -0.00829457 </v>
   <v>       0.00582215      -0.04509548       0.00749212 </v>
   <v>      -0.02410517      -0.03831918      -0.03684280 </v>
   <v>       0.02689236       0.00323015      -0.00031505 </v>
   <v>       0.02538639       0.00772816       0.01182675 </v>
   <v>      -0.00237725      -0.02978748      -0.02615258 </v>
   <v>      -0.00324480      -0.00075112      -0.00586111 </v>
   <v>      -0.02181917      -0.02404344      -0.02872913 </v>
   <v>      -0.00979433       0.01335928       0.01736291 </v>
   <v>       0.00913468      -0.01955187       0.01723819 </v>
   <v>       0.02564401       0.02146444      -0.00886678 </v>
   <v>      -0.01297004      -0.00633311       0.02812952 </v>
   <v>       0.01911959       0.00520966       0.00253673 </v>
   <v>      -0.01193953       0.00464920      -0.01486585 </v>
   <v>       0.00403677       0.00477901       0.00182414 </v>
   <v>       0.03746257       0.00598687      -0.00484337 </v>
   <v>       0.01369712       0.03106965       0.01575895 </v>
   <v>      -0.02181654       0.01539905      -0.03830262 </v>
   <v>       0.01419828      -0.02585561       0.01711209 </v>
   <v>       0.01277943      -0.03173135      -0.00557805 </v>
   <v>       0.01967039       0.00812344       0.01241045 </v>
   <v>      -0.01940717       0.02874200      -0.00701085 </v>
   <v>       0.02279306      -0.02155822       0.02073160 </v>
   <v>       0.04322387       0.00181698       0.02010777 </v>
   <v>       0.03893732      -0.03084021      -0.00101694 </v>
   <v>       0.01271097      -0.02607978       0.00506021 </v>
   <v>      -0.01184496       0.02009969      -0.01512713 </v>
   <v>      -0.00295803      -0.00028458       0.01842932 </v>
   <v>      -0.01713715       0.00784721       0.02961390 </v>
   <v>       0.02661772       0.01545682      -0.01423577 </v>
   <v>       0.00729829       0.01097790       0.02023212 </v>
   <v>       0.00296516       0.01361486      -0.00736501 </v>
   <v>       0.01345993      -0.01696576       0.02349202 </v>
   <v>      -0.04265964      -0.00258124       0.00510162 </v>
   <v>      -0.02815076       0.00003586      -0.03013589 </v>
   <v>       0.00931203       0.00337997       0.00194773 </v>
   <v>       0.01738033       0.00579189      -0.02438763 </v>
   <v>      -0.00820406       0.00620414      -0.00043544 </v>
   <v>      -0.01414276       0.00034069      -0.02456940 </v>
   <v>       0.01015841       0.00362243      -0.00120312 </v>
   <v>       0.00302992       0.00482462      -0.02239252 </v>
   <v>      -0.01831614       0.02331058       0.01788967 </v>
   <v>       0.01279811      -0.01032660       0.03421750 </v>
   <v>       0.00482418      -0.01932658      -0.03697701 </v>
   <v>       0.00897976      -0.03816892       0.08741254 </v>
   <v>      -0.01781036      -0.00409520       0.02313005 </v>
   <v>      -0.00002005       0.01482925       0.02359404 </v>
   <v>      -0.00044037      -0.02208361      -0.00832371 </v>
   <v>       0.01179820      -0.02084617      -0.01566092 </v>
   <v>      -0.01101612       0.01169609       0.00796489 </v>
   <v>      -0.01226317       0.00067348       0.00810063 </v>
   <v>      -0.01529425      -0.01277875       0.03309120 </v>
   <v>      -0.02536854       0.03868011       0.03028211 </v>
   <v>      -0.02198569      -0.00590155       0.00265009 </v>
   <v>       0.00498533       0.01135496      -0.00778519 </v>
   <v>       0.00456720       0.00892631      -0.01918819 </v>
   <v>       0.01664185       0.00708328      -0.00852212 </v>
   <v>       0.01383901      -0.00794181      -0.03134807 </v>
  </varray>
  <varray name="stress" >
   <v>       0.00212285       0.26875918       0.15740187 </v>
   <v>       0.26875964       0.32009190      -0.12842259 </v>
   <v>       0.15740218      -0.12842252       0.82089280 </v>
  </varray>
  <energy>
   <i name="e_fr_energy">   -988.86977260 </i>
   <i name="e_wo_entrp">   -988.86563570 </i>
   <i name="e_0_energy">     -0.00827380 </i>
  </energy>
  <time name="totalsc"> 2003.27 2005.92</time>
 </calculation>
 <calculation>
  <scstep>
   <time name="dav">  560.40  560.38</time>
   <time name="total">  567.72  567.75</time>
   <energy>
    <i name="alphaZ">   5640.33650514 </i>
    <i name="ewald"> -62873.95673715 </i>
    <i name="hartreedc"> -18867.87763132 </i>
    <i name="XCdc">   3403.12109408 </i>
    <i name="pawpsdc"> 115868.73994821 </i>
    <i name="pawaedc">-115371.53273055 </i>
    <i name="eentropy">     -0.00834266 </i>
    <i name="bandstr">  -7104.59374529 </i>
    <i name="atom">  78316.90445604 </i>
    <i name="e_fr_energy">   -988.86718350 </i>
    <i name="e_wo_entrp">   -988.85884084 </i>
    <i name="e_0_energy">   -988.86301217 </i>
   </energy>
  </scstep>
  <scstep>
   <time name="diag">   64.52   64.53</time>
   <time name="diis">  106.29  106.30</time>
   <time name="orth">   33.16   33.16</time>
   <time name="total">  211.27  211.31</time>
   <energy>
    <i name="e_fr_energy">   -988.87670857 </i>
    <i name="e_wo_entrp">   -988.86814959 </i>
    <i name="e_0_energy">   -988.87242908 </i>
   </energy>
  </scstep>
  <scstep>
   <time name="diag">   64.53   64.55</time>
   <time name="diis">  111.66  111.69</time>
   <time name="orth">   33.14   33.14</time>
   <time name="total">  216.65  216.73</time>
   <energy>
    <i name="e_fr_energy">   -988.87758554 </i>
    <i name="e_wo_entrp">   -988.86912753 </i>
    <i name="e_0_energy">   -988.87335653 </i>
   </energy>
  </scstep>
  <scstep>
   <time name="diag">   64.46   64.52</time>
   <time name="diis">  100.87  100.90</time>
   <time name="orth">   33.15   33.15</time>
   <time name="total">  205.80  205.94</time>
   <energy>
    <i name="e_fr_energy">   -988.87726835 </i>
    <i name="e_wo_entrp">   -988.86880014 </i>
    <i name="e_0_energy">   -988.87303424 </i>
   </energy>
  </scstep>
  <scstep>
   <time name="diag">   64.57   64.59</time>
   <time name="diis">   87.85   87.87</time>
   <time name="orth">   33.17   33.17</time>
   <time name="total">  192.90  193.00</time>
   <energy>
    <i name="e_fr_energy">   -988.87713862 </i>
    <i name="e_wo_entrp">   -988.86864244 </i>
    <i name="e_0_energy">   -988.87289053 </i>
   </energy>
  </scstep>
  <scstep>
   <time name="diag">   64.59   64.61</time>
   <time name="diis">   65.25   65.26</time>
   <time name="orth">   33.16   33.16</time>
   <time name="total">  170.31  170.37</time>
   <energy>
    <i name="e_fr_energy">   -988.87714004 </i>
    <i name="e_wo_entrp">   -988.86865494 </i>
    <i name="e_0_energy">   -988.87289749 </i>
   </energy>
  </scstep>
  <scstep>
   <time name="diag">   64.57   64.73</time>
   <time name="diis">   64.56   64.59</time>
   <time name="orth">   33.17   33.16</time>
   <time name="total">  169.63  169.90</time>
   <energy>
    <i name="e_fr_energy">   -988.87714146 </i>
    <i name="e_wo_entrp">   -988.86866365 </i>
    <i name="e_0_energy">   -988.87290255 </i>
   </energy>
  </scstep>
  <scstep>
   <time name="diag">   64.73   64.74</time>
   <time name="diis">   64.02   64.04</time>
   <time name="orth">   33.15   33.15</time>
   <time name="total">  162.97  163.05</time>
   <energy>
    <i name="alphaZ">   5640.33650514 </i>
    <i name="ewald"> -62873.95673715 </i>
    <i name="hartreedc"> -18874.96173844 </i>
    <i name="XCdc">   3403.60113406 </i>
    <i name="pawpsdc"> 115773.78652399 </i>
    <i name="pawaedc">-115276.49770151 </i>
    <i name="eentropy">     -0.00847337 </i>
    <i name="bandstr">  -7098.08111013 </i>
    <i name="atom">  78316.90445604 </i>
    <i name="e_fr_energy">   -988.87714136 </i>
    <i name="e_wo_entrp">   -988.86866799 </i>
    <i name="e_0_energy">   -988.87290467 </i>
   </energy>
  </scstep>
  <structure>
   <crystal>
    <varray name="basis" >
     <v>      11.21161420       0.05031245      -0.00768461 </v>
     <v>       0.05038192      11.20150978      -0.01497067 </v>
     <v>      -0.01101948      -0.02150550      15.86450527 </v>
    </varray>
    <i name="volume">   1992.33096538 </i>
    <varray name="rec_basis" >
     <v>       0.08919506      -0.00040110       0.00006141 </v>
     <v>      -0.00040054       0.08927564       0.00012074 </v>
     <v>       0.00004283       0.00008405       0.06303394 </v>
    </varray>
   </crystal>
   <varray name="positions" >
    <v>       0.99103593       0.25022205       0.12616907 </v>
    <v>       0.99476382       0.24472156       0.63337930 </v>
    <v>       0.98807983       0.74362809       0.13134753 </v>
    <v>       0.00117746       0.75083535       0.61956628 </v>
    <v>       0.50244357       0.25624213       0.13696995 </v>
    <v>       0.50793517       0.25582187       0.61744143 </v>
    <v>       0.51441999       0.74496724       0.12641502 </v>
    <v>       0.49438448       0.75002238       0.61634174 </v>
    <v>       0.99862896       0.24735873       0.37056239 </v>
    <v>       0.98128857       0.25463497       0.87922364 </v>
    <v>       0.98971305       0.74170327       0.38158737 </v>
    <v>       0.99955656       0.74704759       0.87184385 </v>
    <v>       0.49959870       0.26873049       0.37121104 </v>
    <v>       0.50114711       0.24507823       0.87631445 </v>
    <v>       0.50860555       0.74036220       0.37915409 </v>
    <v>       0.49089714       0.74941589       0.87116032 </v>
    <v>       0.23926198       0.00980606       0.12276009 </v>
    <v>       0.24397160       0.98395281       0.62246561 </v>
    <v>       0.23988619       0.49777784       0.13139032 </v>
    <v>       0.24761527       0.50707588       0.61536321 </v>
    <v>       0.75309250       0.00764264       0.12625509 </v>
    <v>       0.75615183       0.99681376       0.61957149 </v>
    <v>       0.75474026       0.48945532       0.13489635 </v>
    <v>       0.74024157       0.51293225       0.62485954 </v>
    <v>       0.23792297       0.99330582       0.37835852 </v>
    <v>       0.24237457       0.98991278       0.87826333 </v>
    <v>       0.25100348       0.49736929       0.37935113 </v>
    <v>       0.22951364       0.49389810       0.87051726 </v>
    <v>       0.76482195       0.98591783       0.37496708 </v>
    <v>       0.75648755       0.01715172       0.87090034 </v>
    <v>       0.74255870       0.50599718       0.36917841 </v>
    <v>       0.75694189       0.50142657       0.87638113 </v>
    <v>       0.99649494       0.99404011       0.99563901 </v>
    <v>       0.99821530       0.50053320       0.99926535 </v>
    <v>       0.48565523       0.51522321       0.99821249 </v>
    <v>       0.24769870       0.24981839       0.00733607 </v>
    <v>       0.73545107       0.24018096       0.49716083 </v>
    <v>       0.24980593       0.25004376       0.25575292 </v>
    <v>       0.99874472       0.99716157       0.24881700 </v>
    <v>       0.50984369       0.01092661       0.25710665 </v>
    <v>       0.00440034       0.99930406       0.50241545 </v>
    <v>       0.00397460       0.50676764       0.50226034 </v>
    <v>       0.48191283       0.00940194       0.01326572 </v>
    <v>       0.50485014       0.98599863       0.49492660 </v>
    <v>       0.49835897       0.50223126       0.49718419 </v>
    <v>       0.23794055       0.25380510       0.50017187 </v>
    <v>       0.24828769       0.74641657       0.98339384 </v>
    <v>       0.25250418       0.75034229       0.50032309 </v>
    <v>       0.75212624       0.23933334       0.00054209 </v>
    <v>       0.75734455       0.74417042       0.00942167 </v>
    <v>       0.74964224       0.74745297       0.49901534 </v>
    <v>       0.28076728       0.24138089       0.73481771 </v>
    <v>       0.23741514       0.73551207       0.26197969 </v>
    <v>       0.23902237       0.75616032       0.74628737 </v>
    <v>       0.75211127       0.25431496       0.25177534 </v>
    <v>       0.75374097       0.24509514       0.74979300 </v>
    <v>       0.74806461       0.74826240       0.25091057 </v>
    <v>       0.73646357       0.75839108       0.74367567 </v>
    <v>       0.98585849       0.98864382       0.75129224 </v>
    <v>       0.99345395       0.49512063       0.25362322 </v>
    <v>       0.97947223       0.51123727       0.74858100 </v>
    <v>       0.50040068       0.99764547       0.73973638 </v>
    <v>       0.50060538       0.50308109       0.24903124 </v>
    <v>       0.49946234       0.49976568       0.75496446 </v>
    <v>       0.12030764       0.12891440       0.24426486 </v>
    <v>       0.12903818       0.26785007       0.76802179 </v>
    <v>       0.11492925       0.62502120       0.25497677 </v>
    <v>       0.12796845       0.60852192       0.74333927 </v>
    <v>       0.62286504       0.12904320       0.25756711 </v>
    <v>       0.61401185       0.14079688       0.75410532 </v>
    <v>       0.61755872       0.62839643       0.24623847 </v>
    <v>       0.61057517       0.62696053       0.75723347 </v>
    <v>       0.37389276       0.37637352       0.24445324 </v>
    <v>       0.38512076       0.85893251       0.74886339 </v>
    <v>       0.88060655       0.36504260       0.24059742 </v>
    <v>       0.85399203       0.38634492       0.75114815 </v>
    <v>       0.88783432       0.86598997       0.25402856 </v>
    <v>       0.86313245       0.87533490       0.76043261 </v>
    <v>       0.36859871       0.11754674       0.23763182 </v>
    <v>       0.36904340       0.10843588       0.77805930 </v>
    <v>       0.36697635       0.64686086       0.21758729 </v>
    <v>       0.87024800       0.11525901       0.24442136 </v>
    <v>       0.87824121       0.13150485       0.75498370 </v>
    <v>       0.86742973       0.61746307       0.23880068 </v>
    <v>       0.86025799       0.63668464       0.76347052 </v>
    <v>       0.12945316       0.37522219       0.26094592 </v>
    <v>       0.37262592       0.38266440       0.75807103 </v>
    <v>       0.15610567       0.87913879       0.23250608 </v>
    <v>       0.12759299       0.88237568       0.75446858 </v>
    <v>       0.62407078       0.37633956       0.25687306 </v>
    <v>       0.61579834       0.87651956       0.27239839 </v>
    <v>       0.62159706       0.88367018       0.78965539 </v>
    <v>       0.37662369       0.37373983       0.98930396 </v>
    <v>       0.37698231       0.36790984       0.50205832 </v>
    <v>       0.37720848       0.87039804       0.98820838 </v>
    <v>       0.36783955       0.88661577       0.50990245 </v>
    <v>       0.86356665       0.38224746       0.00172000 </v>
    <v>       0.86139939       0.88139276       0.97973113 </v>
    <v>       0.87588138       0.87504685       0.50424480 </v>
    <v>       0.12663739       0.12362382       0.00081353 </v>
    <v>       0.14207275       0.11096847       0.49862765 </v>
    <v>       0.13181724       0.62083413       0.00403128 </v>
    <v>       0.12952573       0.61767056       0.49439190 </v>
    <v>       0.62037744       0.11130646       0.99181605 </v>
    <v>       0.60617700       0.13606623       0.49069012 </v>
    <v>       0.61894753       0.63672323       0.98776662 </v>
    <v>       0.61928594       0.62885411       0.50191036 </v>
    <v>       0.12650114       0.36691509       0.98298353 </v>
    <v>       0.10695889       0.36150124       0.50341899 </v>
    <v>       0.12452006       0.86692020       0.99723859 </v>
    <v>       0.12089532       0.86333989       0.50292963 </v>
    <v>       0.63613685       0.38602287       0.49703186 </v>
    <v>       0.62967205       0.87849169       0.48475589 </v>
    <v>       0.36191632       0.13227086       0.96984737 </v>
    <v>       0.37019204       0.62825011       0.01999419 </v>
    <v>       0.37547195       0.62440569       0.50840536 </v>
    <v>       0.87765947       0.12675607       0.99955275 </v>
    <v>       0.87630812       0.13519425       0.50534643 </v>
    <v>       0.88409049       0.62724807       0.98420037 </v>
    <v>       0.87033631       0.61625009       0.51545795 </v>
    <v>       0.99447729       0.98839688       0.12024184 </v>
    <v>       0.00669614       0.00815476       0.63133365 </v>
    <v>       0.00955166       0.49206532       0.12085258 </v>
    <v>       0.99356085       0.48277678       0.62644681 </v>
    <v>       0.49500242       0.96979722       0.13628987 </v>
    <v>       0.50987528       0.00781090       0.62159272 </v>
    <v>       0.52865192       0.47593912       0.10902701 </v>
    <v>       0.50176411       0.49481611       0.63909178 </v>
    <v>       0.00472459       0.99774349       0.37213487 </v>
    <v>       0.01213221       0.01282077       0.87282831 </v>
    <v>       0.97255995       0.48780395       0.38367470 </v>
    <v>       0.00564885       0.49083319       0.86899449 </v>
    <v>       0.46199297       0.01008141       0.37589475 </v>
    <v>       0.48195179       0.50993373       0.37240048 </v>
    <v>       0.51047612       0.48945030       0.87382354 </v>
    <v>       0.26623528       0.23700530       0.37713018 </v>
    <v>       0.27451444       0.75657835       0.37509833 </v>
    <v>       0.26554845       0.71688538       0.86514700 </v>
    <v>       0.76911463       0.26278639       0.37994289 </v>
    <v>       0.72504473       0.27478831       0.87900213 </v>
    <v>       0.76343990       0.73619534       0.37670982 </v>
    <v>       0.25003693       0.25530547       0.12339698 </v>
    <v>       0.28418448       0.21278024       0.61809167 </v>
    <v>       0.25371108       0.73616551       0.62852583 </v>
    <v>       0.72747557       0.25342899       0.11950400 </v>
    <v>       0.74320278       0.26368414       0.62317766 </v>
    <v>       0.73615718       0.78188537       0.12829207 </v>
    <v>       0.72704246       0.76692442       0.62698627 </v>
   </varray>
  </structure>
  <varray name="forces" >
   <v>      -0.00018640      -0.00668544       0.01821470 </v>
   <v>      -0.00974950      -0.00786947      -0.02079077 </v>
   <v>       0.00136143      -0.00427968      -0.00651824 </v>
   <v>      -0.00654457       0.01636814      -0.00902070 </v>
   <v>      -0.00149768       0.00999500      -0.01514666 </v>
   <v>      -0.02887062      -0.02132896       0.02117807 </v>
   <v>       0.01197878       0.00378455       0.02531988 </v>
   <v>       0.00714471      -0.00140074      -0.00847012 </v>
   <v>      -0.00778141      -0.01560577      -0.00755585 </v>
   <v>      -0.00380883      -0.00068935      -0.02664670 </v>
   <v>      -0.00600453       0.00984396      -0.01980829 </v>
   <v>      -0.00021913      -0.02100366      -0.00069446 </v>
   <v>      -0.01538241      -0.00274434       0.01153862 </v>
   <v>       0.01826175       0.00153996      -0.01773698 </v>
   <v>      -0.01117325      -0.01785919      -0.00007712 </v>
   <v>      -0.00940132      -0.00248939      -0.00943795 </v>
   <v>       0.00715459      -0.00201507       0.01174432 </v>
   <v>      -0.01758418       0.00213271      -0.01227541 </v>
   <v>       0.00178705      -0.02355469       0.02144183 </v>
   <v>      -0.01185210      -0.00834674      -0.02350716 </v>
   <v>       0.00577141       0.00588602       0.00494260 </v>
   <v>       0.01549852      -0.00897430       0.00118222 </v>
   <v>      -0.00816071       0.01365933       0.00992178 </v>
   <v>       0.02657886       0.00737097       0.00957089 </v>
   <v>       0.00491711      -0.01361961       0.01047636 </v>
   <v>       0.00184887      -0.01192584      -0.01603230 </v>
   <v>      -0.00152606       0.00204222       0.00273826 </v>
   <v>       0.01519223       0.00038669      -0.04278429 </v>
   <v>      -0.01298358      -0.00513260       0.00001801 </v>
   <v>      -0.00585394       0.00836650      -0.00989089 </v>
   <v>       0.00530525      -0.00796184       0.00273945 </v>
   <v>       0.00890467       0.00061316      -0.00595514 </v>
   <v>      -0.00715624       0.00204813       0.01206836 </v>
   <v>      -0.01997128      -0.00503877       0.03166131 </v>
   <v>       0.06373370      -0.04940182      -0.01645738 </v>
   <v>       0.01860003       0.00536823       0.04037248 </v>
   <v>       0.02651783       0.00943490      -0.01803056 </v>
   <v>      -0.03225854       0.01037231       0.01691732 </v>
   <v>       0.00673921       0.00846667      -0.00081665 </v>
   <v>      -0.02432139      -0.04917402      -0.00450313 </v>
   <v>      -0.00023961       0.00414401      -0.00219480 </v>
   <v>       0.00735405       0.01099824      -0.00905016 </v>
   <v>       0.01086742       0.00104216       0.00080878 </v>
   <v>       0.00243334      -0.03193414      -0.00209607 </v>
   <v>       0.00603984      -0.00552846       0.00792392 </v>
   <v>      -0.00238524       0.00045850       0.01872237 </v>
   <v>       0.00263753      -0.02135366      -0.00260130 </v>
   <v>       0.01231920      -0.01406794       0.00616912 </v>
   <v>      -0.00296520       0.01927294      -0.00079288 </v>
   <v>      -0.01336833       0.01288426      -0.00773542 </v>
   <v>      -0.00091091       0.00086720       0.00050274 </v>
   <v>       0.06293560       0.04129915      -0.02602637 </v>
   <v>      -0.02293287      -0.00339741       0.02639270 </v>
   <v>       0.00722290      -0.02934792      -0.01990601 </v>
   <v>       0.02005145       0.01434983       0.00340515 </v>
   <v>      -0.02952580       0.02780001      -0.00608407 </v>
   <v>      -0.00053994       0.00192835       0.00220717 </v>
   <v>      -0.00845086      -0.00500535      -0.01648857 </v>
   <v>      -0.00146943      -0.00705778      -0.00140950 </v>
   <v>       0.00339843      -0.01977906       0.00560333 </v>
   <v>       0.00233132       0.01025980      -0.00309985 </v>
   <v>      -0.02434850       0.00845458       0.00069261 </v>
   <v>       0.00861647      -0.00103642      -0.00301628 </v>
   <v>       0.02230013      -0.01177283       0.02023192 </v>
   <v>       0.01563120      -0.00744975       0.00675416 </v>
   <v>      -0.03962249       0.12386133      -0.00690591 </v>
   <v>       0.00875853       0.00995904       0.01878176 </v>
   <v>       0.01156740      -0.03523449       0.01007410 </v>
   <v>       0.04392745       0.03005150      -0.00829174 </v>
   <v>      -0.02974206       0.01992961       0.00259285 </v>
   <v>      -0.01132327       0.00835277      -0.00001645 </v>
   <v>       0.00374603      -0.00278908      -0.03331379 </v>
   <v>       0.00313617      -0.01940831       0.00194873 </v>
   <v>       0.00525180       0.01170389       0.02662725 </v>
   <v>      -0.00693655      -0.00000726       0.00246137 </v>
   <v>      -0.04912902       0.03076614       0.00295326 </v>
   <v>      -0.00647780      -0.00807913      -0.00131191 </v>
   <v>       0.01872859       0.01183106       0.00333382 </v>
   <v>       0.00956676       0.00691351       0.02108093 </v>
   <v>      -0.04366510       0.02447247      -0.01069924 </v>
   <v>      -0.00270059      -0.01729190       0.03398659 </v>
   <v>       0.00297181       0.00236963      -0.00197505 </v>
   <v>      -0.02172251       0.01307708       0.00799139 </v>
   <v>      -0.00634720       0.00223466       0.02680321 </v>
   <v>      -0.00179979       0.00058435      -0.00437940 </v>
   <v>       0.01008403      -0.00761754       0.00063124 </v>
   <v>       0.05375635      -0.01383012      -0.04596211 </v>
   <v>       0.00428831      -0.01202750      -0.00177214 </v>
   <v>      -0.01039662      -0.02204419      -0.00402990 </v>
   <v>       0.00334269       0.00187790       0.00181143 </v>
   <v>      -0.01055282       0.01045873      -0.01447985 </v>
   <v>      -0.00965460      -0.02505277      -0.00840924 </v>
   <v>      -0.02345557      -0.00992425      -0.01798466 </v>
   <v>       0.01663714      -0.00678917       0.00009671 </v>
   <v>      -0.00222729      -0.02785326       0.00175587 </v>
   <v>       0.01709232      -0.01070663      -0.01196832 </v>
   <v>       0.00115216       0.00589927      -0.00887935 </v>
   <v>       0.01216257       0.00630279      -0.02395410 </v>
   <v>      -0.00159273       0.01172156       0.01127851 </v>
   <v>       0.01271070      -0.01969207       0.00923909 </v>
   <v>       0.00914471      -0.00344615      -0.00734735 </v>
   <v>       0.01205303       0.00278775       0.02142951 </v>
   <v>       0.00248938      -0.00629331      -0.00132546 </v>
   <v>      -0.00768970       0.00689669      -0.00901065 </v>
   <v>      -0.02160560      -0.00702161       0.00743223 </v>
   <v>       0.00675071       0.00165252      -0.00252956 </v>
   <v>       0.00114302       0.00408832       0.01584535 </v>
   <v>      -0.00191270      -0.01492581      -0.03827475 </v>
   <v>      -0.01217274       0.00825302       0.01885137 </v>
[...]
       <r>   -17.7939     0.0000    32.0000 </r>
       <r>   -17.6392     0.0000    32.0000 </r>
       <r>   -17.4845     0.0000    32.0000 </r>
       <r>   -17.3298     0.0000    32.0000 </r>
       <r>   -17.1750     0.0000    32.0000 </r>
       <r>   -17.0203     0.0000    32.0000 </r>
       <r>   -16.8656     0.0000    32.0000 </r>
       <r>   -16.7109     0.0000    32.0000 </r>
       <r>   -16.5562     0.0000    32.0000 </r>
       <r>   -16.4015     0.0000    32.0000 </r>
       <r>   -16.2468     0.0000    32.0000 </r>
       <r>   -16.0921     0.0000    32.0000 </r>
       <r>   -15.9374     0.0000    32.0000 </r>
       <r>   -15.7827     0.0000    32.0000 </r>
       <r>   -15.6280     0.0000    32.0000 </r>
       <r>   -15.4733     0.0000    32.0000 </r>
       <r>   -15.3186     0.0000    32.0000 </r>
       <r>   -15.1639     0.4019    32.0622 </r>
       <r>   -15.0092    20.4119    35.2200 </r>
       <r>   -14.8545    35.6126    40.7294 </r>
       <r>   -14.6998    41.5893    47.1634 </r>
       <r>   -14.5451    43.7561    53.9326 </r>
       <r>   -14.3904    37.1702    59.6830 </r>
       <r>   -14.2357    44.4500    66.5596 </r>
       <r>   -14.0810    64.0379    76.4665 </r>
       <r>   -13.9263    78.4140    88.5974 </r>
       <r>   -13.7716    72.1228    99.7551 </r>
       <r>   -13.6169    56.9529   108.5659 </r>
       <r>   -13.4622    41.5555   114.9947 </r>
       <r>   -13.3075     6.4980   116.0000 </r>
       <r>   -13.1527     0.0001   116.0000 </r>
       <r>   -12.9980     0.0000   116.0000 </r>
       <r>   -12.8433     1.5134   116.2341 </r>
       <r>   -12.6886    38.0843   122.1259 </r>
       <r>   -12.5339    94.8144   136.7941 </r>
       <r>   -12.3792   115.6514   154.6858 </r>
       <r>   -12.2245   107.2247   171.2739 </r>
       <r>   -12.0698   102.3238   187.1038 </r>
       <r>   -11.9151    85.0759   200.2653 </r>
       <r>   -11.7604    54.2931   208.6647 </r>
       <r>   -11.6057    21.5409   211.9971 </r>
       <r>   -11.4510     0.0186   212.0000 </r>
       <r>   -11.2963     0.0000   212.0000 </r>
       <r>   -11.1416     0.0000   212.0000 </r>
       <r>   -10.9869     0.0000   212.0000 </r>
       <r>   -10.8322     0.0000   212.0000 </r>
       <r>   -10.6775     0.0000   212.0000 </r>
       <r>   -10.5228     0.0000   212.0000 </r>
       <r>   -10.3681     0.0000   212.0000 </r>
       <r>   -10.2134     0.0000   212.0000 </r>
       <r>   -10.0587     0.0000   212.0000 </r>
       <r>    -9.9040     0.0000   212.0000 </r>
       <r>    -9.7493     0.0000   212.0000 </r>
       <r>    -9.5946     0.0000   212.0000 </r>
       <r>    -9.4399     0.0000   212.0000 </r>
       <r>    -9.2852     0.0000   212.0000 </r>
       <r>    -9.1304     0.0000   212.0000 </r>
       <r>    -8.9757     0.0000   212.0000 </r>
       <r>    -8.8210     0.0000   212.0000 </r>
       <r>    -8.6663     0.0000   212.0000 </r>
       <r>    -8.5116     0.0000   212.0000 </r>
       <r>    -8.3569     0.0000   212.0000 </r>
       <r>    -8.2022     0.0000   212.0000 </r>
       <r>    -8.0475     0.0000   212.0000 </r>
       <r>    -7.8928     0.0000   212.0000 </r>
       <r>    -7.7381     0.0000   212.0000 </r>
       <r>    -7.5834     0.0000   212.0000 </r>
       <r>    -7.4287     0.0000   212.0000 </r>
       <r>    -7.2740     0.0000   212.0000 </r>
       <r>    -7.1193     0.0000   212.0000 </r>
       <r>    -6.9646     0.0000   212.0000 </r>
       <r>    -6.8099     0.0000   212.0000 </r>
       <r>    -6.6552     0.0000   212.0000 </r>
       <r>    -6.5005     0.0000   212.0000 </r>
       <r>    -6.3458     0.0000   212.0000 </r>
       <r>    -6.1911     0.0000   212.0000 </r>
       <r>    -6.0364     0.0000   212.0000 </r>
       <r>    -5.8817     0.0000   212.0000 </r>
       <r>    -5.7270     0.0000   212.0000 </r>
       <r>    -5.5723     0.0000   212.0000 </r>
       <r>    -5.4176     0.0000   212.0000 </r>
       <r>    -5.2629     0.0000   212.0000 </r>
       <r>    -5.1081     0.0000   212.0000 </r>
       <r>    -4.9534     0.0000   212.0000 </r>
       <r>    -4.7987     0.0000   212.0000 </r>
       <r>    -4.6440     0.0000   212.0000 </r>
       <r>    -4.4893     0.0000   212.0000 </r>
       <r>    -4.3346     0.0000   212.0000 </r>
       <r>    -4.1799     0.0000   212.0000 </r>
       <r>    -4.0252     0.0000   212.0000 </r>
       <r>    -3.8705     0.0000   212.0000 </r>
       <r>    -3.7158     0.0000   212.0000 </r>
       <r>    -3.5611     0.0000   212.0000 </r>
       <r>    -3.4064     0.0000   212.0000 </r>
       <r>    -3.2517     0.0000   212.0000 </r>
       <r>    -3.0970     0.0000   212.0000 </r>
       <r>    -2.9423     0.0000   212.0000 </r>
       <r>    -2.7876     0.5309   212.0821 </r>
       <r>    -2.6329     6.0728   213.0216 </r>
       <r>    -2.4782     6.5284   214.0316 </r>
       <r>    -2.3235    12.5394   215.9715 </r>
       <r>    -2.1688    18.5372   218.8393 </r>
       <r>    -2.0141    19.3237   221.8287 </r>
       <r>    -1.8594    24.8117   225.6672 </r>
       <r>    -1.7047    26.0880   229.7031 </r>
       <r>    -1.5500    27.1602   233.9049 </r>
       <r>    -1.3953    34.6079   239.2589 </r>
       <r>    -1.2406    42.9982   245.9108 </r>
       <r>    -1.0858    63.0125   255.6591 </r>
       <r>    -0.9311    76.6693   267.5201 </r>
       <r>    -0.7764    88.4368   281.2017 </r>
       <r>    -0.6217    92.5294   295.5163 </r>
       <r>    -0.4670    88.5078   309.2088 </r>
       <r>    -0.3123    72.7092   320.4572 </r>
       <r>    -0.1576    61.9173   330.0360 </r>
       <r>    -0.0029    54.2517   338.4290 </r>
       <r>     0.1518    52.2255   346.5085 </r>
       <r>     0.3065    55.9862   355.1698 </r>
       <r>     0.4612    56.5435   363.9173 </r>
       <r>     0.6159    58.7591   373.0075 </r>
       <r>     0.7706    54.6305   381.4591 </r>
       <r>     0.9253    53.7020   389.7670 </r>
       <r>     1.0800    57.1339   398.6058 </r>
       <r>     1.2347    62.0979   408.2126 </r>
       <r>     1.3894    62.7936   417.9270 </r>
       <r>     1.5441    73.9184   429.3625 </r>
       <r>     1.6988    68.2312   439.9181 </r>
       <r>     1.8535    56.5137   448.6610 </r>
       <r>     2.0082    41.2472   455.0421 </r>
       <r>     2.1629    30.5892   459.7744 </r>
       <r>     2.3176    28.8514   464.2378 </r>
       <r>     2.4723     5.3887   465.0714 </r>
       <r>     2.6270     6.1589   466.0242 </r>
       <r>     2.7817     6.2563   466.9921 </r>
       <r>     2.9365     0.0512   467.0000 </r>
       <r>     3.0912     0.0000   467.0000 </r>
       <r>     3.2459     0.0000   467.0000 </r>
       <r>     3.4006     0.0000   467.0000 </r>
       <r>     3.5553     0.0000   467.0000 </r>
       <r>     3.7100     0.0000   467.0000 </r>
       <r>     3.8647     0.0000   467.0000 </r>
       <r>     4.0194     0.0000   467.0000 </r>
       <r>     4.1741     0.0023   467.0003 </r>
       <r>     4.3288     9.6283   468.4899 </r>
       <r>     4.4835    45.7008   475.5600 </r>
       <r>     4.6382    51.0271   483.4541 </r>
       <r>     4.7929    53.4725   491.7265 </r>
       <r>     4.9476    61.4633   501.2351 </r>
       <r>     5.1023    67.4388   511.6681 </r>
       <r>     5.2570    75.7807   523.3917 </r>
       <r>     5.4117    79.6086   535.7074 </r>
       <r>     5.5664    85.0275   548.8615 </r>
       <r>     5.7211    68.7776   559.5017 </r>
       <r>     5.8758    57.8502   568.4513 </r>
       <r>     6.0305    49.6855   576.1379 </r>
       <r>     6.1852    61.6121   585.6695 </r>
       <r>     6.3399    44.7718   592.5959 </r>
       <r>     6.4946    23.9048   596.2940 </r>
       <r>     6.6493    24.7907   600.1293 </r>
       <r>     6.8040    21.0476   603.3854 </r>
       <r>     6.9588    30.1281   608.0463 </r>
       <r>     7.1135    19.1077   611.0024 </r>
       <r>     7.2682    18.8105   613.9124 </r>
       <r>     7.4229    17.0825   616.5551 </r>
       <r>     7.5776    13.9461   618.7127 </r>
       <r>     7.7323     9.6362   620.2034 </r>
       <r>     7.8870    15.7544   622.6407 </r>
       <r>     8.0417    21.1683   625.9155 </r>
       <r>     8.1964    20.0875   629.0231 </r>
       <r>     8.3511    25.3061   632.9381 </r>
       <r>     8.5058    24.0461   636.6581 </r>
       <r>     8.6605    23.8738   640.3515 </r>
       <r>     8.8152    31.5137   645.2268 </r>
       <r>     8.9699    30.8706   650.0026 </r>
       <r>     9.1246    35.2833   655.4610 </r>
       <r>     9.2793    38.4169   661.4043 </r>
       <r>     9.4340    41.8722   667.8820 </r>
       <r>     9.5887    46.9268   675.1418 </r>
       <r>     9.7434    49.9632   682.8713 </r>
       <r>     9.8981    53.7977   691.1940 </r>
       <r>    10.0528    53.4336   699.4604 </r>
       <r>    10.2075    52.0143   707.5072 </r>
       <r>    10.3622    50.1022   715.2582 </r>
       <r>    10.5169    51.6087   723.2423 </r>
       <r>    10.6716    56.3055   731.9529 </r>
       <r>    10.8263    53.4168   740.2167 </r>
       <r>    10.9811    52.7407   748.3759 </r>
       <r>    11.1358    55.7226   756.9964 </r>
       <r>    11.2905    51.2412   764.9236 </r>
       <r>    11.4452    19.8740   767.9982 </r>
       <r>    11.5999     0.0117   768.0000 </r>
       <r>    11.7546     0.0000   768.0000 </r>
       <r>    11.9093     0.0000   768.0000 </r>
       <r>    12.0640     0.0000   768.0000 </r>
       <r>    12.2187     0.0000   768.0000 </r>
       <r>    12.3734     0.0000   768.0000 </r>
       <r>    12.5281     0.0000   768.0000 </r>
       <r>    12.6828     0.0000   768.0000 </r>
       <r>    12.8375     0.0000   768.0000 </r>
       <r>    12.9922     0.0000   768.0000 </r>
       <r>    13.1469     0.0000   768.0000 </r>
       <r>    13.3016     0.0000   768.0000 </r>
       <r>    13.4563     0.0000   768.0000 </r>
      </set>
     </set>
    </array>
   </total>
  </dos>
 </calculation>
 <structure name="finalpos" >
  <crystal>
   <varray name="basis" >
    <v>      11.19657167       0.04598302       0.00186388 </v>
    <v>       0.04596568      11.20196970      -0.02404314 </v>
    <v>       0.00257659      -0.03441467      15.86534387 </v>
   </varray>
   <i name="volume">   1989.84658361 </i>
   <varray name="rec_basis" >
    <v>       0.08931456      -0.00036652      -0.00001530 </v>
    <v>      -0.00036666       0.08927194       0.00019371 </v>
    <v>      -0.00001105       0.00013533       0.06303076 </v>
   </varray>
  </crystal>
  <varray name="positions" >
   <v>       0.99147906       0.24962220       0.12648134 </v>
   <v>       0.99344033       0.24683819       0.63220271 </v>
   <v>       0.98811071       0.74280006       0.13048892 </v>
   <v>      -0.00020976       0.75102025       0.62037480 </v>
   <v>       0.50364246       0.25564802       0.13688158 </v>
   <v>       0.50490903       0.25569912       0.61942787 </v>
   <v>       0.51525761       0.74392112       0.12723976 </v>
   <v>       0.49512780       0.74973491       0.61650798 </v>
   <v>       0.99822814       0.24625022       0.37060090 </v>
   <v>       0.98062393       0.25679800       0.87729302 </v>
   <v>       0.98973503       0.74235919       0.38134392 </v>
   <v>       0.99914525       0.74477149       0.87263717 </v>
   <v>       0.49923232       0.26739797       0.37147483 </v>
   <v>       0.49995401       0.24600410       0.87590995 </v>
   <v>       0.50818637       0.73964298       0.37952371 </v>
   <v>       0.49089023       0.74883400       0.87039562 </v>
   <v>       0.24129489       0.00893445       0.12314938 </v>
   <v>       0.24464760       0.98338524       0.62335498 </v>
   <v>       0.24115005       0.49720188       0.13188678 </v>
   <v>       0.24634702       0.50589578       0.61436978 </v>
   <v>       0.75462245       0.00798585       0.12610123 </v>
   <v>       0.75529367       0.99740336       0.62053243 </v>
   <v>       0.75597326       0.48983368       0.13461393 </v>
   <v>       0.74215929       0.51411486       0.62408360 </v>
   <v>       0.23834722       0.99282836       0.37840201 </v>
   <v>       0.24441485       0.98527359       0.87803376 </v>
   <v>       0.25141527       0.49719895       0.37944277 </v>
   <v>       0.22733399       0.48810811       0.86620826 </v>
   <v>       0.76467646       0.98642812       0.37462914 </v>
   <v>       0.75478029       0.01858428       0.87017865 </v>
   <v>       0.74290305       0.50569704       0.36853847 </v>
   <v>       0.75793455       0.50224138       0.87722087 </v>
   <v>       0.99813388       0.99460114       0.99481617 </v>
   <v>       0.99883325       0.50006330       0.00016587 </v>
   <v>       0.48596806       0.51511509       0.99742896 </v>
   <v>       0.24795869       0.24937282       0.00747432 </v>
   <v>       0.73424868       0.23978752       0.49769310 </v>
   <v>       0.25012705       0.25011500       0.25586673 </v>
   <v>       0.99941819       0.99646907       0.24853588 </v>
   <v>       0.50967705       0.00955802       0.25677766 </v>
   <v>       0.00488630      -0.00021907       0.50307107 </v>
   <v>       0.00283911       0.50735561       0.50174326 </v>
   <v>       0.48205979       0.00782828       0.01293895 </v>
   <v>       0.50426459       0.98617764       0.49523770 </v>
   <v>       0.49945779       0.50184800       0.49813180 </v>
   <v>       0.23711303       0.25429003       0.50017145 </v>
   <v>       0.24893772       0.74305824       0.98311950 </v>
   <v>       0.25263756       0.74983530       0.50090128 </v>
   <v>       0.75283726       0.23926820       0.00060551 </v>
   <v>       0.75655550       0.74689801       0.00805565 </v>
   <v>       0.74977014       0.74888175       0.49867284 </v>
   <v>       0.27635806       0.24678419       0.73488060 </v>
   <v>       0.23787064       0.73468822       0.26249615 </v>
   <v>       0.23813756       0.75267222       0.74651922 </v>
   <v>       0.75217339       0.25348622       0.25167528 </v>
   <v>       0.75194336       0.24615812       0.74987995 </v>
   <v>       0.74857073       0.74828325       0.25053540 </v>
   <v>       0.73689476       0.75891137       0.74337334 </v>
   <v>       0.98600032       0.98862467       0.75181263 </v>
   <v>       0.99419144       0.49409195       0.25350408 </v>
   <v>       0.98017819       0.50964269       0.74827647 </v>
   <v>       0.49664899       0.99896333       0.74030670 </v>
   <v>       0.50090430       0.50234556       0.25000832 </v>
   <v>       0.50311606       0.49953616       0.75423563 </v>
   <v>       0.12171281       0.12751147       0.24393512 </v>
   <v>       0.12928669       0.30297180       0.76604000 </v>
   <v>       0.11606517       0.62347190       0.25621501 </v>
   <v>       0.12975016       0.60328629       0.74051646 </v>
   <v>       0.62453015       0.12624505       0.25550116 </v>
   <v>       0.61041466       0.14119703       0.75495290 </v>
   <v>       0.61905919       0.62665246       0.24603505 </v>
   <v>       0.61160247       0.62842401       0.75659194 </v>
   <v>       0.37420836       0.37656491       0.24445602 </v>
   <v>       0.38153703       0.86176159       0.75199565 </v>
   <v>       0.87980030       0.36511566       0.24223953 </v>
   <v>       0.85084775       0.38832829       0.75217812 </v>
   <v>       0.88731424       0.86619675       0.25394039 </v>
   <v>       0.86069046       0.87895960       0.76054690 </v>
   <v>       0.36985582       0.11866079       0.23903166 </v>
   <v>       0.36000566       0.11083766       0.77679226 </v>
   <v>       0.36871437       0.64517280       0.21986893 </v>
   <v>       0.87216225       0.11532763       0.24383994 </v>
   <v>       0.87852819       0.13411374       0.75486316 </v>
   <v>       0.86889933       0.61772308       0.23960742 </v>
   <v>       0.86216085       0.63879949       0.76270370 </v>
   <v>       0.12924208       0.37395660       0.26162577 </v>
   <v>       0.38233970       0.37786462       0.75586032 </v>
   <v>       0.15652290       0.87778710       0.23224513 </v>
   <v>       0.12244980       0.87465499       0.75530404 </v>
   <v>       0.62369463       0.37475234       0.25706296 </v>
   <v>       0.61466999       0.87466926       0.27157872 </v>
   <v>       0.61972420       0.88418796       0.78765055 </v>
   <v>       0.37506681       0.37446699       0.98784466 </v>
   <v>       0.37799981       0.36621666       0.50329194 </v>
   <v>       0.37809616       0.86847383       0.98645304 </v>
   <v>       0.36844023       0.88568995       0.50946787 </v>
   <v>       0.86338980       0.38217137       0.00098278 </v>
   <v>       0.86193376       0.88189237       0.97575650 </v>
   <v>       0.87609656       0.87751894       0.50519650 </v>
   <v>       0.12846086       0.12112558       0.00373007 </v>
   <v>       0.14238591       0.11102048       0.49712301 </v>
   <v>       0.13317791       0.61882456       0.00719816 </v>
   <v>       0.12971398       0.61718286       0.49495264 </v>
   <v>       0.62082615       0.11016946       0.99338421 </v>
   <v>       0.60385812       0.13668010       0.49209340 </v>
   <v>       0.61895001       0.63842900       0.98660012 </v>
   <v>       0.61955498       0.63010784       0.50203449 </v>
   <v>       0.12523930       0.36372910       0.98040713 </v>
   <v>       0.10656663       0.36278047       0.50468115 </v>
   <v>       0.12408958       0.86440268       0.99450908 </v>
   <v>       0.12125529       0.86342646       0.50442152 </v>
   <v>       0.63867092       0.38723387       0.49643168 </v>
   <v>       0.63047071       0.87983361       0.48657251 </v>
   <v>       0.36252837       0.13179094       0.96980858 </v>
   <v>       0.37154768       0.62835338       0.02301264 </v>
   <v>       0.37571658       0.62348039       0.50781433 </v>
   <v>       0.87893110       0.12691982       0.99860563 </v>
   <v>       0.87681866       0.13632972       0.50666743 </v>
   <v>       0.88471386       0.62738690       0.99142480 </v>
   <v>       0.87142410       0.61978935       0.51211394 </v>
   <v>       0.99409749       0.98580363       0.11926320 </v>
   <v>       0.01032419       0.01130822       0.63270373 </v>
   <v>       0.01132567       0.48718972       0.12195747 </v>
   <v>       0.98450961       0.48398732       0.62419745 </v>
   <v>       0.48948841       0.96763363       0.13667134 </v>
   <v>       0.50499975       0.00935265       0.62224700 </v>
   <v>       0.53154605       0.47336342       0.10680644 </v>
   <v>       0.50379542       0.49650515       0.63809354 </v>
   <v>       0.00476104       0.99672439       0.37192869 </v>
   <v>       0.01752957       0.01928611       0.87155747 </v>
   <v>       0.97261594       0.48600618       0.38407948 </v>
   <v>       0.00228539       0.49760922       0.87069222 </v>
   <v>       0.46331768       0.00942205       0.37590521 </v>
   <v>       0.48271169       0.50858277       0.37303629 </v>
   <v>       0.51307017       0.48844172       0.87333880 </v>
   <v>       0.26591973       0.23845291       0.37732011 </v>
   <v>       0.27379406       0.75714297       0.37553175 </v>
   <v>       0.26599453       0.71026176       0.86501354 </v>
   <v>       0.76746909       0.25750996       0.37992454 </v>
   <v>       0.72418326       0.27431683       0.87941072 </v>
   <v>       0.76248604       0.73782737       0.37657115 </v>
   <v>       0.25099957       0.25638776       0.12344912 </v>
   <v>       0.27679693       0.21460390       0.61907265 </v>
   <v>       0.25668329       0.73569700       0.62886089 </v>
   <v>       0.72955770       0.25317891       0.11976254 </v>
   <v>       0.74102048       0.26323678       0.62375774 </v>
   <v>       0.73745253       0.78218986       0.12814903 </v>
   <v>       0.72979382       0.76640760       0.62649767 </v>
  </varray>
 </structure>
</modeling>
