       N       E                     dE             d eps       ncg     rms          rms(c)
DAV:   1    -0.112106370334E+04   -0.11211E+04   -0.75427E-02  6464   0.629E-01    0.300E-02
RMM:   2    -0.112106370336E+04   -0.19412E-07   -0.27794E-05  3390   0.951E-03    0.504E-02
RMM:   3    -0.112106370366E+04   -0.30591E-06   -0.85116E-06  3200   0.588E-03    0.623E-03
RMM:   4    -0.112106370416E+04   -0.49590E-06   -0.31287E-06  1946   0.266E-03    0.394E-03
RMM:   5    -0.112106370460E+04   -0.44102E-06   -0.20155E-06  1943   0.287E-03    0.630E-03
RMM:   6    -0.112106370467E+04   -0.75815E-07   -0.12150E-06  1529   0.220E-03    0.841E-04
RMM:   7    -0.112106370471E+04   -0.31927E-07   -0.59096E-07  1136   0.211E-03    0.856E-04
RMM:   8    -0.112106370474E+04   -0.31505E-07   -0.24650E-07   892   0.190E-03
   1 F= -.11210637E+04 E0= -.11210637E+04  d E =-.112106E+04  mag=    40.0000
       N       E                     dE             d eps       ncg     rms          rms(c)
DAV:   1    -0.112106394666E+04   -0.24195E-03   -0.28482E-01  6240   0.626E-01    0.226E-01
RMM:   2    -0.112106447630E+04   -0.52964E-03   -0.85878E-03  6148   0.123E-01    0.194E-01
RMM:   3    -0.112106441692E+04    0.59380E-04   -0.40888E-04  4968   0.397E-02    0.112E-01
RMM:   4    -0.112106437269E+04    0.44223E-04   -0.15184E-04  3663   0.163E-02    0.771E-02
RMM:   5    -0.112106436818E+04    0.45188E-05   -0.45378E-05  3530   0.101E-02    0.467E-02
RMM:   6    -0.112106437021E+04   -0.20344E-05   -0.16509E-05  3429   0.628E-03    0.182E-02
RMM:   7    -0.112106437278E+04   -0.25707E-05   -0.72230E-06  3087   0.395E-03    0.107E-02
RMM:   8    -0.112106437503E+04   -0.22507E-05   -0.42361E-06  2751   0.336E-03
   2 F= -.11210644E+04 E0= -.11210644E+04  d E =-.670293E-03  mag=    40.0000
