<?xml version="1.0" encoding="ISO-8859-1"?>
<modeling>
 <generator>
  <i name="program" type="string">vasp </i>
  <i name="version" type="string">5.4.1  </i>
  <i name="subversion" type="string">05Feb16 (build Jan 25 2017 20:16:33) complex                          parallel </i>
  <i name="platform" type="string">BWXE6 </i>
  <i name="date" type="string">2019 08 06 </i>
  <i name="time" type="string">12:15:11 </i>
 </generator>
 <incar>
  <i type="string" name="SYSTEM"> STF</i>
  <i type="string" name="PREC">normal</i>
  <i type="string" name="ALGO"> Fast</i>
  <i type="int" name="ISPIN">     2</i>
  <i type="int" name="NELM">    40</i>
  <i type="int" name="NELMIN">     8</i>
  <i type="int" name="IBRION">     2</i>
  <i name="EDIFF">      0.00010000</i>
  <i name="EDIFFG">     -0.03000000</i>
  <i type="int" name="NSW">    30</i>
  <i type="int" name="ISIF">     3</i>
  <i name="ENCUT">    520.00000000</i>
  <i type="int" name="NBANDS">   768</i>
  <v name="MAGMOM">      0.60000000      0.60000000      0.60000000      0.60000000      0.60000000      0.60000000      0.60000000      0.60000000      0.60000000      0.60000000      0.60000000      0.60000000      0.60000000      0.60000000      0.60000000      0.60000000      0.60000000      0.60000000      0.60000000      0.60000000
      0.60000000      0.60000000      0.60000000      0.60000000      0.60000000      0.60000000      0.60000000      0.60000000      0.60000000      0.60000000      0.60000000      0.60000000      0.60000000      0.60000000      0.60000000      0.60000000      0.60000000      0.60000000      0.60000000      0.60000000
      0.60000000      0.60000000      0.60000000      0.60000000      0.60000000      0.60000000      0.60000000      0.60000000      0.60000000      0.60000000      0.60000000      0.60000000      0.60000000      0.60000000      0.60000000      0.60000000      5.00000000      5.00000000      5.00000000      5.00000000
      5.00000000      5.00000000      5.00000000      5.00000000      0.60000000      0.60000000      0.60000000      0.60000000      0.60000000      0.60000000      0.60000000      0.60000000      0.60000000      0.60000000      0.60000000      0.60000000      0.60000000      0.60000000      0.60000000      0.60000000
      0.60000000      0.60000000      0.60000000      0.60000000      0.60000000      0.60000000      0.60000000      0.60000000      0.60000000      0.60000000      0.60000000      0.60000000      0.60000000      0.60000000      0.60000000      0.60000000      0.60000000      0.60000000      0.60000000      0.60000000
      0.60000000      0.60000000      0.60000000      0.60000000      0.60000000      0.60000000      0.60000000      0.60000000      0.60000000      0.60000000      0.60000000      0.60000000      0.60000000      0.60000000      0.60000000      0.60000000      0.60000000      0.60000000      0.60000000      0.60000000
      0.60000000      0.60000000      0.60000000      0.60000000      0.60000000      0.60000000      0.60000000      0.60000000      0.60000000      0.60000000      0.60000000      0.60000000      0.60000000      0.60000000      0.60000000      0.60000000      0.60000000      0.60000000      0.60000000      0.60000000
      0.60000000      0.60000000      0.60000000      0.60000000      0.60000000      0.60000000      0.60000000      0.60000000      0.60000000      0.60000000      0.60000000      0.60000000      0.60000000      0.60000000      0.60000000      0.60000000</v>
  <i type="string" name="LREAL"> Auto</i>
  <i type="int" name="ISMEAR">     0</i>
  <i name="SIGMA">      0.05000000</i>
  <i type="int" name="LMAXMIX">     4</i>
  <v type="int" name="KPOINT_BSE">    -1     0     0     0</v>
  <i type="int" name="NELM">    40</i>
  <i type="logical" name="LDAU"> T  </i>
  <v type="int" name="LDAUTYPE">     2</v>
  <v type="int" name="LDAUL">     0     2     2     0</v>
  <v name="LDAUU">      0.00000000      3.00000000      5.00000000      0.00000000</v>
  <v name="LDAUJ">      0.00000000      0.00000000      0.00000000      0.00000000</v>
  <i type="int" name="LDAUPRINT">     1</i>
 </incar>
 <kpoints>
  <generation param="Monkhorst-Pack">
   <v type="int" name="divisions">       2        2        2 </v>
   <v name="usershift">      0.00000000       0.00000000       0.00000000 </v>
   <v name="genvec1">      0.50000000       0.00000000       0.00000000 </v>
   <v name="genvec2">      0.00000000       0.50000000       0.00000000 </v>
   <v name="genvec3">      0.00000000       0.00000000       0.50000000 </v>
   <v name="shift">      0.50000000       0.50000000       0.50000000 </v>
  </generation>
  <varray name="kpointlist" >
   <v>       0.25000000       0.25000000       0.25000000 </v>
   <v>      -0.25000000       0.25000000       0.25000000 </v>
  </varray>
  <varray name="weights" >
   <v>       0.50000000 </v>
   <v>       0.50000000 </v>
  </varray>
 </kpoints>
 <parameters>
  <separator name="general" >
   <i type="string" name="SYSTEM">STF</i>
   <i type="logical" name="LCOMPAT"> F  </i>
  </separator>
  <separator name="electronic" >
   <i type="string" name="PREC">normal</i>
   <i name="ENMAX">    520.00000000</i>
   <i name="ENAUG">    605.39200000</i>
   <i name="EDIFF">      0.00010000</i>
   <i type="int" name="IALGO">    68</i>
   <i type="int" name="IWAVPR">    11</i>
   <i type="int" name="NBANDS">   768</i>
   <i name="NELECT">   1032.00000000</i>
   <i type="int" name="TURBO">     0</i>
   <i type="int" name="IRESTART">     0</i>
   <i type="int" name="NREBOOT">     0</i>
   <i type="int" name="NMIN">     0</i>
   <i name="EREF">      0.00000000</i>
   <separator name="electronic smearing" >
    <i type="int" name="ISMEAR">     0</i>
    <i name="SIGMA">      0.05000000</i>
    <i name="KSPACING">      0.50000000</i>
    <i type="logical" name="KGAMMA"> T  </i>
   </separator>
   <separator name="electronic projectors" >
    <i type="logical" name="LREAL"> T  </i>
    <v name="ROPT">     -0.00050000     -0.00050000     -0.00050000     -0.00050000</v>
    <i type="int" name="LMAXPAW">  -100</i>
    <i type="int" name="LMAXMIX">     4</i>
    <i type="logical" name="NLSPLINE"> F  </i>
   </separator>
   <separator name="electronic startup" >
    <i type="int" name="ISTART">     1</i>
    <i type="int" name="ICHARG">     0</i>
    <i type="int" name="INIWAV">     1</i>
   </separator>
   <separator name="electronic spin" >
    <i type="int" name="ISPIN">     2</i>
    <i type="logical" name="LNONCOLLINEAR"> F  </i>
    <v name="MAGMOM">      0.60000000      0.60000000      0.60000000      0.60000000      0.60000000      0.60000000      0.60000000      0.60000000      0.60000000      0.60000000      0.60000000      0.60000000      0.60000000      0.60000000      0.60000000      0.60000000      0.60000000      0.60000000      0.60000000      0.60000000
      0.60000000      0.60000000      0.60000000      0.60000000      0.60000000      0.60000000      0.60000000      0.60000000      0.60000000      0.60000000      0.60000000      0.60000000      0.60000000      0.60000000      0.60000000      0.60000000      0.60000000      0.60000000      0.60000000      0.60000000
      0.60000000      0.60000000      0.60000000      0.60000000      0.60000000      0.60000000      0.60000000      0.60000000      0.60000000      0.60000000      0.60000000      0.60000000      0.60000000      0.60000000      0.60000000      0.60000000      5.00000000      5.00000000      5.00000000      5.00000000
      5.00000000      5.00000000      5.00000000      5.00000000      0.60000000      0.60000000      0.60000000      0.60000000      0.60000000      0.60000000      0.60000000      0.60000000      0.60000000      0.60000000      0.60000000      0.60000000      0.60000000      0.60000000      0.60000000      0.60000000
      0.60000000      0.60000000      0.60000000      0.60000000      0.60000000      0.60000000      0.60000000      0.60000000      0.60000000      0.60000000      0.60000000      0.60000000      0.60000000      0.60000000      0.60000000      0.60000000      0.60000000      0.60000000      0.60000000      0.60000000
      0.60000000      0.60000000      0.60000000      0.60000000      0.60000000      0.60000000      0.60000000      0.60000000      0.60000000      0.60000000      0.60000000      0.60000000      0.60000000      0.60000000      0.60000000      0.60000000      0.60000000      0.60000000      0.60000000      0.60000000
      0.60000000      0.60000000      0.60000000      0.60000000      0.60000000      0.60000000      0.60000000      0.60000000      0.60000000      0.60000000      0.60000000      0.60000000      0.60000000      0.60000000      0.60000000      0.60000000      0.60000000      0.60000000      0.60000000      0.60000000
      0.60000000      0.60000000      0.60000000      0.60000000      0.60000000      0.60000000      0.60000000      0.60000000      0.60000000      0.60000000      0.60000000      0.60000000      0.60000000      0.60000000      0.60000000      0.60000000</v>
    <i name="NUPDOWN">     -1.00000000</i>
    <i type="logical" name="LSORBIT"> F  </i>
    <v name="SAXIS">      0.00000000      0.00000000      1.00000000</v>
    <i type="logical" name="LSPIRAL"> F  </i>
    <v name="QSPIRAL">      0.00000000      0.00000000      0.00000000</v>
    <i type="logical" name="LZEROZ"> F  </i>
   </separator>
   <separator name="electronic exchange-correlation" >
    <i type="logical" name="LASPH"> F  </i>
    <i type="logical" name="LMETAGGA"> F  </i>
   </separator>
   <separator name="electronic convergence" >
    <i type="int" name="NELM">    40</i>
    <i type="int" name="NELMDL">     0</i>
    <i type="int" name="NELMIN">     8</i>
    <i name="ENINI">    520.00000000</i>
    <separator name="electronic convergence detail" >
     <i type="logical" name="LDIAG"> T  </i>
     <i type="logical" name="LSUBROT"> F  </i>
     <i name="WEIMIN">      0.00100000</i>
     <i name="EBREAK">      0.00000003</i>
     <i name="DEPER">      0.30000000</i>
     <i type="int" name="NRMM">     4</i>
     <i name="TIME">      0.40000000</i>
    </separator>
   </separator>
   <separator name="electronic mixer" >
    <i name="AMIX">      0.40000000</i>
    <i name="BMIX">      1.00000000</i>
    <i name="AMIN">      0.10000000</i>
    <i name="AMIX_MAG">      1.60000000</i>
    <i name="BMIX_MAG">      1.00000000</i>
    <separator name="electronic mixer details" >
     <i type="int" name="IMIX">     4</i>
     <i type="logical" name="MIXFIRST"> F  </i>
     <i type="int" name="MAXMIX">   -45</i>
     <i name="WC">    100.00000000</i>
     <i type="int" name="INIMIX">     1</i>
     <i type="int" name="MIXPRE">     1</i>
     <i type="int" name="MREMOVE">     5</i>
    </separator>
   </separator>
   <separator name="electronic dipolcorrection" >
    <i type="logical" name="LDIPOL"> F  </i>
    <i type="logical" name="LMONO"> F  </i>
    <i type="int" name="IDIPOL">     0</i>
    <i name="EPSILON">      1.00000000</i>
    <v name="DIPOL">   -100.00000000   -100.00000000   -100.00000000</v>
    <i name="EFIELD">      0.00000000</i>
   </separator>
  </separator>
  <separator name="grids" >
   <i type="int" name="NGX">    64</i>
   <i type="int" name="NGY">    64</i>
   <i type="int" name="NGZ">    90</i>
   <i type="int" name="NGXF">   128</i>
   <i type="int" name="NGYF">   128</i>
   <i type="int" name="NGZF">   180</i>
   <i type="logical" name="ADDGRID"> F  </i>
  </separator>
  <separator name="ionic" >
   <i type="int" name="NSW">    30</i>
   <i type="int" name="IBRION">     2</i>
   <i type="int" name="ISIF">     3</i>
   <i name="PSTRESS">      0.00000000</i>
   <i name="EDIFFG">     -0.03000000</i>
   <i type="int" name="NFREE">     1</i>
   <i name="POTIM">      0.50000000</i>
   <i name="SMASS">     -3.00000000</i>
   <i name="SCALEE">      1.00000000</i>
  </separator>
  <separator name="ionic md" >
   <i name="TEBEG">      0.00010000</i>
   <i name="TEEND">      0.00010000</i>
   <i type="int" name="NBLOCK">     1</i>
   <i type="int" name="KBLOCK">    30</i>
   <i type="int" name="NPACO">   256</i>
   <i name="APACO">     16.00000000</i>
  </separator>
  <separator name="symmetry" >
   <i type="int" name="ISYM">     2</i>
   <i name="SYMPREC">      0.00001000</i>
  </separator>
  <separator name="dos" >
   <i type="logical" name="LORBIT"> F  </i>
   <v name="RWIGS">     -1.00000000     -1.00000000     -1.00000000     -1.00000000</v>
   <i type="int" name="NEDOS">   301</i>
   <i name="EMIN">     10.00000000</i>
   <i name="EMAX">    -10.00000000</i>
   <i name="EFERMI">      0.00000000</i>
  </separator>
  <separator name="writing" >
   <i type="int" name="NWRITE">     2</i>
   <i type="logical" name="LWAVE"> T  </i>
   <i type="logical" name="LCHARG"> T  </i>
   <i type="logical" name="LPARD"> F  </i>
   <i type="logical" name="LVTOT"> F  </i>
   <i type="logical" name="LVHAR"> F  </i>
   <i type="logical" name="LELF"> F  </i>
   <i type="logical" name="LOPTICS"> F  </i>
   <v name="STM">      0.00000000      0.00000000      0.00000000      0.00000000      0.00000000      0.00000000      0.00000000</v>
  </separator>
  <separator name="performance" >
   <i type="int" name="NPAR">     2</i>
   <i type="int" name="NSIM">     4</i>
   <i type="int" name="NBLK">    -1</i>
   <i type="logical" name="LPLANE"> T  </i>
   <i type="logical" name="LSCALAPACK"> T  </i>
   <i type="logical" name="LSCAAWARE"> F  </i>
   <i type="logical" name="LSCALU"> F  </i>
   <i type="logical" name="LASYNC"> F  </i>
   <i type="logical" name="LORBITALREAL"> F  </i>
  </separator>
  <separator name="miscellaneous" >
   <i type="int" name="IDIOT">     3</i>
   <i type="logical" name="LMUSIC"> F  </i>
   <v name="POMASS">     87.62000000     47.88000000     55.84700000     16.00000000</v>
   <v name="DARWINR">      0.00000000      0.00000000      0.00000000      0.00000000</v>
   <v name="DARWINV">      1.00000000      1.00000000      1.00000000      1.00000000</v>
   <i type="logical" name="LCORR"> T  </i>
  </separator>
  <i type="logical" name="GGA_COMPAT"> T  </i>
  <i type="logical" name="LBERRY"> F  </i>
  <i type="int" name="ICORELEVEL">     0</i>
  <i type="logical" name="LDAU"> T  </i>
  <v type="int" name="LDAUTYPE">     2</v>
  <v type="int" name="LDAUL">     0</v>
  <v name="LDAUU">      0.00000000</v>
  <v name="LDAUJ">      0.00000000</v>
  <i type="int" name="LDAUPRINT">     1</i>
  <i type="int" name="I_CONSTRAINED_M">     0</i>
  <separator name="electronic exchange-correlation" >
   <i type="string" name="GGA">--</i>
   <i type="int" name="VOSKOWN">     0</i>
   <i type="logical" name="LHFCALC"> F  </i>
   <i type="string" name="PRECFOCK"></i>
   <i type="logical" name="LSYMGRAD"> F  </i>
   <i type="logical" name="LHFONE"> F  </i>
   <i type="logical" name="LRHFCALC"> F  </i>
   <i type="logical" name="LTHOMAS"> F  </i>
   <i type="logical" name="LMODELHF"> F  </i>
   <i name="ENCUT4O">     -1.00000000</i>
   <i type="int" name="EXXOEP">     0</i>
   <i type="int" name="FOURORBIT">     0</i>
   <i name="AEXX">      0.00000000</i>
   <i name="HFALPHA">      0.00000000</i>
   <i name="MCALPHA">      0.00000000</i>
   <i name="ALDAX">      1.00000000</i>
   <i name="AGGAX">      1.00000000</i>
   <i name="ALDAC">      1.00000000</i>
   <i name="AGGAC">      1.00000000</i>
   <i type="int" name="NKREDX">     1</i>
   <i type="int" name="NKREDY">     1</i>
   <i type="int" name="NKREDZ">     1</i>
   <i type="logical" name="SHIFTRED"> F  </i>
   <i type="logical" name="ODDONLY"> F  </i>
   <i type="logical" name="EVENONLY"> F  </i>
   <i type="int" name="LMAXFOCK">     0</i>
   <i type="int" name="NMAXFOCKAE">     0</i>
   <i type="logical" name="LFOCKAEDFT"> F  </i>
   <i name="HFSCREEN">      0.00000000</i>
   <i name="HFSCREENC">      0.00000000</i>
   <i type="int" name="NBANDSGWLOW">     0</i>
  </separator>
  <separator name="vdW DFT" >
   <i type="logical" name="LUSE_VDW"> F  </i>
   <i name="Zab_VDW">     -0.84910000</i>
   <i name="PARAM1">      0.12340000</i>
   <i name="PARAM2">      1.00000000</i>
   <i name="PARAM3">      0.00000000</i>
  </separator>
  <separator name="model GW" >
   <i type="int" name="MODEL_GW">     0</i>
   <i name="MODEL_EPS0">      7.70956423</i>
   <i name="MODEL_ALPHA">      1.00000000</i>
  </separator>
  <separator name="linear response parameters" >
   <i type="logical" name="LEPSILON"> F  </i>
   <i type="logical" name="LRPA"> F  </i>
   <i type="logical" name="LNABLA"> F  </i>
   <i type="logical" name="LVEL"> F  </i>
   <i type="int" name="KINTER">     0</i>
   <i name="CSHIFT">      0.10000000</i>
   <i name="OMEGAMAX">     -1.00000000</i>
   <i name="DEG_THRESHOLD">      0.00200000</i>
  </separator>
  <separator name="orbital magnetization" >
   <i type="logical" name="NUCIND"> F  </i>
   <v name="MAGPOS">      0.00000000      0.00000000      0.00000000</v>
   <i type="logical" name="LNICSALL"> T  </i>
   <i type="logical" name="ORBITALMAG"> F  </i>
   <i type="logical" name="LMAGBLOCH"> F  </i>
   <i type="logical" name="LCHIMAG"> F  </i>
   <i type="logical" name="LGAUGE"> T  </i>
   <i type="int" name="MAGATOM">     0</i>
   <v name="MAGDIPOL">      0.00000000      0.00000000      0.00000000</v>
   <v name="AVECCONST">      0.00000000      0.00000000      0.00000000</v>
  </separator>
  <separator name="response functions" >
   <i type="logical" name="LADDER"> F  </i>
   <i type="logical" name="LFXC"> F  </i>
   <i type="logical" name="LHARTREE"> T  </i>
   <i type="int" name="IBSE">     0</i>
   <v type="int" name="KPOINT">    -1     0     0     0</v>
   <i type="logical" name="LTCTE"> F  </i>
   <i type="logical" name="LTETE"> F  </i>
   <i type="logical" name="LTRIPLET"> F  </i>
   <i type="logical" name="LFXCEPS"> F  </i>
   <i type="logical" name="LFXHEG"> F  </i>
   <i type="int" name="NATURALO">     0</i>
   <i type="logical" name="L2ORDER"> F  </i>
   <i type="logical" name="LUSEW"> F  </i>
   <i name="ENCUTGW">     -2.00000000</i>
   <i name="ENCUTGWSOFT">     -2.00000000</i>
   <i name="ENCUTLF">     -1.00000000</i>
   <i type="int" name="LMAXMP2">    -1</i>
   <i name="SCISSOR">      0.00000000</i>
   <i type="int" name="NOMEGA">     0</i>
   <i type="int" name="NOMEGAR">     0</i>
   <i type="int" name="NBANDSGW">    -1</i>
   <i type="int" name="NBANDSO">    -1</i>
   <i type="int" name="NBANDSV">    -1</i>
   <i type="int" name="NELM">    40</i>
   <i type="int" name="NELMHF">     1</i>
   <i type="int" name="DIM">     3</i>
   <i type="int" name="ANTIRES">     0</i>
   <i name="OMEGAMAX">    -30.00000000</i>
   <i name="OMEGAMIN">    -30.00000000</i>
   <i name="OMEGATL">   -200.00000000</i>
   <i type="int" name="OMEGAGRID">     0</i>
   <i name="CSHIFT">     -0.10000000</i>
   <i type="logical" name="SELFENERGY"> F  </i>
   <i type="logical" name="LSPECTRAL"> F  </i>
   <i type="logical" name="LSPECTRALGW"> F  </i>
   <i type="logical" name="LSINGLES"> F  </i>
   <i type="logical" name="LFERMIGW"> F  </i>
   <i type="logical" name="ODDONLYGW"> F  </i>
   <i type="logical" name="EVENONLYGW"> F  </i>
   <i type="int" name="NKREDLFX">     1</i>
   <i type="int" name="NKREDLFY">     1</i>
   <i type="int" name="NKREDLFZ">     1</i>
   <i type="int" name="MAXMEM">  1800</i>
   <i type="int" name="TELESCOPE">     0</i>
   <i type="int" name="TAUPAR">     1</i>
   <i type="int" name="OMEGAPAR">    -1</i>
   <i name="LAMBDA">      1.00000000</i>
  </separator>
  <separator name="External order field" >
   <i name="OFIELD_KAPPA">      0.00000000</i>
   <v name="OFIELD_K">      0.00000000      0.00000000      0.00000000</v>
   <i name="OFIELD_Q6_NEAR">      0.00000000</i>
   <i name="OFIELD_Q6_FAR">      0.00000000</i>
   <i name="OFIELD_A">      0.00000000</i>
  </separator>
 </parameters>
 <atominfo>
  <atoms>     156 </atoms>
  <types>       4 </types>
  <array name="atoms" >
   <dimension dim="1">ion</dimension>
   <field type="string">element</field>
   <field type="int">atomtype</field>
   <set>
    <rc><c>Sr</c><c>   1</c></rc>
    <rc><c>Sr</c><c>   1</c></rc>
    <rc><c>Sr</c><c>   1</c></rc>
    <rc><c>Sr</c><c>   1</c></rc>
    <rc><c>Sr</c><c>   1</c></rc>
    <rc><c>Sr</c><c>   1</c></rc>
    <rc><c>Sr</c><c>   1</c></rc>
    <rc><c>Sr</c><c>   1</c></rc>
    <rc><c>Sr</c><c>   1</c></rc>
    <rc><c>Sr</c><c>   1</c></rc>
    <rc><c>Sr</c><c>   1</c></rc>
    <rc><c>Sr</c><c>   1</c></rc>
    <rc><c>Sr</c><c>   1</c></rc>
    <rc><c>Sr</c><c>   1</c></rc>
    <rc><c>Sr</c><c>   1</c></rc>
    <rc><c>Sr</c><c>   1</c></rc>
    <rc><c>Sr</c><c>   1</c></rc>
    <rc><c>Sr</c><c>   1</c></rc>
    <rc><c>Sr</c><c>   1</c></rc>
    <rc><c>Sr</c><c>   1</c></rc>
    <rc><c>Sr</c><c>   1</c></rc>
    <rc><c>Sr</c><c>   1</c></rc>
    <rc><c>Sr</c><c>   1</c></rc>
    <rc><c>Sr</c><c>   1</c></rc>
    <rc><c>Sr</c><c>   1</c></rc>
    <rc><c>Sr</c><c>   1</c></rc>
    <rc><c>Sr</c><c>   1</c></rc>
    <rc><c>Sr</c><c>   1</c></rc>
    <rc><c>Sr</c><c>   1</c></rc>
    <rc><c>Sr</c><c>   1</c></rc>
    <rc><c>Sr</c><c>   1</c></rc>
    <rc><c>Sr</c><c>   1</c></rc>
    <rc><c>Ti</c><c>   2</c></rc>
    <rc><c>Ti</c><c>   2</c></rc>
    <rc><c>Ti</c><c>   2</c></rc>
    <rc><c>Ti</c><c>   2</c></rc>
    <rc><c>Ti</c><c>   2</c></rc>
    <rc><c>Ti</c><c>   2</c></rc>
    <rc><c>Ti</c><c>   2</c></rc>
    <rc><c>Ti</c><c>   2</c></rc>
    <rc><c>Ti</c><c>   2</c></rc>
    <rc><c>Ti</c><c>   2</c></rc>
    <rc><c>Ti</c><c>   2</c></rc>
    <rc><c>Ti</c><c>   2</c></rc>
    <rc><c>Ti</c><c>   2</c></rc>
    <rc><c>Ti</c><c>   2</c></rc>
    <rc><c>Ti</c><c>   2</c></rc>
    <rc><c>Ti</c><c>   2</c></rc>
    <rc><c>Ti</c><c>   2</c></rc>
    <rc><c>Ti</c><c>   2</c></rc>
    <rc><c>Ti</c><c>   2</c></rc>
    <rc><c>Ti</c><c>   2</c></rc>
    <rc><c>Ti</c><c>   2</c></rc>
    <rc><c>Ti</c><c>   2</c></rc>
    <rc><c>Ti</c><c>   2</c></rc>
    <rc><c>Ti</c><c>   2</c></rc>
    <rc><c>Fe</c><c>   3</c></rc>
    <rc><c>Fe</c><c>   3</c></rc>
    <rc><c>Fe</c><c>   3</c></rc>
    <rc><c>Fe</c><c>   3</c></rc>
    <rc><c>Fe</c><c>   3</c></rc>
    <rc><c>Fe</c><c>   3</c></rc>
    <rc><c>Fe</c><c>   3</c></rc>
    <rc><c>Fe</c><c>   3</c></rc>
    <rc><c>O </c><c>   4</c></rc>
    <rc><c>O </c><c>   4</c></rc>
    <rc><c>O </c><c>   4</c></rc>
    <rc><c>O </c><c>   4</c></rc>
    <rc><c>O </c><c>   4</c></rc>
    <rc><c>O </c><c>   4</c></rc>
    <rc><c>O </c><c>   4</c></rc>
    <rc><c>O </c><c>   4</c></rc>
    <rc><c>O </c><c>   4</c></rc>
    <rc><c>O </c><c>   4</c></rc>
    <rc><c>O </c><c>   4</c></rc>
    <rc><c>O </c><c>   4</c></rc>
    <rc><c>O </c><c>   4</c></rc>
    <rc><c>O </c><c>   4</c></rc>
    <rc><c>O </c><c>   4</c></rc>
    <rc><c>O </c><c>   4</c></rc>
    <rc><c>O </c><c>   4</c></rc>
    <rc><c>O </c><c>   4</c></rc>
    <rc><c>O </c><c>   4</c></rc>
    <rc><c>O </c><c>   4</c></rc>
    <rc><c>O </c><c>   4</c></rc>
    <rc><c>O </c><c>   4</c></rc>
    <rc><c>O </c><c>   4</c></rc>
    <rc><c>O </c><c>   4</c></rc>
    <rc><c>O </c><c>   4</c></rc>
    <rc><c>O </c><c>   4</c></rc>
    <rc><c>O </c><c>   4</c></rc>
    <rc><c>O </c><c>   4</c></rc>
    <rc><c>O </c><c>   4</c></rc>
    <rc><c>O </c><c>   4</c></rc>
    <rc><c>O </c><c>   4</c></rc>
    <rc><c>O </c><c>   4</c></rc>
    <rc><c>O </c><c>   4</c></rc>
    <rc><c>O </c><c>   4</c></rc>
    <rc><c>O </c><c>   4</c></rc>
    <rc><c>O </c><c>   4</c></rc>
    <rc><c>O </c><c>   4</c></rc>
    <rc><c>O </c><c>   4</c></rc>
    <rc><c>O </c><c>   4</c></rc>
    <rc><c>O </c><c>   4</c></rc>
    <rc><c>O </c><c>   4</c></rc>
    <rc><c>O </c><c>   4</c></rc>
    <rc><c>O </c><c>   4</c></rc>
    <rc><c>O </c><c>   4</c></rc>
    <rc><c>O </c><c>   4</c></rc>
    <rc><c>O </c><c>   4</c></rc>
    <rc><c>O </c><c>   4</c></rc>
    <rc><c>O </c><c>   4</c></rc>
    <rc><c>O </c><c>   4</c></rc>
    <rc><c>O </c><c>   4</c></rc>
    <rc><c>O </c><c>   4</c></rc>
    <rc><c>O </c><c>   4</c></rc>
    <rc><c>O </c><c>   4</c></rc>
    <rc><c>O </c><c>   4</c></rc>
    <rc><c>O </c><c>   4</c></rc>
    <rc><c>O </c><c>   4</c></rc>
    <rc><c>O </c><c>   4</c></rc>
    <rc><c>O </c><c>   4</c></rc>
    <rc><c>O </c><c>   4</c></rc>
    <rc><c>O </c><c>   4</c></rc>
    <rc><c>O </c><c>   4</c></rc>
    <rc><c>O </c><c>   4</c></rc>
    <rc><c>O </c><c>   4</c></rc>
    <rc><c>O </c><c>   4</c></rc>
    <rc><c>O </c><c>   4</c></rc>
    <rc><c>O </c><c>   4</c></rc>
    <rc><c>O </c><c>   4</c></rc>
    <rc><c>O </c><c>   4</c></rc>
    <rc><c>O </c><c>   4</c></rc>
    <rc><c>O </c><c>   4</c></rc>
    <rc><c>O </c><c>   4</c></rc>
    <rc><c>O </c><c>   4</c></rc>
    <rc><c>O </c><c>   4</c></rc>
    <rc><c>O </c><c>   4</c></rc>
    <rc><c>O </c><c>   4</c></rc>
    <rc><c>O </c><c>   4</c></rc>
    <rc><c>O </c><c>   4</c></rc>
    <rc><c>O </c><c>   4</c></rc>
    <rc><c>O </c><c>   4</c></rc>
    <rc><c>O </c><c>   4</c></rc>
    <rc><c>O </c><c>   4</c></rc>
    <rc><c>O </c><c>   4</c></rc>
    <rc><c>O </c><c>   4</c></rc>
    <rc><c>O </c><c>   4</c></rc>
    <rc><c>O </c><c>   4</c></rc>
    <rc><c>O </c><c>   4</c></rc>
    <rc><c>O </c><c>   4</c></rc>
    <rc><c>O </c><c>   4</c></rc>
    <rc><c>O </c><c>   4</c></rc>
    <rc><c>O </c><c>   4</c></rc>
    <rc><c>O </c><c>   4</c></rc>
    <rc><c>O </c><c>   4</c></rc>
   </set>
  </array>
  <array name="atomtypes" >
   <dimension dim="1">type</dimension>
   <field type="int">atomspertype</field>
   <field type="string">element</field>
   <field>mass</field>
   <field>valence</field>
   <field type="string">pseudopotential</field>
   <set>
    <rc><c>  32</c><c>Sr</c><c>     87.62000000</c><c>     10.00000000</c><c>  PAW_PBE Sr_sv 07Sep2000               </c></rc>
    <rc><c>  24</c><c>Ti</c><c>     47.88000000</c><c>      4.00000000</c><c>  PAW_PBE Ti 08Apr2002                  </c></rc>
    <rc><c>   8</c><c>Fe</c><c>     55.84700000</c><c>      8.00000000</c><c>  PAW_PBE Fe 06Sep2000                  </c></rc>
    <rc><c>  92</c><c>O </c><c>     16.00000000</c><c>      6.00000000</c><c>  PAW_PBE O 08Apr2002                   </c></rc>
   </set>
  </array>
 </atominfo>
 <structure name="initialpos" >
  <crystal>
   <varray name="basis" >
    <v>      11.23244820      -0.00129825       0.00000000 </v>
    <v>      -0.00127577      11.23352908       0.00000000 </v>
    <v>       0.00000000       0.00000000      15.88592639 </v>
   </varray>
   <i name="volume">   2004.48669878 </i>
   <varray name="rec_basis" >
    <v>       0.08902779       0.00001011       0.00000000 </v>
    <v>       0.00001029       0.08901922       0.00000000 </v>
    <v>       0.00000000       0.00000000       0.06294880 </v>
   </varray>
  </crystal>
  <varray name="positions" >
   <v>       0.99379677       0.25016817       0.12161863 </v>
   <v>       0.99379677       0.25016817       0.62161863 </v>
   <v>       0.99928871       0.74899750       0.12295212 </v>
   <v>       0.99928871       0.74899750       0.62295212 </v>
   <v>       0.50402163       0.25231194       0.12202076 </v>
   <v>       0.50402163       0.25231194       0.62202076 </v>
   <v>       0.49879665       0.74753342       0.12353035 </v>
   <v>       0.49879665       0.74753342       0.62353035 </v>
   <v>       0.99379677       0.25016817       0.37838137 </v>
   <v>       0.99379677       0.25016817       0.87838137 </v>
   <v>       0.99928871       0.74899750       0.37704788 </v>
   <v>       0.99928871       0.74899750       0.87704788 </v>
   <v>       0.50402163       0.25231194       0.37797924 </v>
   <v>       0.50402163       0.25231194       0.87797924 </v>
   <v>       0.49879665       0.74753342       0.37646965 </v>
   <v>       0.49879665       0.74753342       0.87646965 </v>
   <v>       0.24884528       0.99109580       0.11901693 </v>
   <v>       0.24884528       0.99109580       0.61901693 </v>
   <v>       0.25262341       0.50804040       0.12237041 </v>
   <v>       0.25262341       0.50804040       0.62237041 </v>
   <v>       0.75287125       0.00201322       0.12387716 </v>
   <v>       0.75287125       0.00201322       0.62387716 </v>
   <v>       0.74634063       0.49974306       0.12327649 </v>
   <v>       0.74634063       0.49974306       0.62327649 </v>
   <v>       0.24884528       0.99109580       0.38098307 </v>
   <v>       0.24884528       0.99109580       0.88098307 </v>
   <v>       0.25262341       0.50804040       0.37762959 </v>
   <v>       0.25262341       0.50804040       0.87762959 </v>
   <v>       0.75287125       0.00201322       0.37612284 </v>
   <v>       0.75287125       0.00201322       0.87612284 </v>
   <v>       0.74634063       0.49974306       0.37672351 </v>
   <v>       0.74634063       0.49974306       0.87672351 </v>
   <v>       0.75045510       0.74757260       0.25000000 </v>
   <v>       0.75045510       0.74757260       0.75000000 </v>
   <v>       0.25094511       0.74805784       0.00000000 </v>
   <v>       0.50001898       0.00094320       0.00000000 </v>
   <v>       0.50001898       0.00094320       0.50000000 </v>
   <v>       0.25094511       0.74805784       0.50000000 </v>
   <v>       0.74986817       0.24936000       0.75000000 </v>
   <v>       0.24935492       0.24438056       0.00000000 </v>
   <v>       0.99769979       0.50223077       0.25000000 </v>
   <v>       0.74794959       0.25142422       0.00000000 </v>
   <v>       0.74801639       0.74811911       0.50000000 </v>
   <v>       0.99967953       0.49982748       0.00000000 </v>
   <v>       0.74794959       0.25142422       0.50000000 </v>
   <v>       0.99967953       0.49982748       0.50000000 </v>
   <v>       0.24964285       0.75525947       0.75000000 </v>
   <v>       0.74986817       0.24936000       0.25000000 </v>
   <v>       0.24964285       0.75525947       0.25000000 </v>
   <v>       0.99962324       0.00062417       0.00000000 </v>
   <v>       0.99962324       0.00062417       0.50000000 </v>
   <v>       0.99769979       0.50223077       0.75000000 </v>
   <v>       0.74801639       0.74811911       0.00000000 </v>
   <v>       0.24935492       0.24438056       0.50000000 </v>
   <v>       0.50175377       0.50171044       0.25000000 </v>
   <v>       0.50175377       0.50171044       0.75000000 </v>
   <v>       0.49914516       0.49951550       0.50000000 </v>
   <v>       0.51544231       0.99034559       0.75000000 </v>
   <v>       0.25385055       0.27670754       0.25000000 </v>
   <v>       0.25385055       0.27670754       0.75000000 </v>
   <v>       0.99115460       0.98569958       0.25000000 </v>
   <v>       0.49914516       0.49951550       0.00000000 </v>
   <v>       0.99115460       0.98569958       0.75000000 </v>
   <v>       0.51544231       0.99034559       0.25000000 </v>
   <v>       0.00507998       0.00815370       0.12647423 </v>
   <v>       0.00507998       0.00815370       0.62647423 </v>
   <v>       0.00099681       0.50044207       0.12448254 </v>
   <v>       0.00099681       0.50044207       0.62448254 </v>
   <v>       0.49140939       0.00896001       0.12672398 </v>
   <v>       0.49140939       0.00896001       0.62672398 </v>
   <v>       0.49765476       0.50059306       0.12601358 </v>
   <v>       0.49765476       0.50059306       0.62601358 </v>
   <v>       0.00507998       0.00815370       0.37352577 </v>
   <v>       0.00507998       0.00815370       0.87352577 </v>
   <v>       0.00099681       0.50044207       0.37551746 </v>
   <v>       0.00099681       0.50044207       0.87551746 </v>
   <v>       0.49140939       0.00896001       0.37327602 </v>
   <v>       0.49140939       0.00896001       0.87327602 </v>
   <v>       0.49765476       0.50059306       0.37398642 </v>
   <v>       0.49765476       0.50059306       0.87398642 </v>
   <v>       0.24397836       0.22106361       0.36319315 </v>
   <v>       0.24397836       0.22106361       0.86319315 </v>
   <v>       0.24794163       0.75009184       0.37508444 </v>
   <v>       0.24794163       0.75009184       0.87508444 </v>
   <v>       0.75088748       0.25054525       0.37523079 </v>
   <v>       0.75088748       0.25054525       0.87523079 </v>
   <v>       0.75059217       0.75009190       0.37537287 </v>
   <v>       0.75059217       0.75009190       0.87537287 </v>
   <v>       0.24397836       0.22106361       0.13680685 </v>
   <v>       0.24397836       0.22106361       0.63680685 </v>
   <v>       0.24794163       0.75009184       0.12491556 </v>
   <v>       0.24794163       0.75009184       0.62491556 </v>
   <v>       0.75088748       0.25054525       0.12476921 </v>
   <v>       0.75088748       0.25054525       0.62476921 </v>
   <v>       0.75059217       0.75009190       0.12462713 </v>
   <v>       0.75059217       0.75009190       0.62462713 </v>
   <v>       0.60741854       0.14420208       0.25000000 </v>
   <v>       0.86816306       0.11512689       0.25000000 </v>
   <v>       0.14037563       0.39589779       0.25000000 </v>
   <v>       0.40004115       0.35338876       0.25000000 </v>
   <v>       0.64454872       0.39391717       0.25000000 </v>
   <v>       0.89342101       0.35955300       0.25000000 </v>
   <v>       0.10618739       0.64616852       0.25000000 </v>
   <v>       0.35808896       0.61199349       0.25000000 </v>
   <v>       0.60778142       0.64378632       0.25000000 </v>
   <v>       0.85615079       0.60556994       0.25000000 </v>
   <v>       0.14742464       0.90368350       0.25000000 </v>
   <v>       0.38844928       0.86601847       0.25000000 </v>
   <v>       0.65024053       0.89189473       0.25000000 </v>
   <v>       0.89368599       0.85003444       0.25000000 </v>
   <v>       0.13941499       0.10925430       0.50000000 </v>
   <v>       0.38729594       0.13893921       0.50000000 </v>
   <v>       0.63931102       0.11100831       0.50000000 </v>
   <v>       0.88848727       0.13944718       0.50000000 </v>
   <v>       0.11187331       0.35634212       0.50000000 </v>
   <v>       0.35523673       0.38082830       0.50000000 </v>
   <v>       0.61298288       0.36073958       0.50000000 </v>
   <v>       0.86299572       0.38778521       0.50000000 </v>
   <v>       0.13795647       0.61050751       0.50000000 </v>
   <v>       0.38402176       0.63731295       0.50000000 </v>
   <v>       0.63821663       0.61439835       0.50000000 </v>
   <v>       0.88913424       0.63844126       0.50000000 </v>
   <v>       0.11205434       0.86196210       0.50000000 </v>
   <v>       0.36273378       0.88625173       0.50000000 </v>
   <v>       0.61075048       0.86412009       0.50000000 </v>
   <v>       0.86270745       0.88995875       0.50000000 </v>
   <v>       0.60741854       0.14420208       0.75000000 </v>
   <v>       0.86816306       0.11512689       0.75000000 </v>
   <v>       0.14037563       0.39589779       0.75000000 </v>
   <v>       0.40004115       0.35338876       0.75000000 </v>
   <v>       0.64454872       0.39391717       0.75000000 </v>
   <v>       0.89342101       0.35955300       0.75000000 </v>
   <v>       0.10618739       0.64616852       0.75000000 </v>
   <v>       0.35808896       0.61199349       0.75000000 </v>
   <v>       0.60778142       0.64378632       0.75000000 </v>
   <v>       0.85615079       0.60556994       0.75000000 </v>
   <v>       0.14742464       0.90368350       0.75000000 </v>
   <v>       0.38844928       0.86601847       0.75000000 </v>
   <v>       0.65024053       0.89189473       0.75000000 </v>
   <v>       0.89368599       0.85003444       0.75000000 </v>
   <v>       0.13941499       0.10925430       0.00000000 </v>
   <v>       0.38729594       0.13893921       0.00000000 </v>
   <v>       0.63931102       0.11100831       0.00000000 </v>
   <v>       0.88848727       0.13944718       0.00000000 </v>
   <v>       0.11187331       0.35634212       0.00000000 </v>
   <v>       0.35523673       0.38082830       0.00000000 </v>
   <v>       0.61298288       0.36073958       0.00000000 </v>
   <v>       0.86299572       0.38778521       0.00000000 </v>
   <v>       0.13795647       0.61050751       0.00000000 </v>
   <v>       0.38402176       0.63731295       0.00000000 </v>
   <v>       0.63821663       0.61439835       0.00000000 </v>
   <v>       0.88913424       0.63844126       0.00000000 </v>
   <v>       0.11205434       0.86196210       0.00000000 </v>
   <v>       0.36273378       0.88625173       0.00000000 </v>
   <v>       0.61075048       0.86412009       0.00000000 </v>
   <v>       0.86270745       0.88995875       0.00000000 </v>
  </varray>
 </structure>
 <calculation>
  <scstep>
   <time name="dav">  147.01  147.02</time>
   <time name="total">  149.46  149.56</time>
   <energy>
    <i name="alphaZ">   5630.04800417 </i>
    <i name="ewald"> -61568.94973803 </i>
    <i name="hartreedc"> -15967.95748677 </i>
    <i name="XCdc">   2963.55155857 </i>
    <i name="pawpsdc"> 112666.26773808 </i>
    <i name="pawaedc">-111566.60665209 </i>
    <i name="eentropy">     -0.00000000 </i>
    <i name="bandstr">  -7060.86492396 </i>
    <i name="atom">  73783.44779670 </i>
    <i name="e_fr_energy">  -1121.06370334 </i>
    <i name="e_wo_entrp">  -1121.06370334 </i>
    <i name="e_0_energy">  -1121.06370334 </i>
   </energy>
  </scstep>
  <scstep>
   <time name="diag">   16.57   16.57</time>
   <time name="diis">   15.46   15.48</time>
   <time name="orth">    9.39    9.39</time>
   <time name="total">   43.91   44.00</time>
   <energy>
    <i name="e_fr_energy">  -1121.06370336 </i>
    <i name="e_wo_entrp">  -1121.06370336 </i>
    <i name="e_0_energy">  -1121.06370336 </i>
   </energy>
  </scstep>
  <scstep>
   <time name="diag">   16.56   16.57</time>
   <time name="diis">   15.06   15.06</time>
   <time name="orth">    9.43    9.43</time>
   <time name="total">   43.54   43.60</time>
   <energy>
    <i name="e_fr_energy">  -1121.06370366 </i>
    <i name="e_wo_entrp">  -1121.06370366 </i>
    <i name="e_0_energy">  -1121.06370366 </i>
   </energy>
  </scstep>
  <scstep>
   <time name="diag">   16.59   16.60</time>
   <time name="diis">   13.18   13.19</time>
   <time name="orth">    9.43    9.43</time>
   <time name="total">   41.67   41.75</time>
   <energy>
    <i name="e_fr_energy">  -1121.06370416 </i>
    <i name="e_wo_entrp">  -1121.06370416 </i>
    <i name="e_0_energy">  -1121.06370416 </i>
   </energy>
  </scstep>
  <scstep>
   <time name="diag">   16.59   16.59</time>
   <time name="diis">   13.12   13.13</time>
   <time name="orth">    9.39    9.39</time>
   <time name="total">   41.59   41.66</time>
   <energy>
    <i name="e_fr_energy">  -1121.06370460 </i>
    <i name="e_wo_entrp">  -1121.06370460 </i>
    <i name="e_0_energy">  -1121.06370460 </i>
   </energy>
  </scstep>
  <scstep>
   <time name="diag">   16.60   16.61</time>
   <time name="diis">   12.45   12.46</time>
   <time name="orth">    9.40    9.41</time>
   <time name="total">   40.92   41.05</time>
   <energy>
    <i name="e_fr_energy">  -1121.06370467 </i>
    <i name="e_wo_entrp">  -1121.06370467 </i>
    <i name="e_0_energy">  -1121.06370467 </i>
   </energy>
  </scstep>
  <scstep>
   <time name="diag">   16.59   16.61</time>
   <time name="diis">   11.74   11.74</time>
   <time name="orth">    9.41    9.41</time>
   <time name="total">   40.22   40.30</time>
   <energy>
    <i name="e_fr_energy">  -1121.06370471 </i>
    <i name="e_wo_entrp">  -1121.06370471 </i>
    <i name="e_0_energy">  -1121.06370471 </i>
   </energy>
  </scstep>
  <scstep>
   <time name="diag">   16.59   16.60</time>
   <time name="diis">   11.29   11.30</time>
   <time name="orth">    9.41    9.42</time>
   <time name="total">   37.87   37.96</time>
   <energy>
    <i name="alphaZ">   5630.04800417 </i>
    <i name="ewald"> -61568.94973803 </i>
    <i name="hartreedc"> -15967.96058431 </i>
    <i name="XCdc">   2963.55045144 </i>
    <i name="pawpsdc"> 112663.77269739 </i>
    <i name="pawaedc">-111564.11199412 </i>
    <i name="eentropy">     -0.00000000 </i>
    <i name="bandstr">  -7060.86033798 </i>
    <i name="atom">  73783.44779670 </i>
    <i name="e_fr_energy">  -1121.06370474 </i>
    <i name="e_wo_entrp">  -1121.06370474 </i>
    <i name="e_0_energy">  -1121.06370474 </i>
   </energy>
  </scstep>
  <structure>
   <crystal>
    <varray name="basis" >
     <v>      11.23244820      -0.00129825       0.00000000 </v>
     <v>      -0.00127577      11.23352908       0.00000000 </v>
     <v>       0.00000000       0.00000000      15.88592639 </v>
    </varray>
    <i name="volume">   2004.48669878 </i>
    <varray name="rec_basis" >
     <v>       0.08902779       0.00001011       0.00000000 </v>
     <v>       0.00001029       0.08901922       0.00000000 </v>
     <v>       0.00000000       0.00000000       0.06294880 </v>
    </varray>
   </crystal>
   <varray name="positions" >
    <v>       0.99379677       0.25016817       0.12161863 </v>
    <v>       0.99379677       0.25016817       0.62161863 </v>
    <v>       0.99928871       0.74899750       0.12295212 </v>
    <v>       0.99928871       0.74899750       0.62295212 </v>
    <v>       0.50402163       0.25231194       0.12202076 </v>
    <v>       0.50402163       0.25231194       0.62202076 </v>
    <v>       0.49879665       0.74753342       0.12353035 </v>
    <v>       0.49879665       0.74753342       0.62353035 </v>
    <v>       0.99379677       0.25016817       0.37838137 </v>
    <v>       0.99379677       0.25016817       0.87838137 </v>
    <v>       0.99928871       0.74899750       0.37704788 </v>
    <v>       0.99928871       0.74899750       0.87704788 </v>
    <v>       0.50402163       0.25231194       0.37797924 </v>
    <v>       0.50402163       0.25231194       0.87797924 </v>
    <v>       0.49879665       0.74753342       0.37646965 </v>
    <v>       0.49879665       0.74753342       0.87646965 </v>
    <v>       0.24884528       0.99109580       0.11901693 </v>
    <v>       0.24884528       0.99109580       0.61901693 </v>
    <v>       0.25262341       0.50804040       0.12237041 </v>
    <v>       0.25262341       0.50804040       0.62237041 </v>
    <v>       0.75287125       0.00201322       0.12387716 </v>
    <v>       0.75287125       0.00201322       0.62387716 </v>
    <v>       0.74634063       0.49974306       0.12327649 </v>
    <v>       0.74634063       0.49974306       0.62327649 </v>
    <v>       0.24884528       0.99109580       0.38098307 </v>
    <v>       0.24884528       0.99109580       0.88098307 </v>
    <v>       0.25262341       0.50804040       0.37762959 </v>
    <v>       0.25262341       0.50804040       0.87762959 </v>
    <v>       0.75287125       0.00201322       0.37612284 </v>
    <v>       0.75287125       0.00201322       0.87612284 </v>
    <v>       0.74634063       0.49974306       0.37672351 </v>
    <v>       0.74634063       0.49974306       0.87672351 </v>
    <v>       0.75045510       0.74757260       0.25000000 </v>
    <v>       0.75045510       0.74757260       0.75000000 </v>
    <v>       0.25094511       0.74805784       0.00000000 </v>
    <v>       0.50001898       0.00094320       0.00000000 </v>
    <v>       0.50001898       0.00094320       0.50000000 </v>
    <v>       0.25094511       0.74805784       0.50000000 </v>
    <v>       0.74986817       0.24936000       0.75000000 </v>
    <v>       0.24935492       0.24438056       0.00000000 </v>
    <v>       0.99769979       0.50223077       0.25000000 </v>
    <v>       0.74794959       0.25142422       0.00000000 </v>
    <v>       0.74801639       0.74811911       0.50000000 </v>
    <v>       0.99967953       0.49982748       0.00000000 </v>
    <v>       0.74794959       0.25142422       0.50000000 </v>
    <v>       0.99967953       0.49982748       0.50000000 </v>
    <v>       0.24964285       0.75525947       0.75000000 </v>
    <v>       0.74986817       0.24936000       0.25000000 </v>
    <v>       0.24964285       0.75525947       0.25000000 </v>
    <v>       0.99962324       0.00062417       0.00000000 </v>
    <v>       0.99962324       0.00062417       0.50000000 </v>
    <v>       0.99769979       0.50223077       0.75000000 </v>
    <v>       0.74801639       0.74811911       0.00000000 </v>
    <v>       0.24935492       0.24438056       0.50000000 </v>
    <v>       0.50175377       0.50171044       0.25000000 </v>
    <v>       0.50175377       0.50171044       0.75000000 </v>
    <v>       0.49914516       0.49951550       0.50000000 </v>
    <v>       0.51544231       0.99034559       0.75000000 </v>
    <v>       0.25385055       0.27670754       0.25000000 </v>
    <v>       0.25385055       0.27670754       0.75000000 </v>
    <v>       0.99115460       0.98569958       0.25000000 </v>
    <v>       0.49914516       0.49951550       0.00000000 </v>
    <v>       0.99115460       0.98569958       0.75000000 </v>
    <v>       0.51544231       0.99034559       0.25000000 </v>
    <v>       0.00507998       0.00815370       0.12647423 </v>
    <v>       0.00507998       0.00815370       0.62647423 </v>
    <v>       0.00099681       0.50044207       0.12448254 </v>
    <v>       0.00099681       0.50044207       0.62448254 </v>
    <v>       0.49140939       0.00896001       0.12672398 </v>
    <v>       0.49140939       0.00896001       0.62672398 </v>
    <v>       0.49765476       0.50059306       0.12601358 </v>
    <v>       0.49765476       0.50059306       0.62601358 </v>
    <v>       0.00507998       0.00815370       0.37352577 </v>
    <v>       0.00507998       0.00815370       0.87352577 </v>
    <v>       0.00099681       0.50044207       0.37551746 </v>
    <v>       0.00099681       0.50044207       0.87551746 </v>
    <v>       0.49140939       0.00896001       0.37327602 </v>
    <v>       0.49140939       0.00896001       0.87327602 </v>
    <v>       0.49765476       0.50059306       0.37398642 </v>
    <v>       0.49765476       0.50059306       0.87398642 </v>
    <v>       0.24397836       0.22106361       0.36319315 </v>
    <v>       0.24397836       0.22106361       0.86319315 </v>
    <v>       0.24794163       0.75009184       0.37508444 </v>
    <v>       0.24794163       0.75009184       0.87508444 </v>
    <v>       0.75088748       0.25054525       0.37523079 </v>
    <v>       0.75088748       0.25054525       0.87523079 </v>
    <v>       0.75059217       0.75009190       0.37537287 </v>
    <v>       0.75059217       0.75009190       0.87537287 </v>
    <v>       0.24397836       0.22106361       0.13680685 </v>
    <v>       0.24397836       0.22106361       0.63680685 </v>
    <v>       0.24794163       0.75009184       0.12491556 </v>
    <v>       0.24794163       0.75009184       0.62491556 </v>
    <v>       0.75088748       0.25054525       0.12476921 </v>
    <v>       0.75088748       0.25054525       0.62476921 </v>
    <v>       0.75059217       0.75009190       0.12462713 </v>
    <v>       0.75059217       0.75009190       0.62462713 </v>
    <v>       0.60741854       0.14420208       0.25000000 </v>
    <v>       0.86816306       0.11512689       0.25000000 </v>
    <v>       0.14037563       0.39589779       0.25000000 </v>
    <v>       0.40004115       0.35338876       0.25000000 </v>
    <v>       0.64454872       0.39391717       0.25000000 </v>
    <v>       0.89342101       0.35955300       0.25000000 </v>
    <v>       0.10618739       0.64616852       0.25000000 </v>
    <v>       0.35808896       0.61199349       0.25000000 </v>
    <v>       0.60778142       0.64378632       0.25000000 </v>
    <v>       0.85615079       0.60556994       0.25000000 </v>
    <v>       0.14742464       0.90368350       0.25000000 </v>
    <v>       0.38844928       0.86601847       0.25000000 </v>
    <v>       0.65024053       0.89189473       0.25000000 </v>
    <v>       0.89368599       0.85003444       0.25000000 </v>
    <v>       0.13941499       0.10925430       0.50000000 </v>
    <v>       0.38729594       0.13893921       0.50000000 </v>
    <v>       0.63931102       0.11100831       0.50000000 </v>
    <v>       0.88848727       0.13944718       0.50000000 </v>
    <v>       0.11187331       0.35634212       0.50000000 </v>
    <v>       0.35523673       0.38082830       0.50000000 </v>
    <v>       0.61298288       0.36073958       0.50000000 </v>
    <v>       0.86299572       0.38778521       0.50000000 </v>
    <v>       0.13795647       0.61050751       0.50000000 </v>
    <v>       0.38402176       0.63731295       0.50000000 </v>
    <v>       0.63821663       0.61439835       0.50000000 </v>
    <v>       0.88913424       0.63844126       0.50000000 </v>
    <v>       0.11205434       0.86196210       0.50000000 </v>
    <v>       0.36273378       0.88625173       0.50000000 </v>
    <v>       0.61075048       0.86412009       0.50000000 </v>
    <v>       0.86270745       0.88995875       0.50000000 </v>
    <v>       0.60741854       0.14420208       0.75000000 </v>
    <v>       0.86816306       0.11512689       0.75000000 </v>
    <v>       0.14037563       0.39589779       0.75000000 </v>
    <v>       0.40004115       0.35338876       0.75000000 </v>
    <v>       0.64454872       0.39391717       0.75000000 </v>
    <v>       0.89342101       0.35955300       0.75000000 </v>
    <v>       0.10618739       0.64616852       0.75000000 </v>
    <v>       0.35808896       0.61199349       0.75000000 </v>
    <v>       0.60778142       0.64378632       0.75000000 </v>
    <v>       0.85615079       0.60556994       0.75000000 </v>
    <v>       0.14742464       0.90368350       0.75000000 </v>
    <v>       0.38844928       0.86601847       0.75000000 </v>
    <v>       0.65024053       0.89189473       0.75000000 </v>
    <v>       0.89368599       0.85003444       0.75000000 </v>
    <v>       0.13941499       0.10925430       0.00000000 </v>
    <v>       0.38729594       0.13893921       0.00000000 </v>
    <v>       0.63931102       0.11100831       0.00000000 </v>
    <v>       0.88848727       0.13944718       0.00000000 </v>
    <v>       0.11187331       0.35634212       0.00000000 </v>
    <v>       0.35523673       0.38082830       0.00000000 </v>
    <v>       0.61298288       0.36073958       0.00000000 </v>
    <v>       0.86299572       0.38778521       0.00000000 </v>
    <v>       0.13795647       0.61050751       0.00000000 </v>
    <v>       0.38402176       0.63731295       0.00000000 </v>
    <v>       0.63821663       0.61439835       0.00000000 </v>
    <v>       0.88913424       0.63844126       0.00000000 </v>
    <v>       0.11205434       0.86196210       0.00000000 </v>
    <v>       0.36273378       0.88625173       0.00000000 </v>
    <v>       0.61075048       0.86412009       0.00000000 </v>
    <v>       0.86270745       0.88995875       0.00000000 </v>
   </varray>
  </structure>
  <varray name="forces" >
   <v>      -0.00661001       0.00586679      -0.00070844 </v>
   <v>      -0.00661001       0.00586679      -0.00070844 </v>
   <v>       0.00488353       0.00123112      -0.00930665 </v>
   <v>       0.00488353       0.00123112      -0.00930665 </v>
   <v>       0.00896715      -0.00212706      -0.00038374 </v>
   <v>       0.00896715      -0.00212706      -0.00038374 </v>
   <v>       0.00005082      -0.00367080      -0.00232331 </v>
   <v>       0.00005082      -0.00367080      -0.00232331 </v>
   <v>      -0.00661001       0.00586679       0.00070844 </v>
   <v>      -0.00661001       0.00586679       0.00070844 </v>
   <v>       0.00488353       0.00123112       0.00930665 </v>
   <v>       0.00488353       0.00123112       0.00930665 </v>
   <v>       0.00896715      -0.00212706       0.00038374 </v>
   <v>       0.00896715      -0.00212706       0.00038374 </v>
   <v>       0.00005082      -0.00367080       0.00232331 </v>
   <v>       0.00005082      -0.00367080       0.00232331 </v>
   <v>      -0.00133623       0.00228735      -0.01311627 </v>
   <v>      -0.00133623       0.00228735      -0.01311627 </v>
   <v>      -0.00078586       0.00850873      -0.00635611 </v>
   <v>      -0.00078586       0.00850873      -0.00635611 </v>
   <v>      -0.00113852      -0.00138463      -0.00185896 </v>
   <v>      -0.00113852      -0.00138463      -0.00185896 </v>
   <v>      -0.00271847       0.00021819      -0.00073342 </v>
   <v>      -0.00271847       0.00021819      -0.00073342 </v>
   <v>      -0.00133623       0.00228735       0.01311627 </v>
   <v>      -0.00133623       0.00228735       0.01311627 </v>
   <v>      -0.00078586       0.00850873       0.00635611 </v>
   <v>      -0.00078586       0.00850873       0.00635611 </v>
   <v>      -0.00113852      -0.00138463       0.00185896 </v>
   <v>      -0.00113852      -0.00138463       0.00185896 </v>
   <v>      -0.00271847       0.00021819       0.00073342 </v>
   <v>      -0.00271847       0.00021819       0.00073342 </v>
   <v>      -0.00663223      -0.00718252      -0.00000000 </v>
   <v>      -0.00663223      -0.00718252      -0.00000000 </v>
   <v>       0.00446665       0.00433603      -0.00000000 </v>
   <v>      -0.00197107      -0.01053478      -0.00000000 </v>
   <v>      -0.00197107      -0.01053478      -0.00000000 </v>
   <v>       0.00446665       0.00433603      -0.00000000 </v>
   <v>      -0.00828709      -0.00705179      -0.00000000 </v>
   <v>      -0.01566068       0.00899500      -0.00000000 </v>
   <v>      -0.01674872       0.00445230      -0.00000000 </v>
   <v>       0.00964507      -0.00450484      -0.00000000 </v>
   <v>       0.00853437       0.01181857      -0.00000000 </v>
   <v>      -0.01166218       0.01113118      -0.00000000 </v>
   <v>       0.00964507      -0.00450484      -0.00000000 </v>
   <v>      -0.01166218       0.01113118      -0.00000000 </v>
   <v>       0.00623247       0.00189967      -0.00000000 </v>
   <v>      -0.00828709      -0.00705179      -0.00000000 </v>
   <v>       0.00623247       0.00189967      -0.00000000 </v>
   <v>      -0.00510407      -0.01730900      -0.00000000 </v>
   <v>      -0.00510407      -0.01730900      -0.00000000 </v>
   <v>      -0.01674872       0.00445230      -0.00000000 </v>
   <v>       0.00853437       0.01181857      -0.00000000 </v>
   <v>      -0.01566068       0.00899500      -0.00000000 </v>
   <v>       0.00033853      -0.01177750      -0.00000000 </v>
   <v>       0.00033853      -0.01177750      -0.00000000 </v>
   <v>      -0.00509923       0.00117657      -0.00000000 </v>
   <v>       0.01049531      -0.01234063      -0.00000000 </v>
   <v>       0.01149475       0.00242417      -0.00000000 </v>
   <v>       0.01149475       0.00242417      -0.00000000 </v>
   <v>      -0.01002011      -0.00116075      -0.00000000 </v>
   <v>      -0.00509923       0.00117657      -0.00000000 </v>
   <v>      -0.01002011      -0.00116075      -0.00000000 </v>
   <v>       0.01049531      -0.01234063      -0.00000000 </v>
   <v>       0.00162636       0.01024031       0.00801581 </v>
   <v>       0.00162636       0.01024031       0.00801581 </v>
   <v>      -0.00053742       0.00687969       0.00310414 </v>
   <v>      -0.00053742       0.00687969       0.00310414 </v>
   <v>      -0.00667154       0.00761092      -0.00304945 </v>
   <v>      -0.00667154       0.00761092      -0.00304945 </v>
   <v>       0.00262463      -0.00725985      -0.00346671 </v>
   <v>       0.00262463      -0.00725985      -0.00346671 </v>
   <v>       0.00162636       0.01024031      -0.00801581 </v>
   <v>       0.00162636       0.01024031      -0.00801581 </v>
   <v>      -0.00053742       0.00687969      -0.00310414 </v>
   <v>      -0.00053742       0.00687969      -0.00310414 </v>
   <v>      -0.00667154       0.00761092       0.00304945 </v>
   <v>      -0.00667154       0.00761092       0.00304945 </v>
   <v>       0.00262463      -0.00725985       0.00346671 </v>
   <v>       0.00262463      -0.00725985       0.00346671 </v>
   <v>      -0.00370373       0.00109553      -0.01211483 </v>
   <v>      -0.00370373       0.00109553      -0.01211483 </v>
   <v>      -0.00669693      -0.00141656      -0.00945769 </v>
   <v>      -0.00669693      -0.00141656      -0.00945769 </v>
   <v>      -0.00108682      -0.01324805      -0.00747508 </v>
   <v>      -0.00108682      -0.01324805      -0.00747508 </v>
   <v>       0.00395267      -0.00591320      -0.03253445 </v>
   <v>       0.00395267      -0.00591320      -0.03253445 </v>
   <v>      -0.00370373       0.00109553       0.01211483 </v>
   <v>      -0.00370373       0.00109553       0.01211483 </v>
   <v>      -0.00669693      -0.00141656       0.00945769 </v>
   <v>      -0.00669693      -0.00141656       0.00945769 </v>
   <v>      -0.00108682      -0.01324805       0.00747508 </v>
   <v>      -0.00108682      -0.01324805       0.00747508 </v>
   <v>       0.00395267      -0.00591320       0.03253445 </v>
   <v>       0.00395267      -0.00591320       0.03253445 </v>
   <v>       0.00535002      -0.00374957      -0.00000000 </v>
   <v>       0.00501300      -0.00503924      -0.00000000 </v>
   <v>      -0.00440610       0.01423362      -0.00000000 </v>
   <v>       0.00844001      -0.01909712      -0.00000000 </v>
   <v>       0.00115476       0.00363702      -0.00000000 </v>
   <v>       0.01980709      -0.00634108      -0.00000000 </v>
   <v>      -0.00134803       0.01161158      -0.00000000 </v>
   <v>      -0.00430231      -0.01520511      -0.00000000 </v>
   <v>       0.00534079       0.00245231      -0.00000000 </v>
   <v>      -0.01770919       0.00783157      -0.00000000 </v>
   <v>       0.01297369       0.00694988      -0.00000000 </v>
   <v>      -0.00413960      -0.00368214      -0.00000000 </v>
   <v>       0.00574526      -0.00508944      -0.00000000 </v>
   <v>       0.00367195      -0.01200603      -0.00000000 </v>
   <v>       0.01162985       0.01459458      -0.00000000 </v>
   <v>       0.00349832      -0.00378518      -0.00000000 </v>
   <v>      -0.01411390       0.00167040      -0.00000000 </v>
   <v>      -0.00651574       0.01501041      -0.00000000 </v>
   <v>       0.01519950       0.00373932      -0.00000000 </v>
   <v>      -0.00109780      -0.01215467      -0.00000000 </v>
   <v>      -0.00561241       0.00187151      -0.00000000 </v>
   <v>       0.00692505      -0.00492013      -0.00000000 </v>
   <v>      -0.00443646      -0.00188065      -0.00000000 </v>
   <v>      -0.00985541       0.00233596      -0.00000000 </v>
   <v>       0.03055498       0.01370678      -0.00000000 </v>
   <v>       0.00087172      -0.00484446      -0.00000000 </v>
   <v>       0.01359162       0.00416339      -0.00000000 </v>
   <v>      -0.01670521       0.00526401      -0.00000000 </v>
   <v>      -0.00315570       0.00787227      -0.00000000 </v>
   <v>      -0.00803079      -0.01135848      -0.00000000 </v>
   <v>       0.00535002      -0.00374957      -0.00000000 </v>
   <v>       0.00501300      -0.00503924      -0.00000000 </v>
   <v>      -0.00440610       0.01423362      -0.00000000 </v>
   <v>       0.00844001      -0.01909712      -0.00000000 </v>
   <v>       0.00115476       0.00363702      -0.00000000 </v>
   <v>       0.01980709      -0.00634108      -0.00000000 </v>
   <v>      -0.00134803       0.01161158      -0.00000000 </v>
   <v>      -0.00430231      -0.01520511      -0.00000000 </v>
   <v>       0.00534079       0.00245231      -0.00000000 </v>
   <v>      -0.01770919       0.00783157      -0.00000000 </v>
   <v>       0.01297369       0.00694988      -0.00000000 </v>
   <v>      -0.00413960      -0.00368214      -0.00000000 </v>
   <v>       0.00574526      -0.00508944      -0.00000000 </v>
   <v>       0.00367195      -0.01200603      -0.00000000 </v>
   <v>       0.01162985       0.01459458      -0.00000000 </v>
   <v>       0.00349832      -0.00378518      -0.00000000 </v>
   <v>      -0.01411390       0.00167040      -0.00000000 </v>
   <v>      -0.00651574       0.01501041      -0.00000000 </v>
   <v>       0.01519950       0.00373932      -0.00000000 </v>
   <v>      -0.00109780      -0.01215467      -0.00000000 </v>
   <v>      -0.00561241       0.00187151      -0.00000000 </v>
   <v>       0.00692505      -0.00492013      -0.00000000 </v>
   <v>      -0.00443646      -0.00188065      -0.00000000 </v>
   <v>      -0.00985541       0.00233596      -0.00000000 </v>
   <v>       0.03055498       0.01370678      -0.00000000 </v>
   <v>       0.00087172      -0.00484446      -0.00000000 </v>
   <v>       0.01359162       0.00416339      -0.00000000 </v>
   <v>      -0.01670521       0.00526401      -0.00000000 </v>
   <v>      -0.00315570       0.00787227      -0.00000000 </v>
   <v>      -0.00803079      -0.01135848      -0.00000000 </v>
  </varray>
  <varray name="stress" >
   <v>      -0.24850814       0.01239686       0.00000000 </v>
   <v>       0.01239668      -0.24518778       0.00000000 </v>
   <v>       0.00000000       0.00000000      -0.00646743 </v>
  </varray>
  <energy>
   <i name="e_fr_energy">  -1121.06370474 </i>
   <i name="e_wo_entrp">  -1121.06370474 </i>
   <i name="e_0_energy">     -0.00000000 </i>
  </energy>
  <time name="totalsc">  531.27  533.35</time>
 </calculation>
 <calculation>
  <scstep>
   <time name="dav">  143.09  143.12</time>
   <time name="total">  145.53  145.61</time>
   <energy>
    <i name="alphaZ">   5631.13765086 </i>
    <i name="ewald"> -61572.83794591 </i>
    <i name="hartreedc"> -15969.04615385 </i>
    <i name="XCdc">   2963.80692735 </i>
    <i name="pawpsdc"> 112663.76815571 </i>
    <i name="pawaedc">-111564.10745077 </i>
    <i name="eentropy">     -0.00000000 </i>
    <i name="bandstr">  -7057.23292675 </i>
    <i name="atom">  73783.44779670 </i>
    <i name="e_fr_energy">  -1121.06394666 </i>
    <i name="e_wo_entrp">  -1121.06394666 </i>
    <i name="e_0_energy">  -1121.06394666 </i>
   </energy>
  </scstep>
  <scstep>
   <time name="diag">   16.57   16.58</time>
   <time name="diis">   25.85   25.85</time>
   <time name="orth">    9.42    9.42</time>
   <time name="total">   54.32   54.33</time>
   <energy>
    <i name="e_fr_energy">  -1121.06447630 </i>
    <i name="e_wo_entrp">  -1121.06447630 </i>
    <i name="e_0_energy">  -1121.06447630 </i>
   </energy>
  </scstep>
  <scstep>
   <time name="diag">   16.61   16.62</time>
   <time name="diis">   21.37   21.38</time>
   <time name="orth">    9.40    9.40</time>
   <time name="total">   49.86   49.91</time>
   <energy>
    <i name="e_fr_energy">  -1121.06441692 </i>
    <i name="e_wo_entrp">  -1121.06441692 </i>
    <i name="e_0_energy">  -1121.06441692 </i>
   </energy>
  </scstep>
  <scstep>
   <time name="diag">   16.60   16.61</time>
   <time name="diis">   16.25   16.25</time>
   <time name="orth">    9.44    9.44</time>
   <time name="total">   44.77   44.87</time>
   <energy>
    <i name="e_fr_energy">  -1121.06437269 </i>
    <i name="e_wo_entrp">  -1121.06437269 </i>
    <i name="e_0_energy">  -1121.06437269 </i>
   </energy>
  </scstep>
  <scstep>
   <time name="diag">   16.59   16.60</time>
   <time name="diis">   15.76   15.77</time>
   <time name="orth">    9.42    9.41</time>
   <time name="total">   44.25   44.35</time>
   <energy>
    <i name="e_fr_energy">  -1121.06436818 </i>
    <i name="e_wo_entrp">  -1121.06436818 </i>
    <i name="e_0_energy">  -1121.06436818 </i>
   </energy>
  </scstep>
  <scstep>
   <time name="diag">   16.60   16.61</time>
   <time name="diis">   15.53   15.55</time>
   <time name="orth">    9.43    9.43</time>
   <time name="total">   44.05   44.17</time>
   <energy>
    <i name="e_fr_energy">  -1121.06437021 </i>
    <i name="e_wo_entrp">  -1121.06437021 </i>
    <i name="e_0_energy">  -1121.06437021 </i>
   </energy>
  </scstep>
  <scstep>
   <time name="diag">   16.58   16.58</time>
   <time name="diis">   15.00   15.00</time>
   <time name="orth">    9.44    9.44</time>
   <time name="total">   43.49   43.50</time>
   <energy>
    <i name="e_fr_energy">  -1121.06437278 </i>
    <i name="e_wo_entrp">  -1121.06437278 </i>
    <i name="e_0_energy">  -1121.06437278 </i>
   </energy>
  </scstep>
  <scstep>
   <time name="diag">   16.56   16.57</time>
   <time name="diis">   14.43   14.44</time>
   <time name="orth">    9.42    9.43</time>
   <time name="total">   40.99   41.12</time>
   <energy>
    <i name="alphaZ">   5631.13765086 </i>
    <i name="ewald"> -61572.83794591 </i>
    <i name="hartreedc"> -15966.26847917 </i>
    <i name="XCdc">   2963.62297666 </i>
    <i name="pawpsdc"> 112711.11970854 </i>
    <i name="pawaedc">-111611.48263531 </i>
    <i name="eentropy">     -0.00000000 </i>
    <i name="bandstr">  -7059.80344740 </i>
    <i name="atom">  73783.44779670 </i>
    <i name="e_fr_energy">  -1121.06437503 </i>
    <i name="e_wo_entrp">  -1121.06437503 </i>
    <i name="e_0_energy">  -1121.06437503 </i>
   </energy>
  </scstep>
  <structure>
   <crystal>
    <varray name="basis" >
     <v>      11.23136822      -0.00124425       0.00000000 </v>
     <v>      -0.00122176      11.23246343       0.00000000 </v>
     <v>       0.00000000       0.00000000      15.88588664 </v>
    </varray>
    <i name="volume">   2004.09882293 </i>
    <varray name="rec_basis" >
     <v>       0.08903635       0.00000968       0.00000000 </v>
     <v>       0.00000986       0.08902767       0.00000000 </v>
     <v>       0.00000000       0.00000000       0.06294896 </v>
    </varray>
   </crystal>
   <varray name="positions" >
    <v>       0.99376839       0.25019336       0.12161648 </v>
    <v>       0.99376839       0.25019336       0.62161648 </v>
    <v>       0.99930969       0.74900279       0.12292386 </v>
    <v>       0.99930969       0.74900279       0.62292386 </v>
    <v>       0.50406014       0.25230281       0.12201959 </v>
    <v>       0.50406014       0.25230281       0.62201959 </v>
    <v>       0.49879687       0.74751766       0.12352330 </v>
    <v>       0.49879687       0.74751766       0.62352330 </v>
    <v>       0.99376839       0.25019336       0.37838352 </v>
    <v>       0.99376839       0.25019336       0.87838352 </v>
    <v>       0.99930969       0.74900279       0.37707614 </v>
    <v>       0.99930969       0.74900279       0.87707614 </v>
    <v>       0.50406014       0.25230281       0.37798041 </v>
    <v>       0.50406014       0.25230281       0.87798041 </v>
    <v>       0.49879687       0.74751766       0.37647670 </v>
    <v>       0.49879687       0.74751766       0.87647670 </v>
    <v>       0.24883954       0.99110562       0.11897709 </v>
    <v>       0.24883954       0.99110562       0.61897709 </v>
    <v>       0.25262004       0.50807694       0.12235110 </v>
    <v>       0.25262004       0.50807694       0.62235110 </v>
    <v>       0.75286636       0.00200727       0.12387151 </v>
    <v>       0.75286636       0.00200727       0.62387151 </v>
    <v>       0.74632895       0.49974400       0.12327426 </v>
    <v>       0.74632895       0.49974400       0.62327426 </v>
    <v>       0.24883954       0.99110562       0.38102291 </v>
    <v>       0.24883954       0.99110562       0.88102291 </v>
    <v>       0.25262004       0.50807694       0.37764890 </v>
    <v>       0.25262004       0.50807694       0.87764890 </v>
    <v>       0.75286636       0.00200727       0.37612849 </v>
    <v>       0.75286636       0.00200727       0.87612849 </v>
    <v>       0.74632895       0.49974400       0.37672574 </v>
    <v>       0.74632895       0.49974400       0.87672574 </v>
    <v>       0.75042661       0.74754175       0.25000000 </v>
    <v>       0.75042661       0.74754175       0.75000000 </v>
    <v>       0.25096429       0.74807646      -0.00000000 </v>
    <v>       0.50001051       0.00089796      -0.00000000 </v>
    <v>       0.50001051       0.00089796       0.50000000 </v>
    <v>       0.25096429       0.74807646       0.50000000 </v>
    <v>       0.74983257       0.24932971       0.75000000 </v>
    <v>       0.24928766       0.24441918      -0.00000000 </v>
    <v>       0.99762786       0.50224989       0.25000000 </v>
    <v>       0.74799101       0.25140488      -0.00000000 </v>
    <v>       0.74805306       0.74816987       0.50000000 </v>
    <v>       0.99962945       0.49987528      -0.00000000 </v>
    <v>       0.74799101       0.25140488       0.50000000 </v>
    <v>       0.99962945       0.49987528       0.50000000 </v>
    <v>       0.24966962       0.75526763       0.75000000 </v>
    <v>       0.74983257       0.24932971       0.25000000 </v>
    <v>       0.24966962       0.75526763       0.25000000 </v>
    <v>       0.99960131       0.00054983      -0.00000000 </v>
    <v>       0.99960131       0.00054983       0.50000000 </v>
    <v>       0.99762786       0.50224989       0.75000000 </v>
    <v>       0.74805306       0.74816987      -0.00000000 </v>
    <v>       0.24928766       0.24441918       0.50000000 </v>
    <v>       0.50175522       0.50165986       0.25000000 </v>
    <v>       0.50175522       0.50165986       0.75000000 </v>
    <v>       0.49912326       0.49952055       0.50000000 </v>
    <v>       0.51548738       0.99029260       0.75000000 </v>
    <v>       0.25389992       0.27671795       0.25000000 </v>
    <v>       0.25389992       0.27671795       0.75000000 </v>
    <v>       0.99111157       0.98569459       0.25000000 </v>
    <v>       0.49912326       0.49952055      -0.00000000 </v>
    <v>       0.99111157       0.98569459       0.75000000 </v>
    <v>       0.51548738       0.99029260       0.25000000 </v>
    <v>       0.00508697       0.00819767       0.12649858 </v>
    <v>       0.00508697       0.00819767       0.62649858 </v>
    <v>       0.00099451       0.50047161       0.12449197 </v>
    <v>       0.00099451       0.50047161       0.62449197 </v>
    <v>       0.49138074       0.00899269       0.12671472 </v>
    <v>       0.49138074       0.00899269       0.62671472 </v>
    <v>       0.49766603       0.50056189       0.12600305 </v>
    <v>       0.49766603       0.50056189       0.62600305 </v>
    <v>       0.00508697       0.00819767       0.37350142 </v>
    <v>       0.00508697       0.00819767       0.87350142 </v>
    <v>       0.00099451       0.50047161       0.37550803 </v>
    <v>       0.00099451       0.50047161       0.87550803 </v>
    <v>       0.49138074       0.00899269       0.37328528 </v>
    <v>       0.49138074       0.00899269       0.87328528 </v>
    <v>       0.49766603       0.50056189       0.37399695 </v>
    <v>       0.49766603       0.50056189       0.87399695 </v>
    <v>       0.24396245       0.22106831       0.36315636 </v>
    <v>       0.24396245       0.22106831       0.86315636 </v>
    <v>       0.24791286       0.75008575       0.37505572 </v>
    <v>       0.24791286       0.75008575       0.87505572 </v>
    <v>       0.75088280       0.25048836       0.37520809 </v>
    <v>       0.75088280       0.25048836       0.87520809 </v>
    <v>       0.75060915       0.75006651       0.37527407 </v>
    <v>       0.75060915       0.75006651       0.87527407 </v>
    <v>       0.24396245       0.22106831       0.13684364 </v>
    <v>       0.24396245       0.22106831       0.63684364 </v>
    <v>       0.24791286       0.75008575       0.12494428 </v>
    <v>       0.24791286       0.75008575       0.62494428 </v>
    <v>       0.75088280       0.25048836       0.12479191 </v>
    <v>       0.75088280       0.25048836       0.62479191 </v>
    <v>       0.75060915       0.75006651       0.12472593 </v>
    <v>       0.75060915       0.75006651       0.62472593 </v>
    <v>       0.60744152       0.14418598       0.25000000 </v>
    <v>       0.86818459       0.11510525       0.25000000 </v>
    <v>       0.14035671       0.39595891       0.25000000 </v>
    <v>       0.40007739       0.35330675       0.25000000 </v>
    <v>       0.64455368       0.39393279       0.25000000 </v>
    <v>       0.89350608       0.35952578       0.25000000 </v>
    <v>       0.10618160       0.64621838       0.25000000 </v>
    <v>       0.35807047       0.61192819       0.25000000 </v>
    <v>       0.60780436       0.64379686       0.25000000 </v>
    <v>       0.85607474       0.60560356       0.25000000 </v>
    <v>       0.14748036       0.90371335       0.25000000 </v>
    <v>       0.38843150       0.86600265       0.25000000 </v>
    <v>       0.65026520       0.89187288       0.25000000 </v>
    <v>       0.89370175       0.84998288       0.25000000 </v>
    <v>       0.13946495       0.10931699       0.50000000 </v>
    <v>       0.38731096       0.13892295       0.50000000 </v>
    <v>       0.63925040       0.11101548       0.50000000 </v>
    <v>       0.88845929       0.13951164       0.50000000 </v>
    <v>       0.11193859       0.35635819       0.50000000 </v>
    <v>       0.35523201       0.38077610       0.50000000 </v>
    <v>       0.61295877       0.36074761       0.50000000 </v>
    <v>       0.86302546       0.38776408       0.50000000 </v>
    <v>       0.13793741       0.61049943       0.50000000 </v>
    <v>       0.38397943       0.63732298       0.50000000 </v>
    <v>       0.63834786       0.61445722       0.50000000 </v>
    <v>       0.88913798       0.63842045       0.50000000 </v>
    <v>       0.11211272       0.86197999       0.50000000 </v>
    <v>       0.36266203       0.88627432       0.50000000 </v>
    <v>       0.61073693       0.86415389       0.50000000 </v>
    <v>       0.86267296       0.88990997       0.50000000 </v>
    <v>       0.60744152       0.14418598       0.75000000 </v>
    <v>       0.86818459       0.11510525       0.75000000 </v>
    <v>       0.14035671       0.39595891       0.75000000 </v>
    <v>       0.40007739       0.35330675       0.75000000 </v>
    <v>       0.64455368       0.39393279       0.75000000 </v>
    <v>       0.89350608       0.35952578       0.75000000 </v>
    <v>       0.10618160       0.64621838       0.75000000 </v>
    <v>       0.35807047       0.61192819       0.75000000 </v>
    <v>       0.60780436       0.64379686       0.75000000 </v>
    <v>       0.85607474       0.60560356       0.75000000 </v>
    <v>       0.14748036       0.90371335       0.75000000 </v>
    <v>       0.38843150       0.86600265       0.75000000 </v>
    <v>       0.65026520       0.89187288       0.75000000 </v>
    <v>       0.89370175       0.84998288       0.75000000 </v>
    <v>       0.13946495       0.10931699      -0.00000000 </v>
    <v>       0.38731096       0.13892295      -0.00000000 </v>
    <v>       0.63925040       0.11101548      -0.00000000 </v>
    <v>       0.88845929       0.13951164      -0.00000000 </v>
    <v>       0.11193859       0.35635819      -0.00000000 </v>
    <v>       0.35523201       0.38077610      -0.00000000 </v>
    <v>       0.61295877       0.36074761      -0.00000000 </v>
    <v>       0.86302546       0.38776408      -0.00000000 </v>
    <v>       0.13793741       0.61049943      -0.00000000 </v>
    <v>       0.38397943       0.63732298      -0.00000000 </v>
    <v>       0.63834786       0.61445722      -0.00000000 </v>
    <v>       0.88913798       0.63842045      -0.00000000 </v>
    <v>       0.11211272       0.86197999      -0.00000000 </v>
    <v>       0.36266203       0.88627432      -0.00000000 </v>
    <v>       0.61073693       0.86415389      -0.00000000 </v>
    <v>       0.86267296       0.88990997      -0.00000000 </v>
   </varray>
  </structure>
  <varray name="forces" >
   <v>      -0.00080761       0.00565504       0.00250895 </v>
   <v>      -0.00080761       0.00565504       0.00250895 </v>
   <v>       0.00636696      -0.00200426       0.00102124 </v>
   <v>       0.00636696      -0.00200426       0.00102124 </v>
   <v>       0.00211867      -0.00544759      -0.00549108 </v>
   <v>       0.00211867      -0.00544759      -0.00549108 </v>
   <v>       0.00086687      -0.00430523       0.00245018 </v>
   <v>       0.00086687      -0.00430523       0.00245018 </v>
   <v>      -0.00080761       0.00565504      -0.00250895 </v>
   <v>      -0.00080761       0.00565504      -0.00250895 </v>
   <v>       0.00636696      -0.00200426      -0.00102124 </v>
   <v>       0.00636696      -0.00200426      -0.00102124 </v>
   <v>       0.00211867      -0.00544759       0.00549108 </v>
   <v>       0.00211867      -0.00544759       0.00549108 </v>
   <v>       0.00086687      -0.00430523      -0.00245018 </v>
   <v>       0.00086687      -0.00430523      -0.00245018 </v>
   <v>      -0.00105006       0.00706076      -0.00525153 </v>
   <v>      -0.00105006       0.00706076      -0.00525153 </v>
   <v>      -0.00495691       0.00397860      -0.00242265 </v>
   <v>      -0.00495691       0.00397860      -0.00242265 </v>
   <v>      -0.00320167      -0.00022392       0.00263030 </v>
   <v>      -0.00320167      -0.00022392       0.00263030 </v>
   <v>      -0.00310904       0.00125315       0.00061193 </v>
   <v>      -0.00310904       0.00125315       0.00061193 </v>
   <v>      -0.00105006       0.00706076       0.00525153 </v>
   <v>      -0.00105006       0.00706076       0.00525153 </v>
   <v>      -0.00495691       0.00397860       0.00242265 </v>
   <v>      -0.00495691       0.00397860       0.00242265 </v>
   <v>      -0.00320167      -0.00022392      -0.00263030 </v>
   <v>      -0.00320167      -0.00022392      -0.00263030 </v>
   <v>      -0.00310904       0.00125315      -0.00061193 </v>
   <v>      -0.00310904       0.00125315      -0.00061193 </v>
   <v>       0.00000787      -0.00308319       0.00000000 </v>
   <v>       0.00000787      -0.00308319       0.00000000 </v>
   <v>       0.00138809       0.00072193       0.00000000 </v>
   <v>      -0.01586081       0.02259932       0.00000000 </v>
   <v>      -0.01586081       0.02259932       0.00000000 </v>
   <v>       0.00138809       0.00072193       0.00000000 </v>
   <v>       0.00852109      -0.00589715       0.00000000 </v>
   <v>      -0.00019947      -0.00082427       0.00000000 </v>
   <v>       0.00646335      -0.00272408       0.00000000 </v>
   <v>      -0.00484340      -0.00050966       0.00000000 </v>
   <v>      -0.00246487      -0.00114769       0.00000000 </v>
   <v>       0.01117685      -0.00142380       0.00000000 </v>
   <v>      -0.00484340      -0.00050966       0.00000000 </v>
   <v>       0.01117685      -0.00142380       0.00000000 </v>
   <v>      -0.00803987       0.00333249       0.00000000 </v>
   <v>       0.00852109      -0.00589715       0.00000000 </v>
   <v>      -0.00803987       0.00333249       0.00000000 </v>
   <v>       0.00575550       0.01673867       0.00000000 </v>
   <v>       0.00575550       0.01673867       0.00000000 </v>
   <v>       0.00646335      -0.00272408       0.00000000 </v>
   <v>      -0.00246487      -0.00114769       0.00000000 </v>
   <v>      -0.00019947      -0.00082427       0.00000000 </v>
   <v>      -0.00398127      -0.00772342       0.00000000 </v>
   <v>      -0.00398127      -0.00772342       0.00000000 </v>
   <v>      -0.00266875      -0.00675893       0.00000000 </v>
   <v>      -0.00271937      -0.00330040       0.00000000 </v>
   <v>      -0.00990094       0.00407451       0.00000000 </v>
   <v>      -0.00990094       0.00407451       0.00000000 </v>
   <v>      -0.00217187      -0.00681226       0.00000000 </v>
   <v>      -0.00266875      -0.00675893       0.00000000 </v>
   <v>      -0.00217187      -0.00681226       0.00000000 </v>
   <v>      -0.00271937      -0.00330040       0.00000000 </v>
   <v>      -0.00083617       0.00706576      -0.00968470 </v>
   <v>      -0.00083617       0.00706576      -0.00968470 </v>
   <v>      -0.00514866       0.00602595      -0.00470593 </v>
   <v>      -0.00514866       0.00602595      -0.00470593 </v>
   <v>      -0.00275379       0.00169191       0.00044765 </v>
   <v>      -0.00275379       0.00169191       0.00044765 </v>
   <v>       0.00325727      -0.00416784      -0.00497212 </v>
[...]
       <r>   -16.2085     0.0000    32.0000 </r>
       <r>   -16.0563     0.0000    32.0000 </r>
       <r>   -15.9040     0.0000    32.0000 </r>
       <r>   -15.7518     0.0000    32.0000 </r>
       <r>   -15.5995     0.0000    32.0000 </r>
       <r>   -15.4473     0.0000    32.0000 </r>
       <r>   -15.2950     0.0000    32.0000 </r>
       <r>   -15.1428     2.1533    32.3278 </r>
       <r>   -14.9905    26.9572    36.4321 </r>
       <r>   -14.8383    51.3101    44.2440 </r>
       <r>   -14.6860    44.7506    51.0573 </r>
       <r>   -14.5338    31.0496    55.7846 </r>
       <r>   -14.3815    33.2247    60.8431 </r>
       <r>   -14.2293    47.8213    68.1238 </r>
       <r>   -14.0770   103.0969    83.8203 </r>
       <r>   -13.9248   123.4320   102.6129 </r>
       <r>   -13.7725    89.1490   116.1858 </r>
       <r>   -13.6203    33.9404   121.3532 </r>
       <r>   -13.4680    17.3825   123.9997 </r>
       <r>   -13.3158     0.0021   124.0000 </r>
       <r>   -13.1635     0.0000   124.0000 </r>
       <r>   -13.0113     0.0000   124.0000 </r>
       <r>   -12.8590     0.0000   124.0000 </r>
       <r>   -12.7068     1.3991   124.2130 </r>
       <r>   -12.5545    51.1712   132.0038 </r>
       <r>   -12.4023   140.3663   153.3746 </r>
       <r>   -12.2500   154.7205   176.9308 </r>
       <r>   -12.0978   132.9231   197.1683 </r>
       <r>   -11.9455   104.6591   213.1026 </r>
       <r>   -11.7933    42.4306   219.5627 </r>
       <r>   -11.6410     2.8722   220.0000 </r>
       <r>   -11.4888     0.0000   220.0000 </r>
       <r>   -11.3365     0.0000   220.0000 </r>
       <r>   -11.1843     0.0000   220.0000 </r>
       <r>   -11.0320     0.0000   220.0000 </r>
       <r>   -10.8798     0.0000   220.0000 </r>
       <r>   -10.7275     0.0000   220.0000 </r>
       <r>   -10.5753     0.0000   220.0000 </r>
       <r>   -10.4230     0.0000   220.0000 </r>
       <r>   -10.2708     0.0000   220.0000 </r>
       <r>   -10.1185     0.0000   220.0000 </r>
       <r>    -9.9663     0.0000   220.0000 </r>
       <r>    -9.8140     0.0000   220.0000 </r>
       <r>    -9.6618     0.0000   220.0000 </r>
       <r>    -9.5095     0.0000   220.0000 </r>
       <r>    -9.3573     0.0000   220.0000 </r>
       <r>    -9.2050     0.0000   220.0000 </r>
       <r>    -9.0528     0.0000   220.0000 </r>
       <r>    -8.9005     0.0000   220.0000 </r>
       <r>    -8.7483     0.0000   220.0000 </r>
       <r>    -8.5960     0.0000   220.0000 </r>
       <r>    -8.4438     0.0000   220.0000 </r>
       <r>    -8.2915     0.0000   220.0000 </r>
       <r>    -8.1393     0.0000   220.0000 </r>
       <r>    -7.9870     0.0000   220.0000 </r>
       <r>    -7.8348     0.0000   220.0000 </r>
       <r>    -7.6825     0.0000   220.0000 </r>
       <r>    -7.5303     0.0000   220.0000 </r>
       <r>    -7.3780     0.0000   220.0000 </r>
       <r>    -7.2258     0.0000   220.0000 </r>
       <r>    -7.0735     0.0000   220.0000 </r>
       <r>    -6.9213     0.0000   220.0000 </r>
       <r>    -6.7690     0.0000   220.0000 </r>
       <r>    -6.6168     0.0000   220.0000 </r>
       <r>    -6.4645     0.0000   220.0000 </r>
       <r>    -6.3123     0.0000   220.0000 </r>
       <r>    -6.1600     0.0000   220.0000 </r>
       <r>    -6.0078     0.0000   220.0000 </r>
       <r>    -5.8555     0.0000   220.0000 </r>
       <r>    -5.7033     0.0000   220.0000 </r>
       <r>    -5.5510     0.0000   220.0000 </r>
       <r>    -5.3988     0.0000   220.0000 </r>
       <r>    -5.2465     0.0000   220.0000 </r>
       <r>    -5.0943     0.0000   220.0000 </r>
       <r>    -4.9420     0.0000   220.0000 </r>
       <r>    -4.7898     0.0000   220.0000 </r>
       <r>    -4.6375     0.0000   220.0000 </r>
       <r>    -4.4853     0.0000   220.0000 </r>
       <r>    -4.3330     0.0000   220.0000 </r>
       <r>    -4.1808     0.0000   220.0000 </r>
       <r>    -4.0285     0.0000   220.0000 </r>
       <r>    -3.8763     0.0000   220.0000 </r>
       <r>    -3.7240     0.0000   220.0000 </r>
       <r>    -3.5718     0.0000   220.0000 </r>
       <r>    -3.4195     0.0000   220.0000 </r>
       <r>    -3.2673     0.0000   220.0000 </r>
       <r>    -3.1150     0.0000   220.0000 </r>
       <r>    -2.9628     0.0000   220.0000 </r>
       <r>    -2.8105     0.0000   220.0000 </r>
       <r>    -2.6583     0.0000   220.0000 </r>
       <r>    -2.5060     0.0000   220.0000 </r>
       <r>    -2.3538     0.4012   220.0611 </r>
       <r>    -2.2015     9.1150   221.4488 </r>
       <r>    -2.0493    30.4116   226.0790 </r>
       <r>    -1.8970    38.9958   232.0161 </r>
       <r>    -1.7448    44.0392   238.7211 </r>
       <r>    -1.5925    47.7782   245.9953 </r>
       <r>    -1.4403    49.9814   253.6050 </r>
       <r>    -1.2880    57.5357   262.3648 </r>
       <r>    -1.1358    77.0096   274.0895 </r>
       <r>    -0.9835    73.7007   285.3104 </r>
       <r>    -0.8313    72.0841   296.2852 </r>
       <r>    -0.6790    89.6653   309.9367 </r>
       <r>    -0.5268   106.1725   326.1015 </r>
       <r>    -0.3745   100.8966   341.4630 </r>
       <r>    -0.2223    65.8789   351.4930 </r>
       <r>    -0.0700    51.1285   359.2773 </r>
       <r>     0.0822    52.8084   367.3174 </r>
       <r>     0.2345    48.7346   374.7373 </r>
       <r>     0.3867    48.1994   382.0756 </r>
       <r>     0.5390    56.6497   390.7005 </r>
       <r>     0.6912    54.8258   399.0478 </r>
       <r>     0.8435    43.4268   405.6595 </r>
       <r>     0.9957    50.8380   413.3996 </r>
       <r>     1.1480    63.0728   423.0024 </r>
       <r>     1.3002    91.7006   436.9638 </r>
       <r>     1.4525    90.3771   450.7237 </r>
       <r>     1.6047    84.4042   463.5742 </r>
       <r>     1.7570    79.8404   475.7299 </r>
       <r>     1.9092    57.9181   484.5480 </r>
       <r>     2.0615    43.9113   491.2335 </r>
       <r>     2.2137    22.4103   494.6454 </r>
       <r>     2.3660     8.7537   495.9782 </r>
       <r>     2.5182     0.1434   496.0000 </r>
       <r>     2.6705     0.0000   496.0000 </r>
       <r>     2.8227     0.0000   496.0000 </r>
       <r>     2.9750     0.0000   496.0000 </r>
       <r>     3.1272     0.0000   496.0000 </r>
       <r>     3.2795     0.0000   496.0000 </r>
       <r>     3.4317     0.0000   496.0000 </r>
       <r>     3.5840     0.0000   496.0000 </r>
       <r>     3.7362     0.0000   496.0000 </r>
       <r>     3.8885     0.0000   496.0000 </r>
       <r>     4.0407     0.0000   496.0000 </r>
       <r>     4.1930     0.0000   496.0000 </r>
       <r>     4.3452     0.0136   496.0021 </r>
       <r>     4.4975    12.6956   497.9350 </r>
       <r>     4.6497    32.3269   502.8568 </r>
       <r>     4.8020    48.3984   510.2254 </r>
       <r>     4.9542    30.3835   514.8513 </r>
       <r>     5.1065    45.2890   521.7465 </r>
       <r>     5.2587    51.5736   529.5986 </r>
       <r>     5.4110    67.5738   539.8867 </r>
       <r>     5.5632    57.3285   548.6150 </r>
       <r>     5.7155    78.0857   560.5035 </r>
       <r>     5.8677    67.7093   570.8123 </r>
       <r>     6.0200    89.5764   584.4503 </r>
       <r>     6.1722    83.1634   597.1119 </r>
       <r>     6.3245    60.5549   606.3313 </r>
       <r>     6.4767    37.0158   611.9670 </r>
       <r>     6.6290    19.3581   614.9143 </r>
       <r>     6.7812    20.1654   617.9844 </r>
       <r>     6.9335    18.3675   620.7809 </r>
       <r>     7.0857    22.2201   624.1639 </r>
       <r>     7.2380    14.7542   626.4102 </r>
       <r>     7.3902    17.8086   629.1216 </r>
       <r>     7.5425    20.9380   632.3094 </r>
       <r>     7.6947    15.2421   634.6300 </r>
       <r>     7.8470    17.2197   637.2517 </r>
       <r>     7.9992    17.6926   639.9454 </r>
       <r>     8.1515    23.4026   643.5084 </r>
       <r>     8.3037    26.7189   647.5764 </r>
       <r>     8.4560    24.1398   651.2517 </r>
       <r>     8.6082    20.1587   654.3208 </r>
       <r>     8.7605    25.5980   658.2181 </r>
       <r>     8.9127    28.7139   662.5898 </r>
       <r>     9.0650    33.8160   667.7383 </r>
       <r>     9.2172    41.5966   674.0713 </r>
       <r>     9.3695    42.6321   680.5621 </r>
       <r>     9.5217    37.7718   686.3128 </r>
       <r>     9.6740    38.0799   692.1105 </r>
       <r>     9.8262    56.6409   700.7340 </r>
       <r>     9.9785    59.7232   709.8269 </r>
       <r>    10.1307    72.8716   720.9216 </r>
       <r>    10.2830    65.2978   730.8632 </r>
       <r>    10.4352    61.5465   740.2336 </r>
       <r>    10.5875    60.9362   749.5112 </r>
       <r>    10.7397    52.2833   757.4713 </r>
       <r>    10.8920    54.0940   765.7071 </r>
       <r>    11.0442    15.0496   767.9984 </r>
       <r>    11.1965     0.0106   768.0000 </r>
       <r>    11.3487     0.0000   768.0000 </r>
       <r>    11.5010     0.0000   768.0000 </r>
       <r>    11.6532     0.0000   768.0000 </r>
       <r>    11.8055     0.0000   768.0000 </r>
       <r>    11.9577     0.0000   768.0000 </r>
       <r>    12.1100     0.0000   768.0000 </r>
       <r>    12.2622     0.0000   768.0000 </r>
       <r>    12.4145     0.0000   768.0000 </r>
       <r>    12.5667     0.0000   768.0000 </r>
       <r>    12.7190     0.0000   768.0000 </r>
       <r>    12.8712     0.0000   768.0000 </r>
       <r>    13.0235     0.0000   768.0000 </r>
      </set>
     </set>
    </array>
   </total>
  </dos>
 </calculation>
 <structure name="finalpos" >
  <crystal>
   <varray name="basis" >
    <v>      11.23136822      -0.00124425       0.00000000 </v>
    <v>      -0.00122176      11.23246343       0.00000000 </v>
    <v>       0.00000000       0.00000000      15.88588664 </v>
   </varray>
   <i name="volume">   2004.09882293 </i>
   <varray name="rec_basis" >
    <v>       0.08903635       0.00000968       0.00000000 </v>
    <v>       0.00000986       0.08902767       0.00000000 </v>
    <v>       0.00000000       0.00000000       0.06294896 </v>
   </varray>
  </crystal>
  <varray name="positions" >
   <v>       0.99376839       0.25019336       0.12161648 </v>
   <v>       0.99376839       0.25019336       0.62161648 </v>
   <v>       0.99930969       0.74900279       0.12292386 </v>
   <v>       0.99930969       0.74900279       0.62292386 </v>
   <v>       0.50406014       0.25230281       0.12201959 </v>
   <v>       0.50406014       0.25230281       0.62201959 </v>
   <v>       0.49879687       0.74751766       0.12352330 </v>
   <v>       0.49879687       0.74751766       0.62352330 </v>
   <v>       0.99376839       0.25019336       0.37838352 </v>
   <v>       0.99376839       0.25019336       0.87838352 </v>
   <v>       0.99930969       0.74900279       0.37707614 </v>
   <v>       0.99930969       0.74900279       0.87707614 </v>
   <v>       0.50406014       0.25230281       0.37798041 </v>
   <v>       0.50406014       0.25230281       0.87798041 </v>
   <v>       0.49879687       0.74751766       0.37647670 </v>
   <v>       0.49879687       0.74751766       0.87647670 </v>
   <v>       0.24883954       0.99110562       0.11897709 </v>
   <v>       0.24883954       0.99110562       0.61897709 </v>
   <v>       0.25262004       0.50807694       0.12235110 </v>
   <v>       0.25262004       0.50807694       0.62235110 </v>
   <v>       0.75286636       0.00200727       0.12387151 </v>
   <v>       0.75286636       0.00200727       0.62387151 </v>
   <v>       0.74632895       0.49974400       0.12327426 </v>
   <v>       0.74632895       0.49974400       0.62327426 </v>
   <v>       0.24883954       0.99110562       0.38102291 </v>
   <v>       0.24883954       0.99110562       0.88102291 </v>
   <v>       0.25262004       0.50807694       0.37764890 </v>
   <v>       0.25262004       0.50807694       0.87764890 </v>
   <v>       0.75286636       0.00200727       0.37612849 </v>
   <v>       0.75286636       0.00200727       0.87612849 </v>
   <v>       0.74632895       0.49974400       0.37672574 </v>
   <v>       0.74632895       0.49974400       0.87672574 </v>
   <v>       0.75042661       0.74754175       0.25000000 </v>
   <v>       0.75042661       0.74754175       0.75000000 </v>
   <v>       0.25096429       0.74807646      -0.00000000 </v>
   <v>       0.50001051       0.00089796      -0.00000000 </v>
   <v>       0.50001051       0.00089796       0.50000000 </v>
   <v>       0.25096429       0.74807646       0.50000000 </v>
   <v>       0.74983257       0.24932971       0.75000000 </v>
   <v>       0.24928766       0.24441918      -0.00000000 </v>
   <v>       0.99762786       0.50224989       0.25000000 </v>
   <v>       0.74799101       0.25140488      -0.00000000 </v>
   <v>       0.74805306       0.74816987       0.50000000 </v>
   <v>       0.99962945       0.49987528      -0.00000000 </v>
   <v>       0.74799101       0.25140488       0.50000000 </v>
   <v>       0.99962945       0.49987528       0.50000000 </v>
   <v>       0.24966962       0.75526763       0.75000000 </v>
   <v>       0.74983257       0.24932971       0.25000000 </v>
   <v>       0.24966962       0.75526763       0.25000000 </v>
   <v>       0.99960131       0.00054983      -0.00000000 </v>
   <v>       0.99960131       0.00054983       0.50000000 </v>
   <v>       0.99762786       0.50224989       0.75000000 </v>
   <v>       0.74805306       0.74816987      -0.00000000 </v>
   <v>       0.24928766       0.24441918       0.50000000 </v>
   <v>       0.50175522       0.50165986       0.25000000 </v>
   <v>       0.50175522       0.50165986       0.75000000 </v>
   <v>       0.49912326       0.49952055       0.50000000 </v>
   <v>       0.51548738       0.99029260       0.75000000 </v>
   <v>       0.25389992       0.27671795       0.25000000 </v>
   <v>       0.25389992       0.27671795       0.75000000 </v>
   <v>       0.99111157       0.98569459       0.25000000 </v>
   <v>       0.49912326       0.49952055      -0.00000000 </v>
   <v>       0.99111157       0.98569459       0.75000000 </v>
   <v>       0.51548738       0.99029260       0.25000000 </v>
   <v>       0.00508697       0.00819767       0.12649858 </v>
   <v>       0.00508697       0.00819767       0.62649858 </v>
   <v>       0.00099451       0.50047161       0.12449197 </v>
   <v>       0.00099451       0.50047161       0.62449197 </v>
   <v>       0.49138074       0.00899269       0.12671472 </v>
   <v>       0.49138074       0.00899269       0.62671472 </v>
   <v>       0.49766603       0.50056189       0.12600305 </v>
   <v>       0.49766603       0.50056189       0.62600305 </v>
   <v>       0.00508697       0.00819767       0.37350142 </v>
   <v>       0.00508697       0.00819767       0.87350142 </v>
   <v>       0.00099451       0.50047161       0.37550803 </v>
   <v>       0.00099451       0.50047161       0.87550803 </v>
   <v>       0.49138074       0.00899269       0.37328528 </v>
   <v>       0.49138074       0.00899269       0.87328528 </v>
   <v>       0.49766603       0.50056189       0.37399695 </v>
   <v>       0.49766603       0.50056189       0.87399695 </v>
   <v>       0.24396245       0.22106831       0.36315636 </v>
   <v>       0.24396245       0.22106831       0.86315636 </v>
   <v>       0.24791286       0.75008575       0.37505572 </v>
   <v>       0.24791286       0.75008575       0.87505572 </v>
   <v>       0.75088280       0.25048836       0.37520809 </v>
   <v>       0.75088280       0.25048836       0.87520809 </v>
   <v>       0.75060915       0.75006651       0.37527407 </v>
   <v>       0.75060915       0.75006651       0.87527407 </v>
   <v>       0.24396245       0.22106831       0.13684364 </v>
   <v>       0.24396245       0.22106831       0.63684364 </v>
   <v>       0.24791286       0.75008575       0.12494428 </v>
   <v>       0.24791286       0.75008575       0.62494428 </v>
   <v>       0.75088280       0.25048836       0.12479191 </v>
   <v>       0.75088280       0.25048836       0.62479191 </v>
   <v>       0.75060915       0.75006651       0.12472593 </v>
   <v>       0.75060915       0.75006651       0.62472593 </v>
   <v>       0.60744152       0.14418598       0.25000000 </v>
   <v>       0.86818459       0.11510525       0.25000000 </v>
   <v>       0.14035671       0.39595891       0.25000000 </v>
   <v>       0.40007739       0.35330675       0.25000000 </v>
   <v>       0.64455368       0.39393279       0.25000000 </v>
   <v>       0.89350608       0.35952578       0.25000000 </v>
   <v>       0.10618160       0.64621838       0.25000000 </v>
   <v>       0.35807047       0.61192819       0.25000000 </v>
   <v>       0.60780436       0.64379686       0.25000000 </v>
   <v>       0.85607474       0.60560356       0.25000000 </v>
   <v>       0.14748036       0.90371335       0.25000000 </v>
   <v>       0.38843150       0.86600265       0.25000000 </v>
   <v>       0.65026520       0.89187288       0.25000000 </v>
   <v>       0.89370175       0.84998288       0.25000000 </v>
   <v>       0.13946495       0.10931699       0.50000000 </v>
   <v>       0.38731096       0.13892295       0.50000000 </v>
   <v>       0.63925040       0.11101548       0.50000000 </v>
   <v>       0.88845929       0.13951164       0.50000000 </v>
   <v>       0.11193859       0.35635819       0.50000000 </v>
   <v>       0.35523201       0.38077610       0.50000000 </v>
   <v>       0.61295877       0.36074761       0.50000000 </v>
   <v>       0.86302546       0.38776408       0.50000000 </v>
   <v>       0.13793741       0.61049943       0.50000000 </v>
   <v>       0.38397943       0.63732298       0.50000000 </v>
   <v>       0.63834786       0.61445722       0.50000000 </v>
   <v>       0.88913798       0.63842045       0.50000000 </v>
   <v>       0.11211272       0.86197999       0.50000000 </v>
   <v>       0.36266203       0.88627432       0.50000000 </v>
   <v>       0.61073693       0.86415389       0.50000000 </v>
   <v>       0.86267296       0.88990997       0.50000000 </v>
   <v>       0.60744152       0.14418598       0.75000000 </v>
   <v>       0.86818459       0.11510525       0.75000000 </v>
   <v>       0.14035671       0.39595891       0.75000000 </v>
   <v>       0.40007739       0.35330675       0.75000000 </v>
   <v>       0.64455368       0.39393279       0.75000000 </v>
   <v>       0.89350608       0.35952578       0.75000000 </v>
   <v>       0.10618160       0.64621838       0.75000000 </v>
   <v>       0.35807047       0.61192819       0.75000000 </v>
   <v>       0.60780436       0.64379686       0.75000000 </v>
   <v>       0.85607474       0.60560356       0.75000000 </v>
   <v>       0.14748036       0.90371335       0.75000000 </v>
   <v>       0.38843150       0.86600265       0.75000000 </v>
   <v>       0.65026520       0.89187288       0.75000000 </v>
   <v>       0.89370175       0.84998288       0.75000000 </v>
   <v>       0.13946495       0.10931699      -0.00000000 </v>
   <v>       0.38731096       0.13892295      -0.00000000 </v>
   <v>       0.63925040       0.11101548      -0.00000000 </v>
   <v>       0.88845929       0.13951164      -0.00000000 </v>
   <v>       0.11193859       0.35635819      -0.00000000 </v>
   <v>       0.35523201       0.38077610      -0.00000000 </v>
   <v>       0.61295877       0.36074761      -0.00000000 </v>
   <v>       0.86302546       0.38776408      -0.00000000 </v>
   <v>       0.13793741       0.61049943      -0.00000000 </v>
   <v>       0.38397943       0.63732298      -0.00000000 </v>
   <v>       0.63834786       0.61445722      -0.00000000 </v>
   <v>       0.88913798       0.63842045      -0.00000000 </v>
   <v>       0.11211272       0.86197999      -0.00000000 </v>
   <v>       0.36266203       0.88627432      -0.00000000 </v>
   <v>       0.61073693       0.86415389      -0.00000000 </v>
   <v>       0.86267296       0.88990997      -0.00000000 </v>
  </varray>
 </structure>
</modeling>
