       N       E                     dE             d eps       ncg     rms          rms(c)
DAV:   1    -0.108920942246E+04   -0.10892E+04   -0.34822E-02 12960   0.437E-01    0.191E-02
RMM:   2    -0.108920942246E+04   -0.24011E-08   -0.12355E-05  6726   0.672E-03    0.333E-02
RMM:   3    -0.108920942265E+04   -0.18539E-06   -0.38749E-06  5757   0.396E-03    0.334E-03
RMM:   4    -0.108920942279E+04   -0.13974E-06   -0.10917E-06  2888   0.200E-03    0.223E-03
RMM:   5    -0.108920942293E+04   -0.13734E-06   -0.71821E-07  2662   0.203E-03    0.280E-03
RMM:   6    -0.108920942296E+04   -0.32000E-07   -0.21734E-07  1771   0.166E-03    0.121E-03
RMM:   7    -0.108920942297E+04   -0.16953E-07   -0.16496E-07  1653   0.170E-03    0.450E-04
RMM:   8    -0.108920942298E+04   -0.66502E-08   -0.27670E-08  1298   0.161E-03
   1 F= -.10892094E+04 E0= -.10892094E+04  d E =-.108921E+04  mag=    60.0000
       N       E                     dE             d eps       ncg     rms          rms(c)
DAV:   1    -0.108920936326E+04    0.59714E-04   -0.24195E-01 12416   0.561E-01    0.239E-01
RMM:   2    -0.108920986974E+04   -0.50648E-03   -0.83428E-03 12318   0.120E-01    0.203E-01
RMM:   3    -0.108920981177E+04    0.57971E-04   -0.43472E-04 10316   0.373E-02    0.121E-01
RMM:   4    -0.108920970003E+04    0.11174E-03   -0.30837E-04  9727   0.196E-02    0.631E-02
RMM:   5    -0.108920967498E+04    0.25058E-04   -0.61207E-05  7487   0.116E-02    0.320E-02
RMM:   6    -0.108920967561E+04   -0.63636E-06   -0.15526E-05  6719   0.561E-03    0.218E-02
RMM:   7    -0.108920967529E+04    0.32166E-06   -0.65224E-06  5934   0.383E-03    0.132E-02
RMM:   8    -0.108920967491E+04    0.38501E-06   -0.33410E-06  5208   0.283E-03
   2 F= -.10892097E+04 E0= -.10892097E+04  d E =-.251926E-03  mag=    60.0000
       N       E                     dE             d eps       ncg     rms          rms(c)
DAV:   1    -0.108920994368E+04   -0.26839E-03   -0.46327E-02 12352   0.246E-01    0.105E-01
RMM:   2    -0.108921004215E+04   -0.98476E-04   -0.15967E-03 11866   0.526E-02    0.893E-02
RMM:   3    -0.108921002920E+04    0.12950E-04   -0.66657E-05  6917   0.161E-02    0.536E-02
RMM:   4    -0.108921000841E+04    0.20789E-04   -0.55234E-05  6495   0.943E-03    0.302E-02
RMM:   5    -0.108921000468E+04    0.37388E-05   -0.16358E-05  5802   0.617E-03    0.302E-02
RMM:   6    -0.108921000490E+04   -0.22158E-06   -0.55370E-06  4951   0.370E-03    0.101E-02
RMM:   7    -0.108921000511E+04   -0.21541E-06   -0.16535E-06  3618   0.238E-03    0.691E-03
RMM:   8    -0.108921000534E+04   -0.23200E-06   -0.64779E-07  2784   0.201E-03
   3 F= -.10892100E+04 E0= -.10892100E+04  d E =-.582364E-03  mag=    60.0000
