       N       E                     dE             d eps       ncg     rms          rms(c)
DAV:   1    -0.105431930513E+04   -0.10543E+04   -0.96673E-03 13880   0.231E-01    0.897E-02
RMM:   2    -0.105431930199E+04    0.31327E-05   -0.44571E-05  6831   0.102E-02    0.153E-01
RMM:   3    -0.105431930094E+04    0.10556E-05   -0.13757E-05  6304   0.723E-03    0.399E-02
RMM:   4    -0.105431930059E+04    0.34446E-06   -0.41216E-06  4269   0.256E-03    0.217E-02
RMM:   5    -0.105431930054E+04    0.55152E-07   -0.12026E-06  3251   0.225E-03    0.790E-03
RMM:   6    -0.105431930057E+04   -0.30093E-07   -0.39745E-07  2325   0.192E-03    0.675E-03
RMM:   7    -0.105431930061E+04   -0.36001E-07   -0.29324E-07  2120   0.180E-03    0.271E-03
RMM:   8    -0.105431930062E+04   -0.17899E-07   -0.16318E-07  1739   0.176E-03
   1 F= -.10543193E+04 E0= -.10543174E+04  d E =-.105432E+04  mag=    78.0000
       N       E                     dE             d eps       ncg     rms          rms(c)
DAV:   1    -0.105431903093E+04    0.26968E-03   -0.31396E-01 12608   0.655E-01    0.264E-01
RMM:   2    -0.105432001877E+04   -0.98784E-03   -0.99813E-03 12424   0.138E-01    0.218E-01
RMM:   3    -0.105432003440E+04   -0.15634E-04   -0.53712E-04 10408   0.410E-02    0.134E-01
RMM:   4    -0.105431997395E+04    0.60456E-04   -0.14248E-04  7502   0.165E-02    0.817E-02
RMM:   5    -0.105431995794E+04    0.16012E-04   -0.86508E-05  7384   0.124E-02    0.366E-02
RMM:   6    -0.105431995885E+04   -0.91620E-06   -0.18657E-05  7096   0.769E-03    0.206E-02
RMM:   7    -0.105431995891E+04   -0.60012E-07   -0.78329E-06  6263   0.379E-03    0.126E-02
RMM:   8    -0.105431995881E+04    0.10125E-06   -0.37661E-06  5455   0.350E-03
   2 F= -.10543200E+04 E0= -.10543181E+04  d E =-.658187E-03  mag=    78.0000
       N       E                     dE             d eps       ncg     rms          rms(c)
DAV:   1    -0.105431997206E+04   -0.13149E-04   -0.18373E-02 12416   0.159E-01    0.632E-02
RMM:   2    -0.105432002809E+04   -0.56029E-04   -0.56938E-04 10753   0.337E-02    0.529E-02
RMM:   3    -0.105432002933E+04   -0.12407E-05   -0.30559E-05  6495   0.111E-02    0.332E-02
RMM:   4    -0.105432002660E+04    0.27248E-05   -0.97390E-06  6215   0.491E-03    0.207E-02
RMM:   5    -0.105432002550E+04    0.11021E-05   -0.63098E-06  5402   0.352E-03    0.917E-03
RMM:   6    -0.105432002557E+04   -0.69602E-07   -0.92534E-07  3275   0.236E-03    0.527E-03
RMM:   7    -0.105432002559E+04   -0.14421E-07   -0.22391E-08  1368   0.165E-03    0.225E-03
RMM:   8    -0.105432002561E+04   -0.24665E-07   -0.96093E-10  1174   0.165E-03
   3 F= -.10543200E+04 E0= -.10543182E+04  d E =-.724988E-03  mag=    78.0000
       N       E                     dE             d eps       ncg     rms          rms(c)
DAV:   1    -0.105431976723E+04    0.25836E-03   -0.32885E-01 12544   0.679E-01    0.214E-01
RMM:   2    -0.105432073191E+04   -0.96468E-03   -0.88719E-03 12443   0.130E-01    0.139E-01
RMM:   3    -0.105432077763E+04   -0.45722E-04   -0.47161E-04  9851   0.404E-02    0.805E-02
RMM:   4    -0.105432075030E+04    0.27331E-04   -0.94122E-05  7249   0.140E-02    0.521E-02
RMM:   5    -0.105432074255E+04    0.77428E-05   -0.41075E-05  7095   0.966E-03    0.316E-02
RMM:   6    -0.105432074376E+04   -0.12039E-05   -0.17106E-05  6908   0.624E-03    0.152E-02
RMM:   7    -0.105432074427E+04   -0.51189E-06   -0.65286E-06  6132   0.432E-03    0.974E-03
RMM:   8    -0.105432074439E+04   -0.12011E-06   -0.33565E-06  4784   0.286E-03
   4 F= -.10543207E+04 E0= -.10543189E+04  d E =-.718779E-03  mag=    78.0000
