<?xml version="1.0" encoding="ISO-8859-1"?>
<modeling>
 <generator>
  <i name="program" type="string">vasp </i>
  <i name="version" type="string">5.4.1  </i>
  <i name="subversion" type="string">05Feb16 (build Jan 25 2017 20:16:33) complex                          parallel </i>
  <i name="platform" type="string">BWXE6 </i>
  <i name="date" type="string">2019 06 30 </i>
  <i name="time" type="string">15:28:09 </i>
 </generator>
 <incar>
  <i type="string" name="SYSTEM"> STF</i>
  <i type="string" name="PREC">normal</i>
  <i type="string" name="ALGO"> Fast</i>
  <i type="int" name="ISPIN">     2</i>
  <i type="int" name="NELM">    40</i>
  <i type="int" name="NELMIN">     8</i>
  <i type="int" name="IBRION">     2</i>
  <i name="EDIFF">      0.00010000</i>
  <i name="EDIFFG">     -0.03000000</i>
  <i type="int" name="NSW">    30</i>
  <i type="int" name="ISIF">     3</i>
  <i name="ENCUT">    520.00000000</i>
  <i type="int" name="NBANDS">   768</i>
  <v name="MAGMOM">      0.60000000      0.60000000      0.60000000      0.60000000      0.60000000      0.60000000      0.60000000      0.60000000      0.60000000      0.60000000      0.60000000      0.60000000      0.60000000      0.60000000      0.60000000      0.60000000      0.60000000      0.60000000      0.60000000      0.60000000
      0.60000000      0.60000000      0.60000000      0.60000000      0.60000000      0.60000000      0.60000000      0.60000000      0.60000000      0.60000000      0.60000000      0.60000000      0.60000000      0.60000000      0.60000000      0.60000000      0.60000000      0.60000000      0.60000000      0.60000000
      0.60000000      0.60000000      0.60000000      0.60000000      0.60000000      0.60000000      0.60000000      0.60000000      5.00000000      5.00000000      5.00000000      5.00000000      5.00000000      5.00000000      5.00000000      5.00000000      5.00000000      5.00000000      5.00000000      5.00000000
      5.00000000      5.00000000      5.00000000      5.00000000      0.60000000      0.60000000      0.60000000      0.60000000      0.60000000      0.60000000      0.60000000      0.60000000      0.60000000      0.60000000      0.60000000      0.60000000      0.60000000      0.60000000      0.60000000      0.60000000
      0.60000000      0.60000000      0.60000000      0.60000000      0.60000000      0.60000000      0.60000000      0.60000000      0.60000000      0.60000000      0.60000000      0.60000000      0.60000000      0.60000000      0.60000000      0.60000000      0.60000000      0.60000000      0.60000000      0.60000000
      0.60000000      0.60000000      0.60000000      0.60000000      0.60000000      0.60000000      0.60000000      0.60000000      0.60000000      0.60000000      0.60000000      0.60000000      0.60000000      0.60000000      0.60000000      0.60000000      0.60000000      0.60000000      0.60000000      0.60000000
      0.60000000      0.60000000      0.60000000      0.60000000      0.60000000      0.60000000      0.60000000      0.60000000      0.60000000      0.60000000      0.60000000      0.60000000      0.60000000      0.60000000      0.60000000      0.60000000      0.60000000      0.60000000      0.60000000      0.60000000
      0.60000000      0.60000000      0.60000000      0.60000000      0.60000000      0.60000000      0.60000000      0.60000000      0.60000000      0.60000000      0.60000000      0.60000000</v>
  <i type="string" name="LREAL"> Auto</i>
  <i type="int" name="ISMEAR">     0</i>
  <i name="SIGMA">      0.05000000</i>
  <i type="int" name="LMAXMIX">     4</i>
  <v type="int" name="KPOINT_BSE">    -1     0     0     0</v>
  <i type="int" name="NELM">    40</i>
  <i type="logical" name="LDAU"> T  </i>
  <v type="int" name="LDAUTYPE">     2</v>
  <v type="int" name="LDAUL">     0     2     2     0</v>
  <v name="LDAUU">      0.00000000      3.00000000      5.00000000      0.00000000</v>
  <v name="LDAUJ">      0.00000000      0.00000000      0.00000000      0.00000000</v>
  <i type="int" name="LDAUPRINT">     1</i>
 </incar>
 <kpoints>
  <generation param="Monkhorst-Pack">
   <v type="int" name="divisions">       2        2        2 </v>
   <v name="usershift">      0.00000000       0.00000000       0.00000000 </v>
   <v name="genvec1">      0.50000000       0.00000000       0.00000000 </v>
   <v name="genvec2">     -0.00000000       0.50000000       0.00000000 </v>
   <v name="genvec3">      0.00000000       0.00000000       0.50000000 </v>
   <v name="shift">      0.50000000       0.50000000       0.50000000 </v>
  </generation>
  <varray name="kpointlist" >
   <v>       0.25000000       0.25000000       0.25000000 </v>
   <v>      -0.25000000       0.25000000       0.25000000 </v>
   <v>       0.25000000      -0.25000000       0.25000000 </v>
   <v>      -0.25000000      -0.25000000       0.25000000 </v>
  </varray>
  <varray name="weights" >
   <v>       0.25000000 </v>
   <v>       0.25000000 </v>
   <v>       0.25000000 </v>
   <v>       0.25000000 </v>
  </varray>
 </kpoints>
 <parameters>
  <separator name="general" >
   <i type="string" name="SYSTEM">STF</i>
   <i type="logical" name="LCOMPAT"> F  </i>
  </separator>
  <separator name="electronic" >
   <i type="string" name="PREC">normal</i>
   <i name="ENMAX">    520.00000000</i>
   <i name="ENAUG">    605.39200000</i>
   <i name="EDIFF">      0.00010000</i>
   <i type="int" name="IALGO">    68</i>
   <i type="int" name="IWAVPR">    11</i>
   <i type="int" name="NBANDS">   768</i>
   <i name="NELECT">   1040.00000000</i>
   <i type="int" name="TURBO">     0</i>
   <i type="int" name="IRESTART">     0</i>
   <i type="int" name="NREBOOT">     0</i>
   <i type="int" name="NMIN">     0</i>
   <i name="EREF">      0.00000000</i>
   <separator name="electronic smearing" >
    <i type="int" name="ISMEAR">     0</i>
    <i name="SIGMA">      0.05000000</i>
    <i name="KSPACING">      0.50000000</i>
    <i type="logical" name="KGAMMA"> T  </i>
   </separator>
   <separator name="electronic projectors" >
    <i type="logical" name="LREAL"> T  </i>
    <v name="ROPT">     -0.00050000     -0.00050000     -0.00050000     -0.00050000</v>
    <i type="int" name="LMAXPAW">  -100</i>
    <i type="int" name="LMAXMIX">     4</i>
    <i type="logical" name="NLSPLINE"> F  </i>
   </separator>
   <separator name="electronic startup" >
    <i type="int" name="ISTART">     1</i>
    <i type="int" name="ICHARG">     0</i>
    <i type="int" name="INIWAV">     1</i>
   </separator>
   <separator name="electronic spin" >
    <i type="int" name="ISPIN">     2</i>
    <i type="logical" name="LNONCOLLINEAR"> F  </i>
    <v name="MAGMOM">      0.60000000      0.60000000      0.60000000      0.60000000      0.60000000      0.60000000      0.60000000      0.60000000      0.60000000      0.60000000      0.60000000      0.60000000      0.60000000      0.60000000      0.60000000      0.60000000      0.60000000      0.60000000      0.60000000      0.60000000
      0.60000000      0.60000000      0.60000000      0.60000000      0.60000000      0.60000000      0.60000000      0.60000000      0.60000000      0.60000000      0.60000000      0.60000000      0.60000000      0.60000000      0.60000000      0.60000000      0.60000000      0.60000000      0.60000000      0.60000000
      0.60000000      0.60000000      0.60000000      0.60000000      0.60000000      0.60000000      0.60000000      0.60000000      5.00000000      5.00000000      5.00000000      5.00000000      5.00000000      5.00000000      5.00000000      5.00000000      5.00000000      5.00000000      5.00000000      5.00000000
      5.00000000      5.00000000      5.00000000      5.00000000      0.60000000      0.60000000      0.60000000      0.60000000      0.60000000      0.60000000      0.60000000      0.60000000      0.60000000      0.60000000      0.60000000      0.60000000      0.60000000      0.60000000      0.60000000      0.60000000
      0.60000000      0.60000000      0.60000000      0.60000000      0.60000000      0.60000000      0.60000000      0.60000000      0.60000000      0.60000000      0.60000000      0.60000000      0.60000000      0.60000000      0.60000000      0.60000000      0.60000000      0.60000000      0.60000000      0.60000000
      0.60000000      0.60000000      0.60000000      0.60000000      0.60000000      0.60000000      0.60000000      0.60000000      0.60000000      0.60000000      0.60000000      0.60000000      0.60000000      0.60000000      0.60000000      0.60000000      0.60000000      0.60000000      0.60000000      0.60000000
      0.60000000      0.60000000      0.60000000      0.60000000      0.60000000      0.60000000      0.60000000      0.60000000      0.60000000      0.60000000      0.60000000      0.60000000      0.60000000      0.60000000      0.60000000      0.60000000      0.60000000      0.60000000      0.60000000      0.60000000
      0.60000000      0.60000000      0.60000000      0.60000000      0.60000000      0.60000000      0.60000000      0.60000000      0.60000000      0.60000000      0.60000000      0.60000000</v>
    <i name="NUPDOWN">     -1.00000000</i>
    <i type="logical" name="LSORBIT"> F  </i>
    <v name="SAXIS">      0.00000000      0.00000000      1.00000000</v>
    <i type="logical" name="LSPIRAL"> F  </i>
    <v name="QSPIRAL">      0.00000000      0.00000000      0.00000000</v>
    <i type="logical" name="LZEROZ"> F  </i>
   </separator>
   <separator name="electronic exchange-correlation" >
    <i type="logical" name="LASPH"> F  </i>
    <i type="logical" name="LMETAGGA"> F  </i>
   </separator>
   <separator name="electronic convergence" >
    <i type="int" name="NELM">    40</i>
    <i type="int" name="NELMDL">     0</i>
    <i type="int" name="NELMIN">     8</i>
    <i name="ENINI">    520.00000000</i>
    <separator name="electronic convergence detail" >
     <i type="logical" name="LDIAG"> T  </i>
     <i type="logical" name="LSUBROT"> F  </i>
     <i name="WEIMIN">      0.00100000</i>
     <i name="EBREAK">      0.00000003</i>
     <i name="DEPER">      0.30000000</i>
     <i type="int" name="NRMM">     4</i>
     <i name="TIME">      0.40000000</i>
    </separator>
   </separator>
   <separator name="electronic mixer" >
    <i name="AMIX">      0.40000000</i>
    <i name="BMIX">      1.00000000</i>
    <i name="AMIN">      0.10000000</i>
    <i name="AMIX_MAG">      1.60000000</i>
    <i name="BMIX_MAG">      1.00000000</i>
    <separator name="electronic mixer details" >
     <i type="int" name="IMIX">     4</i>
     <i type="logical" name="MIXFIRST"> F  </i>
     <i type="int" name="MAXMIX">   -45</i>
     <i name="WC">    100.00000000</i>
     <i type="int" name="INIMIX">     1</i>
     <i type="int" name="MIXPRE">     1</i>
     <i type="int" name="MREMOVE">     5</i>
    </separator>
   </separator>
   <separator name="electronic dipolcorrection" >
    <i type="logical" name="LDIPOL"> F  </i>
    <i type="logical" name="LMONO"> F  </i>
    <i type="int" name="IDIPOL">     0</i>
    <i name="EPSILON">      1.00000000</i>
    <v name="DIPOL">   -100.00000000   -100.00000000   -100.00000000</v>
    <i name="EFIELD">      0.00000000</i>
   </separator>
  </separator>
  <separator name="grids" >
   <i type="int" name="NGX">    64</i>
   <i type="int" name="NGY">    64</i>
   <i type="int" name="NGZ">    90</i>
   <i type="int" name="NGXF">   128</i>
   <i type="int" name="NGYF">   128</i>
   <i type="int" name="NGZF">   180</i>
   <i type="logical" name="ADDGRID"> F  </i>
  </separator>
  <separator name="ionic" >
   <i type="int" name="NSW">    30</i>
   <i type="int" name="IBRION">     2</i>
   <i type="int" name="ISIF">     3</i>
   <i name="PSTRESS">      0.00000000</i>
   <i name="EDIFFG">     -0.03000000</i>
   <i type="int" name="NFREE">     1</i>
   <i name="POTIM">      0.50000000</i>
   <i name="SMASS">     -3.00000000</i>
   <i name="SCALEE">      1.00000000</i>
  </separator>
  <separator name="ionic md" >
   <i name="TEBEG">      0.00010000</i>
   <i name="TEEND">      0.00010000</i>
   <i type="int" name="NBLOCK">     1</i>
   <i type="int" name="KBLOCK">    30</i>
   <i type="int" name="NPACO">   256</i>
   <i name="APACO">     16.00000000</i>
  </separator>
  <separator name="symmetry" >
   <i type="int" name="ISYM">     2</i>
   <i name="SYMPREC">      0.00001000</i>
  </separator>
  <separator name="dos" >
   <i type="logical" name="LORBIT"> F  </i>
   <v name="RWIGS">     -1.00000000     -1.00000000     -1.00000000     -1.00000000</v>
   <i type="int" name="NEDOS">   301</i>
   <i name="EMIN">     10.00000000</i>
   <i name="EMAX">    -10.00000000</i>
   <i name="EFERMI">      0.00000000</i>
  </separator>
  <separator name="writing" >
   <i type="int" name="NWRITE">     2</i>
   <i type="logical" name="LWAVE"> T  </i>
   <i type="logical" name="LCHARG"> T  </i>
   <i type="logical" name="LPARD"> F  </i>
   <i type="logical" name="LVTOT"> F  </i>
   <i type="logical" name="LVHAR"> F  </i>
   <i type="logical" name="LELF"> F  </i>
   <i type="logical" name="LOPTICS"> F  </i>
   <v name="STM">      0.00000000      0.00000000      0.00000000      0.00000000      0.00000000      0.00000000      0.00000000</v>
  </separator>
  <separator name="performance" >
   <i type="int" name="NPAR">     2</i>
   <i type="int" name="NSIM">     4</i>
   <i type="int" name="NBLK">    -1</i>
   <i type="logical" name="LPLANE"> T  </i>
   <i type="logical" name="LSCALAPACK"> T  </i>
   <i type="logical" name="LSCAAWARE"> F  </i>
   <i type="logical" name="LSCALU"> F  </i>
   <i type="logical" name="LASYNC"> F  </i>
   <i type="logical" name="LORBITALREAL"> F  </i>
  </separator>
  <separator name="miscellaneous" >
   <i type="int" name="IDIOT">     3</i>
   <i type="logical" name="LMUSIC"> F  </i>
   <v name="POMASS">     87.62000000     47.88000000     55.84700000     16.00000000</v>
   <v name="DARWINR">      0.00000000      0.00000000      0.00000000      0.00000000</v>
   <v name="DARWINV">      1.00000000      1.00000000      1.00000000      1.00000000</v>
   <i type="logical" name="LCORR"> T  </i>
  </separator>
  <i type="logical" name="GGA_COMPAT"> T  </i>
  <i type="logical" name="LBERRY"> F  </i>
  <i type="int" name="ICORELEVEL">     0</i>
  <i type="logical" name="LDAU"> T  </i>
  <v type="int" name="LDAUTYPE">     2</v>
  <v type="int" name="LDAUL">     0</v>
  <v name="LDAUU">      0.00000000</v>
  <v name="LDAUJ">      0.00000000</v>
  <i type="int" name="LDAUPRINT">     1</i>
  <i type="int" name="I_CONSTRAINED_M">     0</i>
  <separator name="electronic exchange-correlation" >
   <i type="string" name="GGA">--</i>
   <i type="int" name="VOSKOWN">     0</i>
   <i type="logical" name="LHFCALC"> F  </i>
   <i type="string" name="PRECFOCK"></i>
   <i type="logical" name="LSYMGRAD"> F  </i>
   <i type="logical" name="LHFONE"> F  </i>
   <i type="logical" name="LRHFCALC"> F  </i>
   <i type="logical" name="LTHOMAS"> F  </i>
   <i type="logical" name="LMODELHF"> F  </i>
   <i name="ENCUT4O">     -1.00000000</i>
   <i type="int" name="EXXOEP">     0</i>
   <i type="int" name="FOURORBIT">     0</i>
   <i name="AEXX">      0.00000000</i>
   <i name="HFALPHA">      0.00000000</i>
   <i name="MCALPHA">      0.00000000</i>
   <i name="ALDAX">      1.00000000</i>
   <i name="AGGAX">      1.00000000</i>
   <i name="ALDAC">      1.00000000</i>
   <i name="AGGAC">      1.00000000</i>
   <i type="int" name="NKREDX">     1</i>
   <i type="int" name="NKREDY">     1</i>
   <i type="int" name="NKREDZ">     1</i>
   <i type="logical" name="SHIFTRED"> F  </i>
   <i type="logical" name="ODDONLY"> F  </i>
   <i type="logical" name="EVENONLY"> F  </i>
   <i type="int" name="LMAXFOCK">     0</i>
   <i type="int" name="NMAXFOCKAE">     0</i>
   <i type="logical" name="LFOCKAEDFT"> F  </i>
   <i name="HFSCREEN">      0.00000000</i>
   <i name="HFSCREENC">      0.00000000</i>
   <i type="int" name="NBANDSGWLOW">     0</i>
  </separator>
  <separator name="vdW DFT" >
   <i type="logical" name="LUSE_VDW"> F  </i>
   <i name="Zab_VDW">     -0.84910000</i>
   <i name="PARAM1">      0.12340000</i>
   <i name="PARAM2">      1.00000000</i>
   <i name="PARAM3">      0.00000000</i>
  </separator>
  <separator name="model GW" >
   <i type="int" name="MODEL_GW">     0</i>
   <i name="MODEL_EPS0">      7.93394035</i>
   <i name="MODEL_ALPHA">      1.00000000</i>
  </separator>
  <separator name="linear response parameters" >
   <i type="logical" name="LEPSILON"> F  </i>
   <i type="logical" name="LRPA"> F  </i>
   <i type="logical" name="LNABLA"> F  </i>
   <i type="logical" name="LVEL"> F  </i>
   <i type="int" name="KINTER">     0</i>
   <i name="CSHIFT">      0.10000000</i>
   <i name="OMEGAMAX">     -1.00000000</i>
   <i name="DEG_THRESHOLD">      0.00200000</i>
  </separator>
  <separator name="orbital magnetization" >
   <i type="logical" name="NUCIND"> F  </i>
   <v name="MAGPOS">      0.00000000      0.00000000      0.00000000</v>
   <i type="logical" name="LNICSALL"> T  </i>
   <i type="logical" name="ORBITALMAG"> F  </i>
   <i type="logical" name="LMAGBLOCH"> F  </i>
   <i type="logical" name="LCHIMAG"> F  </i>
   <i type="logical" name="LGAUGE"> T  </i>
   <i type="int" name="MAGATOM">     0</i>
   <v name="MAGDIPOL">      0.00000000      0.00000000      0.00000000</v>
   <v name="AVECCONST">      0.00000000      0.00000000      0.00000000</v>
  </separator>
  <separator name="response functions" >
   <i type="logical" name="LADDER"> F  </i>
   <i type="logical" name="LFXC"> F  </i>
   <i type="logical" name="LHARTREE"> T  </i>
   <i type="int" name="IBSE">     0</i>
   <v type="int" name="KPOINT">    -1     0     0     0</v>
   <i type="logical" name="LTCTE"> F  </i>
   <i type="logical" name="LTETE"> F  </i>
   <i type="logical" name="LTRIPLET"> F  </i>
   <i type="logical" name="LFXCEPS"> F  </i>
   <i type="logical" name="LFXHEG"> F  </i>
   <i type="int" name="NATURALO">     0</i>
   <i type="logical" name="L2ORDER"> F  </i>
   <i type="logical" name="LUSEW"> F  </i>
   <i name="ENCUTGW">     -2.00000000</i>
   <i name="ENCUTGWSOFT">     -2.00000000</i>
   <i name="ENCUTLF">     -1.00000000</i>
   <i type="int" name="LMAXMP2">    -1</i>
   <i name="SCISSOR">      0.00000000</i>
   <i type="int" name="NOMEGA">     0</i>
   <i type="int" name="NOMEGAR">     0</i>
   <i type="int" name="NBANDSGW">    -1</i>
   <i type="int" name="NBANDSO">    -1</i>
   <i type="int" name="NBANDSV">    -1</i>
   <i type="int" name="NELM">    40</i>
   <i type="int" name="NELMHF">     1</i>
   <i type="int" name="DIM">     3</i>
   <i type="int" name="ANTIRES">     0</i>
   <i name="OMEGAMAX">    -30.00000000</i>
   <i name="OMEGAMIN">    -30.00000000</i>
   <i name="OMEGATL">   -200.00000000</i>
   <i type="int" name="OMEGAGRID">     0</i>
   <i name="CSHIFT">     -0.10000000</i>
   <i type="logical" name="SELFENERGY"> F  </i>
   <i type="logical" name="LSPECTRAL"> F  </i>
   <i type="logical" name="LSPECTRALGW"> F  </i>
   <i type="logical" name="LSINGLES"> F  </i>
   <i type="logical" name="LFERMIGW"> F  </i>
   <i type="logical" name="ODDONLYGW"> F  </i>
   <i type="logical" name="EVENONLYGW"> F  </i>
   <i type="int" name="NKREDLFX">     1</i>
   <i type="int" name="NKREDLFY">     1</i>
   <i type="int" name="NKREDLFZ">     1</i>
   <i type="int" name="MAXMEM">  1800</i>
   <i type="int" name="TELESCOPE">     0</i>
   <i type="int" name="TAUPAR">     1</i>
   <i type="int" name="OMEGAPAR">    -1</i>
   <i name="LAMBDA">      1.00000000</i>
  </separator>
  <separator name="External order field" >
   <i name="OFIELD_KAPPA">      0.00000000</i>
   <v name="OFIELD_K">      0.00000000      0.00000000      0.00000000</v>
   <i name="OFIELD_Q6_NEAR">      0.00000000</i>
   <i name="OFIELD_Q6_FAR">      0.00000000</i>
   <i name="OFIELD_A">      0.00000000</i>
  </separator>
 </parameters>
 <atominfo>
  <atoms>     152 </atoms>
  <types>       4 </types>
  <array name="atoms" >
   <dimension dim="1">ion</dimension>
   <field type="string">element</field>
   <field type="int">atomtype</field>
   <set>
    <rc><c>Sr</c><c>   1</c></rc>
    <rc><c>Sr</c><c>   1</c></rc>
    <rc><c>Sr</c><c>   1</c></rc>
    <rc><c>Sr</c><c>   1</c></rc>
    <rc><c>Sr</c><c>   1</c></rc>
    <rc><c>Sr</c><c>   1</c></rc>
    <rc><c>Sr</c><c>   1</c></rc>
    <rc><c>Sr</c><c>   1</c></rc>
    <rc><c>Sr</c><c>   1</c></rc>
    <rc><c>Sr</c><c>   1</c></rc>
    <rc><c>Sr</c><c>   1</c></rc>
    <rc><c>Sr</c><c>   1</c></rc>
    <rc><c>Sr</c><c>   1</c></rc>
    <rc><c>Sr</c><c>   1</c></rc>
    <rc><c>Sr</c><c>   1</c></rc>
    <rc><c>Sr</c><c>   1</c></rc>
    <rc><c>Sr</c><c>   1</c></rc>
    <rc><c>Sr</c><c>   1</c></rc>
    <rc><c>Sr</c><c>   1</c></rc>
    <rc><c>Sr</c><c>   1</c></rc>
    <rc><c>Sr</c><c>   1</c></rc>
    <rc><c>Sr</c><c>   1</c></rc>
    <rc><c>Sr</c><c>   1</c></rc>
    <rc><c>Sr</c><c>   1</c></rc>
    <rc><c>Sr</c><c>   1</c></rc>
    <rc><c>Sr</c><c>   1</c></rc>
    <rc><c>Sr</c><c>   1</c></rc>
    <rc><c>Sr</c><c>   1</c></rc>
    <rc><c>Sr</c><c>   1</c></rc>
    <rc><c>Sr</c><c>   1</c></rc>
    <rc><c>Sr</c><c>   1</c></rc>
    <rc><c>Sr</c><c>   1</c></rc>
    <rc><c>Ti</c><c>   2</c></rc>
    <rc><c>Ti</c><c>   2</c></rc>
    <rc><c>Ti</c><c>   2</c></rc>
    <rc><c>Ti</c><c>   2</c></rc>
    <rc><c>Ti</c><c>   2</c></rc>
    <rc><c>Ti</c><c>   2</c></rc>
    <rc><c>Ti</c><c>   2</c></rc>
    <rc><c>Ti</c><c>   2</c></rc>
    <rc><c>Ti</c><c>   2</c></rc>
    <rc><c>Ti</c><c>   2</c></rc>
    <rc><c>Ti</c><c>   2</c></rc>
    <rc><c>Ti</c><c>   2</c></rc>
    <rc><c>Ti</c><c>   2</c></rc>
    <rc><c>Ti</c><c>   2</c></rc>
    <rc><c>Ti</c><c>   2</c></rc>
    <rc><c>Ti</c><c>   2</c></rc>
    <rc><c>Fe</c><c>   3</c></rc>
    <rc><c>Fe</c><c>   3</c></rc>
    <rc><c>Fe</c><c>   3</c></rc>
    <rc><c>Fe</c><c>   3</c></rc>
    <rc><c>Fe</c><c>   3</c></rc>
    <rc><c>Fe</c><c>   3</c></rc>
    <rc><c>Fe</c><c>   3</c></rc>
    <rc><c>Fe</c><c>   3</c></rc>
    <rc><c>Fe</c><c>   3</c></rc>
    <rc><c>Fe</c><c>   3</c></rc>
    <rc><c>Fe</c><c>   3</c></rc>
    <rc><c>Fe</c><c>   3</c></rc>
    <rc><c>Fe</c><c>   3</c></rc>
    <rc><c>Fe</c><c>   3</c></rc>
    <rc><c>Fe</c><c>   3</c></rc>
    <rc><c>Fe</c><c>   3</c></rc>
    <rc><c>O </c><c>   4</c></rc>
    <rc><c>O </c><c>   4</c></rc>
    <rc><c>O </c><c>   4</c></rc>
    <rc><c>O </c><c>   4</c></rc>
    <rc><c>O </c><c>   4</c></rc>
    <rc><c>O </c><c>   4</c></rc>
    <rc><c>O </c><c>   4</c></rc>
    <rc><c>O </c><c>   4</c></rc>
    <rc><c>O </c><c>   4</c></rc>
    <rc><c>O </c><c>   4</c></rc>
    <rc><c>O </c><c>   4</c></rc>
    <rc><c>O </c><c>   4</c></rc>
    <rc><c>O </c><c>   4</c></rc>
    <rc><c>O </c><c>   4</c></rc>
    <rc><c>O </c><c>   4</c></rc>
    <rc><c>O </c><c>   4</c></rc>
    <rc><c>O </c><c>   4</c></rc>
    <rc><c>O </c><c>   4</c></rc>
    <rc><c>O </c><c>   4</c></rc>
    <rc><c>O </c><c>   4</c></rc>
    <rc><c>O </c><c>   4</c></rc>
    <rc><c>O </c><c>   4</c></rc>
    <rc><c>O </c><c>   4</c></rc>
    <rc><c>O </c><c>   4</c></rc>
    <rc><c>O </c><c>   4</c></rc>
    <rc><c>O </c><c>   4</c></rc>
    <rc><c>O </c><c>   4</c></rc>
    <rc><c>O </c><c>   4</c></rc>
    <rc><c>O </c><c>   4</c></rc>
    <rc><c>O </c><c>   4</c></rc>
    <rc><c>O </c><c>   4</c></rc>
    <rc><c>O </c><c>   4</c></rc>
    <rc><c>O </c><c>   4</c></rc>
    <rc><c>O </c><c>   4</c></rc>
    <rc><c>O </c><c>   4</c></rc>
    <rc><c>O </c><c>   4</c></rc>
    <rc><c>O </c><c>   4</c></rc>
    <rc><c>O </c><c>   4</c></rc>
    <rc><c>O </c><c>   4</c></rc>
    <rc><c>O </c><c>   4</c></rc>
    <rc><c>O </c><c>   4</c></rc>
    <rc><c>O </c><c>   4</c></rc>
    <rc><c>O </c><c>   4</c></rc>
    <rc><c>O </c><c>   4</c></rc>
    <rc><c>O </c><c>   4</c></rc>
    <rc><c>O </c><c>   4</c></rc>
    <rc><c>O </c><c>   4</c></rc>
    <rc><c>O </c><c>   4</c></rc>
    <rc><c>O </c><c>   4</c></rc>
    <rc><c>O </c><c>   4</c></rc>
    <rc><c>O </c><c>   4</c></rc>
    <rc><c>O </c><c>   4</c></rc>
    <rc><c>O </c><c>   4</c></rc>
    <rc><c>O </c><c>   4</c></rc>
    <rc><c>O </c><c>   4</c></rc>
    <rc><c>O </c><c>   4</c></rc>
    <rc><c>O </c><c>   4</c></rc>
    <rc><c>O </c><c>   4</c></rc>
    <rc><c>O </c><c>   4</c></rc>
    <rc><c>O </c><c>   4</c></rc>
    <rc><c>O </c><c>   4</c></rc>
    <rc><c>O </c><c>   4</c></rc>
    <rc><c>O </c><c>   4</c></rc>
    <rc><c>O </c><c>   4</c></rc>
    <rc><c>O </c><c>   4</c></rc>
    <rc><c>O </c><c>   4</c></rc>
    <rc><c>O </c><c>   4</c></rc>
    <rc><c>O </c><c>   4</c></rc>
    <rc><c>O </c><c>   4</c></rc>
    <rc><c>O </c><c>   4</c></rc>
    <rc><c>O </c><c>   4</c></rc>
    <rc><c>O </c><c>   4</c></rc>
    <rc><c>O </c><c>   4</c></rc>
    <rc><c>O </c><c>   4</c></rc>
    <rc><c>O </c><c>   4</c></rc>
    <rc><c>O </c><c>   4</c></rc>
    <rc><c>O </c><c>   4</c></rc>
    <rc><c>O </c><c>   4</c></rc>
    <rc><c>O </c><c>   4</c></rc>
    <rc><c>O </c><c>   4</c></rc>
    <rc><c>O </c><c>   4</c></rc>
    <rc><c>O </c><c>   4</c></rc>
    <rc><c>O </c><c>   4</c></rc>
    <rc><c>O </c><c>   4</c></rc>
    <rc><c>O </c><c>   4</c></rc>
    <rc><c>O </c><c>   4</c></rc>
    <rc><c>O </c><c>   4</c></rc>
    <rc><c>O </c><c>   4</c></rc>
   </set>
  </array>
  <array name="atomtypes" >
   <dimension dim="1">type</dimension>
   <field type="int">atomspertype</field>
   <field type="string">element</field>
   <field>mass</field>
   <field>valence</field>
   <field type="string">pseudopotential</field>
   <set>
    <rc><c>  32</c><c>Sr</c><c>     87.62000000</c><c>     10.00000000</c><c>  PAW_PBE Sr_sv 07Sep2000               </c></rc>
    <rc><c>  16</c><c>Ti</c><c>     47.88000000</c><c>      4.00000000</c><c>  PAW_PBE Ti 08Apr2002                  </c></rc>
    <rc><c>  16</c><c>Fe</c><c>     55.84700000</c><c>      8.00000000</c><c>  PAW_PBE Fe 06Sep2000                  </c></rc>
    <rc><c>  88</c><c>O </c><c>     16.00000000</c><c>      6.00000000</c><c>  PAW_PBE O 08Apr2002                   </c></rc>
   </set>
  </array>
 </atominfo>
 <structure name="initialpos" >
  <crystal>
   <varray name="basis" >
    <v>      11.23094605       0.00038230       0.00637512 </v>
    <v>       0.00036245      11.25734965       0.03082056 </v>
    <v>       0.00863896       0.04450736      15.89762452 </v>
   </varray>
   <i name="volume">   2009.93155591 </i>
   <varray name="rec_basis" >
    <v>       0.08903972      -0.00000273      -0.00004838 </v>
    <v>      -0.00000288       0.08883154      -0.00024869 </v>
    <v>      -0.00003570      -0.00017222       0.06290298 </v>
   </varray>
  </crystal>
  <varray name="positions" >
   <v>       0.98814241       0.23863221       0.11909892 </v>
   <v>       0.01425030       0.24306543       0.63289626 </v>
   <v>       0.99747018       0.76064397       0.12460680 </v>
   <v>       0.99212204       0.74747085       0.63295861 </v>
   <v>       0.50645545       0.23922128       0.11304270 </v>
   <v>       0.48092346       0.25792184       0.63330717 </v>
   <v>       0.50733723       0.75357097       0.11476071 </v>
   <v>       0.50820073       0.74869732       0.63350981 </v>
   <v>       0.00953934       0.23793203       0.36833801 </v>
   <v>       0.00271247       0.25066353       0.88344564 </v>
   <v>       0.99766512       0.75946937       0.37493950 </v>
   <v>       0.99630037       0.74413457       0.87470569 </v>
   <v>       0.49072514       0.24441204       0.37711600 </v>
   <v>       0.49576849       0.25421768       0.87979901 </v>
   <v>       0.50275984       0.75441291       0.37397466 </v>
   <v>       0.50742388       0.74439871       0.87261813 </v>
   <v>       0.25202027       0.99849384       0.11930732 </v>
   <v>       0.25193161       0.00880257       0.63139272 </v>
   <v>       0.25568672       0.50221134       0.11466037 </v>
   <v>       0.25211304       0.49529769       0.63601073 </v>
   <v>       0.74850634       0.00022561       0.11821301 </v>
   <v>       0.75405623       0.97886974       0.63384471 </v>
   <v>       0.74797373       0.48989037       0.11565027 </v>
   <v>       0.74733673       0.51709576       0.63604708 </v>
   <v>       0.24176004       0.99858956       0.36954496 </v>
   <v>       0.25052283       0.00637561       0.87757993 </v>
   <v>       0.25105807       0.49635664       0.37732146 </v>
   <v>       0.25236376       0.49573111       0.87456742 </v>
   <v>       0.75679118       0.98025996       0.36712741 </v>
   <v>       0.75261694       0.99415868       0.87983323 </v>
   <v>       0.75075389       0.50998573       0.38026818 </v>
   <v>       0.75066307       0.49884316       0.87671483 </v>
   <v>       0.00240964       0.00008553       0.00126361 </v>
   <v>       0.00361549       0.49517485       0.50456122 </v>
   <v>       0.50039088       0.00023167       0.99399008 </v>
   <v>       0.49933997       0.49777090       0.99733370 </v>
   <v>       0.49191466       0.51020177       0.50222309 </v>
   <v>       0.25090974       0.24688397       0.50058257 </v>
   <v>       0.73258552       0.25945141       0.51140638 </v>
   <v>       0.75511375       0.74437099       0.00043845 </v>
   <v>       0.74979787       0.74890267       0.50124848 </v>
   <v>       0.23909507       0.26013785       0.24718831 </v>
   <v>       0.24865428       0.25195956       0.75643084 </v>
   <v>       0.75989844       0.25671486       0.75464466 </v>
   <v>       0.74922274       0.74902560       0.24619885 </v>
   <v>       0.00172035       0.99321547       0.75231120 </v>
   <v>       0.99385226       0.50441389       0.25859330 </v>
   <v>       0.51515008       0.48581518       0.25311252 </v>
   <v>       0.01778921       0.98348707       0.50047434 </v>
   <v>       0.00404094       0.49914987       0.99067360 </v>
   <v>       0.52170074       0.01482560       0.49887771 </v>
   <v>       0.24949622       0.24924974       0.00509735 </v>
   <v>       0.25512821       0.74883042       0.01304806 </v>
   <v>       0.24312086       0.73508331       0.49853966 </v>
   <v>       0.74920186       0.24712847       0.99732315 </v>
   <v>       0.23862494       0.76444449       0.25054380 </v>
   <v>       0.25333657       0.75130634       0.73275767 </v>
   <v>       0.74575879       0.24362577       0.23923170 </v>
   <v>       0.75165139       0.74568423       0.75428340 </v>
   <v>       0.99346481       0.00168618       0.25100616 </v>
   <v>       0.00474546       0.50239409       0.74926282 </v>
   <v>       0.50549083       0.98908192       0.24987833 </v>
   <v>       0.49104583       0.98657715       0.75266245 </v>
   <v>       0.49882532       0.50035386       0.75253615 </v>
   <v>       0.12998745       0.12409189       0.24779531 </v>
   <v>       0.12361156       0.12472290       0.74467524 </v>
   <v>       0.11940805       0.61477266       0.22858834 </v>
   <v>       0.12755856       0.62944779       0.73634033 </v>
   <v>       0.59510210       0.13881075       0.25556499 </v>
   <v>       0.60909301       0.63285148       0.24739590 </v>
   <v>       0.62505532       0.62161681       0.74673134 </v>
   <v>       0.37526781       0.37784587       0.25778090 </v>
   <v>       0.37187534       0.37426655       0.75490193 </v>
   <v>       0.36143056       0.89322414       0.25324125 </v>
   <v>       0.37249435       0.86978897       0.76964003 </v>
   <v>       0.88438485       0.37207282       0.24451929 </v>
   <v>       0.87511826       0.37010026       0.75414499 </v>
   <v>       0.87399552       0.86676889       0.25483655 </v>
   <v>       0.88201745       0.86864364       0.75375605 </v>
   <v>       0.37771851       0.12770685       0.74608546 </v>
   <v>       0.37007531       0.62555920       0.75727299 </v>
   <v>       0.85894957       0.12373455       0.26311940 </v>
   <v>       0.85915787       0.11296765       0.74778026 </v>
   <v>       0.86832673       0.61504639       0.23159228 </v>
   <v>       0.87690119       0.61979854       0.74191396 </v>
   <v>       0.12322238       0.37731958       0.24483292 </v>
   <v>       0.12517919       0.37330261       0.74935282 </v>
   <v>       0.11306581       0.87232792       0.25835424 </v>
   <v>       0.12897116       0.87381648       0.75732606 </v>
   <v>       0.63834514       0.37783433       0.27233962 </v>
   <v>       0.61882763       0.35289995       0.74424148 </v>
   <v>       0.62760995       0.87514802       0.25881736 </v>
   <v>       0.63385878       0.88248132       0.75489905 </v>
   <v>       0.36962362       0.37953879       0.99863771 </v>
   <v>       0.36630002       0.38537025       0.49320891 </v>
   <v>       0.37366675       0.87398182       0.98145945 </v>
   <v>       0.87331256       0.37767299       0.99990870 </v>
   <v>       0.87664491       0.87267644       0.99587902 </v>
   <v>       0.87520964       0.87132024       0.49784616 </v>
   <v>       0.12583077       0.12382441       0.00847154 </v>
   <v>       0.12423230       0.12685809       0.50494967 </v>
   <v>       0.13565231       0.62474843       0.99584428 </v>
   <v>       0.12706004       0.61403508       0.51420424 </v>
   <v>       0.62890628       0.11636442       0.00640529 </v>
   <v>       0.66453807       0.11938939       0.46952411 </v>
   <v>       0.63294948       0.61716908       0.00739808 </v>
   <v>       0.63208255       0.61399606       0.50095885 </v>
   <v>       0.11836012       0.37532716       0.02726043 </v>
   <v>       0.12107889       0.36914487       0.48103139 </v>
   <v>       0.12873734       0.87275533       0.00211048 </v>
   <v>       0.14395412       0.87247353       0.48207688 </v>
   <v>       0.61840848       0.36990758       0.00345803 </v>
   <v>       0.61599519       0.36915513       0.48711373 </v>
   <v>       0.62416228       0.86732307       0.99298958 </v>
   <v>       0.61568653       0.86414821       0.49380202 </v>
   <v>       0.37799941       0.12483053       0.99516112 </v>
   <v>       0.38514822       0.13323032       0.50974738 </v>
   <v>       0.38185506       0.62941026       0.98900362 </v>
   <v>       0.38911922       0.64570528       0.50529705 </v>
   <v>       0.87792685       0.12369993       0.99860758 </v>
   <v>       0.87155200       0.33479695       0.47473366 </v>
   <v>       0.88516160       0.62296883       0.02116595 </v>
   <v>       0.87343980       0.61103916       0.50649163 </v>
   <v>       0.98938831       0.99784701       0.12682325 </v>
   <v>       0.99695220       0.99568329       0.62262264 </v>
   <v>       0.99124170       0.46723005       0.61978583 </v>
   <v>       0.49253451       0.99412180       0.12366151 </v>
   <v>       0.51765564       0.00355235       0.62394371 </v>
   <v>       0.49114113       0.50107569       0.13152217 </v>
   <v>       0.49529006       0.49290762       0.62259323 </v>
   <v>       0.98640465       0.01634478       0.38289641 </v>
   <v>       0.00586148       0.00703392       0.87529825 </v>
   <v>       0.99524194       0.52002131       0.37418691 </v>
   <v>       0.00628584       0.50296462       0.87278093 </v>
   <v>       0.47355948       0.99786988       0.38292709 </v>
   <v>       0.51988214       0.02498756       0.86961381 </v>
   <v>       0.48355921       0.52283638       0.37080736 </v>
   <v>       0.51246103       0.49584590       0.87614758 </v>
   <v>       0.26420497       0.22792365       0.36859197 </v>
   <v>       0.23730789       0.25052453       0.87808502 </v>
   <v>       0.26458999       0.72047674       0.36774072 </v>
   <v>       0.73665447       0.23646403       0.87188750 </v>
   <v>       0.75813918       0.73392378       0.37366009 </v>
   <v>       0.76154010       0.72953847       0.87912352 </v>
   <v>       0.28202475       0.22936791       0.13475771 </v>
   <v>       0.24711851       0.26276904       0.62274090 </v>
   <v>       0.27995837       0.73884767       0.13254928 </v>
   <v>       0.27561365       0.78532928       0.61511608 </v>
   <v>       0.74606802       0.24874340       0.12413219 </v>
   <v>       0.73935189       0.22779812       0.62496523 </v>
   <v>       0.74391492       0.76585527       0.12551036 </v>
   <v>       0.74880652       0.75196871       0.62301701 </v>
  </varray>
 </structure>
 <calculation>
  <scstep>
   <time name="dav">  626.91  626.94</time>
   <time name="total">  634.20  634.29</time>
   <energy>
    <i name="alphaZ">   5603.29403225 </i>
    <i name="ewald"> -61821.82832900 </i>
    <i name="hartreedc"> -17755.15538279 </i>
    <i name="XCdc">   3184.83757800 </i>
    <i name="pawpsdc"> 114079.32870063 </i>
    <i name="pawaedc">-113282.49330339 </i>
    <i name="eentropy">     -0.00000000 </i>
    <i name="bandstr">  -7112.39019928 </i>
    <i name="atom">  76050.17612637 </i>
    <i name="e_fr_energy">  -1054.23077720 </i>
    <i name="e_wo_entrp">  -1054.23077720 </i>
    <i name="e_0_energy">  -1054.23077720 </i>
   </energy>
  </scstep>
  <scstep>
   <time name="diag">   65.01   65.02</time>
   <time name="diis">   61.91   61.93</time>
   <time name="orth">   33.33   33.33</time>
   <time name="total">  167.59  167.67</time>
   <energy>
    <i name="e_fr_energy">  -1054.23077341 </i>
    <i name="e_wo_entrp">  -1054.23077341 </i>
    <i name="e_0_energy">  -1054.23077341 </i>
   </energy>
  </scstep>
  <scstep>
   <time name="diag">   65.04   65.05</time>
   <time name="diis">   58.88   58.89</time>
   <time name="orth">   33.39   33.42</time>
   <time name="total">  164.61  164.69</time>
   <energy>
    <i name="e_fr_energy">  -1054.23077362 </i>
    <i name="e_wo_entrp">  -1054.23077362 </i>
    <i name="e_0_energy">  -1054.23077362 </i>
   </energy>
  </scstep>
  <scstep>
   <time name="diag">   64.99   65.02</time>
   <time name="diis">   49.21   49.21</time>
   <time name="orth">   33.44   33.44</time>
   <time name="total">  154.91  154.98</time>
   <energy>
    <i name="e_fr_energy">  -1054.23077359 </i>
    <i name="e_wo_entrp">  -1054.23077359 </i>
    <i name="e_0_energy">  -1054.23077359 </i>
   </energy>
  </scstep>
  <scstep>
   <time name="diag">   65.02   65.05</time>
   <time name="diis">   48.19   48.20</time>
   <time name="orth">   33.41   33.42</time>
   <time name="total">  153.96  154.08</time>
   <energy>
    <i name="e_fr_energy">  -1054.23077365 </i>
    <i name="e_wo_entrp">  -1054.23077365 </i>
    <i name="e_0_energy">  -1054.23077365 </i>
   </energy>
  </scstep>
  <scstep>
   <time name="diag">   65.09   65.09</time>
   <time name="diis">   45.85   45.85</time>
   <time name="orth">   33.37   33.37</time>
   <time name="total">  151.63  151.67</time>
   <energy>
    <i name="e_fr_energy">  -1054.23077371 </i>
    <i name="e_wo_entrp">  -1054.23077371 </i>
    <i name="e_0_energy">  -1054.23077371 </i>
   </energy>
  </scstep>
  <scstep>
   <time name="diag">   65.02   65.03</time>
   <time name="diis">   44.74   44.75</time>
   <time name="orth">   33.27   33.28</time>
   <time name="total">  150.43  150.50</time>
   <energy>
    <i name="e_fr_energy">  -1054.23077375 </i>
    <i name="e_wo_entrp">  -1054.23077375 </i>
    <i name="e_0_energy">  -1054.23077375 </i>
   </energy>
  </scstep>
  <scstep>
   <time name="diag">   64.98   65.02</time>
   <time name="diis">   43.54   43.57</time>
   <time name="orth">   33.33   33.33</time>
   <time name="total">  142.88  143.10</time>
   <energy>
    <i name="alphaZ">   5603.29403225 </i>
    <i name="ewald"> -61821.82832900 </i>
    <i name="hartreedc"> -17755.15652729 </i>
    <i name="XCdc">   3184.83805316 </i>
    <i name="pawpsdc"> 114079.03968058 </i>
    <i name="pawaedc">-113282.19770399 </i>
    <i name="eentropy">     -0.00000000 </i>
    <i name="bandstr">  -7112.39610587 </i>
    <i name="atom">  76050.17612637 </i>
    <i name="e_fr_energy">  -1054.23077377 </i>
    <i name="e_wo_entrp">  -1054.23077377 </i>
    <i name="e_0_energy">  -1054.23077377 </i>
   </energy>
  </scstep>
  <structure>
   <crystal>
    <varray name="basis" >
     <v>      11.23094605       0.00038230       0.00637512 </v>
     <v>       0.00036245      11.25734965       0.03082056 </v>
     <v>       0.00863896       0.04450736      15.89762452 </v>
    </varray>
    <i name="volume">   2009.93155591 </i>
    <varray name="rec_basis" >
     <v>       0.08903972      -0.00000273      -0.00004838 </v>
     <v>      -0.00000288       0.08883154      -0.00024869 </v>
     <v>      -0.00003570      -0.00017222       0.06290298 </v>
    </varray>
   </crystal>
   <varray name="positions" >
    <v>       0.98814241       0.23863221       0.11909892 </v>
    <v>       0.01425030       0.24306543       0.63289626 </v>
    <v>       0.99747018       0.76064397       0.12460680 </v>
    <v>       0.99212204       0.74747085       0.63295861 </v>
    <v>       0.50645545       0.23922128       0.11304270 </v>
    <v>       0.48092346       0.25792184       0.63330717 </v>
    <v>       0.50733723       0.75357097       0.11476071 </v>
    <v>       0.50820073       0.74869732       0.63350981 </v>
    <v>       0.00953934       0.23793203       0.36833801 </v>
    <v>       0.00271247       0.25066353       0.88344564 </v>
    <v>       0.99766512       0.75946937       0.37493950 </v>
    <v>       0.99630037       0.74413457       0.87470569 </v>
    <v>       0.49072514       0.24441204       0.37711600 </v>
    <v>       0.49576849       0.25421768       0.87979901 </v>
    <v>       0.50275984       0.75441291       0.37397466 </v>
    <v>       0.50742388       0.74439871       0.87261813 </v>
    <v>       0.25202027       0.99849384       0.11930732 </v>
    <v>       0.25193161       0.00880257       0.63139272 </v>
    <v>       0.25568672       0.50221134       0.11466037 </v>
    <v>       0.25211304       0.49529769       0.63601073 </v>
    <v>       0.74850634       0.00022561       0.11821301 </v>
    <v>       0.75405623       0.97886974       0.63384471 </v>
    <v>       0.74797373       0.48989037       0.11565027 </v>
    <v>       0.74733673       0.51709576       0.63604708 </v>
    <v>       0.24176004       0.99858956       0.36954496 </v>
    <v>       0.25052283       0.00637561       0.87757993 </v>
    <v>       0.25105807       0.49635664       0.37732146 </v>
    <v>       0.25236376       0.49573111       0.87456742 </v>
    <v>       0.75679118       0.98025996       0.36712741 </v>
    <v>       0.75261694       0.99415868       0.87983323 </v>
    <v>       0.75075389       0.50998573       0.38026818 </v>
    <v>       0.75066307       0.49884316       0.87671483 </v>
    <v>       0.00240964       0.00008553       0.00126361 </v>
    <v>       0.00361549       0.49517485       0.50456122 </v>
    <v>       0.50039088       0.00023167       0.99399008 </v>
    <v>       0.49933997       0.49777090       0.99733370 </v>
    <v>       0.49191466       0.51020177       0.50222309 </v>
    <v>       0.25090974       0.24688397       0.50058257 </v>
    <v>       0.73258552       0.25945141       0.51140638 </v>
    <v>       0.75511375       0.74437099       0.00043845 </v>
    <v>       0.74979787       0.74890267       0.50124848 </v>
    <v>       0.23909507       0.26013785       0.24718831 </v>
    <v>       0.24865428       0.25195956       0.75643084 </v>
    <v>       0.75989844       0.25671486       0.75464466 </v>
    <v>       0.74922274       0.74902560       0.24619885 </v>
    <v>       0.00172035       0.99321547       0.75231120 </v>
    <v>       0.99385226       0.50441389       0.25859330 </v>
    <v>       0.51515008       0.48581518       0.25311252 </v>
    <v>       0.01778921       0.98348707       0.50047434 </v>
    <v>       0.00404094       0.49914987       0.99067360 </v>
    <v>       0.52170074       0.01482560       0.49887771 </v>
    <v>       0.24949622       0.24924974       0.00509735 </v>
    <v>       0.25512821       0.74883042       0.01304806 </v>
    <v>       0.24312086       0.73508331       0.49853966 </v>
    <v>       0.74920186       0.24712847       0.99732315 </v>
    <v>       0.23862494       0.76444449       0.25054380 </v>
    <v>       0.25333657       0.75130634       0.73275767 </v>
    <v>       0.74575879       0.24362577       0.23923170 </v>
    <v>       0.75165139       0.74568423       0.75428340 </v>
    <v>       0.99346481       0.00168618       0.25100616 </v>
    <v>       0.00474546       0.50239409       0.74926282 </v>
    <v>       0.50549083       0.98908192       0.24987833 </v>
    <v>       0.49104583       0.98657715       0.75266245 </v>
    <v>       0.49882532       0.50035386       0.75253615 </v>
    <v>       0.12998745       0.12409189       0.24779531 </v>
    <v>       0.12361156       0.12472290       0.74467524 </v>
    <v>       0.11940805       0.61477266       0.22858834 </v>
    <v>       0.12755856       0.62944779       0.73634033 </v>
    <v>       0.59510210       0.13881075       0.25556499 </v>
    <v>       0.60909301       0.63285148       0.24739590 </v>
    <v>       0.62505532       0.62161681       0.74673134 </v>
    <v>       0.37526781       0.37784587       0.25778090 </v>
    <v>       0.37187534       0.37426655       0.75490193 </v>
    <v>       0.36143056       0.89322414       0.25324125 </v>
    <v>       0.37249435       0.86978897       0.76964003 </v>
    <v>       0.88438485       0.37207282       0.24451929 </v>
    <v>       0.87511826       0.37010026       0.75414499 </v>
    <v>       0.87399552       0.86676889       0.25483655 </v>
    <v>       0.88201745       0.86864364       0.75375605 </v>
    <v>       0.37771851       0.12770685       0.74608546 </v>
    <v>       0.37007531       0.62555920       0.75727299 </v>
    <v>       0.85894957       0.12373455       0.26311940 </v>
    <v>       0.85915787       0.11296765       0.74778026 </v>
    <v>       0.86832673       0.61504639       0.23159228 </v>
    <v>       0.87690119       0.61979854       0.74191396 </v>
    <v>       0.12322238       0.37731958       0.24483292 </v>
    <v>       0.12517919       0.37330261       0.74935282 </v>
    <v>       0.11306581       0.87232792       0.25835424 </v>
    <v>       0.12897116       0.87381648       0.75732606 </v>
    <v>       0.63834514       0.37783433       0.27233962 </v>
    <v>       0.61882763       0.35289995       0.74424148 </v>
    <v>       0.62760995       0.87514802       0.25881736 </v>
    <v>       0.63385878       0.88248132       0.75489905 </v>
    <v>       0.36962362       0.37953879       0.99863771 </v>
    <v>       0.36630002       0.38537025       0.49320891 </v>
    <v>       0.37366675       0.87398182       0.98145945 </v>
    <v>       0.87331256       0.37767299       0.99990870 </v>
    <v>       0.87664491       0.87267644       0.99587902 </v>
    <v>       0.87520964       0.87132024       0.49784616 </v>
    <v>       0.12583077       0.12382441       0.00847154 </v>
    <v>       0.12423230       0.12685809       0.50494967 </v>
    <v>       0.13565231       0.62474843       0.99584428 </v>
    <v>       0.12706004       0.61403508       0.51420424 </v>
    <v>       0.62890628       0.11636442       0.00640529 </v>
    <v>       0.66453807       0.11938939       0.46952411 </v>
    <v>       0.63294948       0.61716908       0.00739808 </v>
    <v>       0.63208255       0.61399606       0.50095885 </v>
    <v>       0.11836012       0.37532716       0.02726043 </v>
    <v>       0.12107889       0.36914487       0.48103139 </v>
    <v>       0.12873734       0.87275533       0.00211048 </v>
    <v>       0.14395412       0.87247353       0.48207688 </v>
    <v>       0.61840848       0.36990758       0.00345803 </v>
    <v>       0.61599519       0.36915513       0.48711373 </v>
    <v>       0.62416228       0.86732307       0.99298958 </v>
    <v>       0.61568653       0.86414821       0.49380202 </v>
    <v>       0.37799941       0.12483053       0.99516112 </v>
    <v>       0.38514822       0.13323032       0.50974738 </v>
    <v>       0.38185506       0.62941026       0.98900362 </v>
    <v>       0.38911922       0.64570528       0.50529705 </v>
    <v>       0.87792685       0.12369993       0.99860758 </v>
    <v>       0.87155200       0.33479695       0.47473366 </v>
    <v>       0.88516160       0.62296883       0.02116595 </v>
    <v>       0.87343980       0.61103916       0.50649163 </v>
    <v>       0.98938831       0.99784701       0.12682325 </v>
    <v>       0.99695220       0.99568329       0.62262264 </v>
    <v>       0.99124170       0.46723005       0.61978583 </v>
    <v>       0.49253451       0.99412180       0.12366151 </v>
    <v>       0.51765564       0.00355235       0.62394371 </v>
    <v>       0.49114113       0.50107569       0.13152217 </v>
    <v>       0.49529006       0.49290762       0.62259323 </v>
    <v>       0.98640465       0.01634478       0.38289641 </v>
    <v>       0.00586148       0.00703392       0.87529825 </v>
    <v>       0.99524194       0.52002131       0.37418691 </v>
    <v>       0.00628584       0.50296462       0.87278093 </v>
    <v>       0.47355948       0.99786988       0.38292709 </v>
    <v>       0.51988214       0.02498756       0.86961381 </v>
    <v>       0.48355921       0.52283638       0.37080736 </v>
    <v>       0.51246103       0.49584590       0.87614758 </v>
    <v>       0.26420497       0.22792365       0.36859197 </v>
    <v>       0.23730789       0.25052453       0.87808502 </v>
    <v>       0.26458999       0.72047674       0.36774072 </v>
    <v>       0.73665447       0.23646403       0.87188750 </v>
    <v>       0.75813918       0.73392378       0.37366009 </v>
    <v>       0.76154010       0.72953847       0.87912352 </v>
    <v>       0.28202475       0.22936791       0.13475771 </v>
    <v>       0.24711851       0.26276904       0.62274090 </v>
    <v>       0.27995837       0.73884767       0.13254928 </v>
    <v>       0.27561365       0.78532928       0.61511608 </v>
    <v>       0.74606802       0.24874340       0.12413219 </v>
    <v>       0.73935189       0.22779812       0.62496523 </v>
    <v>       0.74391492       0.76585527       0.12551036 </v>
    <v>       0.74880652       0.75196871       0.62301701 </v>
   </varray>
  </structure>
  <varray name="forces" >
   <v>       0.00670006      -0.00855243      -0.00771202 </v>
   <v>      -0.03420144       0.02770870      -0.00388296 </v>
   <v>      -0.00570805      -0.00098512       0.00283164 </v>
   <v>       0.01018857      -0.00042406       0.00898850 </v>
   <v>      -0.00555218       0.00250640       0.00562550 </v>
   <v>      -0.02333210      -0.00690380       0.00328467 </v>
   <v>       0.01751345      -0.01209456      -0.00084563 </v>
   <v>       0.00769741      -0.00047515       0.00468353 </v>
   <v>      -0.00372416       0.01274254       0.00879002 </v>
   <v>       0.00494804       0.01303828      -0.00373596 </v>
   <v>      -0.00734217      -0.00550087      -0.00225707 </v>
   <v>      -0.00150052      -0.00818566       0.00048994 </v>
   <v>       0.00358596       0.00550825      -0.00126484 </v>
   <v>       0.01368212       0.01564754       0.00087550 </v>
   <v>      -0.00388397       0.00677073      -0.00310649 </v>
   <v>       0.00314996      -0.00370287      -0.02518100 </v>
   <v>      -0.01144231      -0.00934886      -0.00365399 </v>
   <v>       0.00189423       0.00169640       0.00176131 </v>
   <v>       0.00372568       0.01136968       0.00315526 </v>
   <v>       0.02087173       0.02655176       0.00326393 </v>
   <v>       0.00887752      -0.00506421       0.01388665 </v>
   <v>       0.01758933      -0.00500201      -0.00058349 </v>
   <v>       0.00450157       0.00177563      -0.01342630 </v>
   <v>      -0.00561251      -0.03006820      -0.01724878 </v>
   <v>       0.01333596      -0.01642767      -0.01146367 </v>
   <v>      -0.00964037      -0.01136462       0.00689076 </v>
   <v>      -0.00546987       0.00950733       0.00086849 </v>
   <v>      -0.01709176       0.00968775       0.00524879 </v>
   <v>      -0.00248756       0.01118285       0.02739668 </v>
   <v>       0.01423539       0.01348935       0.00499240 </v>
   <v>       0.00653951       0.01727743      -0.00946642 </v>
   <v>       0.01410043       0.01664431       0.01309868 </v>
   <v>       0.00075482       0.00035208      -0.00652392 </v>
   <v>      -0.00504364      -0.00680144      -0.01538856 </v>
   <v>       0.00911952      -0.00151008       0.00689744 </v>
   <v>       0.00546525       0.00283520       0.00100599 </v>
   <v>       0.00082400       0.01847014      -0.01677865 </v>
   <v>      -0.00705813      -0.00453387      -0.00488418 </v>
   <v>       0.04186477       0.00822557      -0.02356642 </v>
   <v>      -0.00245977      -0.00334656       0.00486168 </v>
   <v>       0.00628341      -0.01830349      -0.00112219 </v>
   <v>      -0.01376803       0.00420145      -0.01076273 </v>
   <v>       0.00027315       0.03740736       0.00120672 </v>
   <v>       0.00522189       0.00166242       0.01001891 </v>
   <v>      -0.00997871      -0.00953512       0.01036063 </v>
   <v>      -0.00120522      -0.02181029      -0.00478127 </v>
   <v>      -0.01000050      -0.01213266       0.02024287 </v>
   <v>       0.00632242      -0.02001891       0.02036555 </v>
   <v>       0.01806289       0.01511998      -0.00775859 </v>
   <v>       0.00994829       0.00656445      -0.00468962 </v>
   <v>      -0.01437246      -0.00021852       0.00428306 </v>
   <v>       0.00021755       0.02572535       0.02214128 </v>
   <v>      -0.00211272      -0.00873140       0.00131725 </v>
   <v>      -0.00860998      -0.01786996      -0.00328801 </v>
   <v>       0.00042768      -0.01918132       0.00137789 </v>
   <v>       0.02054073       0.02814448      -0.00696727 </v>
   <v>       0.00510507      -0.00622028      -0.01814060 </v>
   <v>       0.00020529       0.02164849       0.00207538 </v>
   <v>      -0.01073094       0.00330005       0.00310506 </v>
   <v>       0.00242601      -0.00343606      -0.01841915 </v>
   <v>      -0.01025680      -0.00095284       0.00718968 </v>
   <v>      -0.00229685       0.01000979       0.00347177 </v>
   <v>      -0.01474170      -0.01712432       0.00378239 </v>
   <v>      -0.01349382       0.00124119      -0.00003774 </v>
   <v>      -0.00535284      -0.00610620      -0.01297791 </v>
   <v>      -0.00658753       0.00004172       0.00088196 </v>
   <v>       0.00723415       0.00753758       0.01851611 </v>
   <v>      -0.00157337      -0.00395403      -0.00169441 </v>
   <v>      -0.00244584       0.00213533       0.00531895 </v>
   <v>      -0.01604059       0.01581661      -0.00062500 </v>
   <v>      -0.00592811      -0.00500685       0.01058770 </v>
   <v>      -0.00450365      -0.00647681       0.00844598 </v>
   <v>       0.01136979      -0.00775011       0.00791794 </v>
   <v>       0.00489708      -0.02218458       0.01269520 </v>
   <v>       0.00454817       0.00840966      -0.00027558 </v>
   <v>      -0.01293475      -0.00833265       0.01777770 </v>
   <v>      -0.02083038       0.01929507       0.03108470 </v>
   <v>       0.02682239      -0.00517225      -0.01281311 </v>
   <v>       0.01217623      -0.00810297       0.00966525 </v>
   <v>      -0.00113455       0.01426401       0.00796605 </v>
   <v>      -0.01009764       0.00152169      -0.00719395 </v>
   <v>       0.00202364      -0.00479781      -0.02430476 </v>
   <v>      -0.00541121      -0.00216771      -0.00362829 </v>
   <v>      -0.01341459       0.00628522       0.00610187 </v>
   <v>       0.00841420       0.00031061      -0.02021571 </v>
   <v>       0.00843988      -0.01034851      -0.01149104 </v>
   <v>      -0.00437372       0.00307188      -0.00574274 </v>
   <v>      -0.00452623       0.01141184      -0.00360687 </v>
   <v>      -0.01963886      -0.00306139       0.02094687 </v>
   <v>       0.00286895      -0.00914914      -0.00212972 </v>
   <v>       0.00647848       0.00120470      -0.00125945 </v>
   <v>       0.00425690      -0.04427424      -0.00487264 </v>
   <v>      -0.00008056       0.00674606      -0.00102484 </v>
   <v>       0.01177712      -0.00758447       0.00374722 </v>
   <v>       0.01375817      -0.01179096       0.00022332 </v>
   <v>       0.00680936       0.02862899      -0.00736257 </v>
   <v>      -0.00074448      -0.00551937      -0.00016418 </v>
   <v>       0.00477462       0.00351354       0.00765945 </v>
   <v>      -0.00716213       0.00926468       0.00331367 </v>
   <v>      -0.01431328      -0.00360658       0.01029947 </v>
   <v>       0.01536984       0.00192283      -0.00803932 </v>
   <v>      -0.00352031       0.00000120       0.00204893 </v>
   <v>       0.02045003      -0.00164467       0.00253406 </v>
   <v>      -0.00373787       0.00118368      -0.01653269 </v>
   <v>      -0.00462159      -0.03656432       0.02105850 </v>
   <v>      -0.01646261       0.00778465       0.00003942 </v>
   <v>      -0.01094822      -0.00649624       0.00905696 </v>
   <v>       0.00948423       0.00662007      -0.00345504 </v>
   <v>       0.02116172       0.01584246      -0.01561950 </v>
   <v>       0.01595229       0.00625256      -0.00536206 </v>
   <v>      -0.01943004      -0.00545003       0.00127877 </v>
   <v>      -0.00178242      -0.00000975      -0.01168573 </v>
   <v>      -0.02889794      -0.01087207      -0.00543052 </v>
   <v>       0.00529079      -0.01039619       0.01311367 </v>
   <v>       0.00597007       0.00204466      -0.01617078 </v>
   <v>      -0.00010070      -0.00202573       0.00000804 </v>
   <v>       0.01119779       0.00374061      -0.01127347 </v>
   <v>       0.00032889      -0.00254735      -0.01250323 </v>
   <v>       0.00759600       0.00818629       0.01054642 </v>
   <v>      -0.00049304      -0.00381356      -0.00280483 </v>
   <v>      -0.02757235      -0.01028260      -0.01084529 </v>
   <v>      -0.01483574       0.00458837       0.00745725 </v>
   <v>      -0.00714994       0.01025491      -0.00186615 </v>
   <v>      -0.02983584      -0.00308530      -0.00812975 </v>
   <v>      -0.00316580      -0.00542965       0.00464746 </v>
   <v>      -0.01431221      -0.00770137      -0.00264545 </v>
   <v>       0.00100407      -0.00888584       0.00215751 </v>
   <v>      -0.01294738       0.02114879       0.00284491 </v>
   <v>      -0.00565603      -0.01828199      -0.00808529 </v>
   <v>      -0.00838656       0.00413399       0.00564989 </v>
   <v>       0.01985553      -0.01055620       0.00211691 </v>
   <v>       0.00169472       0.00946100      -0.00376841 </v>
   <v>       0.02752469      -0.00014732      -0.03382241 </v>
   <v>       0.00880986       0.00814752       0.01364993 </v>
   <v>       0.00262006       0.00015763       0.02094820 </v>
   <v>       0.00527755      -0.01144881       0.00545225 </v>
   <v>      -0.00722384       0.00955807       0.00659712 </v>
   <v>       0.00904102      -0.00435683      -0.00907582 </v>
   <v>      -0.00837221       0.00810153      -0.00576400 </v>
   <v>      -0.00538009      -0.00916787      -0.01127425 </v>
   <v>      -0.00651382      -0.00949421       0.00286281 </v>
   <v>      -0.01651333      -0.00550487       0.00040020 </v>
   <v>      -0.01451177      -0.00470361      -0.00043397 </v>
   <v>      -0.00895712      -0.00387522       0.00815938 </v>
   <v>       0.02634034      -0.00835595       0.00254123 </v>
   <v>       0.00949268      -0.00796387      -0.00585840 </v>
   <v>      -0.01326295      -0.00822379       0.01403656 </v>
   <v>      -0.01300707      -0.00846573      -0.01658069 </v>
   <v>       0.01122053       0.02165939      -0.02273560 </v>
   <v>       0.04261697       0.02957000       0.03233261 </v>
   <v>       0.00229954      -0.01513587      -0.00007054 </v>
   <v>       0.00436334       0.00426839       0.00362932 </v>
  </varray>
  <varray name="stress" >
   <v>       0.02853790      -0.13725959      -0.03314529 </v>
   <v>      -0.13725968      -0.04661610       0.05702962 </v>
   <v>      -0.03314501       0.05702960      -0.07781350 </v>
  </varray>
  <energy>
   <i name="e_fr_energy">  -1054.23077377 </i>
   <i name="e_wo_entrp">  -1054.23077377 </i>
   <i name="e_0_energy">     -0.00000000 </i>
  </energy>
  <time name="totalsc"> 1983.49 1987.21</time>
 </calculation>
 <calculation>
  <scstep>
   <time name="dav">  572.40  572.45</time>
   <time name="total">  579.70  579.82</time>
   <energy>
    <i name="alphaZ">   5603.50799640 </i>
    <i name="ewald"> -61822.57759358 </i>
    <i name="hartreedc"> -17755.43801200 </i>
    <i name="XCdc">   3184.88878830 </i>
    <i name="pawpsdc"> 114079.03017627 </i>
    <i name="pawaedc">-113282.18808101 </i>
    <i name="eentropy">     -0.00000000 </i>
    <i name="bandstr">  -7111.62987424 </i>
    <i name="atom">  76050.17612637 </i>
    <i name="e_fr_energy">  -1054.23047350 </i>
    <i name="e_wo_entrp">  -1054.23047350 </i>
    <i name="e_0_energy">  -1054.23047350 </i>
   </energy>
  </scstep>
  <scstep>
   <time name="diag">   64.57   64.61</time>
   <time name="diis">  104.62  104.66</time>
   <time name="orth">   33.33   33.33</time>
   <time name="total">  209.86  209.96</time>
   <energy>
    <i name="e_fr_energy">  -1054.23263853 </i>
    <i name="e_wo_entrp">  -1054.23263853 </i>
    <i name="e_0_energy">  -1054.23263853 </i>
   </energy>
  </scstep>
  <scstep>
   <time name="diag">   64.85   64.87</time>
   <time name="diis">   99.19   99.20</time>
   <time name="orth">   33.31   33.31</time>
   <time name="total">  204.68  204.77</time>
   <energy>
    <i name="e_fr_energy">  -1054.23278654 </i>
    <i name="e_wo_entrp">  -1054.23278654 </i>
    <i name="e_0_energy">  -1054.23278654 </i>
   </energy>
  </scstep>
  <scstep>
   <time name="diag">   64.76   64.78</time>
   <time name="diis">   72.16   72.16</time>
   <time name="orth">   33.31   33.31</time>
   <time name="total">  177.58  177.67</time>
   <energy>
    <i name="e_fr_energy">  -1054.23271054 </i>
    <i name="e_wo_entrp">  -1054.23271054 </i>
    <i name="e_0_energy">  -1054.23271054 </i>
   </energy>
  </scstep>
  <scstep>
   <time name="diag">   64.80   64.83</time>
   <time name="diis">   64.95   64.96</time>
   <time name="orth">   33.39   33.39</time>
   <time name="total">  170.45  170.55</time>
   <energy>
    <i name="e_fr_energy">  -1054.23269813 </i>
    <i name="e_wo_entrp">  -1054.23269813 </i>
    <i name="e_0_energy">  -1054.23269813 </i>
   </energy>
  </scstep>
  <scstep>
   <time name="diag">   64.78   64.79</time>
   <time name="diis">   63.60   63.61</time>
   <time name="orth">   33.38   33.38</time>
   <time name="total">  169.09  169.13</time>
   <energy>
    <i name="e_fr_energy">  -1054.23270032 </i>
    <i name="e_wo_entrp">  -1054.23270032 </i>
    <i name="e_0_energy">  -1054.23270032 </i>
   </energy>
  </scstep>
  <scstep>
   <time name="diag">   65.06   65.07</time>
   <time name="diis">   61.88   61.91</time>
   <time name="orth">   33.41   33.41</time>
   <time name="total">  167.67  167.83</time>
   <energy>
    <i name="e_fr_energy">  -1054.23270120 </i>
    <i name="e_wo_entrp">  -1054.23270120 </i>
    <i name="e_0_energy">  -1054.23270120 </i>
   </energy>
  </scstep>
  <scstep>
   <time name="diag">   65.02   65.04</time>
   <time name="diis">   60.42   60.44</time>
   <time name="orth">   33.39   33.39</time>
   <time name="total">  159.88  159.96</time>
   <energy>
    <i name="alphaZ">   5603.50799640 </i>
    <i name="ewald"> -61822.57759358 </i>
    <i name="hartreedc"> -17754.92707360 </i>
    <i name="XCdc">   3184.85054212 </i>
    <i name="pawpsdc"> 114081.23076591 </i>
    <i name="pawaedc">-113284.39444613 </i>
    <i name="eentropy">     -0.00000000 </i>
    <i name="bandstr">  -7112.09901952 </i>
    <i name="atom">  76050.17612637 </i>
    <i name="e_fr_energy">  -1054.23270203 </i>
    <i name="e_wo_entrp">  -1054.23270203 </i>
    <i name="e_0_energy">  -1054.23270203 </i>
   </energy>
  </scstep>
  <structure>
   <crystal>
    <varray name="basis" >
     <v>      11.23107356      -0.00023135       0.00622671 </v>
     <v>      -0.00025318      11.25714139       0.03107522 </v>
     <v>       0.00842682       0.04486705      15.89713287 </v>
    </varray>
    <i name="volume">   2009.85480876 </i>
    <varray name="rec_basis" >
     <v>       0.08903871       0.00000213      -0.00004720 </v>
     <v>       0.00000197       0.08883319      -0.00025072 </v>
     <v>      -0.00003488      -0.00017365       0.06290493 </v>
    </varray>
   </crystal>
   <varray name="positions" >
    <v>       0.98817121       0.23859565       0.11907558 </v>
    <v>       0.01410339       0.24318423       0.63288430 </v>
    <v>       0.99744566       0.76063972       0.12461541 </v>
    <v>       0.99216579       0.74746893       0.63298587 </v>
    <v>       0.50643159       0.23923196       0.11305976 </v>
    <v>       0.48082323       0.25789222       0.63331724 </v>
    <v>       0.50741246       0.75351915       0.11475822 </v>
    <v>       0.50823378       0.74869522       0.63352401 </v>
    <v>       0.00952332       0.23798653       0.36836459 </v>
    <v>       0.00273373       0.25071945       0.88343419 </v>
    <v>       0.99763358       0.75944583       0.37493271 </v>
    <v>       0.99629393       0.74409949       0.87470725 </v>
    <v>       0.49074055       0.24443566       0.37711211 </v>
    <v>       0.49582726       0.25428472       0.87980151 </v>
    <v>       0.50274316       0.75444196       0.37396518 </v>
    <v>       0.50743747       0.74438314       0.87254174 </v>
    <v>       0.25197113       0.99845382       0.11929632 </v>
    <v>       0.25193975       0.00880981       0.63139805 </v>
    <v>       0.25570271       0.50226003       0.11466985 </v>
    <v>       0.25220269       0.49541144       0.63602038 </v>
    <v>       0.74854444       0.00020374       0.11825518 </v>
    <v>       0.75413179       0.97884830       0.63384295 </v>
    <v>       0.74799310       0.48989814       0.11560951 </v>
    <v>       0.74731266       0.51696711       0.63599500 </v>
    <v>       0.24181735       0.99851929       0.36951028 </v>
    <v>       0.25048140       0.00632682       0.87760095 </v>
    <v>       0.25103457       0.49639738       0.37732403 </v>
    <v>       0.25229033       0.49577256       0.87458330 </v>
    <v>       0.75678043       0.98030755       0.36721046 </v>
    <v>       0.75267807       0.99421643       0.87984824 </v>
    <v>       0.75078200       0.51005989       0.38023929 </v>
    <v>       0.75072361       0.49891433       0.87675442 </v>
    <v>       0.00241290       0.00008712       0.00124381 </v>
    <v>       0.00359386       0.49514589       0.50451459 </v>
    <v>       0.50043004       0.00022511       0.99401101 </v>
    <v>       0.49936344       0.49778304       0.99733672 </v>
    <v>       0.49191823       0.51028113       0.50217201 </v>
    <v>       0.25087943       0.24686460       0.50056780 </v>
    <v>       0.73276540       0.25948694       0.51133473 </v>
    <v>       0.75510318       0.74435659       0.00045324 </v>
    <v>       0.74982487       0.74882424       0.50124521 </v>
    <v>       0.23903595       0.26015599       0.24715564 </v>
    <v>       0.24865544       0.25211986       0.75643419 </v>
    <v>       0.75992085       0.25672186       0.75467504 </v>
    <v>       0.74917985       0.74898462       0.24623038 </v>
    <v>       0.00171519       0.99312206       0.75229688 </v>
    <v>       0.99380926       0.50436165       0.25865484 </v>
    <v>       0.51517720       0.48572915       0.25317447 </v>
    <v>       0.01786682       0.98355196       0.50045064 </v>
    <v>       0.00408368       0.49917806       0.99065929 </v>
    <v>       0.52163900       0.01482461       0.49889074 </v>
    <v>       0.24949710       0.24935972       0.00516433 </v>
    <v>       0.25511913       0.74879299       0.01305213 </v>
    <v>       0.24308388       0.73500677       0.49852985 </v>
    <v>       0.74920369       0.24704625       0.99732749 </v>
    <v>       0.23871318       0.76456518       0.25052239 </v>
    <v>       0.25335854       0.75127990       0.73270266 </v>
    <v>       0.74575966       0.24371852       0.23923782 </v>
    <v>       0.75160529       0.74569834       0.75429282 </v>
    <v>       0.99347527       0.00167168       0.25095029 </v>
    <v>       0.00470139       0.50238993       0.74928466 </v>
    <v>       0.50548096       0.98912478       0.24988879 </v>
    <v>       0.49098250       0.98650372       0.75267409 </v>
    <v>       0.49876735       0.50035918       0.75253605 </v>
    <v>       0.12996449       0.12406587       0.24775599 </v>
    <v>       0.12358326       0.12472307       0.74467793 </v>
    <v>       0.11943908       0.61480474       0.22864446 </v>
    <v>       0.12755181       0.62943086       0.73633523 </v>
    <v>       0.59509158       0.13881983       0.25558111 </v>
    <v>       0.60902411       0.63291927       0.24739390 </v>
    <v>       0.62502983       0.62159523       0.74676352 </v>
    <v>       0.37524845       0.37781801       0.25780659 </v>
    <v>       0.37192416       0.37423324       0.75492600 </v>
    <v>       0.36145157       0.89312891       0.25327995 </v>
    <v>       0.37251389       0.86982501       0.76963912 </v>
    <v>       0.88432925       0.37203690       0.24457333 </v>
    <v>       0.87502871       0.37018257       0.75423919 </v>
    <v>       0.87411077       0.86674687       0.25479766 </v>
    <v>       0.88206973       0.86860879       0.75378543 </v>
    <v>       0.37771361       0.12776788       0.74610952 </v>
    <v>       0.37003196       0.62556581       0.75725116 </v>
    <v>       0.85895832       0.12371428       0.26304568 </v>
    <v>       0.85913464       0.11295841       0.74776928 </v>
    <v>       0.86826909       0.61507326       0.23161077 </v>
    <v>       0.87693738       0.61980011       0.74185260 </v>
    <v>       0.12325866       0.37727537       0.24479812 </v>
    <v>       0.12516042       0.37331584       0.74933537 </v>
    <v>       0.11304637       0.87237687       0.25834321 </v>
    <v>       0.12888675       0.87380311       0.75738968 </v>
    <v>       0.63835747       0.37779515       0.27233323 </v>
    <v>       0.61885546       0.35290513       0.74423764 </v>
    <v>       0.62762825       0.87495835       0.25880294 </v>
    <v>       0.63385844       0.88251025       0.75489589 </v>
    <v>       0.36967420       0.37950624       0.99864913 </v>
    <v>       0.36635912       0.38531971       0.49320966 </v>
    <v>       0.37369601       0.87410460       0.98143686 </v>
    <v>       0.87330936       0.37764934       0.99990825 </v>
    <v>       0.87666540       0.87269140       0.99590222 </v>
    <v>       0.87517887       0.87135990       0.49785615 </v>
    <v>       0.12576926       0.12380883       0.00850285 </v>
    <v>       0.12429834       0.12686643       0.50492523 </v>
    <v>       0.13563718       0.62474841       0.99585050 </v>
    <v>       0.12714788       0.61402800       0.51421191 </v>
    <v>       0.62889026       0.11636969       0.00635512 </v>
    <v>       0.66451817       0.11923245       0.46958832 </v>
    <v>       0.63287877       0.61720244       0.00739816 </v>
    <v>       0.63203550       0.61396811       0.50098641 </v>
    <v>       0.11840087       0.37535557       0.02724987 </v>
    <v>       0.12116983       0.36921295       0.48098383 </v>
    <v>       0.12880587       0.87278219       0.00209413 </v>
    <v>       0.14387066       0.87245017       0.48208083 </v>
    <v>       0.61840085       0.36990767       0.00342258 </v>
    <v>       0.61587107       0.36910861       0.48709739 </v>
    <v>       0.62418498       0.86727836       0.99302945 </v>
    <v>       0.61571221       0.86415716       0.49375292 </v>
    <v>       0.37799898       0.12482185       0.99516116 </v>
    <v>       0.38519635       0.13324648       0.50971312 </v>
    <v>       0.38185651       0.62939949       0.98896570 </v>
    <v>       0.38915182       0.64574023       0.50532897 </v>
    <v>       0.87792474       0.12368362       0.99859910 </v>
    <v>       0.87143359       0.33475302       0.47470089 </v>
    <v>       0.88509786       0.62298840       0.02118856 </v>
    <v>       0.87340909       0.61108313       0.50648590 </v>
    <v>       0.98926017       0.99783389       0.12679865 </v>
    <v>       0.99693859       0.99565997       0.62263679 </v>
    <v>       0.99118023       0.46719708       0.61977789 </v>
    <v>       0.49253882       0.99408369       0.12366813 </v>
    <v>       0.51760001       0.00364295       0.62395219 </v>
    <v>       0.49111686       0.50099744       0.13149780 </v>
    <v>       0.49525402       0.49292527       0.62261035 </v>
    <v>       0.98648993       0.01629951       0.38290289 </v>
    <v>       0.00586877       0.00707451       0.87528674 </v>
    <v>       0.99536025       0.52002108       0.37408423 </v>
    <v>       0.00632365       0.50299937       0.87282227 </v>
    <v>       0.47357069       0.99787031       0.38299065 </v>
    <v>       0.51990480       0.02493843       0.86963044 </v>
    <v>       0.48352817       0.52287726       0.37082732 </v>
    <v>       0.51249989       0.49582734       0.87612006 </v>
    <v>       0.26416902       0.22795844       0.36857442 </v>
    <v>       0.23728481       0.25048538       0.87805090 </v>
    <v>       0.26456200       0.72043601       0.36774949 </v>
    <v>       0.73658354       0.23644044       0.87188879 </v>
    <v>       0.75807685       0.73390363       0.37365884 </v>
    <v>       0.76150161       0.72952177       0.87914833 </v>
    <v>       0.28213789       0.22933206       0.13476545 </v>
    <v>       0.24715930       0.26273498       0.62272317 </v>
    <v>       0.27990137       0.73881226       0.13259197 </v>
    <v>       0.27555782       0.78529320       0.61506586 </v>
    <v>       0.74611626       0.24883649       0.12406299 </v>
    <v>       0.73953488       0.22792445       0.62506303 </v>
    <v>       0.74392480       0.76579041       0.12551027 </v>
    <v>       0.74882526       0.75198696       0.62302798 </v>
   </varray>
  </structure>
  <varray name="forces" >
   <v>       0.00112045      -0.00935472      -0.00979150 </v>
   <v>      -0.02226689       0.01060308       0.00949589 </v>
   <v>      -0.00618177      -0.00056977       0.00550292 </v>
   <v>       0.00689152       0.00303587       0.00486808 </v>
   <v>      -0.00313005       0.00205521      -0.00068849 </v>
   <v>      -0.01347353      -0.00630021      -0.00189726 </v>
   <v>       0.01389790      -0.00955467      -0.00057880 </v>
   <v>       0.01048401       0.00087364       0.00019677 </v>
   <v>       0.00455655      -0.00273289      -0.00424956 </v>
   <v>       0.00629540       0.00454674      -0.00599442 </v>
   <v>      -0.00376011       0.00564480      -0.00728318 </v>
   <v>      -0.00163651      -0.00101903      -0.00020318 </v>
   <v>      -0.00318630       0.00142556       0.00850600 </v>
   <v>       0.01032539       0.00867352      -0.00159364 </v>
   <v>      -0.00343747       0.01019801      -0.00197271 </v>
   <v>       0.00602833      -0.00253184      -0.01625284 </v>
   <v>      -0.00951573      -0.00613416      -0.00970293 </v>
   <v>       0.00114995       0.00968003       0.00703794 </v>
   <v>       0.00606716       0.01167306       0.00662228 </v>
   <v>       0.02176843       0.02001888      -0.00079019 </v>
   <v>       0.01003188      -0.00613991       0.01170978 </v>
   <v>       0.01153609      -0.00056631      -0.00410112 </v>
   <v>       0.00444099       0.00034372      -0.01349512 </v>
   <v>      -0.01344582      -0.02477480      -0.00276142 </v>
   <v>       0.00744023      -0.01014356      -0.00554507 </v>
   <v>      -0.00507653      -0.00069341       0.00587959 </v>
   <v>      -0.00182149       0.00742996      -0.00256653 </v>
   <v>      -0.00947536       0.00695721       0.00687127 </v>
   <v>       0.00244839       0.00090725       0.01695123 </v>
   <v>       0.01059475       0.01180280       0.00293561 </v>
   <v>      -0.00581775       0.01466923      -0.00962938 </v>
   <v>       0.00889390       0.01092453       0.00997544 </v>
   <v>      -0.00272307      -0.00031753      -0.01284177 </v>
   <v>       0.01476247       0.00709738       0.00679792 </v>
   <v>      -0.00791852      -0.00488590      -0.01509700 </v>
   <v>       0.00926882      -0.00484037      -0.00578230 </v>
   <v>      -0.00573414      -0.00988328       0.01490125 </v>
   <v>       0.02104469       0.00142403      -0.00331798 </v>
   <v>      -0.07932361      -0.02410003       0.04501613 </v>
   <v>      -0.00409069       0.00881400       0.00882294 </v>
   <v>      -0.00809231       0.01297511       0.00802337 </v>
   <v>       0.00577330      -0.02075836       0.00301598 </v>
   <v>       0.00235584      -0.02156209       0.00131333 </v>
   <v>      -0.01427319      -0.00482999       0.01105970 </v>
   <v>       0.01110466      -0.00187391      -0.00002623 </v>
   <v>       0.00662446       0.01011478      -0.00561481 </v>
   <v>       0.00992745       0.00587160      -0.05669765 </v>
   <v>      -0.00509077       0.00844588      -0.00532214 </v>
   <v>       0.00681394       0.00386891      -0.00069887 </v>
   <v>      -0.00154920       0.00370257       0.01107234 </v>
   <v>      -0.00291451       0.00010696       0.01618587 </v>
   <v>       0.00385611       0.00214821       0.00510135 </v>
   <v>       0.00765624       0.00421700       0.00133776 </v>
   <v>      -0.00071559       0.00345794      -0.01253921 </v>
   <v>      -0.00044689      -0.00674164      -0.00747381 </v>
   <v>       0.00193677       0.01575573       0.00576338 </v>
   <v>      -0.00327510       0.00370494      -0.00848476 </v>
   <v>       0.01053319       0.00196182      -0.01901226 </v>
   <v>      -0.00746032      -0.00070487       0.00105287 </v>
   <v>      -0.00179006      -0.00445242      -0.01275597 </v>
   <v>      -0.01037987       0.00199483       0.00517781 </v>
   <v>       0.01397749      -0.00804219       0.00183473 </v>
   <v>       0.00006264       0.01858788       0.00568395 </v>
   <v>       0.00025355      -0.00437928      -0.00240850 </v>
   <v>      -0.00233267       0.00219557      -0.01339630 </v>
   <v>      -0.00640617       0.00551711      -0.00463085 </v>
   <v>      -0.00816106      -0.00728494       0.02130384 </v>
   <v>       0.00004497      -0.00364094      -0.00208102 </v>
   <v>      -0.00130207       0.00036597       0.00446583 </v>
   <v>      -0.02245086      -0.00498205       0.00158080 </v>
   <v>      -0.00049891       0.00251011       0.00534723 </v>
   <v>       0.00390290       0.00267875       0.00768403 </v>
   <v>       0.00990830       0.00614860       0.00748378 </v>
   <v>       0.01623511      -0.00795544       0.01308276 </v>
   <v>      -0.01477606      -0.01223710      -0.00576972 </v>
   <v>      -0.01173393      -0.00544641       0.02290165 </v>
   <v>       0.00169593       0.02891302       0.02426427 </v>
   <v>       0.00880829      -0.01251450      -0.00450297 </v>
   <v>      -0.00321322      -0.01770105       0.00952792 </v>
   <v>       0.00153216       0.01035795       0.00655819 </v>
   <v>      -0.01072852       0.00253742      -0.00745400 </v>
   <v>      -0.00949329       0.00448811      -0.01759045 </v>
   <v>      -0.00302286      -0.00303072       0.00150876 </v>
   <v>      -0.00052691      -0.01282366       0.01251495 </v>
   <v>       0.00235525       0.00023265      -0.01506668 </v>
   <v>      -0.01631398       0.00890909      -0.00985012 </v>
   <v>      -0.01255083       0.01563662      -0.00748181 </v>
   <v>       0.01031966       0.00146200      -0.00561796 </v>
[...]
       <r>   -17.0599     0.0000    32.0000 </r>
       <r>   -16.9066     0.0000    32.0000 </r>
       <r>   -16.7534     0.0000    32.0000 </r>
       <r>   -16.6001     0.0000    32.0000 </r>
       <r>   -16.4468     0.0000    32.0000 </r>
       <r>   -16.2935     0.0000    32.0000 </r>
       <r>   -16.1402     0.0000    32.0000 </r>
       <r>   -15.9869     0.0000    32.0000 </r>
       <r>   -15.8336     0.0000    32.0000 </r>
       <r>   -15.6803     0.0000    32.0000 </r>
       <r>   -15.5270     0.0000    32.0000 </r>
       <r>   -15.3737     0.0252    32.0039 </r>
       <r>   -15.2204     9.0870    33.3969 </r>
       <r>   -15.0671    20.6809    36.5672 </r>
       <r>   -14.9138    30.3889    41.2258 </r>
       <r>   -14.7605    41.2816    47.5541 </r>
       <r>   -14.6072    41.3674    53.8957 </r>
       <r>   -14.4539    39.6241    59.9699 </r>
       <r>   -14.3006    41.5787    66.3439 </r>
       <r>   -14.1473    59.1550    75.4122 </r>
       <r>   -13.9940    75.5040    86.9868 </r>
       <r>   -13.8407    71.5590    97.9566 </r>
       <r>   -13.6874    68.8231   108.5070 </r>
       <r>   -13.5341    40.4075   114.7014 </r>
       <r>   -13.3808    20.8915   117.9040 </r>
       <r>   -13.2275    13.6519   119.9968 </r>
       <r>   -13.0742     0.0207   120.0000 </r>
       <r>   -12.9209     0.0000   120.0000 </r>
       <r>   -12.7676     4.7779   120.7324 </r>
       <r>   -12.6143    63.3973   130.4511 </r>
       <r>   -12.4610   132.2809   150.7294 </r>
       <r>   -12.3077   132.2298   171.0000 </r>
       <r>   -12.1544   104.4072   187.0054 </r>
       <r>   -12.0011   100.9106   202.4747 </r>
       <r>   -11.8478    67.2564   212.7850 </r>
       <r>   -11.6945    20.9352   215.9943 </r>
       <r>   -11.5412     0.0372   216.0000 </r>
       <r>   -11.3879     0.0000   216.0000 </r>
       <r>   -11.2346     0.0000   216.0000 </r>
       <r>   -11.0813     0.0000   216.0000 </r>
       <r>   -10.9280     0.0000   216.0000 </r>
       <r>   -10.7747     0.0000   216.0000 </r>
       <r>   -10.6214     0.0000   216.0000 </r>
       <r>   -10.4681     0.0000   216.0000 </r>
       <r>   -10.3148     0.0000   216.0000 </r>
       <r>   -10.1616     0.0000   216.0000 </r>
       <r>   -10.0083     0.0000   216.0000 </r>
       <r>    -9.8550     0.0000   216.0000 </r>
       <r>    -9.7017     0.0000   216.0000 </r>
       <r>    -9.5484     0.0000   216.0000 </r>
       <r>    -9.3951     0.0000   216.0000 </r>
       <r>    -9.2418     0.0000   216.0000 </r>
       <r>    -9.0885     0.0000   216.0000 </r>
       <r>    -8.9352     0.0000   216.0000 </r>
       <r>    -8.7819     0.0000   216.0000 </r>
       <r>    -8.6286     0.0000   216.0000 </r>
       <r>    -8.4753     0.0000   216.0000 </r>
       <r>    -8.3220     0.0000   216.0000 </r>
       <r>    -8.1687     0.0000   216.0000 </r>
       <r>    -8.0154     0.0000   216.0000 </r>
       <r>    -7.8621     0.0000   216.0000 </r>
       <r>    -7.7088     0.0000   216.0000 </r>
       <r>    -7.5555     0.0000   216.0000 </r>
       <r>    -7.4022     0.0000   216.0000 </r>
       <r>    -7.2489     0.0000   216.0000 </r>
       <r>    -7.0956     0.0000   216.0000 </r>
       <r>    -6.9423     0.0000   216.0000 </r>
       <r>    -6.7890     0.0000   216.0000 </r>
       <r>    -6.6357     0.0000   216.0000 </r>
       <r>    -6.4824     0.0000   216.0000 </r>
       <r>    -6.3291     0.0000   216.0000 </r>
       <r>    -6.1758     0.0000   216.0000 </r>
       <r>    -6.0225     0.0000   216.0000 </r>
       <r>    -5.8692     0.0000   216.0000 </r>
       <r>    -5.7159     0.0000   216.0000 </r>
       <r>    -5.5626     0.0000   216.0000 </r>
       <r>    -5.4093     0.0000   216.0000 </r>
       <r>    -5.2560     0.0000   216.0000 </r>
       <r>    -5.1027     0.0000   216.0000 </r>
       <r>    -4.9494     0.0000   216.0000 </r>
       <r>    -4.7961     0.0000   216.0000 </r>
       <r>    -4.6428     0.0000   216.0000 </r>
       <r>    -4.4895     0.0000   216.0000 </r>
       <r>    -4.3362     0.0000   216.0000 </r>
       <r>    -4.1829     0.0000   216.0000 </r>
       <r>    -4.0296     0.0000   216.0000 </r>
       <r>    -3.8763     0.0000   216.0000 </r>
       <r>    -3.7230     0.0000   216.0000 </r>
       <r>    -3.5697     0.0000   216.0000 </r>
       <r>    -3.4165     0.0000   216.0000 </r>
       <r>    -3.2632     0.0000   216.0000 </r>
       <r>    -3.1099     0.0000   216.0000 </r>
       <r>    -2.9566     0.0000   216.0000 </r>
       <r>    -2.8033     0.0000   216.0000 </r>
       <r>    -2.6500     0.0000   216.0000 </r>
       <r>    -2.4967     0.4198   216.0644 </r>
       <r>    -2.3434    11.4214   217.8152 </r>
       <r>    -2.1901    16.3372   220.3197 </r>
       <r>    -2.0368    26.8805   224.4404 </r>
       <r>    -1.8835    28.9463   228.8778 </r>
       <r>    -1.7302    35.5416   234.3263 </r>
       <r>    -1.5769    45.8085   241.3486 </r>
       <r>    -1.4236    46.5887   248.4906 </r>
       <r>    -1.2703    48.7298   255.9607 </r>
       <r>    -1.1170    60.6652   265.2605 </r>
       <r>    -0.9637    70.8274   276.1182 </r>
       <r>    -0.8104    80.3162   288.4305 </r>
       <r>    -0.6571    87.8240   301.8937 </r>
       <r>    -0.5038    94.2638   316.3442 </r>
       <r>    -0.3505    90.9067   330.2799 </r>
       <r>    -0.1972    72.9208   341.4585 </r>
       <r>    -0.0439    53.7962   349.7054 </r>
       <r>     0.1094    55.2293   358.1719 </r>
       <r>     0.2627    47.8015   365.4997 </r>
       <r>     0.4160    48.0460   372.8651 </r>
       <r>     0.5693    54.4304   381.2091 </r>
       <r>     0.7226    59.5785   390.3424 </r>
       <r>     0.8759    59.6053   399.4797 </r>
       <r>     1.0292    57.5854   408.3075 </r>
       <r>     1.1825    57.7403   417.1589 </r>
       <r>     1.3358    64.9883   427.1215 </r>
       <r>     1.4891    71.8624   438.1378 </r>
       <r>     1.6424    71.4514   449.0912 </r>
       <r>     1.7957    60.8780   458.4236 </r>
       <r>     1.9490    50.9942   466.2409 </r>
       <r>     2.1023    45.1651   473.1646 </r>
       <r>     2.2556    19.7479   476.1919 </r>
       <r>     2.4089    15.6818   478.5959 </r>
       <r>     2.5622     9.1500   479.9986 </r>
       <r>     2.7155     0.0093   480.0000 </r>
       <r>     2.8688     0.0000   480.0000 </r>
       <r>     3.0221     0.0000   480.0000 </r>
       <r>     3.1753     0.0000   480.0000 </r>
       <r>     3.3286     0.0000   480.0000 </r>
       <r>     3.4819     0.0000   480.0000 </r>
       <r>     3.6352     0.0000   480.0000 </r>
       <r>     3.7885     0.0000   480.0000 </r>
       <r>     3.9418     0.0000   480.0000 </r>
       <r>     4.0951     0.0003   480.0001 </r>
       <r>     4.2484     4.3195   480.6622 </r>
       <r>     4.4017    10.7645   482.3124 </r>
       <r>     4.5550    39.2024   488.3220 </r>
       <r>     4.7083    48.7617   495.7971 </r>
       <r>     4.8616    50.7341   503.5745 </r>
       <r>     5.0149    42.0623   510.0226 </r>
       <r>     5.1682    62.1052   519.5431 </r>
       <r>     5.3215    72.9301   530.7232 </r>
       <r>     5.4748    76.0139   542.3759 </r>
       <r>     5.6281    79.2372   554.5228 </r>
       <r>     5.7814    74.2692   565.9081 </r>
       <r>     5.9347    65.9528   576.0185 </r>
       <r>     6.0880    70.5037   586.8266 </r>
       <r>     6.2413    73.3773   598.0751 </r>
       <r>     6.3946    52.1990   606.0771 </r>
       <r>     6.5479    23.9419   609.7474 </r>
       <r>     6.7012    19.2766   612.7024 </r>
       <r>     6.8545    14.6351   614.9460 </r>
       <r>     7.0078    14.7679   617.2098 </r>
       <r>     7.1611    17.1524   619.8393 </r>
       <r>     7.3144    14.3889   622.0451 </r>
       <r>     7.4677    13.4003   624.0993 </r>
       <r>     7.6210    20.2696   627.2066 </r>
       <r>     7.7743    15.9596   629.6531 </r>
       <r>     7.9276    18.2884   632.4567 </r>
       <r>     8.0809    19.3939   635.4297 </r>
       <r>     8.2342    25.1907   639.2914 </r>
       <r>     8.3875    21.8663   642.6435 </r>
       <r>     8.5408    26.0868   646.6425 </r>
       <r>     8.6941    29.0438   651.0949 </r>
       <r>     8.8474    31.8860   655.9829 </r>
       <r>     9.0007    36.0566   661.5103 </r>
       <r>     9.1540    37.0788   667.1944 </r>
       <r>     9.3073    37.6324   672.9634 </r>
       <r>     9.4606    40.3135   679.1433 </r>
       <r>     9.6139    49.7025   686.7626 </r>
       <r>     9.7672    52.9366   694.8777 </r>
       <r>     9.9204    56.6663   703.5645 </r>
       <r>    10.0737    58.1054   712.4719 </r>
       <r>    10.2270    55.2462   720.9410 </r>
       <r>    10.3803    54.1355   729.2399 </r>
       <r>    10.5336    56.0808   737.8369 </r>
       <r>    10.6869    56.3999   746.4829 </r>
       <r>    10.8402    61.3785   755.8921 </r>
       <r>    10.9935    57.0272   764.6342 </r>
       <r>    11.1468    21.9437   767.9981 </r>
       <r>    11.3001     0.0122   768.0000 </r>
       <r>    11.4534     0.0000   768.0000 </r>
       <r>    11.6067     0.0000   768.0000 </r>
       <r>    11.7600     0.0000   768.0000 </r>
       <r>    11.9133     0.0000   768.0000 </r>
       <r>    12.0666     0.0000   768.0000 </r>
       <r>    12.2199     0.0000   768.0000 </r>
       <r>    12.3732     0.0000   768.0000 </r>
       <r>    12.5265     0.0000   768.0000 </r>
       <r>    12.6798     0.0000   768.0000 </r>
       <r>    12.8331     0.0000   768.0000 </r>
       <r>    12.9864     0.0000   768.0000 </r>
       <r>    13.1397     0.0000   768.0000 </r>
      </set>
     </set>
    </array>
   </total>
  </dos>
 </calculation>
 <structure name="finalpos" >
  <crystal>
   <varray name="basis" >
    <v>      11.22935788      -0.00179321       0.00596248 </v>
    <v>      -0.00181819      11.25685504       0.02980299 </v>
    <v>       0.00804619       0.04307267      15.89550966 </v>
   </varray>
   <i name="volume">   2009.29271730 </i>
   <varray name="rec_basis" >
    <v>       0.08905231       0.00001450      -0.00004512 </v>
    <v>       0.00001431       0.08883540      -0.00024073 </v>
    <v>      -0.00003343      -0.00016657       0.06291132 </v>
   </varray>
  </crystal>
  <varray name="positions" >
   <v>       0.98788686       0.23845863       0.11888210 </v>
   <v>       0.01296100       0.24299321       0.63301626 </v>
   <v>       0.99738389       0.75940942       0.12369697 </v>
   <v>       0.99216235       0.74785495       0.63264633 </v>
   <v>       0.50713127       0.24032575       0.11303690 </v>
   <v>       0.47972434       0.25800520       0.63270954 </v>
   <v>       0.50797706       0.75384241       0.11507819 </v>
   <v>       0.50832712       0.74889621       0.63352317 </v>
   <v>       0.00929533       0.23789741       0.36703269 </v>
   <v>       0.00303453       0.25126223       0.88390114 </v>
   <v>       0.99776118       0.75895782       0.37435929 </v>
   <v>       0.99581488       0.74452742       0.87459306 </v>
   <v>       0.48975185       0.24386810       0.37706602 </v>
   <v>       0.49607522       0.25410328       0.87900148 </v>
   <v>       0.50201938       0.75507911       0.37352431 </v>
   <v>       0.50750328       0.74453001       0.87227539 </v>
   <v>       0.25192000       0.99818951       0.11958205 </v>
   <v>       0.25174163       0.00987570       0.63197663 </v>
   <v>       0.25584278       0.50274620       0.11503148 </v>
   <v>       0.25278282       0.49562870       0.63618318 </v>
   <v>       0.74865610       0.00034159       0.11919619 </v>
   <v>       0.75498183       0.97931105       0.63291388 </v>
   <v>       0.74665938       0.49035732       0.11499276 </v>
   <v>       0.74737412       0.51564288       0.63563940 </v>
   <v>       0.24163383       0.99777002       0.36920054 </v>
   <v>       0.25056401       0.00603068       0.87778592 </v>
   <v>       0.25043050       0.49634192       0.37762491 </v>
   <v>       0.25208374       0.49620815       0.87507900 </v>
   <v>       0.75736084       0.98011706       0.36758800 </v>
   <v>       0.75293480       0.99423792       0.87964049 </v>
   <v>       0.75107183       0.50902569       0.37932194 </v>
   <v>       0.75103265       0.49970446       0.87750508 </v>
   <v>       0.00248746       0.00016364       0.00126706 </v>
   <v>       0.00318947       0.49487506       0.50438733 </v>
   <v>       0.50033987       0.00032311       0.99424147 </v>
   <v>       0.49934783       0.49758488       0.99683124 </v>
   <v>       0.49180457       0.51019707       0.50204784 </v>
   <v>       0.25046438       0.24670443       0.50051878 </v>
   <v>       0.73450702       0.26083850       0.51050294 </v>
   <v>       0.75464850       0.74489874       0.00024599 </v>
   <v>       0.74934161       0.74841681       0.50111586 </v>
   <v>       0.23843459       0.26027771       0.24654305 </v>
   <v>       0.24810780       0.25249398       0.75660083 </v>
   <v>       0.76079491       0.25716678       0.75568934 </v>
   <v>       0.74903812       0.74858207       0.24630090 </v>
   <v>       0.00183577       0.99312883       0.75266413 </v>
   <v>       0.99403063       0.50392819       0.25874941 </v>
   <v>       0.51438814       0.48603355       0.25325028 </v>
   <v>       0.01767804       0.98313617       0.50009505 </v>
   <v>       0.00459854       0.49950722       0.99085608 </v>
   <v>       0.52225861       0.01489562       0.49953351 </v>
   <v>       0.24976281       0.24939282       0.00533181 </v>
   <v>       0.25548810       0.74885250       0.01346226 </v>
   <v>       0.24265184       0.73425204       0.49872672 </v>
   <v>       0.74897645       0.24658609       0.99714283 </v>
   <v>       0.23915387       0.76380292       0.25057985 </v>
   <v>       0.25287200       0.75166024       0.73234309 </v>
   <v>       0.74614377       0.24431245       0.23937066 </v>
   <v>       0.75137473       0.74579173       0.75392393 </v>
   <v>       0.99333196       0.00080502       0.25031091 </v>
   <v>       0.00429282       0.50277548       0.74946791 </v>
   <v>       0.50615810       0.98931639       0.24994275 </v>
   <v>       0.49151263       0.98722955       0.75281331 </v>
   <v>       0.49843400       0.50060988       0.75221035 </v>
   <v>       0.12913410       0.12432384       0.24600248 </v>
   <v>       0.12348561       0.12481633       0.74400429 </v>
   <v>       0.11877741       0.61510228       0.22853009 </v>
   <v>       0.12722868       0.62950807       0.73409958 </v>
   <v>       0.59537943       0.13926561       0.25515471 </v>
   <v>       0.60696043       0.63386549       0.24636342 </v>
   <v>       0.62469509       0.62158876       0.74549363 </v>
   <v>       0.37295229       0.38008918       0.25889155 </v>
   <v>       0.37150230       0.37468808       0.75574323 </v>
   <v>       0.36370581       0.89040381       0.25521595 </v>
   <v>       0.37272428       0.87044597       0.76871220 </v>
   <v>       0.88363111       0.37039405       0.24892446 </v>
   <v>       0.87506882       0.37140151       0.76146408 </v>
   <v>       0.87579036       0.86406867       0.25590468 </v>
   <v>       0.88240218       0.86851767       0.75526095 </v>
   <v>       0.37756396       0.12863509       0.74724280 </v>
   <v>       0.36944839       0.62602807       0.75723945 </v>
   <v>       0.85750767       0.12117903       0.26086292 </v>
   <v>       0.85887935       0.11271831       0.74755588 </v>
   <v>       0.86671127       0.61275369       0.23227501 </v>
   <v>       0.87678037       0.61998767       0.74202801 </v>
   <v>       0.12193581       0.37686689       0.24161526 </v>
   <v>       0.12433080       0.37345393       0.74806513 </v>
   <v>       0.11491539       0.87325175       0.25703864 </v>
   <v>       0.12898902       0.87352593       0.75924535 </v>
   <v>       0.63696886       0.37770962       0.27257981 </v>
   <v>       0.61882234       0.35109063       0.74307894 </v>
   <v>       0.62906563       0.87581979       0.25806852 </v>
   <v>       0.63398757       0.88247673       0.75402595 </v>
   <v>       0.37036640       0.37864927       0.99812502 </v>
   <v>       0.36544045       0.38534990       0.49246612 </v>
   <v>       0.37445477       0.87329976       0.98137298 </v>
   <v>       0.87424724       0.37702551       0.99796403 </v>
   <v>       0.87788353       0.87142374       0.99423223 </v>
   <v>       0.87284426       0.87334578       0.49677095 </v>
   <v>       0.12526773       0.12449875       0.01039361 </v>
   <v>       0.12481160       0.12551312       0.50564255 </v>
   <v>       0.13376203       0.62629719       0.99925066 </v>
   <v>       0.12869406       0.61138207       0.51656293 </v>
   <v>       0.62821268       0.11670578       0.00809670 </v>
   <v>       0.66799376       0.11626718       0.47412394 </v>
   <v>       0.63099514       0.61851145       0.00821902 </v>
   <v>       0.63361571       0.61160397       0.50246554 </v>
   <v>       0.11918231       0.37575920       0.02749349 </v>
   <v>       0.11965566       0.36782353       0.48151937 </v>
   <v>       0.12995233       0.87389123       0.00211072 </v>
   <v>       0.14149540       0.87027849       0.48100003 </v>
   <v>       0.61919228       0.37058601       0.00226462 </v>
   <v>       0.61364664       0.36653624       0.48756757 </v>
   <v>       0.62499045       0.86805013       0.99387284 </v>
   <v>       0.61305108       0.86212644       0.49478319 </v>
   <v>       0.37742533       0.12427134       0.99450771 </v>
   <v>       0.38530354       0.13349636       0.50916654 </v>
   <v>       0.38020383       0.62795149       0.98799387 </v>
   <v>       0.39009938       0.64672495       0.50568802 </v>
   <v>       0.87703424       0.12305004       0.99897554 </v>
   <v>       0.86899934       0.33822954       0.46856875 </v>
   <v>       0.88315921       0.62163561       0.02036513 </v>
   <v>       0.87533843       0.61328863       0.50506652 </v>
   <v>       0.98722593       0.99607383       0.12645826 </v>
   <v>       0.99718460       0.99324888       0.62286225 </v>
   <v>       0.98485189       0.46460983       0.61921304 </v>
   <v>       0.49102671       0.99329253       0.12412925 </v>
   <v>       0.51874182       0.00755623       0.62470925 </v>
   <v>       0.49160293       0.49798454       0.13126766 </v>
   <v>       0.49357007       0.49236227       0.62266507 </v>
   <v>       0.98756013       0.01695548       0.38215577 </v>
   <v>       0.00670885       0.00981423       0.87552435 </v>
   <v>       0.99983487       0.52144165       0.37397822 </v>
   <v>       0.01163915       0.50668793       0.87308950 </v>
   <v>       0.47550648       0.99971233       0.38301984 </v>
   <v>       0.52080538       0.02399756       0.87005161 </v>
   <v>       0.48420962       0.52381721       0.37130361 </v>
   <v>       0.51380880       0.49649291       0.87561309 </v>
   <v>       0.26249039       0.22739325       0.36800671 </v>
   <v>       0.23553137       0.25068950       0.87814511 </v>
   <v>       0.26301487       0.71955402       0.36813981 </v>
   <v>       0.73323441       0.23259810       0.87198443 </v>
   <v>       0.75553996       0.73339619       0.37364218 </v>
   <v>       0.75904385       0.72916214       0.87893875 </v>
   <v>       0.28515748       0.22831828       0.13526403 </v>
   <v>       0.24804614       0.26268702       0.62264884 </v>
   <v>       0.28148747       0.73804003       0.13285420 </v>
   <v>       0.27454679       0.78673697       0.61474930 </v>
   <v>       0.74708304       0.25279671       0.12408249 </v>
   <v>       0.75356041       0.23753813       0.62414515 </v>
   <v>       0.74583008       0.76570886       0.12555821 </v>
   <v>       0.75016406       0.75270475       0.62281106 </v>
  </varray>
 </structure>
</modeling>
