       N       E                     dE             d eps       ncg     rms          rms(c)
DAV:   1    -0.115251098845E+04   -0.11525E+04   -0.43349E-02 13016   0.475E-01    0.140E-02
RMM:   2    -0.115251098901E+04   -0.55850E-06   -0.10966E-05  6842   0.603E-03    0.213E-02
RMM:   3    -0.115251098939E+04   -0.38024E-06   -0.42325E-06  5382   0.404E-03    0.364E-03
RMM:   4    -0.115251098985E+04   -0.46598E-06   -0.19337E-06  3411   0.238E-03    0.229E-03
RMM:   5    -0.115251099015E+04   -0.29440E-06   -0.10671E-06  2923   0.243E-03    0.166E-03
RMM:   6    -0.115251099024E+04   -0.90135E-07   -0.47338E-07  2117   0.201E-03    0.725E-04
RMM:   7    -0.115251099027E+04   -0.32771E-07   -0.28232E-07  1887   0.202E-03    0.249E-04
RMM:   8    -0.115251099028E+04   -0.31287E-08   -0.63201E-08  1348   0.187E-03
   1 F= -.11525110E+04 E0= -.11525110E+04  d E =-.115251E+04  mag=    20.0000
       N       E                     dE             d eps       ncg     rms          rms(c)
DAV:   1    -0.115251180362E+04   -0.81334E-03   -0.27273E-01 12416   0.623E-01    0.290E-01
RMM:   2    -0.115251194631E+04   -0.14269E-03   -0.10457E-02 12290   0.130E-01    0.264E-01
RMM:   3    -0.115251171612E+04    0.23019E-03   -0.49877E-04 11008   0.404E-02    0.150E-01
RMM:   4    -0.115251161678E+04    0.99342E-04   -0.29338E-04  8714   0.205E-02    0.892E-02
RMM:   5    -0.115251159668E+04    0.20099E-04   -0.52742E-05  7115   0.121E-02    0.577E-02
RMM:   6    -0.115251159295E+04    0.37252E-05   -0.20311E-05  7014   0.615E-03    0.226E-02
RMM:   7    -0.115251159006E+04    0.28905E-05   -0.88354E-06  6719   0.465E-03    0.129E-02
RMM:   8    -0.115251158828E+04    0.17754E-05   -0.53263E-06  6258   0.340E-03
   2 F= -.11525116E+04 E0= -.11525116E+04  d E =-.598009E-03  mag=    20.0000
       N       E                     dE             d eps       ncg     rms          rms(c)
DAV:   1    -0.115251168140E+04   -0.91337E-04   -0.20829E-02 12704   0.172E-01    0.802E-02
RMM:   2    -0.115251169397E+04   -0.12569E-04   -0.78467E-04 11968   0.359E-02    0.726E-02
RMM:   3    -0.115251167571E+04    0.18254E-04   -0.32991E-05  6619   0.116E-02    0.420E-02
RMM:   4    -0.115251166888E+04    0.68313E-05   -0.23701E-05  6465   0.638E-03    0.269E-02
RMM:   5    -0.115251166903E+04   -0.15160E-06   -0.46249E-06  5609   0.389E-03    0.187E-02
RMM:   6    -0.115251166961E+04   -0.58045E-06   -0.51406E-07  2310   0.204E-03    0.657E-03
RMM:   7    -0.115251167022E+04   -0.60648E-06   -0.36594E-07  2178   0.206E-03    0.283E-03
RMM:   8    -0.115251167072E+04   -0.50152E-06   -0.59574E-07  2219   0.203E-03
   3 F= -.11525117E+04 E0= -.11525117E+04  d E =-.680444E-03  mag=    20.0000
       N       E                     dE             d eps       ncg     rms          rms(c)
DAV:   1    -0.115251171845E+04   -0.48232E-04   -0.24479E-01 12400   0.589E-01    0.164E-01
RMM:   2    -0.115251228136E+04   -0.56291E-03   -0.64348E-03 12318   0.104E-01    0.113E-01
RMM:   3    -0.115251226966E+04    0.11701E-04   -0.27792E-04  8517   0.339E-02    0.693E-02
RMM:   4    -0.115251224041E+04    0.29248E-04   -0.11443E-04  7110   0.137E-02    0.343E-02
RMM:   5    -0.115251224132E+04   -0.91075E-06   -0.30814E-05  6917   0.857E-03    0.283E-02
RMM:   6    -0.115251224277E+04   -0.14480E-05   -0.13121E-05  6699   0.529E-03    0.104E-02
RMM:   7    -0.115251224344E+04   -0.67317E-06   -0.64103E-06  5673   0.396E-03    0.806E-03
RMM:   8    -0.115251224395E+04   -0.50651E-06   -0.40503E-06  4738   0.297E-03
   4 F= -.11525122E+04 E0= -.11525122E+04  d E =-.573228E-03  mag=    20.0000
       N       E                     dE             d eps       ncg     rms          rms(c)
DAV:   1    -0.115251224323E+04    0.21319E-06   -0.16507E-02 12272   0.153E-01    0.427E-02
RMM:   2    -0.115251228008E+04   -0.36851E-04   -0.41679E-04  9097   0.278E-02    0.321E-02
RMM:   3    -0.115251228233E+04   -0.22535E-05   -0.32468E-05  6775   0.108E-02    0.190E-02
RMM:   4    -0.115251228154E+04    0.79682E-06   -0.11271E-05  6539   0.469E-03    0.157E-02
RMM:   5    -0.115251228136E+04    0.17577E-06   -0.45065E-06  5473   0.347E-03    0.651E-03
RMM:   6    -0.115251228158E+04   -0.22312E-06   -0.19705E-06  3680   0.236E-03    0.205E-03
RMM:   7    -0.115251228167E+04   -0.84110E-07   -0.77016E-07  2813   0.225E-03    0.141E-03
RMM:   8    -0.115251228170E+04   -0.30283E-07   -0.25933E-07  1901   0.190E-03
   5 F= -.11525123E+04 E0= -.11525123E+04  d E =-.610977E-03  mag=    20.0000
       N       E                     dE             d eps       ncg     rms          rms(c)
DAV:   1    -0.115251228689E+04   -0.52219E-05   -0.24395E-01 12400   0.577E-01    0.126E-01
RMM:   2    -0.115251280215E+04   -0.51526E-03   -0.63003E-03 12324   0.101E-01    0.995E-02
RMM:   3    -0.115251277804E+04    0.24107E-04   -0.26667E-04  8266   0.328E-02    0.632E-02
RMM:   4    -0.115251275655E+04    0.21491E-04   -0.97739E-05  7047   0.123E-02    0.416E-02
RMM:   5    -0.115251275448E+04    0.20715E-05   -0.29754E-05  6931   0.828E-03    0.276E-02
RMM:   6    -0.115251275615E+04   -0.16705E-05   -0.14022E-05  6659   0.515E-03    0.997E-03
RMM:   7    -0.115251275733E+04   -0.11836E-05   -0.69528E-06  5846   0.416E-03    0.846E-03
RMM:   8    -0.115251275826E+04   -0.92924E-06   -0.43219E-06  4667   0.299E-03
   6 F= -.11525128E+04 E0= -.11525128E+04  d E =-.476564E-03  mag=    20.0000
