<?xml version="1.0" encoding="ISO-8859-1"?>
<modeling>
 <generator>
  <i name="program" type="string">vasp </i>
  <i name="version" type="string">5.4.1  </i>
  <i name="subversion" type="string">05Feb16 (build Jan 25 2017 20:16:33) complex                          parallel </i>
  <i name="platform" type="string">BWXE6 </i>
  <i name="date" type="string">2019 06 20 </i>
  <i name="time" type="string">11:06:59 </i>
 </generator>
 <incar>
  <i type="string" name="SYSTEM"> STF</i>
  <i type="string" name="PREC">normal</i>
  <i type="string" name="ALGO"> Fast</i>
  <i type="int" name="ISPIN">     2</i>
  <i type="int" name="NELM">    40</i>
  <i type="int" name="NELMIN">     8</i>
  <i type="int" name="IBRION">     2</i>
  <i name="EDIFF">      0.00010000</i>
  <i name="EDIFFG">     -0.03000000</i>
  <i type="int" name="NSW">    30</i>
  <i type="int" name="ISIF">     3</i>
  <i name="ENCUT">    520.00000000</i>
  <i type="int" name="NBANDS">   768</i>
  <v name="MAGMOM">      0.60000000      0.60000000      0.60000000      0.60000000      0.60000000      0.60000000      0.60000000      0.60000000      0.60000000      0.60000000      0.60000000      0.60000000      0.60000000      0.60000000      0.60000000      0.60000000      0.60000000      0.60000000      0.60000000      0.60000000
      0.60000000      0.60000000      0.60000000      0.60000000      0.60000000      0.60000000      0.60000000      0.60000000      0.60000000      0.60000000      0.60000000      0.60000000      0.60000000      0.60000000      0.60000000      0.60000000      0.60000000      0.60000000      0.60000000      0.60000000
      0.60000000      0.60000000      0.60000000      0.60000000      0.60000000      0.60000000      0.60000000      0.60000000      0.60000000      0.60000000      0.60000000      0.60000000      0.60000000      0.60000000      0.60000000      0.60000000      0.60000000      0.60000000      0.60000000      0.60000000
      5.00000000      5.00000000      5.00000000      5.00000000      0.60000000      0.60000000      0.60000000      0.60000000      0.60000000      0.60000000      0.60000000      0.60000000      0.60000000      0.60000000      0.60000000      0.60000000      0.60000000      0.60000000      0.60000000      0.60000000
      0.60000000      0.60000000      0.60000000      0.60000000      0.60000000      0.60000000      0.60000000      0.60000000      0.60000000      0.60000000      0.60000000      0.60000000      0.60000000      0.60000000      0.60000000      0.60000000      0.60000000      0.60000000      0.60000000      0.60000000
      0.60000000      0.60000000      0.60000000      0.60000000      0.60000000      0.60000000      0.60000000      0.60000000      0.60000000      0.60000000      0.60000000      0.60000000      0.60000000      0.60000000      0.60000000      0.60000000      0.60000000      0.60000000      0.60000000      0.60000000
      0.60000000      0.60000000      0.60000000      0.60000000      0.60000000      0.60000000      0.60000000      0.60000000      0.60000000      0.60000000      0.60000000      0.60000000      0.60000000      0.60000000      0.60000000      0.60000000      0.60000000      0.60000000      0.60000000      0.60000000
      0.60000000      0.60000000      0.60000000      0.60000000      0.60000000      0.60000000      0.60000000      0.60000000      0.60000000      0.60000000      0.60000000      0.60000000      0.60000000      0.60000000      0.60000000      0.60000000      0.60000000      0.60000000</v>
  <i type="string" name="LREAL"> Auto</i>
  <i type="int" name="ISMEAR">     0</i>
  <i name="SIGMA">      0.05000000</i>
  <i type="int" name="LMAXMIX">     4</i>
  <v type="int" name="KPOINT_BSE">    -1     0     0     0</v>
  <i type="int" name="NELM">    40</i>
  <i type="logical" name="LDAU"> T  </i>
  <v type="int" name="LDAUTYPE">     2</v>
  <v type="int" name="LDAUL">     0     2     2     0</v>
  <v name="LDAUU">      0.00000000      3.00000000      5.00000000      0.00000000</v>
  <v name="LDAUJ">      0.00000000      0.00000000      0.00000000      0.00000000</v>
  <i type="int" name="LDAUPRINT">     1</i>
 </incar>
 <kpoints>
  <generation param="Monkhorst-Pack">
   <v type="int" name="divisions">       2        2        2 </v>
   <v name="usershift">      0.00000000       0.00000000       0.00000000 </v>
   <v name="genvec1">      0.50000000      -0.00000000      -0.00000000 </v>
   <v name="genvec2">     -0.00000000       0.50000000      -0.00000000 </v>
   <v name="genvec3">      0.00000000       0.00000000       0.50000000 </v>
   <v name="shift">      0.50000000       0.50000000       0.50000000 </v>
  </generation>
  <varray name="kpointlist" >
   <v>       0.25000000       0.25000000       0.25000000 </v>
   <v>      -0.25000000       0.25000000       0.25000000 </v>
   <v>       0.25000000      -0.25000000       0.25000000 </v>
   <v>      -0.25000000      -0.25000000       0.25000000 </v>
  </varray>
  <varray name="weights" >
   <v>       0.25000000 </v>
   <v>       0.25000000 </v>
   <v>       0.25000000 </v>
   <v>       0.25000000 </v>
  </varray>
 </kpoints>
 <parameters>
  <separator name="general" >
   <i type="string" name="SYSTEM">STF</i>
   <i type="logical" name="LCOMPAT"> F  </i>
  </separator>
  <separator name="electronic" >
   <i type="string" name="PREC">normal</i>
   <i name="ENMAX">    520.00000000</i>
   <i name="ENAUG">    605.39200000</i>
   <i name="EDIFF">      0.00010000</i>
   <i type="int" name="IALGO">    68</i>
   <i type="int" name="IWAVPR">    11</i>
   <i type="int" name="NBANDS">   768</i>
   <i name="NELECT">   1028.00000000</i>
   <i type="int" name="TURBO">     0</i>
   <i type="int" name="IRESTART">     0</i>
   <i type="int" name="NREBOOT">     0</i>
   <i type="int" name="NMIN">     0</i>
   <i name="EREF">      0.00000000</i>
   <separator name="electronic smearing" >
    <i type="int" name="ISMEAR">     0</i>
    <i name="SIGMA">      0.05000000</i>
    <i name="KSPACING">      0.50000000</i>
    <i type="logical" name="KGAMMA"> T  </i>
   </separator>
   <separator name="electronic projectors" >
    <i type="logical" name="LREAL"> T  </i>
    <v name="ROPT">     -0.00050000     -0.00050000     -0.00050000     -0.00050000</v>
    <i type="int" name="LMAXPAW">  -100</i>
    <i type="int" name="LMAXMIX">     4</i>
    <i type="logical" name="NLSPLINE"> F  </i>
   </separator>
   <separator name="electronic startup" >
    <i type="int" name="ISTART">     1</i>
    <i type="int" name="ICHARG">     0</i>
    <i type="int" name="INIWAV">     1</i>
   </separator>
   <separator name="electronic spin" >
    <i type="int" name="ISPIN">     2</i>
    <i type="logical" name="LNONCOLLINEAR"> F  </i>
    <v name="MAGMOM">      0.60000000      0.60000000      0.60000000      0.60000000      0.60000000      0.60000000      0.60000000      0.60000000      0.60000000      0.60000000      0.60000000      0.60000000      0.60000000      0.60000000      0.60000000      0.60000000      0.60000000      0.60000000      0.60000000      0.60000000
      0.60000000      0.60000000      0.60000000      0.60000000      0.60000000      0.60000000      0.60000000      0.60000000      0.60000000      0.60000000      0.60000000      0.60000000      0.60000000      0.60000000      0.60000000      0.60000000      0.60000000      0.60000000      0.60000000      0.60000000
      0.60000000      0.60000000      0.60000000      0.60000000      0.60000000      0.60000000      0.60000000      0.60000000      0.60000000      0.60000000      0.60000000      0.60000000      0.60000000      0.60000000      0.60000000      0.60000000      0.60000000      0.60000000      0.60000000      0.60000000
      5.00000000      5.00000000      5.00000000      5.00000000      0.60000000      0.60000000      0.60000000      0.60000000      0.60000000      0.60000000      0.60000000      0.60000000      0.60000000      0.60000000      0.60000000      0.60000000      0.60000000      0.60000000      0.60000000      0.60000000
      0.60000000      0.60000000      0.60000000      0.60000000      0.60000000      0.60000000      0.60000000      0.60000000      0.60000000      0.60000000      0.60000000      0.60000000      0.60000000      0.60000000      0.60000000      0.60000000      0.60000000      0.60000000      0.60000000      0.60000000
      0.60000000      0.60000000      0.60000000      0.60000000      0.60000000      0.60000000      0.60000000      0.60000000      0.60000000      0.60000000      0.60000000      0.60000000      0.60000000      0.60000000      0.60000000      0.60000000      0.60000000      0.60000000      0.60000000      0.60000000
      0.60000000      0.60000000      0.60000000      0.60000000      0.60000000      0.60000000      0.60000000      0.60000000      0.60000000      0.60000000      0.60000000      0.60000000      0.60000000      0.60000000      0.60000000      0.60000000      0.60000000      0.60000000      0.60000000      0.60000000
      0.60000000      0.60000000      0.60000000      0.60000000      0.60000000      0.60000000      0.60000000      0.60000000      0.60000000      0.60000000      0.60000000      0.60000000      0.60000000      0.60000000      0.60000000      0.60000000      0.60000000      0.60000000</v>
    <i name="NUPDOWN">     -1.00000000</i>
    <i type="logical" name="LSORBIT"> F  </i>
    <v name="SAXIS">      0.00000000      0.00000000      1.00000000</v>
    <i type="logical" name="LSPIRAL"> F  </i>
    <v name="QSPIRAL">      0.00000000      0.00000000      0.00000000</v>
    <i type="logical" name="LZEROZ"> F  </i>
   </separator>
   <separator name="electronic exchange-correlation" >
    <i type="logical" name="LASPH"> F  </i>
    <i type="logical" name="LMETAGGA"> F  </i>
   </separator>
   <separator name="electronic convergence" >
    <i type="int" name="NELM">    40</i>
    <i type="int" name="NELMDL">     0</i>
    <i type="int" name="NELMIN">     8</i>
    <i name="ENINI">    520.00000000</i>
    <separator name="electronic convergence detail" >
     <i type="logical" name="LDIAG"> T  </i>
     <i type="logical" name="LSUBROT"> F  </i>
     <i name="WEIMIN">      0.00100000</i>
     <i name="EBREAK">      0.00000003</i>
     <i name="DEPER">      0.30000000</i>
     <i type="int" name="NRMM">     4</i>
     <i name="TIME">      0.40000000</i>
    </separator>
   </separator>
   <separator name="electronic mixer" >
    <i name="AMIX">      0.40000000</i>
    <i name="BMIX">      1.00000000</i>
    <i name="AMIN">      0.10000000</i>
    <i name="AMIX_MAG">      1.60000000</i>
    <i name="BMIX_MAG">      1.00000000</i>
    <separator name="electronic mixer details" >
     <i type="int" name="IMIX">     4</i>
     <i type="logical" name="MIXFIRST"> F  </i>
     <i type="int" name="MAXMIX">   -45</i>
     <i name="WC">    100.00000000</i>
     <i type="int" name="INIMIX">     1</i>
     <i type="int" name="MIXPRE">     1</i>
     <i type="int" name="MREMOVE">     5</i>
    </separator>
   </separator>
   <separator name="electronic dipolcorrection" >
    <i type="logical" name="LDIPOL"> F  </i>
    <i type="logical" name="LMONO"> F  </i>
    <i type="int" name="IDIPOL">     0</i>
    <i name="EPSILON">      1.00000000</i>
    <v name="DIPOL">   -100.00000000   -100.00000000   -100.00000000</v>
    <i name="EFIELD">      0.00000000</i>
   </separator>
  </separator>
  <separator name="grids" >
   <i type="int" name="NGX">    64</i>
   <i type="int" name="NGY">    64</i>
   <i type="int" name="NGZ">    90</i>
   <i type="int" name="NGXF">   128</i>
   <i type="int" name="NGYF">   128</i>
   <i type="int" name="NGZF">   180</i>
   <i type="logical" name="ADDGRID"> F  </i>
  </separator>
  <separator name="ionic" >
   <i type="int" name="NSW">    30</i>
   <i type="int" name="IBRION">     2</i>
   <i type="int" name="ISIF">     3</i>
   <i name="PSTRESS">      0.00000000</i>
   <i name="EDIFFG">     -0.03000000</i>
   <i type="int" name="NFREE">     1</i>
   <i name="POTIM">      0.50000000</i>
   <i name="SMASS">     -3.00000000</i>
   <i name="SCALEE">      1.00000000</i>
  </separator>
  <separator name="ionic md" >
   <i name="TEBEG">      0.00010000</i>
   <i name="TEEND">      0.00010000</i>
   <i type="int" name="NBLOCK">     1</i>
   <i type="int" name="KBLOCK">    30</i>
   <i type="int" name="NPACO">   256</i>
   <i name="APACO">     16.00000000</i>
  </separator>
  <separator name="symmetry" >
   <i type="int" name="ISYM">     2</i>
   <i name="SYMPREC">      0.00001000</i>
  </separator>
  <separator name="dos" >
   <i type="logical" name="LORBIT"> F  </i>
   <v name="RWIGS">     -1.00000000     -1.00000000     -1.00000000     -1.00000000</v>
   <i type="int" name="NEDOS">   301</i>
   <i name="EMIN">     10.00000000</i>
   <i name="EMAX">    -10.00000000</i>
   <i name="EFERMI">      0.00000000</i>
  </separator>
  <separator name="writing" >
   <i type="int" name="NWRITE">     2</i>
   <i type="logical" name="LWAVE"> T  </i>
   <i type="logical" name="LCHARG"> T  </i>
   <i type="logical" name="LPARD"> F  </i>
   <i type="logical" name="LVTOT"> F  </i>
   <i type="logical" name="LVHAR"> F  </i>
   <i type="logical" name="LELF"> F  </i>
   <i type="logical" name="LOPTICS"> F  </i>
   <v name="STM">      0.00000000      0.00000000      0.00000000      0.00000000      0.00000000      0.00000000      0.00000000</v>
  </separator>
  <separator name="performance" >
   <i type="int" name="NPAR">     2</i>
   <i type="int" name="NSIM">     4</i>
   <i type="int" name="NBLK">    -1</i>
   <i type="logical" name="LPLANE"> T  </i>
   <i type="logical" name="LSCALAPACK"> T  </i>
   <i type="logical" name="LSCAAWARE"> F  </i>
   <i type="logical" name="LSCALU"> F  </i>
   <i type="logical" name="LASYNC"> F  </i>
   <i type="logical" name="LORBITALREAL"> F  </i>
  </separator>
  <separator name="miscellaneous" >
   <i type="int" name="IDIOT">     3</i>
   <i type="logical" name="LMUSIC"> F  </i>
   <v name="POMASS">     87.62000000     47.88000000     55.84700000     16.00000000</v>
   <v name="DARWINR">      0.00000000      0.00000000      0.00000000      0.00000000</v>
   <v name="DARWINV">      1.00000000      1.00000000      1.00000000      1.00000000</v>
   <i type="logical" name="LCORR"> T  </i>
  </separator>
  <i type="logical" name="GGA_COMPAT"> T  </i>
  <i type="logical" name="LBERRY"> F  </i>
  <i type="int" name="ICORELEVEL">     0</i>
  <i type="logical" name="LDAU"> T  </i>
  <v type="int" name="LDAUTYPE">     2</v>
  <v type="int" name="LDAUL">     0</v>
  <v name="LDAUU">      0.00000000</v>
  <v name="LDAUJ">      0.00000000</v>
  <i type="int" name="LDAUPRINT">     1</i>
  <i type="int" name="I_CONSTRAINED_M">     0</i>
  <separator name="electronic exchange-correlation" >
   <i type="string" name="GGA">--</i>
   <i type="int" name="VOSKOWN">     0</i>
   <i type="logical" name="LHFCALC"> F  </i>
   <i type="string" name="PRECFOCK"></i>
   <i type="logical" name="LSYMGRAD"> F  </i>
   <i type="logical" name="LHFONE"> F  </i>
   <i type="logical" name="LRHFCALC"> F  </i>
   <i type="logical" name="LTHOMAS"> F  </i>
   <i type="logical" name="LMODELHF"> F  </i>
   <i name="ENCUT4O">     -1.00000000</i>
   <i type="int" name="EXXOEP">     0</i>
   <i type="int" name="FOURORBIT">     0</i>
   <i name="AEXX">      0.00000000</i>
   <i name="HFALPHA">      0.00000000</i>
   <i name="MCALPHA">      0.00000000</i>
   <i name="ALDAX">      1.00000000</i>
   <i name="AGGAX">      1.00000000</i>
   <i name="ALDAC">      1.00000000</i>
   <i name="AGGAC">      1.00000000</i>
   <i type="int" name="NKREDX">     1</i>
   <i type="int" name="NKREDY">     1</i>
   <i type="int" name="NKREDZ">     1</i>
   <i type="logical" name="SHIFTRED"> F  </i>
   <i type="logical" name="ODDONLY"> F  </i>
   <i type="logical" name="EVENONLY"> F  </i>
   <i type="int" name="LMAXFOCK">     0</i>
   <i type="int" name="NMAXFOCKAE">     0</i>
   <i type="logical" name="LFOCKAEDFT"> F  </i>
   <i name="HFSCREEN">      0.00000000</i>
   <i name="HFSCREENC">      0.00000000</i>
   <i type="int" name="NBANDSGWLOW">     0</i>
  </separator>
  <separator name="vdW DFT" >
   <i type="logical" name="LUSE_VDW"> F  </i>
   <i name="Zab_VDW">     -0.84910000</i>
   <i name="PARAM1">      0.12340000</i>
   <i name="PARAM2">      1.00000000</i>
   <i name="PARAM3">      0.00000000</i>
  </separator>
  <separator name="model GW" >
   <i type="int" name="MODEL_GW">     0</i>
   <i name="MODEL_EPS0">      7.61739202</i>
   <i name="MODEL_ALPHA">      1.00000000</i>
  </separator>
  <separator name="linear response parameters" >
   <i type="logical" name="LEPSILON"> F  </i>
   <i type="logical" name="LRPA"> F  </i>
   <i type="logical" name="LNABLA"> F  </i>
   <i type="logical" name="LVEL"> F  </i>
   <i type="int" name="KINTER">     0</i>
   <i name="CSHIFT">      0.10000000</i>
   <i name="OMEGAMAX">     -1.00000000</i>
   <i name="DEG_THRESHOLD">      0.00200000</i>
  </separator>
  <separator name="orbital magnetization" >
   <i type="logical" name="NUCIND"> F  </i>
   <v name="MAGPOS">      0.00000000      0.00000000      0.00000000</v>
   <i type="logical" name="LNICSALL"> T  </i>
   <i type="logical" name="ORBITALMAG"> F  </i>
   <i type="logical" name="LMAGBLOCH"> F  </i>
   <i type="logical" name="LCHIMAG"> F  </i>
   <i type="logical" name="LGAUGE"> T  </i>
   <i type="int" name="MAGATOM">     0</i>
   <v name="MAGDIPOL">      0.00000000      0.00000000      0.00000000</v>
   <v name="AVECCONST">      0.00000000      0.00000000      0.00000000</v>
  </separator>
  <separator name="response functions" >
   <i type="logical" name="LADDER"> F  </i>
   <i type="logical" name="LFXC"> F  </i>
   <i type="logical" name="LHARTREE"> T  </i>
   <i type="int" name="IBSE">     0</i>
   <v type="int" name="KPOINT">    -1     0     0     0</v>
   <i type="logical" name="LTCTE"> F  </i>
   <i type="logical" name="LTETE"> F  </i>
   <i type="logical" name="LTRIPLET"> F  </i>
   <i type="logical" name="LFXCEPS"> F  </i>
   <i type="logical" name="LFXHEG"> F  </i>
   <i type="int" name="NATURALO">     0</i>
   <i type="logical" name="L2ORDER"> F  </i>
   <i type="logical" name="LUSEW"> F  </i>
   <i name="ENCUTGW">     -2.00000000</i>
   <i name="ENCUTGWSOFT">     -2.00000000</i>
   <i name="ENCUTLF">     -1.00000000</i>
   <i type="int" name="LMAXMP2">    -1</i>
   <i name="SCISSOR">      0.00000000</i>
   <i type="int" name="NOMEGA">     0</i>
   <i type="int" name="NOMEGAR">     0</i>
   <i type="int" name="NBANDSGW">    -1</i>
   <i type="int" name="NBANDSO">    -1</i>
   <i type="int" name="NBANDSV">    -1</i>
   <i type="int" name="NELM">    40</i>
   <i type="int" name="NELMHF">     1</i>
   <i type="int" name="DIM">     3</i>
   <i type="int" name="ANTIRES">     0</i>
   <i name="OMEGAMAX">    -30.00000000</i>
   <i name="OMEGAMIN">    -30.00000000</i>
   <i name="OMEGATL">   -200.00000000</i>
   <i type="int" name="OMEGAGRID">     0</i>
   <i name="CSHIFT">     -0.10000000</i>
   <i type="logical" name="SELFENERGY"> F  </i>
   <i type="logical" name="LSPECTRAL"> F  </i>
   <i type="logical" name="LSPECTRALGW"> F  </i>
   <i type="logical" name="LSINGLES"> F  </i>
   <i type="logical" name="LFERMIGW"> F  </i>
   <i type="logical" name="ODDONLYGW"> F  </i>
   <i type="logical" name="EVENONLYGW"> F  </i>
   <i type="int" name="NKREDLFX">     1</i>
   <i type="int" name="NKREDLFY">     1</i>
   <i type="int" name="NKREDLFZ">     1</i>
   <i type="int" name="MAXMEM">  1800</i>
   <i type="int" name="TELESCOPE">     0</i>
   <i type="int" name="TAUPAR">     1</i>
   <i type="int" name="OMEGAPAR">    -1</i>
   <i name="LAMBDA">      1.00000000</i>
  </separator>
  <separator name="External order field" >
   <i name="OFIELD_KAPPA">      0.00000000</i>
   <v name="OFIELD_K">      0.00000000      0.00000000      0.00000000</v>
   <i name="OFIELD_Q6_NEAR">      0.00000000</i>
   <i name="OFIELD_Q6_FAR">      0.00000000</i>
   <i name="OFIELD_A">      0.00000000</i>
  </separator>
 </parameters>
 <atominfo>
  <atoms>     158 </atoms>
  <types>       4 </types>
  <array name="atoms" >
   <dimension dim="1">ion</dimension>
   <field type="string">element</field>
   <field type="int">atomtype</field>
   <set>
    <rc><c>Sr</c><c>   1</c></rc>
    <rc><c>Sr</c><c>   1</c></rc>
    <rc><c>Sr</c><c>   1</c></rc>
    <rc><c>Sr</c><c>   1</c></rc>
    <rc><c>Sr</c><c>   1</c></rc>
    <rc><c>Sr</c><c>   1</c></rc>
    <rc><c>Sr</c><c>   1</c></rc>
    <rc><c>Sr</c><c>   1</c></rc>
    <rc><c>Sr</c><c>   1</c></rc>
    <rc><c>Sr</c><c>   1</c></rc>
    <rc><c>Sr</c><c>   1</c></rc>
    <rc><c>Sr</c><c>   1</c></rc>
    <rc><c>Sr</c><c>   1</c></rc>
    <rc><c>Sr</c><c>   1</c></rc>
    <rc><c>Sr</c><c>   1</c></rc>
    <rc><c>Sr</c><c>   1</c></rc>
    <rc><c>Sr</c><c>   1</c></rc>
    <rc><c>Sr</c><c>   1</c></rc>
    <rc><c>Sr</c><c>   1</c></rc>
    <rc><c>Sr</c><c>   1</c></rc>
    <rc><c>Sr</c><c>   1</c></rc>
    <rc><c>Sr</c><c>   1</c></rc>
    <rc><c>Sr</c><c>   1</c></rc>
    <rc><c>Sr</c><c>   1</c></rc>
    <rc><c>Sr</c><c>   1</c></rc>
    <rc><c>Sr</c><c>   1</c></rc>
    <rc><c>Sr</c><c>   1</c></rc>
    <rc><c>Sr</c><c>   1</c></rc>
    <rc><c>Sr</c><c>   1</c></rc>
    <rc><c>Sr</c><c>   1</c></rc>
    <rc><c>Sr</c><c>   1</c></rc>
    <rc><c>Sr</c><c>   1</c></rc>
    <rc><c>Ti</c><c>   2</c></rc>
    <rc><c>Ti</c><c>   2</c></rc>
    <rc><c>Ti</c><c>   2</c></rc>
    <rc><c>Ti</c><c>   2</c></rc>
    <rc><c>Ti</c><c>   2</c></rc>
    <rc><c>Ti</c><c>   2</c></rc>
    <rc><c>Ti</c><c>   2</c></rc>
    <rc><c>Ti</c><c>   2</c></rc>
    <rc><c>Ti</c><c>   2</c></rc>
    <rc><c>Ti</c><c>   2</c></rc>
    <rc><c>Ti</c><c>   2</c></rc>
    <rc><c>Ti</c><c>   2</c></rc>
    <rc><c>Ti</c><c>   2</c></rc>
    <rc><c>Ti</c><c>   2</c></rc>
    <rc><c>Ti</c><c>   2</c></rc>
    <rc><c>Ti</c><c>   2</c></rc>
    <rc><c>Ti</c><c>   2</c></rc>
    <rc><c>Ti</c><c>   2</c></rc>
    <rc><c>Ti</c><c>   2</c></rc>
    <rc><c>Ti</c><c>   2</c></rc>
    <rc><c>Ti</c><c>   2</c></rc>
    <rc><c>Ti</c><c>   2</c></rc>
    <rc><c>Ti</c><c>   2</c></rc>
    <rc><c>Ti</c><c>   2</c></rc>
    <rc><c>Ti</c><c>   2</c></rc>
    <rc><c>Ti</c><c>   2</c></rc>
    <rc><c>Ti</c><c>   2</c></rc>
    <rc><c>Ti</c><c>   2</c></rc>
    <rc><c>Fe</c><c>   3</c></rc>
    <rc><c>Fe</c><c>   3</c></rc>
    <rc><c>Fe</c><c>   3</c></rc>
    <rc><c>Fe</c><c>   3</c></rc>
    <rc><c>O </c><c>   4</c></rc>
    <rc><c>O </c><c>   4</c></rc>
    <rc><c>O </c><c>   4</c></rc>
    <rc><c>O </c><c>   4</c></rc>
    <rc><c>O </c><c>   4</c></rc>
    <rc><c>O </c><c>   4</c></rc>
    <rc><c>O </c><c>   4</c></rc>
    <rc><c>O </c><c>   4</c></rc>
    <rc><c>O </c><c>   4</c></rc>
    <rc><c>O </c><c>   4</c></rc>
    <rc><c>O </c><c>   4</c></rc>
    <rc><c>O </c><c>   4</c></rc>
    <rc><c>O </c><c>   4</c></rc>
    <rc><c>O </c><c>   4</c></rc>
    <rc><c>O </c><c>   4</c></rc>
    <rc><c>O </c><c>   4</c></rc>
    <rc><c>O </c><c>   4</c></rc>
    <rc><c>O </c><c>   4</c></rc>
    <rc><c>O </c><c>   4</c></rc>
    <rc><c>O </c><c>   4</c></rc>
    <rc><c>O </c><c>   4</c></rc>
    <rc><c>O </c><c>   4</c></rc>
    <rc><c>O </c><c>   4</c></rc>
    <rc><c>O </c><c>   4</c></rc>
    <rc><c>O </c><c>   4</c></rc>
    <rc><c>O </c><c>   4</c></rc>
    <rc><c>O </c><c>   4</c></rc>
    <rc><c>O </c><c>   4</c></rc>
    <rc><c>O </c><c>   4</c></rc>
    <rc><c>O </c><c>   4</c></rc>
    <rc><c>O </c><c>   4</c></rc>
    <rc><c>O </c><c>   4</c></rc>
    <rc><c>O </c><c>   4</c></rc>
    <rc><c>O </c><c>   4</c></rc>
    <rc><c>O </c><c>   4</c></rc>
    <rc><c>O </c><c>   4</c></rc>
    <rc><c>O </c><c>   4</c></rc>
    <rc><c>O </c><c>   4</c></rc>
    <rc><c>O </c><c>   4</c></rc>
    <rc><c>O </c><c>   4</c></rc>
    <rc><c>O </c><c>   4</c></rc>
    <rc><c>O </c><c>   4</c></rc>
    <rc><c>O </c><c>   4</c></rc>
    <rc><c>O </c><c>   4</c></rc>
    <rc><c>O </c><c>   4</c></rc>
    <rc><c>O </c><c>   4</c></rc>
    <rc><c>O </c><c>   4</c></rc>
    <rc><c>O </c><c>   4</c></rc>
    <rc><c>O </c><c>   4</c></rc>
    <rc><c>O </c><c>   4</c></rc>
    <rc><c>O </c><c>   4</c></rc>
    <rc><c>O </c><c>   4</c></rc>
    <rc><c>O </c><c>   4</c></rc>
    <rc><c>O </c><c>   4</c></rc>
    <rc><c>O </c><c>   4</c></rc>
    <rc><c>O </c><c>   4</c></rc>
    <rc><c>O </c><c>   4</c></rc>
    <rc><c>O </c><c>   4</c></rc>
    <rc><c>O </c><c>   4</c></rc>
    <rc><c>O </c><c>   4</c></rc>
    <rc><c>O </c><c>   4</c></rc>
    <rc><c>O </c><c>   4</c></rc>
    <rc><c>O </c><c>   4</c></rc>
    <rc><c>O </c><c>   4</c></rc>
    <rc><c>O </c><c>   4</c></rc>
    <rc><c>O </c><c>   4</c></rc>
    <rc><c>O </c><c>   4</c></rc>
    <rc><c>O </c><c>   4</c></rc>
    <rc><c>O </c><c>   4</c></rc>
    <rc><c>O </c><c>   4</c></rc>
    <rc><c>O </c><c>   4</c></rc>
    <rc><c>O </c><c>   4</c></rc>
    <rc><c>O </c><c>   4</c></rc>
    <rc><c>O </c><c>   4</c></rc>
    <rc><c>O </c><c>   4</c></rc>
    <rc><c>O </c><c>   4</c></rc>
    <rc><c>O </c><c>   4</c></rc>
    <rc><c>O </c><c>   4</c></rc>
    <rc><c>O </c><c>   4</c></rc>
    <rc><c>O </c><c>   4</c></rc>
    <rc><c>O </c><c>   4</c></rc>
    <rc><c>O </c><c>   4</c></rc>
    <rc><c>O </c><c>   4</c></rc>
    <rc><c>O </c><c>   4</c></rc>
    <rc><c>O </c><c>   4</c></rc>
    <rc><c>O </c><c>   4</c></rc>
    <rc><c>O </c><c>   4</c></rc>
    <rc><c>O </c><c>   4</c></rc>
    <rc><c>O </c><c>   4</c></rc>
    <rc><c>O </c><c>   4</c></rc>
    <rc><c>O </c><c>   4</c></rc>
    <rc><c>O </c><c>   4</c></rc>
    <rc><c>O </c><c>   4</c></rc>
    <rc><c>O </c><c>   4</c></rc>
   </set>
  </array>
  <array name="atomtypes" >
   <dimension dim="1">type</dimension>
   <field type="int">atomspertype</field>
   <field type="string">element</field>
   <field>mass</field>
   <field>valence</field>
   <field type="string">pseudopotential</field>
   <set>
    <rc><c>  32</c><c>Sr</c><c>     87.62000000</c><c>     10.00000000</c><c>  PAW_PBE Sr_sv 07Sep2000               </c></rc>
    <rc><c>  28</c><c>Ti</c><c>     47.88000000</c><c>      4.00000000</c><c>  PAW_PBE Ti 08Apr2002                  </c></rc>
    <rc><c>   4</c><c>Fe</c><c>     55.84700000</c><c>      8.00000000</c><c>  PAW_PBE Fe 06Sep2000                  </c></rc>
    <rc><c>  94</c><c>O </c><c>     16.00000000</c><c>      6.00000000</c><c>  PAW_PBE O 08Apr2002                   </c></rc>
   </set>
  </array>
 </atominfo>
 <structure name="initialpos" >
  <crystal>
   <varray name="basis" >
    <v>      11.21689896      -0.00377935      -0.00149126 </v>
    <v>      -0.00378004      11.21127070      -0.00047454 </v>
    <v>      -0.00212543      -0.00067831      15.95087656 </v>
   </varray>
   <i name="volume">   2005.91323065 </i>
   <varray name="rec_basis" >
    <v>       0.08915121       0.00003006       0.00001188 </v>
    <v>       0.00003005       0.08919597       0.00000380 </v>
    <v>       0.00000834       0.00000266       0.06269248 </v>
   </varray>
  </crystal>
  <varray name="positions" >
   <v>       0.99934367       0.24665103       0.11846841 </v>
   <v>       0.00394896       0.24780644       0.63221580 </v>
   <v>       0.00180377       0.75149981       0.12331466 </v>
   <v>       0.99746988       0.75333767       0.62682716 </v>
   <v>       0.50614795       0.25187324       0.12379662 </v>
   <v>       0.49250011       0.25349404       0.62666668 </v>
   <v>       0.49988148       0.74957112       0.12320362 </v>
   <v>       0.50054577       0.74748448       0.62616596 </v>
   <v>       0.00067506       0.24324375       0.37446674 </v>
   <v>       0.00204340       0.24720519       0.87545276 </v>
   <v>       0.00006897       0.75313292       0.37372207 </v>
   <v>       0.99973616       0.75057540       0.87611429 </v>
   <v>       0.50161945       0.25877566       0.37600623 </v>
   <v>       0.49775586       0.25019453       0.87433534 </v>
   <v>       0.50090354       0.74794455       0.37551698 </v>
   <v>       0.49970579       0.74933513       0.87475982 </v>
   <v>       0.24667818       0.99369854       0.12043519 </v>
   <v>       0.24750050       0.00381938       0.62877715 </v>
   <v>       0.25455180       0.50508321       0.11991330 </v>
   <v>       0.25764231       0.49664327       0.62910095 </v>
   <v>       0.75353791       0.00050979       0.12167892 </v>
   <v>       0.75125471       0.99392181       0.62879321 </v>
   <v>       0.74835111       0.49960470       0.12205673 </v>
   <v>       0.74210864       0.50515222       0.62954517 </v>
   <v>       0.24843544       0.99415824       0.37547440 </v>
   <v>       0.24677309       0.00308693       0.87460696 </v>
   <v>       0.26281533       0.50575383       0.37771207 </v>
   <v>       0.24925833       0.49602231       0.87408371 </v>
   <v>       0.75216979       0.99444795       0.37387618 </v>
   <v>       0.75261788       0.00022633       0.87631280 </v>
   <v>       0.74090693       0.50582555       0.37328587 </v>
   <v>       0.75098631       0.49944932       0.87542532 </v>
   <v>       0.00129945       0.99981794       0.50044082 </v>
   <v>       0.00161295       0.49935418       0.00202868 </v>
   <v>       0.01355449       0.50617601       0.49916741 </v>
   <v>       0.50031307       0.00077154       0.00014991 </v>
   <v>       0.49543328       0.99787052       0.49970681 </v>
   <v>       0.50038191       0.50011470       0.99919682 </v>
   <v>       0.24858066       0.24959352       0.99892512 </v>
   <v>       0.24903425       0.25153944       0.50095156 </v>
   <v>       0.24825266       0.75086661       0.99855910 </v>
   <v>       0.25421027       0.75286073       0.50145691 </v>
   <v>       0.75103354       0.24839438       0.99907361 </v>
   <v>       0.74238532       0.23789819       0.50107090 </v>
   <v>       0.75110447       0.75125766       0.00019387 </v>
   <v>       0.74766465       0.74864503       0.49984169 </v>
   <v>       0.25816361       0.23701094       0.24924377 </v>
   <v>       0.24993306       0.74820813       0.25010108 </v>
   <v>       0.24961476       0.74992208       0.74983396 </v>
   <v>       0.75497339       0.25204161       0.24996216 </v>
   <v>       0.75055490       0.25083880       0.74991101 </v>
   <v>       0.74979077       0.75089882       0.24872019 </v>
   <v>       0.75020773       0.74959773       0.75121957 </v>
   <v>       0.99907087       0.99999536       0.24786470 </v>
   <v>       0.00086719       0.00091898       0.75237615 </v>
   <v>       0.99965324       0.49840340       0.75049383 </v>
   <v>       0.50579881       0.99711332       0.25027047 </v>
   <v>       0.49823787       0.00204041       0.74986370 </v>
   <v>       0.50042135       0.50139882       0.24992245 </v>
   <v>       0.49870393       0.49874534       0.74995431 </v>
   <v>       0.99991880       0.99940351       0.99954584 </v>
   <v>       0.50081330       0.50169630       0.50112423 </v>
   <v>       0.25008351       0.24956188       0.75098859 </v>
   <v>       0.98608571       0.50740760       0.25025050 </v>
   <v>       0.10677802       0.14616491       0.24936900 </v>
   <v>       0.11113250       0.13654733       0.75060217 </v>
   <v>       0.11662001       0.62611656       0.25632714 </v>
   <v>       0.10921032       0.63847607       0.74380094 </v>
   <v>       0.60862824       0.14297146       0.25660148 </v>
   <v>       0.61231520       0.14093278       0.74343249 </v>
   <v>       0.60925353       0.64163351       0.25102005 </v>
   <v>       0.61111022       0.63981285       0.74886459 </v>
   <v>       0.38076310       0.36438577       0.24997183 </v>
   <v>       0.38925197       0.36278304       0.75036418 </v>
   <v>       0.39102956       0.85958825       0.24987926 </v>
   <v>       0.38980984       0.86062454       0.74987210 </v>
   <v>       0.89819336       0.35399612       0.24517033 </v>
   <v>       0.88919718       0.35991637       0.75608633 </v>
   <v>       0.89151964       0.85732533       0.25012617 </v>
   <v>       0.88872571       0.86048758       0.74936765 </v>
   <v>       0.35745565       0.10633752       0.24989743 </v>
   <v>       0.36317482       0.11012155       0.74971659 </v>
   <v>       0.36251834       0.61195183       0.24948503 </v>
   <v>       0.36022651       0.61156781       0.75064824 </v>
   <v>       0.85644627       0.10693561       0.25217901 </v>
   <v>       0.85981909       0.11072648       0.74804812 </v>
   <v>       0.85390183       0.60955191       0.24942241 </v>
   <v>       0.85940988       0.61061647       0.74939242 </v>
   <v>       0.13637213       0.39035410       0.74724800 </v>
   <v>       0.13918676       0.88810618       0.25060736 </v>
   <v>       0.13906785       0.88778713       0.74935240 </v>
   <v>       0.64049759       0.38981839       0.25022096 </v>
   <v>       0.64005391       0.38967004       0.75049755 </v>
   <v>       0.64330844       0.89303420       0.24950114 </v>
   <v>       0.63916397       0.88955137       0.75054533 </v>
   <v>       0.36091238       0.39027727       0.00076892 </v>
   <v>       0.35890573       0.38835362       0.49906900 </v>
   <v>       0.36107840       0.88976392       0.99950268 </v>
   <v>       0.35616818       0.89410275       0.50078784 </v>
   <v>       0.86064518       0.38922028       0.00085362 </v>
   <v>       0.85926220       0.88694443       0.00019815 </v>
   <v>       0.86018845       0.88953672       0.49967234 </v>
   <v>       0.14075691       0.11262310       0.00286407 </v>
   <v>       0.14370664       0.10636258       0.49643220 </v>
   <v>       0.14065936       0.61008182       0.99929106 </v>
   <v>       0.14383425       0.60647399       0.50134748 </v>
   <v>       0.63855422       0.11032871       0.00076973 </v>
   <v>       0.64193466       0.10749875       0.49950498 </v>
   <v>       0.63977940       0.61033676       0.00032403 </v>
   <v>       0.63880259       0.61461949       0.49984220 </v>
   <v>       0.10992233       0.36126065       0.99502213 </v>
   <v>       0.09959616       0.35407888       0.50412588 </v>
   <v>       0.11243089       0.85916139       0.00059614 </v>
   <v>       0.10760766       0.85628887       0.49937022 </v>
   <v>       0.61067544       0.36041186       0.99987935 </v>
   <v>       0.62570779       0.36579692       0.50014524 </v>
   <v>       0.60937616       0.86060953       0.99918904 </v>
   <v>       0.60846547       0.86099730       0.50067628 </v>
   <v>       0.38873799       0.14073021       0.00718287 </v>
   <v>       0.39155975       0.14285669       0.49242716 </v>
   <v>       0.38944228       0.63981085       0.00142007 </v>
   <v>       0.38794192       0.64278801       0.49854421 </v>
   <v>       0.88658117       0.13988512       0.99944692 </v>
   <v>       0.89416638       0.14761688       0.50059005 </v>
   <v>       0.88987213       0.63758032       0.00525842 </v>
   <v>       0.88527611       0.62726304       0.49424614 </v>
   <v>       0.99890405       0.99929977       0.12685274 </v>
   <v>       0.00074191       0.99933507       0.62392952 </v>
   <v>       0.01363945       0.49279531       0.12726028 </v>
   <v>       0.98096492       0.48965025       0.61982652 </v>
   <v>       0.50270830       0.00074919       0.12658868 </v>
   <v>       0.49801643       0.00182063       0.62287198 </v>
   <v>       0.50195776       0.49950770       0.12538680 </v>
   <v>       0.49887877       0.49995720       0.62612674 </v>
   <v>       0.99934592       0.99880407       0.37479207 </v>
   <v>       0.99953029       0.99960650       0.87400643 </v>
   <v>       0.99627251       0.48143203       0.37704856 </v>
   <v>       0.99972067       0.50577961       0.87472846 </v>
   <v>       0.49991584       0.99536826       0.37515055 </v>
   <v>       0.50025144       0.00532952       0.87527839 </v>
   <v>       0.50047070       0.49866527       0.37355918 </v>
   <v>       0.50054341       0.50159016       0.87538065 </v>
   <v>       0.23553920       0.26739258       0.36909979 </v>
   <v>       0.25240280       0.24846892       0.87711772 </v>
   <v>       0.25042442       0.75183560       0.37588678 </v>
   <v>       0.24830172       0.74845042       0.87401090 </v>
   <v>       0.76348182       0.26436594       0.37926962 </v>
   <v>       0.74650489       0.24713714       0.87441830 </v>
   <v>       0.74865247       0.75307734       0.37424909 </v>
   <v>       0.75140891       0.74763689       0.87546690 </v>
   <v>       0.23579243       0.26748599       0.13030091 </v>
   <v>       0.25227724       0.24717182       0.62220454 </v>
   <v>       0.24755900       0.74924722       0.12584987 </v>
   <v>       0.25156824       0.75094803       0.62437708 </v>
   <v>       0.74666937       0.24781056       0.12602018 </v>
   <v>       0.76413500       0.26400117       0.62161443 </v>
   <v>       0.74659166       0.75148296       0.12560000 </v>
   <v>       0.75264705       0.75035126       0.62423942 </v>
  </varray>
 </structure>
 <calculation>
  <scstep>
   <time name="dav">  584.82  584.80</time>
   <time name="total">  591.95  592.01</time>
   <energy>
    <i name="alphaZ">   5631.48868961 </i>
    <i name="ewald"> -61006.25816664 </i>
    <i name="hartreedc"> -15488.51951592 </i>
    <i name="XCdc">   2852.30257693 </i>
    <i name="pawpsdc"> 112017.71133872 </i>
    <i name="pawaedc">-110765.69743906 </i>
    <i name="eentropy">     -0.00000000 </i>
    <i name="bandstr">  -7043.52077499 </i>
    <i name="atom">  72650.08363186 </i>
    <i name="e_fr_energy">  -1152.40965949 </i>
    <i name="e_wo_entrp">  -1152.40965949 </i>
    <i name="e_0_energy">  -1152.40965949 </i>
   </energy>
  </scstep>
  <scstep>
   <time name="diag">   65.01   65.00</time>
   <time name="diis">   62.21   62.21</time>
   <time name="orth">   33.45   33.45</time>
   <time name="total">  167.88  167.93</time>
   <energy>
    <i name="e_fr_energy">  -1152.40966029 </i>
    <i name="e_wo_entrp">  -1152.40966029 </i>
    <i name="e_0_energy">  -1152.40966029 </i>
   </energy>
  </scstep>
  <scstep>
   <time name="diag">   64.80   64.80</time>
   <time name="diis">   58.06   58.06</time>
   <time name="orth">   33.43   33.42</time>
   <time name="total">  163.50  163.53</time>
   <energy>
    <i name="e_fr_energy">  -1152.40966068 </i>
    <i name="e_wo_entrp">  -1152.40966068 </i>
    <i name="e_0_energy">  -1152.40966068 </i>
   </energy>
  </scstep>
  <scstep>
   <time name="diag">   64.97   64.96</time>
   <time name="diis">   48.62   48.62</time>
   <time name="orth">   33.45   33.45</time>
   <time name="total">  154.26  154.37</time>
   <energy>
    <i name="e_fr_energy">  -1152.40966125 </i>
    <i name="e_wo_entrp">  -1152.40966125 </i>
    <i name="e_0_energy">  -1152.40966125 </i>
   </energy>
  </scstep>
  <scstep>
   <time name="diag">   64.86   64.85</time>
   <time name="diis">   47.61   47.61</time>
   <time name="orth">   33.42   33.42</time>
   <time name="total">  153.12  153.18</time>
   <energy>
    <i name="e_fr_energy">  -1152.40966186 </i>
    <i name="e_wo_entrp">  -1152.40966186 </i>
    <i name="e_0_energy">  -1152.40966186 </i>
   </energy>
  </scstep>
  <scstep>
   <time name="diag">   64.86   64.86</time>
   <time name="diis">   43.77   43.77</time>
   <time name="orth">   33.41   33.41</time>
   <time name="total">  149.25  149.30</time>
   <energy>
    <i name="e_fr_energy">  -1152.40966208 </i>
    <i name="e_wo_entrp">  -1152.40966208 </i>
    <i name="e_0_energy">  -1152.40966208 </i>
   </energy>
  </scstep>
  <scstep>
   <time name="diag">   64.87   64.87</time>
   <time name="diis">   43.11   43.11</time>
   <time name="orth">   33.45   33.45</time>
   <time name="total">  148.63  148.68</time>
   <energy>
    <i name="e_fr_energy">  -1152.40966217 </i>
    <i name="e_wo_entrp">  -1152.40966217 </i>
    <i name="e_0_energy">  -1152.40966217 </i>
   </energy>
  </scstep>
  <scstep>
   <time name="diag">   64.89   64.89</time>
   <time name="diis">   41.76   41.76</time>
   <time name="orth">   33.43   33.44</time>
   <time name="total">  141.14  141.20</time>
   <energy>
    <i name="alphaZ">   5631.48868961 </i>
    <i name="ewald"> -61006.25816664 </i>
    <i name="hartreedc"> -15488.54091120 </i>
    <i name="XCdc">   2852.30367290 </i>
    <i name="pawpsdc"> 112016.71637919 </i>
    <i name="pawaedc">-110764.67381182 </i>
    <i name="eentropy">     -0.00000000 </i>
    <i name="bandstr">  -7043.52914607 </i>
    <i name="atom">  72650.08363186 </i>
    <i name="e_fr_energy">  -1152.40966218 </i>
    <i name="e_wo_entrp">  -1152.40966218 </i>
    <i name="e_0_energy">  -1152.40966218 </i>
   </energy>
  </scstep>
  <structure>
   <crystal>
    <varray name="basis" >
     <v>      11.21689896      -0.00377935      -0.00149126 </v>
     <v>      -0.00378004      11.21127070      -0.00047454 </v>
     <v>      -0.00212543      -0.00067831      15.95087656 </v>
    </varray>
    <i name="volume">   2005.91323065 </i>
    <varray name="rec_basis" >
     <v>       0.08915121       0.00003006       0.00001188 </v>
     <v>       0.00003005       0.08919597       0.00000380 </v>
     <v>       0.00000834       0.00000266       0.06269248 </v>
    </varray>
   </crystal>
   <varray name="positions" >
    <v>       0.99934367       0.24665103       0.11846841 </v>
    <v>       0.00394896       0.24780644       0.63221580 </v>
    <v>       0.00180377       0.75149981       0.12331466 </v>
    <v>       0.99746988       0.75333767       0.62682716 </v>
    <v>       0.50614795       0.25187324       0.12379662 </v>
    <v>       0.49250011       0.25349404       0.62666668 </v>
    <v>       0.49988148       0.74957112       0.12320362 </v>
    <v>       0.50054577       0.74748448       0.62616596 </v>
    <v>       0.00067506       0.24324375       0.37446674 </v>
    <v>       0.00204340       0.24720519       0.87545276 </v>
    <v>       0.00006897       0.75313292       0.37372207 </v>
    <v>       0.99973616       0.75057540       0.87611429 </v>
    <v>       0.50161945       0.25877566       0.37600623 </v>
    <v>       0.49775586       0.25019453       0.87433534 </v>
    <v>       0.50090354       0.74794455       0.37551698 </v>
    <v>       0.49970579       0.74933513       0.87475982 </v>
    <v>       0.24667818       0.99369854       0.12043519 </v>
    <v>       0.24750050       0.00381938       0.62877715 </v>
    <v>       0.25455180       0.50508321       0.11991330 </v>
    <v>       0.25764231       0.49664327       0.62910095 </v>
    <v>       0.75353791       0.00050979       0.12167892 </v>
    <v>       0.75125471       0.99392181       0.62879321 </v>
    <v>       0.74835111       0.49960470       0.12205673 </v>
    <v>       0.74210864       0.50515222       0.62954517 </v>
    <v>       0.24843544       0.99415824       0.37547440 </v>
    <v>       0.24677309       0.00308693       0.87460696 </v>
    <v>       0.26281533       0.50575383       0.37771207 </v>
    <v>       0.24925833       0.49602231       0.87408371 </v>
    <v>       0.75216979       0.99444795       0.37387618 </v>
    <v>       0.75261788       0.00022633       0.87631280 </v>
    <v>       0.74090693       0.50582555       0.37328587 </v>
    <v>       0.75098631       0.49944932       0.87542532 </v>
    <v>       0.00129945       0.99981794       0.50044082 </v>
    <v>       0.00161295       0.49935418       0.00202868 </v>
    <v>       0.01355449       0.50617601       0.49916741 </v>
    <v>       0.50031307       0.00077154       0.00014991 </v>
    <v>       0.49543328       0.99787052       0.49970681 </v>
    <v>       0.50038191       0.50011470       0.99919682 </v>
    <v>       0.24858066       0.24959352       0.99892512 </v>
    <v>       0.24903425       0.25153944       0.50095156 </v>
    <v>       0.24825266       0.75086661       0.99855910 </v>
    <v>       0.25421027       0.75286073       0.50145691 </v>
    <v>       0.75103354       0.24839438       0.99907361 </v>
    <v>       0.74238532       0.23789819       0.50107090 </v>
    <v>       0.75110447       0.75125766       0.00019387 </v>
    <v>       0.74766465       0.74864503       0.49984169 </v>
    <v>       0.25816361       0.23701094       0.24924377 </v>
    <v>       0.24993306       0.74820813       0.25010108 </v>
    <v>       0.24961476       0.74992208       0.74983396 </v>
    <v>       0.75497339       0.25204161       0.24996216 </v>
    <v>       0.75055490       0.25083880       0.74991101 </v>
    <v>       0.74979077       0.75089882       0.24872019 </v>
    <v>       0.75020773       0.74959773       0.75121957 </v>
    <v>       0.99907087       0.99999536       0.24786470 </v>
    <v>       0.00086719       0.00091898       0.75237615 </v>
    <v>       0.99965324       0.49840340       0.75049383 </v>
    <v>       0.50579881       0.99711332       0.25027047 </v>
    <v>       0.49823787       0.00204041       0.74986370 </v>
    <v>       0.50042135       0.50139882       0.24992245 </v>
    <v>       0.49870393       0.49874534       0.74995431 </v>
    <v>       0.99991880       0.99940351       0.99954584 </v>
    <v>       0.50081330       0.50169630       0.50112423 </v>
    <v>       0.25008351       0.24956188       0.75098859 </v>
    <v>       0.98608571       0.50740760       0.25025050 </v>
    <v>       0.10677802       0.14616491       0.24936900 </v>
    <v>       0.11113250       0.13654733       0.75060217 </v>
    <v>       0.11662001       0.62611656       0.25632714 </v>
    <v>       0.10921032       0.63847607       0.74380094 </v>
    <v>       0.60862824       0.14297146       0.25660148 </v>
    <v>       0.61231520       0.14093278       0.74343249 </v>
    <v>       0.60925353       0.64163351       0.25102005 </v>
    <v>       0.61111022       0.63981285       0.74886459 </v>
    <v>       0.38076310       0.36438577       0.24997183 </v>
    <v>       0.38925197       0.36278304       0.75036418 </v>
    <v>       0.39102956       0.85958825       0.24987926 </v>
    <v>       0.38980984       0.86062454       0.74987210 </v>
    <v>       0.89819336       0.35399612       0.24517033 </v>
    <v>       0.88919718       0.35991637       0.75608633 </v>
    <v>       0.89151964       0.85732533       0.25012617 </v>
    <v>       0.88872571       0.86048758       0.74936765 </v>
    <v>       0.35745565       0.10633752       0.24989743 </v>
    <v>       0.36317482       0.11012155       0.74971659 </v>
    <v>       0.36251834       0.61195183       0.24948503 </v>
    <v>       0.36022651       0.61156781       0.75064824 </v>
    <v>       0.85644627       0.10693561       0.25217901 </v>
    <v>       0.85981909       0.11072648       0.74804812 </v>
    <v>       0.85390183       0.60955191       0.24942241 </v>
    <v>       0.85940988       0.61061647       0.74939242 </v>
    <v>       0.13637213       0.39035410       0.74724800 </v>
    <v>       0.13918676       0.88810618       0.25060736 </v>
    <v>       0.13906785       0.88778713       0.74935240 </v>
    <v>       0.64049759       0.38981839       0.25022096 </v>
    <v>       0.64005391       0.38967004       0.75049755 </v>
    <v>       0.64330844       0.89303420       0.24950114 </v>
    <v>       0.63916397       0.88955137       0.75054533 </v>
    <v>       0.36091238       0.39027727       0.00076892 </v>
    <v>       0.35890573       0.38835362       0.49906900 </v>
    <v>       0.36107840       0.88976392       0.99950268 </v>
    <v>       0.35616818       0.89410275       0.50078784 </v>
    <v>       0.86064518       0.38922028       0.00085362 </v>
    <v>       0.85926220       0.88694443       0.00019815 </v>
    <v>       0.86018845       0.88953672       0.49967234 </v>
    <v>       0.14075691       0.11262310       0.00286407 </v>
    <v>       0.14370664       0.10636258       0.49643220 </v>
    <v>       0.14065936       0.61008182       0.99929106 </v>
    <v>       0.14383425       0.60647399       0.50134748 </v>
    <v>       0.63855422       0.11032871       0.00076973 </v>
    <v>       0.64193466       0.10749875       0.49950498 </v>
    <v>       0.63977940       0.61033676       0.00032403 </v>
    <v>       0.63880259       0.61461949       0.49984220 </v>
    <v>       0.10992233       0.36126065       0.99502213 </v>
    <v>       0.09959616       0.35407888       0.50412588 </v>
    <v>       0.11243089       0.85916139       0.00059614 </v>
    <v>       0.10760766       0.85628887       0.49937022 </v>
    <v>       0.61067544       0.36041186       0.99987935 </v>
    <v>       0.62570779       0.36579692       0.50014524 </v>
    <v>       0.60937616       0.86060953       0.99918904 </v>
    <v>       0.60846547       0.86099730       0.50067628 </v>
    <v>       0.38873799       0.14073021       0.00718287 </v>
    <v>       0.39155975       0.14285669       0.49242716 </v>
    <v>       0.38944228       0.63981085       0.00142007 </v>
    <v>       0.38794192       0.64278801       0.49854421 </v>
    <v>       0.88658117       0.13988512       0.99944692 </v>
    <v>       0.89416638       0.14761688       0.50059005 </v>
    <v>       0.88987213       0.63758032       0.00525842 </v>
    <v>       0.88527611       0.62726304       0.49424614 </v>
    <v>       0.99890405       0.99929977       0.12685274 </v>
    <v>       0.00074191       0.99933507       0.62392952 </v>
    <v>       0.01363945       0.49279531       0.12726028 </v>
    <v>       0.98096492       0.48965025       0.61982652 </v>
    <v>       0.50270830       0.00074919       0.12658868 </v>
    <v>       0.49801643       0.00182063       0.62287198 </v>
    <v>       0.50195776       0.49950770       0.12538680 </v>
    <v>       0.49887877       0.49995720       0.62612674 </v>
    <v>       0.99934592       0.99880407       0.37479207 </v>
    <v>       0.99953029       0.99960650       0.87400643 </v>
    <v>       0.99627251       0.48143203       0.37704856 </v>
    <v>       0.99972067       0.50577961       0.87472846 </v>
    <v>       0.49991584       0.99536826       0.37515055 </v>
    <v>       0.50025144       0.00532952       0.87527839 </v>
    <v>       0.50047070       0.49866527       0.37355918 </v>
    <v>       0.50054341       0.50159016       0.87538065 </v>
    <v>       0.23553920       0.26739258       0.36909979 </v>
    <v>       0.25240280       0.24846892       0.87711772 </v>
    <v>       0.25042442       0.75183560       0.37588678 </v>
    <v>       0.24830172       0.74845042       0.87401090 </v>
    <v>       0.76348182       0.26436594       0.37926962 </v>
    <v>       0.74650489       0.24713714       0.87441830 </v>
    <v>       0.74865247       0.75307734       0.37424909 </v>
    <v>       0.75140891       0.74763689       0.87546690 </v>
    <v>       0.23579243       0.26748599       0.13030091 </v>
    <v>       0.25227724       0.24717182       0.62220454 </v>
    <v>       0.24755900       0.74924722       0.12584987 </v>
    <v>       0.25156824       0.75094803       0.62437708 </v>
    <v>       0.74666937       0.24781056       0.12602018 </v>
    <v>       0.76413500       0.26400117       0.62161443 </v>
    <v>       0.74659166       0.75148296       0.12560000 </v>
    <v>       0.75264705       0.75035126       0.62423942 </v>
   </varray>
  </structure>
  <varray name="forces" >
   <v>      -0.00288534      -0.00545256       0.01589819 </v>
   <v>       0.00728000       0.00250976      -0.01793441 </v>
   <v>      -0.00406277      -0.00046495       0.00406454 </v>
   <v>       0.00439349      -0.00602272      -0.00390105 </v>
   <v>       0.00067817       0.00412820       0.00024261 </v>
   <v>       0.00053948       0.00453793      -0.00179952 </v>
   <v>       0.00520418       0.00890922       0.01038486 </v>
   <v>      -0.00950878       0.00837673      -0.00486740 </v>
   <v>      -0.00497758      -0.00070234       0.00347826 </v>
   <v>       0.00011616      -0.00621252      -0.00376979 </v>
   <v>       0.00403761       0.00171970       0.00238289 </v>
   <v>       0.00346404      -0.00878009      -0.00329616 </v>
   <v>       0.00374741       0.00816804       0.00733538 </v>
   <v>      -0.00162700      -0.00338109      -0.00335191 </v>
   <v>      -0.01008973      -0.00029929       0.00291564 </v>
   <v>       0.00047848       0.00423356      -0.00458412 </v>
   <v>       0.00825137      -0.00285645       0.00795932 </v>
   <v>       0.00367533      -0.00570046      -0.00717734 </v>
   <v>      -0.00246277       0.00884116       0.00687852 </v>
   <v>      -0.00657260      -0.00136779      -0.00108924 </v>
   <v>      -0.00291695       0.00721684       0.01581033 </v>
   <v>      -0.00926691      -0.00772787      -0.01004005 </v>
   <v>       0.00768965      -0.00233742       0.00468838 </v>
   <v>      -0.01403798       0.01536552      -0.00846866 </v>
   <v>      -0.00305461      -0.01187260       0.00703100 </v>
   <v>       0.01266650      -0.00003154      -0.00542279 </v>
   <v>       0.00298582       0.00565495      -0.00444623 </v>
   <v>      -0.01394106       0.00748267      -0.00481811 </v>
   <v>      -0.00780093      -0.00051407       0.00392481 </v>
   <v>      -0.00792826      -0.00281807      -0.00541329 </v>
   <v>      -0.00435140       0.00831327      -0.00161517 </v>
   <v>       0.00896488       0.00063696      -0.00457715 </v>
   <v>       0.00366934      -0.00637936      -0.00179403 </v>
   <v>      -0.00219109       0.00104196      -0.01437110 </v>
   <v>       0.00244696       0.02799905       0.00238155 </v>
   <v>      -0.00784741      -0.00635716      -0.01222651 </v>
   <v>       0.00321606      -0.00967156       0.02550954 </v>
   <v>       0.01230633      -0.01103718      -0.00573556 </v>
   <v>      -0.00008577      -0.00047271       0.00280907 </v>
   <v>      -0.00915399       0.00836510      -0.00609402 </v>
   <v>       0.00392640      -0.01595025      -0.01030412 </v>
   <v>      -0.01253407       0.01296953       0.00007168 </v>
   <v>       0.00886835       0.01830858      -0.00810765 </v>
   <v>      -0.02370755      -0.02446748       0.01048067 </v>
   <v>      -0.00504720      -0.00706551      -0.01434464 </v>
   <v>       0.00711044       0.00648906       0.00690859 </v>
   <v>       0.00081634       0.02183288      -0.00336147 </v>
   <v>      -0.00514219      -0.01743540       0.01295906 </v>
   <v>      -0.01172418      -0.00397749      -0.00116235 </v>
   <v>       0.02488696      -0.00182359      -0.00855028 </v>
   <v>      -0.00297299       0.00347757       0.03896794 </v>
   <v>       0.01765155      -0.01199028       0.00099038 </v>
   <v>      -0.00623650       0.01071863      -0.00032650 </v>
   <v>       0.00104369      -0.00852141       0.00693547 </v>
   <v>       0.01928785      -0.00330767       0.00070831 </v>
   <v>       0.01507314       0.00769095      -0.00168240 </v>
   <v>       0.01207489      -0.01529730      -0.02569300 </v>
   <v>      -0.00745415       0.00035180      -0.00217461 </v>
   <v>      -0.00845143      -0.00201718       0.01277000 </v>
   <v>      -0.02137149      -0.00704067      -0.00933476 </v>
   <v>      -0.00329162       0.00293249      -0.00101492 </v>
   <v>      -0.00018462      -0.00532166       0.00885407 </v>
   <v>       0.00194582      -0.00419455       0.00005919 </v>
   <v>       0.00527258      -0.00542597       0.00127848 </v>
   <v>       0.02039598      -0.01421091      -0.00135852 </v>
   <v>       0.01056551      -0.01003546       0.00092173 </v>
   <v>       0.00317493      -0.01602359      -0.01023715 </v>
   <v>      -0.00760475      -0.01037092       0.00470423 </v>
   <v>       0.01105494      -0.00819285       0.00361670 </v>
   <v>       0.00932964       0.00735738      -0.00670080 </v>
   <v>      -0.01018668      -0.01265568       0.00395885 </v>
   <v>       0.00538035      -0.00147501      -0.00079324 </v>
   <v>      -0.00145821      -0.00315753      -0.00162327 </v>
   <v>      -0.00419827       0.00405627       0.00136281 </v>
   <v>       0.01190584       0.00902736      -0.00201583 </v>
   <v>      -0.00096386      -0.00170107       0.00739913 </v>
   <v>       0.01030755      -0.00565304       0.01641241 </v>
   <v>      -0.00718757      -0.00594260      -0.00271793 </v>
   <v>      -0.00511589       0.02102982      -0.00579608 </v>
   <v>      -0.01333144       0.00236680       0.00471680 </v>
   <v>       0.02736756      -0.01446986      -0.00531895 </v>
   <v>      -0.00526102      -0.00141723       0.00200899 </v>
   <v>       0.02205902       0.00332734       0.00411893 </v>
   <v>       0.00324166      -0.00126084       0.00753267 </v>
   <v>       0.01360634       0.02554332       0.00924205 </v>
   <v>      -0.00490535       0.01134875      -0.00420650 </v>
   <v>       0.00871102       0.00728525       0.00127760 </v>
   <v>      -0.00198624       0.00791709      -0.00674174 </v>
   <v>       0.00426567      -0.00420184       0.01159820 </v>
   <v>      -0.01369147      -0.01661844      -0.00796968 </v>
   <v>      -0.01674402      -0.00938633       0.00995978 </v>
   <v>      -0.00058261      -0.00817270      -0.00242000 </v>
   <v>      -0.00410476      -0.01038981      -0.00896305 </v>
   <v>      -0.02036112       0.01278636       0.00103821 </v>
   <v>       0.00612273      -0.00903807      -0.00083635 </v>
   <v>       0.00441707      -0.00369028       0.00042538 </v>
   <v>       0.00738073      -0.00747392       0.00438675 </v>
   <v>      -0.00812318       0.00331789       0.00197794 </v>
   <v>       0.00762185       0.00742550      -0.00363793 </v>
   <v>      -0.00049174      -0.00026370      -0.01295106 </v>
   <v>       0.00732089      -0.00874820      -0.00467556 </v>
   <v>       0.00350109      -0.00657360       0.00057492 </v>
   <v>      -0.00676804       0.00139159      -0.00010662 </v>
   <v>      -0.01453211       0.02147551      -0.00409420 </v>
   <v>       0.00759632       0.00279260       0.00507195 </v>
   <v>      -0.00966957       0.00503165      -0.00255510 </v>
   <v>       0.00134745      -0.00796572      -0.00130728 </v>
   <v>      -0.00411455       0.01379756       0.00247576 </v>
   <v>       0.00577181      -0.00080325      -0.00230779 </v>
   <v>      -0.02042242       0.00843207      -0.00408548 </v>
   <v>       0.00411326      -0.00613619      -0.00422990 </v>
   <v>      -0.00616374      -0.00644949      -0.00367120 </v>
   <v>      -0.00420017       0.00605886      -0.00267989 </v>
   <v>       0.00372937       0.01487516       0.00508938 </v>
   <v>      -0.00082366       0.00501198      -0.00093990 </v>
   <v>      -0.00175913       0.02826339       0.00431058 </v>
   <v>      -0.00066015      -0.00175931      -0.00202446 </v>
   <v>      -0.00195441       0.00153101      -0.00385071 </v>
   <v>      -0.00283173       0.00450462       0.00465078 </v>
   <v>      -0.02300501      -0.00145540      -0.00849899 </v>
   <v>       0.00224312      -0.00429595      -0.00201076 </v>
   <v>       0.01725079      -0.00960693      -0.00169448 </v>
   <v>       0.00211608      -0.01796419      -0.00265527 </v>
   <v>      -0.00419530      -0.01099128       0.00284993 </v>
   <v>      -0.00699507       0.01110063      -0.00465798 </v>
   <v>      -0.00932874      -0.00333376       0.01511743 </v>
   <v>      -0.00253148       0.00094494      -0.00324141 </v>
   <v>       0.00008653       0.00709006      -0.00613543 </v>
   <v>      -0.01091822      -0.00327436       0.00666920 </v>
   <v>       0.01220865      -0.00571562      -0.00343359 </v>
   <v>       0.01072727      -0.00711981       0.01532180 </v>
   <v>      -0.00906985      -0.00706942      -0.01291339 </v>
   <v>       0.00205975       0.00486127       0.00357747 </v>
   <v>      -0.00189004       0.00536176      -0.00430822 </v>
   <v>      -0.00245927      -0.00449235       0.00436588 </v>
   <v>       0.00017869       0.00390648       0.01328819 </v>
   <v>      -0.00744689      -0.00185937      -0.00024803 </v>
   <v>       0.00191424       0.00430562      -0.00307568 </v>
   <v>       0.00332472       0.00305473      -0.01310022 </v>
   <v>       0.00069891       0.00466748       0.00973904 </v>
   <v>      -0.00138738       0.00412169      -0.00173424 </v>
   <v>      -0.00138377      -0.00640608       0.00730538 </v>
   <v>       0.00336480       0.00759044      -0.00747195 </v>
   <v>       0.00465100      -0.00231012       0.00666625 </v>
   <v>       0.00235095       0.00838568       0.00891407 </v>
   <v>       0.00912790      -0.00986516       0.01849843 </v>
   <v>      -0.00309511       0.00655746      -0.00937292 </v>
   <v>      -0.00181308      -0.00008532      -0.01701232 </v>
   <v>       0.00438846       0.00539849       0.01543486 </v>
   <v>      -0.00518821      -0.00521440      -0.00105283 </v>
   <v>       0.00599058       0.00689844       0.01062058 </v>
   <v>      -0.00718220      -0.00856322      -0.01490774 </v>
   <v>       0.00702331      -0.00327664      -0.01280809 </v>
   <v>       0.00910861       0.00699814      -0.00773789 </v>
   <v>       0.01162142       0.00851379       0.01450519 </v>
   <v>      -0.00907372       0.00753826       0.00627304 </v>
   <v>       0.00392930      -0.00386880      -0.01647505 </v>
   <v>      -0.00838077       0.00377922      -0.00444503 </v>
  </varray>
  <varray name="stress" >
   <v>       0.26211547       0.00213064      -0.01313719 </v>
   <v>       0.00213095       0.33658752       0.02165238 </v>
   <v>      -0.01313691       0.02165239       0.10269709 </v>
  </varray>
  <energy>
   <i name="e_fr_energy">  -1152.40966218 </i>
   <i name="e_wo_entrp">  -1152.40966218 </i>
   <i name="e_0_energy">     -0.00000000 </i>
  </energy>
  <time name="totalsc"> 1937.31 1939.54</time>
 </calculation>
 <calculation>
  <scstep>
   <time name="dav">  581.88  581.90</time>
   <time name="total">  589.05  589.10</time>
   <energy>
    <i name="alphaZ">   5629.97901435 </i>
    <i name="ewald"> -61000.69173377 </i>
    <i name="hartreedc"> -15487.22803474 </i>
    <i name="XCdc">   2851.95696044 </i>
    <i name="pawpsdc"> 112016.71887234 </i>
    <i name="pawaedc">-110764.67619663 </i>
    <i name="eentropy">     -0.00000000 </i>
    <i name="bandstr">  -7048.55302389 </i>
    <i name="atom">  72650.08363186 </i>
    <i name="e_fr_energy">  -1152.41051002 </i>
    <i name="e_wo_entrp">  -1152.41051002 </i>
    <i name="e_0_energy">  -1152.41051002 </i>
   </energy>
  </scstep>
  <scstep>
   <time name="diag">   64.94   64.94</time>
   <time name="diis">  104.65  104.65</time>
   <time name="orth">   33.54   33.54</time>
   <time name="total">  210.33  210.39</time>
   <energy>
    <i name="e_fr_energy">  -1152.41072016 </i>
    <i name="e_wo_entrp">  -1152.41072016 </i>
    <i name="e_0_energy">  -1152.41072016 </i>
   </energy>
  </scstep>
  <scstep>
   <time name="diag">   64.84   64.84</time>
   <time name="diis">   92.85   92.85</time>
   <time name="orth">   33.53   33.53</time>
   <time name="total">  198.43  198.52</time>
   <energy>
    <i name="e_fr_energy">  -1152.41054558 </i>
    <i name="e_wo_entrp">  -1152.41054558 </i>
    <i name="e_0_energy">  -1152.41054558 </i>
   </energy>
  </scstep>
  <scstep>
   <time name="diag">   64.76   64.76</time>
   <time name="diis">   70.45   70.45</time>
   <time name="orth">   33.52   33.52</time>
   <time name="total">  175.95  176.02</time>
   <energy>
    <i name="e_fr_energy">  -1152.41046648 </i>
    <i name="e_wo_entrp">  -1152.41046648 </i>
    <i name="e_0_energy">  -1152.41046648 </i>
   </energy>
  </scstep>
  <scstep>
   <time name="diag">   64.79   64.79</time>
   <time name="diis">   63.88   63.88</time>
   <time name="orth">   33.47   33.47</time>
   <time name="total">  169.38  169.47</time>
   <energy>
    <i name="e_fr_energy">  -1152.41045317 </i>
    <i name="e_wo_entrp">  -1152.41045317 </i>
    <i name="e_0_energy">  -1152.41045317 </i>
   </energy>
  </scstep>
  <scstep>
   <time name="diag">   64.80   64.80</time>
   <time name="diis">   62.98   62.99</time>
   <time name="orth">   33.55   33.55</time>
   <time name="total">  168.54  168.61</time>
   <energy>
    <i name="e_fr_energy">  -1152.41044784 </i>
    <i name="e_wo_entrp">  -1152.41044784 </i>
    <i name="e_0_energy">  -1152.41044784 </i>
   </energy>
  </scstep>
  <scstep>
   <time name="diag">   65.01   65.01</time>
   <time name="diis">   61.59   61.60</time>
   <time name="orth">   33.43   33.43</time>
   <time name="total">  167.22  167.26</time>
   <energy>
    <i name="e_fr_energy">  -1152.41044538 </i>
    <i name="e_wo_entrp">  -1152.41044538 </i>
    <i name="e_0_energy">  -1152.41044538 </i>
   </energy>
  </scstep>
  <scstep>
   <time name="diag">   65.02   65.03</time>
   <time name="diis">   60.42   60.43</time>
   <time name="orth">   33.38   33.38</time>
   <time name="total">  159.88  159.93</time>
   <energy>
    <i name="alphaZ">   5629.97901435 </i>
    <i name="ewald"> -61000.69173377 </i>
    <i name="hartreedc"> -15490.92014632 </i>
    <i name="XCdc">   2852.21111893 </i>
    <i name="pawpsdc"> 111953.92582960 </i>
    <i name="pawaedc">-110701.83538691 </i>
    <i name="eentropy">     -0.00000000 </i>
    <i name="bandstr">  -7045.16277176 </i>
    <i name="atom">  72650.08363186 </i>
    <i name="e_fr_energy">  -1152.41044400 </i>
    <i name="e_wo_entrp">  -1152.41044400 </i>
    <i name="e_0_energy">  -1152.41044400 </i>
   </energy>
  </scstep>
  <structure>
   <crystal>
    <varray name="basis" >
     <v>      11.21802290      -0.00377071      -0.00154768 </v>
     <v>      -0.00377129      11.21271323      -0.00038174 </v>
     <v>      -0.00220574      -0.00054637      15.95150277 </v>
    </varray>
    <i name="volume">   2006.45111500 </i>
    <varray name="rec_basis" >
     <v>       0.08914228       0.00002998       0.00001233 </v>
     <v>       0.00002998       0.08918449       0.00000306 </v>
     <v>       0.00000865       0.00000214       0.06269002 </v>
    </varray>
   </crystal>
   <varray name="positions" >
    <v>       0.99933127       0.24662756       0.11851649 </v>
    <v>       0.00398026       0.24781725       0.63216156 </v>
    <v>       0.00178630       0.75149780       0.12332695 </v>
    <v>       0.99748877       0.75331176       0.62681537 </v>
    <v>       0.50615087       0.25189100       0.12379735 </v>
    <v>       0.49250244       0.25351357       0.62666124 </v>
    <v>       0.49990388       0.74960946       0.12323504 </v>
    <v>       0.50050488       0.74752051       0.62615123 </v>
    <v>       0.00065365       0.24324073       0.37447726 </v>
    <v>       0.00204389       0.24717845       0.87544136 </v>
    <v>       0.00008634       0.75314033       0.37372928 </v>
    <v>       0.99975105       0.75053763       0.87610433 </v>
    <v>       0.50163558       0.25881081       0.37602842 </v>
    <v>       0.49774886       0.25017998       0.87432520 </v>
    <v>       0.50086015       0.74794325       0.37552580 </v>
    <v>       0.49970785       0.74935334       0.87474596 </v>
    <v>       0.24671367       0.99368626       0.12045927 </v>
    <v>       0.24751629       0.00379485       0.62875544 </v>
    <v>       0.25454123       0.50512126       0.11993410 </v>
    <v>       0.25761404       0.49663738       0.62909765 </v>
    <v>       0.75352538       0.00054085       0.12172674 </v>
    <v>       0.75121484       0.99388855       0.62876284 </v>
    <v>       0.74838419       0.49959465       0.12207091 </v>
    <v>       0.74204828       0.50521831       0.62951955 </v>
    <v>       0.24842229       0.99410715       0.37549566 </v>
    <v>       0.24682757       0.00308681       0.87459056 </v>
    <v>       0.26282818       0.50577816       0.37769862 </v>
    <v>       0.24919838       0.49605449       0.87406914 </v>
    <v>       0.75213624       0.99444573       0.37388804 </v>
    <v>       0.75258377       0.00021419       0.87629642 </v>
    <v>       0.74088822       0.50586131       0.37328098 </v>
    <v>       0.75102486       0.49945208       0.87541148 </v>
    <v>       0.00131522       0.99979050       0.50043539 </v>
    <v>       0.00160352       0.49935866       0.00198521 </v>
    <v>       0.01356506       0.50629650       0.49917462 </v>
    <v>       0.50027930       0.00074417       0.00011293 </v>
    <v>       0.49544711       0.99782892       0.49978396 </v>
    <v>       0.50043482       0.50006723       0.99917947 </v>
    <v>       0.24858030       0.24959148       0.99893362 </v>
    <v>       0.24899489       0.25157542       0.50093313 </v>
    <v>       0.24826951       0.75079798       0.99852793 </v>
    <v>       0.25415638       0.75291652       0.50145712 </v>
    <v>       0.75107170       0.24847317       0.99904910 </v>
    <v>       0.74228332       0.23779288       0.50110258 </v>
    <v>       0.75108274       0.75122724       0.00015048 </v>
    <v>       0.74769524       0.74867297       0.49986259 </v>
    <v>       0.25816715       0.23710489       0.24923361 </v>
    <v>       0.24991093       0.74813310       0.25014027 </v>
    <v>       0.24956433       0.74990494       0.74983044 </v>
    <v>       0.75508041       0.25203380       0.24993631 </v>
    <v>       0.75054214       0.25085377       0.75002887 </v>
    <v>       0.74986667       0.75084725       0.24872319 </v>
    <v>       0.75018092       0.74964384       0.75121858 </v>
    <v>       0.99907535       0.99995869       0.24788568 </v>
    <v>       0.00095014       0.00090478       0.75237830 </v>
    <v>       0.99971808       0.49843651       0.75048875 </v>
    <v>       0.50585070       0.99704750       0.25019277 </v>
    <v>       0.49820581       0.00204191       0.74985712 </v>
    <v>       0.50038500       0.50139013       0.24996107 </v>
    <v>       0.49861200       0.49871501       0.74992607 </v>
    <v>       0.99990464       0.99941613       0.99954277 </v>
    <v>       0.50081250       0.50167340       0.50115101 </v>
    <v>       0.25009188       0.24954383       0.75098877 </v>
    <v>       0.98610838       0.50738426       0.25025436 </v>
    <v>       0.10686572       0.14610379       0.24936490 </v>
    <v>       0.11117793       0.13650416       0.75060496 </v>
    <v>       0.11663363       0.62604761       0.25629618 </v>
    <v>       0.10917760       0.63843143       0.74381516 </v>
    <v>       0.60867577       0.14293623       0.25661242 </v>
    <v>       0.61235534       0.14096445       0.74341222 </v>
    <v>       0.60920970       0.64157903       0.25103202 </v>
    <v>       0.61113335       0.63980651       0.74886219 </v>
    <v>       0.38075682       0.36437218       0.24996692 </v>
    <v>       0.38923392       0.36280048       0.75036830 </v>
    <v>       0.39108078       0.85962711       0.24987316 </v>
    <v>       0.38980569       0.86061723       0.74989448 </v>
    <v>       0.89823770       0.35397181       0.24521998 </v>
    <v>       0.88916626       0.35989079       0.75607810 </v>
    <v>       0.89149767       0.85741581       0.25010864 </v>
    <v>       0.88866838       0.86049774       0.74938191 </v>
    <v>       0.35757333       0.10627529       0.24988135 </v>
    <v>       0.36315220       0.11011545       0.74972267 </v>
    <v>       0.36261322       0.61196618       0.24949750 </v>
    <v>       0.36024045       0.61156239       0.75067103 </v>
    <v>       0.85650483       0.10704555       0.25220697 </v>
    <v>       0.85979800       0.11077531       0.74803539 </v>
    <v>       0.85393931       0.60958327       0.24942628 </v>
    <v>       0.85940135       0.61065053       0.74937203 </v>
    <v>       0.13639048       0.39033603       0.74728308 </v>
    <v>       0.13912785       0.88803465       0.25058325 </v>
    <v>       0.13899583       0.88774672       0.74938251 </v>
    <v>       0.64049507       0.38978322       0.25021364 </v>
    <v>       0.64003624       0.38962532       0.75047043 </v>
    <v>       0.64322088       0.89308919       0.24950427 </v>
    <v>       0.63919029       0.88951249       0.75054280 </v>
    <v>       0.36093138       0.39026140       0.00077020 </v>
    <v>       0.35893746       0.38832148       0.49908227 </v>
    <v>       0.36104347       0.88977819       0.99950866 </v>
    <v>       0.35620097       0.89413471       0.50077684 </v>
    <v>       0.86064305       0.38921914       0.00081445 </v>
    <v>       0.85929367       0.88690680       0.00018402 </v>
    <v>       0.86020349       0.88950844       0.49967408 </v>
    <v>       0.14072780       0.11262908       0.00286374 </v>
    <v>       0.14364417       0.10645497       0.49641982 </v>
    <v>       0.14069204       0.61009385       0.99930640 </v>
    <v>       0.14379267       0.60649562       0.50133975 </v>
    <v>       0.63856000       0.11029443       0.00076577 </v>
    <v>       0.64191698       0.10755811       0.49951247 </v>
    <v>       0.63980422       0.61033331       0.00031705 </v>
    <v>       0.63871477       0.61465575       0.49982984 </v>
    <v>       0.10994001       0.36123425       0.99500933 </v>
    <v>       0.09956963       0.35405112       0.50411478 </v>
    <v>       0.11241284       0.85918745       0.00058803 </v>
    <v>       0.10762372       0.85635289       0.49938561 </v>
    <v>       0.61067190       0.36043342       0.99987651 </v>
    <v>       0.62570026       0.36591854       0.50015828 </v>
    <v>       0.60937332       0.86060196       0.99918292 </v>
    <v>       0.60845706       0.86100389       0.50066463 </v>
    <v>       0.38872582       0.14074959       0.00719693 </v>
    <v>       0.39146080       0.14285039       0.49240145 </v>
    <v>       0.38945192       0.63979236       0.00141399 </v>
    <v>       0.38801610       0.64274670       0.49853909 </v>
    <v>       0.88659024       0.13980782       0.99943889 </v>
    <v>       0.89414832       0.14756958       0.50059867 </v>
    <v>       0.88984206       0.63762807       0.00524433 </v>
    <v>       0.88523599       0.62724868       0.49429186 </v>
    <v>       0.99889316       0.99930383       0.12684293 </v>
    <v>       0.00074229       0.99936558       0.62391096 </v>
    <v>       0.01359249       0.49278121       0.12728045 </v>
    <v>       0.98101742       0.48962567       0.61981613 </v>
    <v>       0.50275444       0.00071857       0.12663503 </v>
    <v>       0.49797740       0.00179020       0.62283292 </v>
    <v>       0.50196663       0.49952862       0.12539763 </v>
    <v>       0.49887064       0.49998027       0.62611371 </v>
    <v>       0.99933533       0.99878474       0.37480527 </v>
    <v>       0.99953108       0.99962332       0.87404662 </v>
    <v>       0.99624048       0.48142402       0.37704781 </v>
    <v>       0.99972891       0.50579814       0.87471916 </v>
    <v>       0.49993014       0.99538141       0.37511093 </v>
    <v>       0.50025446       0.00534961       0.87530785 </v>
    <v>       0.50046474       0.49868300       0.37355393 </v>
    <v>       0.50053745       0.50156260       0.87540274 </v>
    <v>       0.23555368       0.26742525       0.36907720 </v>
    <v>       0.25242280       0.24845898       0.87713788 </v>
    <v>       0.25043454       0.75187168       0.37591374 </v>
    <v>       0.24834097       0.74840798       0.87406685 </v>
    <v>       0.76346851       0.26439415       0.37924128 </v>
    <v>       0.74649709       0.24713677       0.87436685 </v>
    <v>       0.74867136       0.75310058       0.37429578 </v>
    <v>       0.75138659       0.74761445       0.87546372 </v>
    <v>       0.23581821       0.26751568       0.13033303 </v>
    <v>       0.25224633       0.24713496       0.62215944 </v>
    <v>       0.24758919       0.74923313       0.12581113 </v>
    <v>       0.25160742       0.75097816       0.62435368 </v>
    <v>       0.74671938       0.24784721       0.12606406 </v>
    <v>       0.76409599       0.26403360       0.62163340 </v>
    <v>       0.74660854       0.75146632       0.12555017 </v>
    <v>       0.75261101       0.75036751       0.62422598 </v>
   </varray>
  </structure>
  <varray name="forces" >
   <v>       0.00208944      -0.00914035       0.01282095 </v>
   <v>      -0.00155745      -0.00010031      -0.01646729 </v>
   <v>       0.00060341       0.00420945      -0.00328496 </v>
   <v>      -0.00469117      -0.00173736       0.00157591 </v>
   <v>       0.00230762       0.00000227       0.00698602 </v>
   <v>       0.00258402       0.00632956      -0.00405170 </v>
   <v>       0.00291587       0.00161875       0.00599504 </v>
   <v>      -0.00323513       0.00048874      -0.00751315 </v>
   <v>      -0.00533626      -0.00224020       0.00606230 </v>
   <v>       0.00386014      -0.00961945      -0.00401535 </v>
   <v>       0.00044229       0.00387611       0.00004188 </v>
   <v>      -0.00221093      -0.00054449       0.00320939 </v>
   <v>       0.00471137      -0.00325222      -0.00139829 </v>
   <v>      -0.00262383      -0.00103938       0.00084787 </v>
   <v>      -0.00467752       0.00517407       0.00125795 </v>
   <v>       0.00227845      -0.00210878       0.00033454 </v>
   <v>       0.00807602      -0.00433939       0.01022133 </v>
   <v>       0.00182881       0.00137167      -0.01080009 </v>
   <v>       0.00265860       0.00728023       0.00187675 </v>
   <v>      -0.00324617      -0.00698030      -0.00663922 </v>
   <v>      -0.00341400       0.00687398       0.01102935 </v>
   <v>      -0.00018145      -0.00246646      -0.00350642 </v>
   <v>       0.00104381      -0.00094957       0.00775568 </v>
   <v>      -0.01198691       0.00673476      -0.00530853 </v>
   <v>       0.00930662       0.00115563      -0.00292263 </v>
   <v>       0.00493285      -0.00038471       0.00867105 </v>
   <v>       0.00529019      -0.00319974       0.00076264 </v>
   <v>      -0.00572185       0.00319056       0.00302578 </v>
   <v>      -0.01240275       0.00164861      -0.00239611 </v>
   <v>      -0.00186156      -0.00440188      -0.00062528 </v>
   <v>      -0.00932545      -0.00138268      -0.00057506 </v>
   <v>       0.00459812       0.00472719      -0.01219931 </v>
   <v>      -0.00481401       0.01775345       0.00295958 </v>
   <v>      -0.00049297      -0.00051200       0.00115367 </v>
   <v>      -0.00932898      -0.02295874      -0.00191381 </v>
   <v>       0.00101690      -0.00667466       0.01539487 </v>
   <v>      -0.00956657       0.00805725      -0.03757745 </v>
   <v>      -0.01287994       0.01159941       0.01181861 </v>
   <v>       0.00898977      -0.01195024       0.00653429 </v>
   <v>      -0.00457707       0.00369741      -0.01308366 </v>
   <v>       0.00813483       0.01406992       0.01001124 </v>
   <v>       0.02066753       0.00029559       0.00097209 </v>
   <v>       0.00324251      -0.01258805       0.00921674 </v>
   <v>       0.01324356       0.03445058       0.00161911 </v>
   <v>      -0.00235681       0.00591841      -0.00784349 </v>
   <v>      -0.01299035      -0.00627892       0.00379199 </v>
   <v>       0.03376290      -0.03587107       0.00339862 </v>
   <v>       0.01165985       0.01309550      -0.02559159 </v>
   <v>      -0.00053577      -0.00477645       0.01094076 </v>
   <v>      -0.01685338       0.00705762       0.01141168 </v>
   <v>       0.01116777       0.00396381      -0.02374609 </v>
   <v>      -0.02940687       0.01564186      -0.00939721 </v>
   <v>      -0.00316903      -0.00248896      -0.00018947 </v>
   <v>       0.00556214       0.01788959      -0.00715201 </v>
   <v>      -0.01979411       0.01843428       0.00915097 </v>
   <v>      -0.02804049      -0.01134679      -0.00959038 </v>
   <v>      -0.00148787       0.01501108       0.02694131 </v>
   <v>       0.00633760       0.00615610       0.00247568 </v>
[...]
       <r>   -15.8175     0.0000    32.0000 </r>
       <r>   -15.6655     0.0000    32.0000 </r>
       <r>   -15.5135     0.0000    32.0000 </r>
       <r>   -15.3615     0.0001    32.0000 </r>
       <r>   -15.2096     3.4714    32.5276 </r>
       <r>   -15.0576    17.3878    35.1704 </r>
       <r>   -14.9056    38.9430    41.0895 </r>
       <r>   -14.7536    56.5438    49.6837 </r>
       <r>   -14.6016    36.5636    55.2410 </r>
       <r>   -14.4496    31.8508    60.0821 </r>
       <r>   -14.2976    32.8976    65.0823 </r>
       <r>   -14.1456    67.9957    75.4171 </r>
       <r>   -13.9936   126.9997    94.7200 </r>
       <r>   -13.8416   141.7202   116.2603 </r>
       <r>   -13.6896    55.0112   124.6216 </r>
       <r>   -13.5376     9.0685   125.9999 </r>
       <r>   -13.3857     0.0006   126.0000 </r>
       <r>   -13.2337     0.0000   126.0000 </r>
       <r>   -13.0817     0.0000   126.0000 </r>
       <r>   -12.9297     0.0000   126.0000 </r>
       <r>   -12.7777     0.0027   126.0004 </r>
       <r>   -12.6257    11.7552   127.7871 </r>
       <r>   -12.4737    89.3477   141.3672 </r>
       <r>   -12.3217   171.7571   167.4729 </r>
       <r>   -12.1697   135.5680   188.0782 </r>
       <r>   -12.0177   130.5549   207.9215 </r>
       <r>   -11.8657    76.0754   219.4843 </r>
       <r>   -11.7137    16.2994   221.9617 </r>
       <r>   -11.5617     0.2520   222.0000 </r>
       <r>   -11.4098     0.0000   222.0000 </r>
       <r>   -11.2578     0.0000   222.0000 </r>
       <r>   -11.1058     0.0000   222.0000 </r>
       <r>   -10.9538     0.0000   222.0000 </r>
       <r>   -10.8018     0.0000   222.0000 </r>
       <r>   -10.6498     0.0000   222.0000 </r>
       <r>   -10.4978     0.0000   222.0000 </r>
       <r>   -10.3458     0.0000   222.0000 </r>
       <r>   -10.1938     0.0000   222.0000 </r>
       <r>   -10.0418     0.0000   222.0000 </r>
       <r>    -9.8898     0.0000   222.0000 </r>
       <r>    -9.7378     0.0000   222.0000 </r>
       <r>    -9.5859     0.0000   222.0000 </r>
       <r>    -9.4339     0.0000   222.0000 </r>
       <r>    -9.2819     0.0000   222.0000 </r>
       <r>    -9.1299     0.0000   222.0000 </r>
       <r>    -8.9779     0.0000   222.0000 </r>
       <r>    -8.8259     0.0000   222.0000 </r>
       <r>    -8.6739     0.0000   222.0000 </r>
       <r>    -8.5219     0.0000   222.0000 </r>
       <r>    -8.3699     0.0000   222.0000 </r>
       <r>    -8.2179     0.0000   222.0000 </r>
       <r>    -8.0659     0.0000   222.0000 </r>
       <r>    -7.9139     0.0000   222.0000 </r>
       <r>    -7.7620     0.0000   222.0000 </r>
       <r>    -7.6100     0.0000   222.0000 </r>
       <r>    -7.4580     0.0000   222.0000 </r>
       <r>    -7.3060     0.0000   222.0000 </r>
       <r>    -7.1540     0.0000   222.0000 </r>
       <r>    -7.0020     0.0000   222.0000 </r>
       <r>    -6.8500     0.0000   222.0000 </r>
       <r>    -6.6980     0.0000   222.0000 </r>
       <r>    -6.5460     0.0000   222.0000 </r>
       <r>    -6.3940     0.0000   222.0000 </r>
       <r>    -6.2420     0.0000   222.0000 </r>
       <r>    -6.0900     0.0000   222.0000 </r>
       <r>    -5.9380     0.0000   222.0000 </r>
       <r>    -5.7861     0.0000   222.0000 </r>
       <r>    -5.6341     0.0000   222.0000 </r>
       <r>    -5.4821     0.0000   222.0000 </r>
       <r>    -5.3301     0.0000   222.0000 </r>
       <r>    -5.1781     0.0000   222.0000 </r>
       <r>    -5.0261     0.0000   222.0000 </r>
       <r>    -4.8741     0.0000   222.0000 </r>
       <r>    -4.7221     0.0000   222.0000 </r>
       <r>    -4.5701     0.0000   222.0000 </r>
       <r>    -4.4181     0.0000   222.0000 </r>
       <r>    -4.2661     0.0000   222.0000 </r>
       <r>    -4.1141     0.0000   222.0000 </r>
       <r>    -3.9622     0.0000   222.0000 </r>
       <r>    -3.8102     0.0000   222.0000 </r>
       <r>    -3.6582     0.0000   222.0000 </r>
       <r>    -3.5062     0.0000   222.0000 </r>
       <r>    -3.3542     0.0000   222.0000 </r>
       <r>    -3.2022     0.0000   222.0000 </r>
       <r>    -3.0502     0.0000   222.0000 </r>
       <r>    -2.8982     0.0000   222.0000 </r>
       <r>    -2.7462     0.0000   222.0000 </r>
       <r>    -2.5942     0.0000   222.0000 </r>
       <r>    -2.4422     0.0000   222.0000 </r>
       <r>    -2.2902     3.1961   222.4858 </r>
       <r>    -2.1383    26.3021   226.4835 </r>
       <r>    -1.9863    17.7418   229.1801 </r>
       <r>    -1.8343    39.8726   235.2404 </r>
       <r>    -1.6823    62.1364   244.6846 </r>
       <r>    -1.5303    52.3415   252.6401 </r>
       <r>    -1.3783    63.5677   262.3019 </r>
       <r>    -1.2263    71.5852   273.1823 </r>
       <r>    -1.0743    69.2039   283.7007 </r>
       <r>    -0.9223    77.2902   295.4482 </r>
       <r>    -0.7703    75.4753   306.9198 </r>
       <r>    -0.6183    96.6912   321.6161 </r>
       <r>    -0.4663   120.8385   339.9826 </r>
       <r>    -0.3143    91.0514   353.8217 </r>
       <r>    -0.1624    55.7267   362.2917 </r>
       <r>    -0.0104    49.4016   369.8003 </r>
       <r>     0.1416    45.0511   376.6477 </r>
       <r>     0.2936    41.6042   382.9712 </r>
       <r>     0.4456    47.5883   390.2043 </r>
       <r>     0.5976    62.0084   399.6290 </r>
       <r>     0.7496    44.3788   406.3743 </r>
       <r>     0.9016    47.0179   413.5206 </r>
       <r>     1.0536    58.6166   422.4299 </r>
       <r>     1.2056    80.0518   434.5971 </r>
       <r>     1.3576    88.8422   448.1004 </r>
       <r>     1.5096   100.0980   463.3145 </r>
       <r>     1.6615    80.9674   475.6209 </r>
       <r>     1.8135    73.7916   486.8366 </r>
       <r>     1.9655    53.6326   494.9883 </r>
       <r>     2.1175    33.7457   500.1174 </r>
       <r>     2.2695    23.9414   503.7563 </r>
       <r>     2.4215     1.6034   504.0000 </r>
       <r>     2.5735     0.0000   504.0000 </r>
       <r>     2.7255     0.0000   504.0000 </r>
       <r>     2.8775     0.0000   504.0000 </r>
       <r>     3.0295     0.0000   504.0000 </r>
       <r>     3.1815     0.0000   504.0000 </r>
       <r>     3.3335     0.0000   504.0000 </r>
       <r>     3.4855     0.0000   504.0000 </r>
       <r>     3.6374     0.0000   504.0000 </r>
       <r>     3.7894     0.0000   504.0000 </r>
       <r>     3.9414     0.0000   504.0000 </r>
       <r>     4.0934     0.0000   504.0000 </r>
       <r>     4.2454     0.0000   504.0000 </r>
       <r>     4.3974     0.0689   504.0105 </r>
       <r>     4.5494    12.6872   505.9388 </r>
       <r>     4.7014    25.7470   509.8521 </r>
       <r>     4.8534    38.9321   515.7695 </r>
       <r>     5.0054    18.9766   518.6538 </r>
       <r>     5.1574    36.4332   524.1914 </r>
       <r>     5.3094    47.9327   531.4767 </r>
       <r>     5.4613    70.2348   542.1519 </r>
       <r>     5.6133    67.5556   552.4198 </r>
       <r>     5.7653    60.4507   561.6078 </r>
       <r>     5.9173    88.4006   575.0440 </r>
       <r>     6.0693   103.7382   590.8114 </r>
       <r>     6.2213    76.7844   602.4820 </r>
       <r>     6.3733    51.4344   610.2996 </r>
       <r>     6.5253    34.9310   615.6088 </r>
       <r>     6.6773    24.2719   619.2979 </r>
       <r>     6.8293    22.5260   622.7217 </r>
       <r>     6.9813    22.2020   626.0962 </r>
       <r>     7.1333    20.1567   629.1599 </r>
       <r>     7.2852    16.2057   631.6230 </r>
       <r>     7.4372    17.4093   634.2691 </r>
       <r>     7.5892    14.3628   636.4521 </r>
       <r>     7.7412    11.5361   638.2055 </r>
       <r>     7.8932    18.7290   641.0522 </r>
       <r>     8.0452    25.7152   644.9607 </r>
       <r>     8.1972    23.7234   648.5665 </r>
       <r>     8.3492    26.8901   652.6535 </r>
       <r>     8.5012    23.7476   656.2630 </r>
       <r>     8.6532    26.1594   660.2390 </r>
       <r>     8.8052    20.4579   663.3484 </r>
       <r>     8.9572    29.3767   667.8134 </r>
       <r>     9.1092    38.2165   673.6220 </r>
       <r>     9.2611    38.9944   679.5489 </r>
       <r>     9.4131    41.3590   685.8351 </r>
       <r>     9.5651    41.4262   692.1316 </r>
       <r>     9.7171    42.0709   698.5260 </r>
       <r>     9.8691    56.6425   707.1352 </r>
       <r>    10.0211    70.5648   717.8605 </r>
       <r>    10.1731    73.3929   729.0156 </r>
       <r>    10.3251    67.7760   739.3170 </r>
       <r>    10.4771    56.8605   747.9593 </r>
       <r>    10.6291    57.3030   756.6689 </r>
       <r>    10.7811    56.4385   765.2471 </r>
       <r>    10.9331    18.0985   767.9980 </r>
       <r>    11.0850     0.0134   768.0000 </r>
       <r>    11.2370     0.0000   768.0000 </r>
       <r>    11.3890     0.0000   768.0000 </r>
       <r>    11.5410     0.0000   768.0000 </r>
       <r>    11.6930     0.0000   768.0000 </r>
       <r>    11.8450     0.0000   768.0000 </r>
       <r>    11.9970     0.0000   768.0000 </r>
       <r>    12.1490     0.0000   768.0000 </r>
       <r>    12.3010     0.0000   768.0000 </r>
       <r>    12.4530     0.0000   768.0000 </r>
       <r>    12.6050     0.0000   768.0000 </r>
       <r>    12.7570     0.0000   768.0000 </r>
       <r>    12.9089     0.0000   768.0000 </r>
      </set>
     </set>
    </array>
   </total>
  </dos>
 </calculation>
 <structure name="finalpos" >
  <crystal>
   <varray name="basis" >
    <v>      11.21792678      -0.00354201      -0.00160759 </v>
    <v>      -0.00354258      11.21291900      -0.00035698 </v>
    <v>      -0.00229099      -0.00051125      15.95091382 </v>
   </varray>
   <i name="volume">   2006.39668718 </i>
   <varray name="rec_basis" >
    <v>       0.08914304       0.00002816       0.00001280 </v>
    <v>       0.00002816       0.08918285       0.00000286 </v>
    <v>       0.00000898       0.00000200       0.06269233 </v>
   </varray>
  </crystal>
  <varray name="positions" >
   <v>       0.99933101       0.24659271       0.11856392 </v>
   <v>       0.00399240       0.24782243       0.63210397 </v>
   <v>       0.00178017       0.75150740       0.12332745 </v>
   <v>       0.99748685       0.75329471       0.62681271 </v>
   <v>       0.50615892       0.25190012       0.12380961 </v>
   <v>       0.49250944       0.25353931       0.62665154 </v>
   <v>       0.49992304       0.74963467       0.12326202 </v>
   <v>       0.50047249       0.74754127       0.62613219 </v>
   <v>       0.00062961       0.24323323       0.37449416 </v>
   <v>       0.00205508       0.24714012       0.87542788 </v>
   <v>       0.00009706       0.75315444       0.37373318 </v>
   <v>       0.99975312       0.75051715       0.87610448 </v>
   <v>       0.50165562       0.25881938       0.37603692 </v>
   <v>       0.49773862       0.25016989       0.87432149 </v>
   <v>       0.50082595       0.74795358       0.37553426 </v>
   <v>       0.49971424       0.74935736       0.87473921 </v>
   <v>       0.24675282       0.99366785       0.12049037 </v>
   <v>       0.24752946       0.00378506       0.62872478 </v>
   <v>       0.25454184       0.50516013       0.11994790 </v>
   <v>       0.25759044       0.49661654       0.62908341 </v>
   <v>       0.75351125       0.00057373       0.12177421 </v>
   <v>       0.75119404       0.99386426       0.62874076 </v>
   <v>       0.74840459       0.49958699       0.12209247 </v>
   <v>       0.74198505       0.50527370       0.62949472 </v>
   <v>       0.24843861       0.99408375       0.37550393 </v>
   <v>       0.24686706       0.00308492       0.87459906 </v>
   <v>       0.26284694       0.50578223       0.37769367 </v>
   <v>       0.24915293       0.49608011       0.87406700 </v>
   <v>       0.75208827       0.99444762       0.37388972 </v>
   <v>       0.75256114       0.00019671       0.87628683 </v>
   <v>       0.74085438       0.50587672       0.37327668 </v>
   <v>       0.75105728       0.49946526       0.87538118 </v>
   <v>       0.00131221       0.99981923       0.50042990 </v>
   <v>       0.00159340       0.49935684       0.00196526 </v>
   <v>       0.01354747       0.50629731       0.49917573 </v>
   <v>       0.50026068       0.00070985       0.00011502 </v>
   <v>       0.49542433       0.99782724       0.49976039 </v>
   <v>       0.50043142       0.50006836       0.99918968 </v>
   <v>       0.24860848       0.24955455       0.99895028 </v>
   <v>       0.24896133       0.25160416       0.50089885 </v>
   <v>       0.24830341       0.75080767       0.99852996 </v>
   <v>       0.25418588       0.75294602       0.50146119 </v>
   <v>       0.75109967       0.24847935       0.99905423 </v>
   <v>       0.74226910       0.23782855       0.50113552 </v>
   <v>       0.75106455       0.75122753       0.00011209 </v>
   <v>       0.74767448       0.74866985       0.49988077 </v>
   <v>       0.25826080       0.23705665       0.24923468 </v>
   <v>       0.24992179       0.74813226       0.25011565 </v>
   <v>       0.24953569       0.74988333       0.74985016 </v>
   <v>       0.75509369       0.25205203       0.24994394 </v>
   <v>       0.75056555       0.25086837       0.75003873 </v>
   <v>       0.74981691       0.75087064       0.24870553 </v>
   <v>       0.75015594       0.74966597       0.75121970 </v>
   <v>       0.99909193       0.99999383       0.24788272 </v>
   <v>       0.00095379       0.00093553       0.75240044 </v>
   <v>       0.99967134       0.49842743       0.75046968 </v>
   <v>       0.50587398       0.99705530       0.25021263 </v>
   <v>       0.49820605       0.00205922       0.74985773 </v>
   <v>       0.50041470       0.50133946       0.24995825 </v>
   <v>       0.49858418       0.49869737       0.74990899 </v>
   <v>       0.99989657       0.99940584       0.99954728 </v>
   <v>       0.50082867       0.50165757       0.50116602 </v>
   <v>       0.25009216       0.24953249       0.75099181 </v>
   <v>       0.98612334       0.50734439       0.25026174 </v>
   <v>       0.10693831       0.14601766       0.24936784 </v>
   <v>       0.11123684       0.13645173       0.75060730 </v>
   <v>       0.11667028       0.62597794       0.25627118 </v>
   <v>       0.10918541       0.63841329       0.74382002 </v>
   <v>       0.60875142       0.14291364       0.25661017 </v>
   <v>       0.61234270       0.14094330       0.74339414 </v>
   <v>       0.60921947       0.64155819       0.25105378 </v>
   <v>       0.61114141       0.63978929       0.74885707 </v>
   <v>       0.38075226       0.36437989       0.24996376 </v>
   <v>       0.38920348       0.36280209       0.75036721 </v>
   <v>       0.39107390       0.85960421       0.24986681 </v>
   <v>       0.38978437       0.86061139       0.74991791 </v>
   <v>       0.89832030       0.35397697       0.24526555 </v>
   <v>       0.88917270       0.35990533       0.75607794 </v>
   <v>       0.89145163       0.85748445       0.25009922 </v>
   <v>       0.88862892       0.86052356       0.74939336 </v>
   <v>       0.35760171       0.10632041       0.24985941 </v>
   <v>       0.36314667       0.11009295       0.74972509 </v>
   <v>       0.36266460       0.61201417       0.24951900 </v>
   <v>       0.36022036       0.61157945       0.75069118 </v>
   <v>       0.85659683       0.10712123       0.25223519 </v>
   <v>       0.85981431       0.11078870       0.74802713 </v>
   <v>       0.85398510       0.60962341       0.24943033 </v>
   <v>       0.85942617       0.61067368       0.74934844 </v>
   <v>       0.13640781       0.39031971       0.74731455 </v>
   <v>       0.13906862       0.88792763       0.25056628 </v>
   <v>       0.13895049       0.88767743       0.74941097 </v>
   <v>       0.64049124       0.38976514       0.25020418 </v>
   <v>       0.63998508       0.38960714       0.75045042 </v>
   <v>       0.64323357       0.89303129       0.24950877 </v>
   <v>       0.63917597       0.88950352       0.75053785 </v>
   <v>       0.36094999       0.39024299       0.00077226 </v>
   <v>       0.35896073       0.38829927       0.49910068 </v>
   <v>       0.36102247       0.88980749       0.99950761 </v>
   <v>       0.35619483       0.89412376       0.50077019 </v>
   <v>       0.86064036       0.38922433       0.00077168 </v>
   <v>       0.85931142       0.88685395       0.00016568 </v>
   <v>       0.86022895       0.88947057       0.49967994 </v>
   <v>       0.14071550       0.11265450       0.00286484 </v>
   <v>       0.14356510       0.10652875       0.49640350 </v>
   <v>       0.14069398       0.61007346       0.99931953 </v>
   <v>       0.14379317       0.60657354       0.50133304 </v>
   <v>       0.63857819       0.11029279       0.00076172 </v>
   <v>       0.64182682       0.10753999       0.49952845 </v>
   <v>       0.63983054       0.61031459       0.00030533 </v>
   <v>       0.63864946       0.61472994       0.49981835 </v>
   <v>       0.10993297       0.36123788       0.99500026 </v>
   <v>       0.09953349       0.35407181       0.50410126 </v>
   <v>       0.11241651       0.85918709       0.00057523 </v>
   <v>       0.10766612       0.85638530       0.49940701 </v>
   <v>       0.61070167       0.36042991       0.99986936 </v>
   <v>       0.62570480       0.36601541       0.50016941 </v>
   <v>       0.60935810       0.86059703       0.99916900 </v>
   <v>       0.60845548       0.86102133       0.50066319 </v>
   <v>       0.38871878       0.14075798       0.00721195 </v>
   <v>       0.39137835       0.14281126       0.49238631 </v>
   <v>       0.38946602       0.63977703       0.00140578 </v>
   <v>       0.38801502       0.64275689       0.49853893 </v>
   <v>       0.88655788       0.13977728       0.99942760 </v>
   <v>       0.89410135       0.14751036       0.50060123 </v>
   <v>       0.88984450       0.63762900       0.00522231 </v>
   <v>       0.88520221       0.62723824       0.49434092 </v>
   <v>       0.99888506       0.99930105       0.12685394 </v>
   <v>       0.00075318       0.99938537       0.62390860 </v>
   <v>       0.01353537       0.49276418       0.12728278 </v>
   <v>       0.98109227       0.48961233       0.61981357 </v>
   <v>       0.50280692       0.00068110       0.12662267 </v>
   <v>       0.49793397       0.00175569       0.62283371 </v>
   <v>       0.50197989       0.49954710       0.12539872 </v>
   <v>       0.49884494       0.50000169       0.62612593 </v>
   <v>       0.99933261       0.99874340       0.37481778 </v>
   <v>       0.99953939       0.99964144       0.87404501 </v>
   <v>       0.99621532       0.48143194       0.37705737 </v>
   <v>       0.99974250       0.50582261       0.87471405 </v>
   <v>       0.49995033       0.99538812       0.37512445 </v>
   <v>       0.50024890       0.00536628       0.87530137 </v>
   <v>       0.50044732       0.49869700       0.37355262 </v>
   <v>       0.50053590       0.50153184       0.87540167 </v>
   <v>       0.23555680       0.26748082       0.36906003 </v>
   <v>       0.25244895       0.24844418       0.87714233 </v>
   <v>       0.25043195       0.75190089       0.37593711 </v>
   <v>       0.24836827       0.74836324       0.87406104 </v>
   <v>       0.76345855       0.26441302       0.37924736 </v>
   <v>       0.74648530       0.24713962       0.87436047 </v>
   <v>       0.74871052       0.75312021       0.37432043 </v>
   <v>       0.75136001       0.74758894       0.87544985 </v>
   <v>       0.23583432       0.26756083       0.13034495 </v>
   <v>       0.25221618       0.24710196       0.62214550 </v>
   <v>       0.24762347       0.74921170       0.12580697 </v>
   <v>       0.25163890       0.75100443       0.62435376 </v>
   <v>       0.74678458       0.24787960       0.12605673 </v>
   <v>       0.76405396       0.26405340       0.62162772 </v>
   <v>       0.74662959       0.75144445       0.12553804 </v>
   <v>       0.75257487       0.75039152       0.62421266 </v>
  </varray>
 </structure>
</modeling>
