       N       E                     dE             d eps       ncg     rms          rms(c)
DAV:   1    -0.115196604225E+04   -0.11520E+04   -0.52079E-02 13176   0.525E-01    0.274E-02
RMM:   2    -0.115196604247E+04   -0.22045E-06   -0.26118E-05  7012   0.850E-03    0.395E-02
RMM:   3    -0.115196604322E+04   -0.75475E-06   -0.99981E-06  6693   0.560E-03    0.627E-03
RMM:   4    -0.115196604403E+04   -0.81325E-06   -0.52728E-06  4430   0.315E-03    0.382E-03
RMM:   5    -0.115196604466E+04   -0.62741E-06   -0.33976E-06  4094   0.319E-03    0.661E-03
RMM:   6    -0.115196604512E+04   -0.45591E-06   -0.22472E-06  3350   0.239E-03    0.120E-03
RMM:   7    -0.115196604527E+04   -0.14876E-06   -0.12424E-06  2773   0.237E-03    0.695E-04
RMM:   8    -0.115196604539E+04   -0.12235E-06   -0.68380E-07  2193   0.200E-03
   1 F= -.11519660E+04 E0= -.11519660E+04  d E =-.115197E+04  mag=    20.0000
       N       E                     dE             d eps       ncg     rms          rms(c)
DAV:   1    -0.115196685166E+04   -0.80640E-03   -0.10381E+00 12880   0.119E+00    0.424E-01
RMM:   2    -0.115196853583E+04   -0.16842E-02   -0.34171E-02 12292   0.235E-01    0.413E-01
RMM:   3    -0.115196816031E+04    0.37552E-03   -0.15919E-03 12445   0.674E-02    0.264E-01
RMM:   4    -0.115196789198E+04    0.26833E-03   -0.97038E-04 11990   0.338E-02    0.147E-01
RMM:   5    -0.115196781297E+04    0.79017E-04   -0.18185E-04  8334   0.208E-02    0.708E-02
RMM:   6    -0.115196781563E+04   -0.26644E-05   -0.63473E-05  7206   0.106E-02    0.349E-02
RMM:   7    -0.115196781449E+04    0.11428E-05   -0.24609E-05  7114   0.871E-03    0.307E-02
RMM:   8    -0.115196781263E+04    0.18532E-05   -0.18171E-05  6811   0.476E-03
   2 F= -.11519678E+04 E0= -.11519678E+04  d E =-.176724E-02  mag=    20.0000
       N       E                     dE             d eps       ncg     rms          rms(c)
DAV:   1    -0.115196808006E+04   -0.26557E-03   -0.90580E-02 13376   0.351E-01    0.125E-01
RMM:   2    -0.115196822629E+04   -0.14623E-03   -0.29712E-03 12243   0.696E-02    0.122E-01
RMM:   3    -0.115196818817E+04    0.38114E-04   -0.10095E-04  7252   0.191E-02    0.803E-02
RMM:   4    -0.115196816525E+04    0.22922E-04   -0.80127E-05  6838   0.116E-02    0.537E-02
RMM:   5    -0.115196816109E+04    0.41645E-05   -0.24049E-05  6607   0.773E-03    0.350E-02
RMM:   6    -0.115196816227E+04   -0.11787E-05   -0.86596E-06  5739   0.403E-03    0.959E-03
RMM:   7    -0.115196816330E+04   -0.10302E-05   -0.29657E-06  4498   0.305E-03    0.966E-03
RMM:   8    -0.115196816422E+04   -0.92151E-06   -0.15980E-06  3273   0.233E-03
   3 F= -.11519682E+04 E0= -.11519682E+04  d E =-.211883E-02  mag=    20.0000
       N       E                     dE             d eps       ncg     rms          rms(c)
DAV:   1    -0.115196839433E+04   -0.23103E-03   -0.10556E+00 12640   0.121E+00    0.267E-01
RMM:   2    -0.115197076799E+04   -0.23737E-02   -0.26739E-02 12319   0.205E-01    0.200E-01
RMM:   3    -0.115197072869E+04    0.39297E-04   -0.12541E-03 11854   0.669E-02    0.128E-01
RMM:   4    -0.115197066083E+04    0.67862E-04   -0.41920E-04 10145   0.220E-02    0.688E-02
RMM:   5    -0.115197064522E+04    0.15602E-04   -0.85897E-05  7254   0.138E-02    0.264E-02
RMM:   6    -0.115197064849E+04   -0.32684E-05   -0.27761E-05  7044   0.812E-03    0.136E-02
RMM:   7    -0.115197064970E+04   -0.12091E-05   -0.15168E-05  6614   0.570E-03    0.898E-03
RMM:   8    -0.115197065040E+04   -0.69651E-06   -0.96498E-06  6278   0.463E-03
   4 F= -.11519707E+04 E0= -.11519707E+04  d E =-.248618E-02  mag=    20.0000
       N       E                     dE             d eps       ncg     rms          rms(c)
DAV:   1    -0.115196894262E+04    0.17071E-02   -0.11992E+00 12560   0.129E+00    0.284E-01
RMM:   2    -0.115197166548E+04   -0.27229E-02   -0.30651E-02 12349   0.220E-01    0.214E-01
RMM:   3    -0.115197161964E+04    0.45845E-04   -0.14607E-03 12022   0.704E-02    0.136E-01
RMM:   4    -0.115197154524E+04    0.74399E-04   -0.51711E-04 10926   0.234E-02    0.725E-02
RMM:   5    -0.115197152618E+04    0.19066E-04   -0.10259E-04  7385   0.149E-02    0.285E-02
RMM:   6    -0.115197153022E+04   -0.40433E-05   -0.35448E-05  7096   0.894E-03    0.156E-02
RMM:   7    -0.115197153187E+04   -0.16527E-05   -0.19970E-05  6796   0.656E-03    0.104E-02
RMM:   8    -0.115197153292E+04   -0.10455E-05   -0.13864E-05  6508   0.522E-03
   5 F= -.11519715E+04 E0= -.11519715E+04  d E =-.336870E-02  mag=    20.0000
       N       E                     dE             d eps       ncg     rms          rms(c)
DAV:   1    -0.115197188588E+04   -0.35401E-03   -0.57516E-01 12848   0.886E-01    0.176E-01
RMM:   2    -0.115197317531E+04   -0.12894E-02   -0.14617E-02 12346   0.150E-01    0.136E-01
RMM:   3    -0.115197314471E+04    0.30600E-04   -0.67469E-04 10709   0.480E-02    0.873E-02
RMM:   4    -0.115197311493E+04    0.29784E-04   -0.21175E-04  7693   0.161E-02    0.547E-02
RMM:   5    -0.115197310677E+04    0.81526E-05   -0.51627E-05  7060   0.106E-02    0.319E-02
RMM:   6    -0.115197310977E+04   -0.29955E-05   -0.23292E-05  6958   0.680E-03    0.124E-02
RMM:   7    -0.115197311161E+04   -0.18398E-05   -0.12617E-05  6685   0.553E-03    0.111E-02
RMM:   8    -0.115197311287E+04   -0.12622E-05   -0.84540E-06  5761   0.402E-03
   6 F= -.11519731E+04 E0= -.11519731E+04  d E =-.157995E-02  mag=    20.0000
       N       E                     dE             d eps       ncg     rms          rms(c)
DAV:   1    -0.115197076771E+04    0.23439E-02   -0.15920E+00 12784   0.147E+00    0.294E-01
RMM:   2    -0.115197431193E+04   -0.35442E-02   -0.40253E-02 12337   0.248E-01    0.225E-01
RMM:   3    -0.115197423381E+04    0.78119E-04   -0.18968E-03 12061   0.811E-02    0.144E-01
RMM:   4    -0.115197415391E+04    0.79895E-04   -0.62643E-04 11737   0.261E-02    0.889E-02
RMM:   5    -0.115197412249E+04    0.31425E-04   -0.11445E-04  7329   0.154E-02    0.390E-02
RMM:   6    -0.115197412891E+04   -0.64243E-05   -0.47895E-05  7107   0.985E-03    0.156E-02
RMM:   7    -0.115197413244E+04   -0.35277E-05   -0.25353E-05  7015   0.746E-03    0.125E-02
RMM:   8    -0.115197413474E+04   -0.22993E-05   -0.16248E-05  6441   0.563E-03
   7 F= -.11519741E+04 E0= -.11519741E+04  d E =-.260182E-02  mag=    20.0000
       N       E                     dE             d eps       ncg     rms          rms(c)
DAV:   1    -0.115197427663E+04   -0.14419E-03   -0.60922E-01 12400   0.897E-01    0.178E-01
RMM:   2    -0.115197562542E+04   -0.13488E-02   -0.15393E-02 12368   0.154E-01    0.137E-01
RMM:   3    -0.115197559546E+04    0.29950E-04   -0.73281E-04 10868   0.497E-02    0.888E-02
RMM:   4    -0.115197555732E+04    0.38141E-04   -0.23531E-04  7974   0.168E-02    0.544E-02
RMM:   5    -0.115197554685E+04    0.10470E-04   -0.58503E-05  7100   0.109E-02    0.354E-02
RMM:   6    -0.115197554933E+04   -0.24747E-05   -0.22087E-05  6839   0.696E-03    0.125E-02
RMM:   7    -0.115197555023E+04   -0.89855E-06   -0.12072E-05  6460   0.498E-03    0.115E-02
RMM:   8    -0.115197555069E+04   -0.46239E-06   -0.74616E-06  5933   0.413E-03
   8 F= -.11519756E+04 E0= -.11519756E+04  d E =-.141595E-02  mag=    20.0000
       N       E                     dE             d eps       ncg     rms          rms(c)
DAV:   1    -0.115197461983E+04    0.93040E-03   -0.72088E-01 12320   0.975E-01    0.194E-01
RMM:   2    -0.115197621005E+04   -0.15902E-02   -0.18155E-02 12349   0.166E-01    0.150E-01
RMM:   3    -0.115197617299E+04    0.37062E-04   -0.85252E-04 11287   0.535E-02    0.964E-02
RMM:   4    -0.115197612700E+04    0.45988E-04   -0.27393E-04  8367   0.178E-02    0.599E-02
RMM:   5    -0.115197611376E+04    0.13236E-04   -0.63976E-05  7150   0.115E-02    0.403E-02
RMM:   6    -0.115197611652E+04   -0.27546E-05   -0.24255E-05  6885   0.736E-03    0.126E-02
RMM:   7    -0.115197611744E+04   -0.92076E-06   -0.12793E-05  6552   0.515E-03    0.123E-02
RMM:   8    -0.115197611792E+04   -0.48078E-06   -0.79212E-06  6094   0.427E-03
   9 F= -.11519761E+04 E0= -.11519761E+04  d E =-.198318E-02  mag=    20.0000
       N       E                     dE             d eps       ncg     rms          rms(c)
DAV:   1    -0.115197580445E+04    0.31299E-03   -0.83658E-01 12400   0.105E+00    0.201E-01
RMM:   2    -0.115197768604E+04   -0.18816E-02   -0.20898E-02 12335   0.177E-01    0.148E-01
RMM:   3    -0.115197764823E+04    0.37805E-04   -0.97538E-04 11358   0.574E-02    0.948E-02
RMM:   4    -0.115197760413E+04    0.44105E-04   -0.28007E-04  8334   0.179E-02    0.678E-02
RMM:   5    -0.115197758851E+04    0.15619E-04   -0.64328E-05  7110   0.116E-02    0.348E-02
RMM:   6    -0.115197759109E+04   -0.25793E-05   -0.28046E-05  6900   0.745E-03    0.122E-02
RMM:   7    -0.115197759191E+04   -0.82153E-06   -0.13925E-05  6600   0.559E-03    0.115E-02
RMM:   8    -0.115197759237E+04   -0.45680E-06   -0.86818E-06  5641   0.413E-03
  10 F= -.11519776E+04 E0= -.11519776E+04  d E =-.147444E-02  mag=    20.0000
       N       E                     dE             d eps       ncg     rms          rms(c)
DAV:   1    -0.115197368802E+04    0.39039E-02   -0.22366E+00 12384   0.171E+00    0.329E-01
RMM:   2    -0.115197870962E+04   -0.50216E-02   -0.55714E-02 12327   0.289E-01    0.242E-01
RMM:   3    -0.115197861438E+04    0.95245E-04   -0.26163E-03 12096   0.943E-02    0.155E-01
RMM:   4    -0.115197850183E+04    0.11255E-03   -0.78261E-04 12380   0.290E-02    0.105E-01
RMM:   5    -0.115197845789E+04    0.43932E-04   -0.16396E-04  7780   0.168E-02    0.471E-02
RMM:   6    -0.115197846345E+04   -0.55577E-05   -0.58902E-05  7152   0.107E-02    0.169E-02
RMM:   7    -0.115197846554E+04   -0.20853E-05   -0.29280E-05  6980   0.774E-03    0.140E-02
RMM:   8    -0.115197846626E+04   -0.71849E-06   -0.19116E-05  6637   0.614E-03
  11 F= -.11519785E+04 E0= -.11519785E+04  d E =-.234833E-02  mag=    20.0000
       N       E                     dE             d eps       ncg     rms          rms(c)
DAV:   1    -0.115197748706E+04    0.97848E-03   -0.98512E-01 12848   0.114E+00    0.213E-01
RMM:   2    -0.115197974574E+04   -0.22587E-02   -0.24271E-02 12395   0.190E-01    0.152E-01
RMM:   3    -0.115197972579E+04    0.19947E-04   -0.11741E-03 11514   0.631E-02    0.968E-02
RMM:   4    -0.115197967871E+04    0.47082E-04   -0.32785E-04  8701   0.194E-02    0.594E-02
RMM:   5    -0.115197967024E+04    0.84661E-05   -0.71525E-05  7134   0.123E-02    0.297E-02
RMM:   6    -0.115197967457E+04   -0.43270E-05   -0.30010E-05  7015   0.781E-03    0.116E-02
RMM:   7    -0.115197967678E+04   -0.22086E-05   -0.16509E-05  6772   0.596E-03    0.949E-03
RMM:   8    -0.115197967832E+04   -0.15460E-05   -0.10989E-05  6309   0.459E-03
  12 F= -.11519797E+04 E0= -.11519797E+04  d E =-.121207E-02  mag=    20.0000
       N       E                     dE             d eps       ncg     rms          rms(c)
DAV:   1    -0.115197622182E+04    0.34550E-02   -0.18593E+00 12688   0.156E+00    0.292E-01
RMM:   2    -0.115198045863E+04   -0.42368E-02   -0.45555E-02 12366   0.259E-01    0.209E-01
RMM:   3    -0.115198041945E+04    0.39181E-04   -0.21608E-03 12037   0.856E-02    0.133E-01
RMM:   4    -0.115198033164E+04    0.87812E-04   -0.62793E-04 11823   0.261E-02    0.856E-02
RMM:   5    -0.115198031264E+04    0.18996E-04   -0.11579E-04  7288   0.150E-02    0.385E-02
RMM:   6    -0.115198031954E+04   -0.68961E-05   -0.48340E-05  7109   0.959E-03    0.138E-02
RMM:   7    -0.115198032287E+04   -0.33347E-05   -0.25866E-05  6947   0.724E-03    0.112E-02
RMM:   8    -0.115198032492E+04   -0.20499E-05   -0.16554E-05  6451   0.546E-03
  13 F= -.11519803E+04 E0= -.11519803E+04  d E =-.185866E-02  mag=    20.0000
       N       E                     dE             d eps       ncg     rms          rms(c)
DAV:   1    -0.115197941822E+04    0.90465E-03   -0.97319E-01 12512   0.112E+00    0.218E-01
RMM:   2    -0.115198163131E+04   -0.22131E-02   -0.23780E-02 12432   0.187E-01    0.147E-01
RMM:   3    -0.115198160693E+04    0.24381E-04   -0.11453E-03 11460   0.617E-02    0.924E-02
RMM:   4    -0.115198154629E+04    0.60630E-04   -0.33196E-04  8846   0.195E-02    0.498E-02
RMM:   5    -0.115198154009E+04    0.62008E-05   -0.70787E-05  7147   0.122E-02    0.340E-02
RMM:   6    -0.115198154304E+04   -0.29470E-05   -0.27888E-05  6925   0.765E-03    0.132E-02
RMM:   7    -0.115198154435E+04   -0.13106E-05   -0.15401E-05  6607   0.564E-03    0.107E-02
RMM:   8    -0.115198154504E+04   -0.68960E-06   -0.10080E-05  6217   0.449E-03
  14 F= -.11519815E+04 E0= -.11519815E+04  d E =-.122012E-02  mag=    20.0000
