<?xml version="1.0" encoding="ISO-8859-1"?>
<modeling>
 <generator>
  <i name="program" type="string">vasp </i>
  <i name="version" type="string">5.4.1  </i>
  <i name="subversion" type="string">05Feb16 (build Jan 25 2017 20:16:33) complex                          parallel </i>
  <i name="platform" type="string">BWXE6 </i>
  <i name="date" type="string">2019 06 20 </i>
  <i name="time" type="string">10:46:13 </i>
 </generator>
 <incar>
  <i type="string" name="SYSTEM"> STF</i>
  <i type="string" name="PREC">normal</i>
  <i type="string" name="ALGO"> Fast</i>
  <i type="int" name="ISPIN">     2</i>
  <i type="int" name="NELM">    40</i>
  <i type="int" name="NELMIN">     8</i>
  <i type="int" name="IBRION">     2</i>
  <i name="EDIFF">      0.00010000</i>
  <i name="EDIFFG">     -0.03000000</i>
  <i type="int" name="NSW">    30</i>
  <i type="int" name="ISIF">     3</i>
  <i name="ENCUT">    520.00000000</i>
  <i type="int" name="NBANDS">   768</i>
  <v name="MAGMOM">      0.60000000      0.60000000      0.60000000      0.60000000      0.60000000      0.60000000      0.60000000      0.60000000      0.60000000      0.60000000      0.60000000      0.60000000      0.60000000      0.60000000      0.60000000      0.60000000      0.60000000      0.60000000      0.60000000      0.60000000
      0.60000000      0.60000000      0.60000000      0.60000000      0.60000000      0.60000000      0.60000000      0.60000000      0.60000000      0.60000000      0.60000000      0.60000000      0.60000000      0.60000000      0.60000000      0.60000000      0.60000000      0.60000000      0.60000000      0.60000000
      0.60000000      0.60000000      0.60000000      0.60000000      0.60000000      0.60000000      0.60000000      0.60000000      0.60000000      0.60000000      0.60000000      0.60000000      0.60000000      0.60000000      0.60000000      0.60000000      0.60000000      0.60000000      0.60000000      0.60000000
      5.00000000      5.00000000      5.00000000      5.00000000      0.60000000      0.60000000      0.60000000      0.60000000      0.60000000      0.60000000      0.60000000      0.60000000      0.60000000      0.60000000      0.60000000      0.60000000      0.60000000      0.60000000      0.60000000      0.60000000
      0.60000000      0.60000000      0.60000000      0.60000000      0.60000000      0.60000000      0.60000000      0.60000000      0.60000000      0.60000000      0.60000000      0.60000000      0.60000000      0.60000000      0.60000000      0.60000000      0.60000000      0.60000000      0.60000000      0.60000000
      0.60000000      0.60000000      0.60000000      0.60000000      0.60000000      0.60000000      0.60000000      0.60000000      0.60000000      0.60000000      0.60000000      0.60000000      0.60000000      0.60000000      0.60000000      0.60000000      0.60000000      0.60000000      0.60000000      0.60000000
      0.60000000      0.60000000      0.60000000      0.60000000      0.60000000      0.60000000      0.60000000      0.60000000      0.60000000      0.60000000      0.60000000      0.60000000      0.60000000      0.60000000      0.60000000      0.60000000      0.60000000      0.60000000      0.60000000      0.60000000
      0.60000000      0.60000000      0.60000000      0.60000000      0.60000000      0.60000000      0.60000000      0.60000000      0.60000000      0.60000000      0.60000000      0.60000000      0.60000000      0.60000000      0.60000000      0.60000000      0.60000000      0.60000000</v>
  <i type="string" name="LREAL"> Auto</i>
  <i type="int" name="ISMEAR">     0</i>
  <i name="SIGMA">      0.05000000</i>
  <i type="int" name="LMAXMIX">     4</i>
  <v type="int" name="KPOINT_BSE">    -1     0     0     0</v>
  <i type="int" name="NELM">    40</i>
  <i type="logical" name="LDAU"> T  </i>
  <v type="int" name="LDAUTYPE">     2</v>
  <v type="int" name="LDAUL">     0     2     2     0</v>
  <v name="LDAUU">      0.00000000      3.00000000      5.00000000      0.00000000</v>
  <v name="LDAUJ">      0.00000000      0.00000000      0.00000000      0.00000000</v>
  <i type="int" name="LDAUPRINT">     1</i>
 </incar>
 <kpoints>
  <generation param="Monkhorst-Pack">
   <v type="int" name="divisions">       2        2        2 </v>
   <v name="usershift">      0.00000000       0.00000000       0.00000000 </v>
   <v name="genvec1">      0.50000000       0.00000000       0.00000000 </v>
   <v name="genvec2">      0.00000000       0.50000000       0.00000000 </v>
   <v name="genvec3">      0.00000000       0.00000000       0.50000000 </v>
   <v name="shift">      0.50000000       0.50000000       0.50000000 </v>
  </generation>
  <varray name="kpointlist" >
   <v>       0.25000000       0.25000000       0.25000000 </v>
   <v>      -0.25000000       0.25000000       0.25000000 </v>
   <v>       0.25000000      -0.25000000       0.25000000 </v>
   <v>      -0.25000000      -0.25000000       0.25000000 </v>
  </varray>
  <varray name="weights" >
   <v>       0.25000000 </v>
   <v>       0.25000000 </v>
   <v>       0.25000000 </v>
   <v>       0.25000000 </v>
  </varray>
 </kpoints>
 <parameters>
  <separator name="general" >
   <i type="string" name="SYSTEM">STF</i>
   <i type="logical" name="LCOMPAT"> F  </i>
  </separator>
  <separator name="electronic" >
   <i type="string" name="PREC">normal</i>
   <i name="ENMAX">    520.00000000</i>
   <i name="ENAUG">    605.39200000</i>
   <i name="EDIFF">      0.00010000</i>
   <i type="int" name="IALGO">    68</i>
   <i type="int" name="IWAVPR">    11</i>
   <i type="int" name="NBANDS">   768</i>
   <i name="NELECT">   1028.00000000</i>
   <i type="int" name="TURBO">     0</i>
   <i type="int" name="IRESTART">     0</i>
   <i type="int" name="NREBOOT">     0</i>
   <i type="int" name="NMIN">     0</i>
   <i name="EREF">      0.00000000</i>
   <separator name="electronic smearing" >
    <i type="int" name="ISMEAR">     0</i>
    <i name="SIGMA">      0.05000000</i>
    <i name="KSPACING">      0.50000000</i>
    <i type="logical" name="KGAMMA"> T  </i>
   </separator>
   <separator name="electronic projectors" >
    <i type="logical" name="LREAL"> T  </i>
    <v name="ROPT">     -0.00050000     -0.00050000     -0.00050000     -0.00050000</v>
    <i type="int" name="LMAXPAW">  -100</i>
    <i type="int" name="LMAXMIX">     4</i>
    <i type="logical" name="NLSPLINE"> F  </i>
   </separator>
   <separator name="electronic startup" >
    <i type="int" name="ISTART">     1</i>
    <i type="int" name="ICHARG">     0</i>
    <i type="int" name="INIWAV">     1</i>
   </separator>
   <separator name="electronic spin" >
    <i type="int" name="ISPIN">     2</i>
    <i type="logical" name="LNONCOLLINEAR"> F  </i>
    <v name="MAGMOM">      0.60000000      0.60000000      0.60000000      0.60000000      0.60000000      0.60000000      0.60000000      0.60000000      0.60000000      0.60000000      0.60000000      0.60000000      0.60000000      0.60000000      0.60000000      0.60000000      0.60000000      0.60000000      0.60000000      0.60000000
      0.60000000      0.60000000      0.60000000      0.60000000      0.60000000      0.60000000      0.60000000      0.60000000      0.60000000      0.60000000      0.60000000      0.60000000      0.60000000      0.60000000      0.60000000      0.60000000      0.60000000      0.60000000      0.60000000      0.60000000
      0.60000000      0.60000000      0.60000000      0.60000000      0.60000000      0.60000000      0.60000000      0.60000000      0.60000000      0.60000000      0.60000000      0.60000000      0.60000000      0.60000000      0.60000000      0.60000000      0.60000000      0.60000000      0.60000000      0.60000000
      5.00000000      5.00000000      5.00000000      5.00000000      0.60000000      0.60000000      0.60000000      0.60000000      0.60000000      0.60000000      0.60000000      0.60000000      0.60000000      0.60000000      0.60000000      0.60000000      0.60000000      0.60000000      0.60000000      0.60000000
      0.60000000      0.60000000      0.60000000      0.60000000      0.60000000      0.60000000      0.60000000      0.60000000      0.60000000      0.60000000      0.60000000      0.60000000      0.60000000      0.60000000      0.60000000      0.60000000      0.60000000      0.60000000      0.60000000      0.60000000
      0.60000000      0.60000000      0.60000000      0.60000000      0.60000000      0.60000000      0.60000000      0.60000000      0.60000000      0.60000000      0.60000000      0.60000000      0.60000000      0.60000000      0.60000000      0.60000000      0.60000000      0.60000000      0.60000000      0.60000000
      0.60000000      0.60000000      0.60000000      0.60000000      0.60000000      0.60000000      0.60000000      0.60000000      0.60000000      0.60000000      0.60000000      0.60000000      0.60000000      0.60000000      0.60000000      0.60000000      0.60000000      0.60000000      0.60000000      0.60000000
      0.60000000      0.60000000      0.60000000      0.60000000      0.60000000      0.60000000      0.60000000      0.60000000      0.60000000      0.60000000      0.60000000      0.60000000      0.60000000      0.60000000      0.60000000      0.60000000      0.60000000      0.60000000</v>
    <i name="NUPDOWN">     -1.00000000</i>
    <i type="logical" name="LSORBIT"> F  </i>
    <v name="SAXIS">      0.00000000      0.00000000      1.00000000</v>
    <i type="logical" name="LSPIRAL"> F  </i>
    <v name="QSPIRAL">      0.00000000      0.00000000      0.00000000</v>
    <i type="logical" name="LZEROZ"> F  </i>
   </separator>
   <separator name="electronic exchange-correlation" >
    <i type="logical" name="LASPH"> F  </i>
    <i type="logical" name="LMETAGGA"> F  </i>
   </separator>
   <separator name="electronic convergence" >
    <i type="int" name="NELM">    40</i>
    <i type="int" name="NELMDL">     0</i>
    <i type="int" name="NELMIN">     8</i>
    <i name="ENINI">    520.00000000</i>
    <separator name="electronic convergence detail" >
     <i type="logical" name="LDIAG"> T  </i>
     <i type="logical" name="LSUBROT"> F  </i>
     <i name="WEIMIN">      0.00100000</i>
     <i name="EBREAK">      0.00000003</i>
     <i name="DEPER">      0.30000000</i>
     <i type="int" name="NRMM">     4</i>
     <i name="TIME">      0.40000000</i>
    </separator>
   </separator>
   <separator name="electronic mixer" >
    <i name="AMIX">      0.40000000</i>
    <i name="BMIX">      1.00000000</i>
    <i name="AMIN">      0.10000000</i>
    <i name="AMIX_MAG">      1.60000000</i>
    <i name="BMIX_MAG">      1.00000000</i>
    <separator name="electronic mixer details" >
     <i type="int" name="IMIX">     4</i>
     <i type="logical" name="MIXFIRST"> F  </i>
     <i type="int" name="MAXMIX">   -45</i>
     <i name="WC">    100.00000000</i>
     <i type="int" name="INIMIX">     1</i>
     <i type="int" name="MIXPRE">     1</i>
     <i type="int" name="MREMOVE">     5</i>
    </separator>
   </separator>
   <separator name="electronic dipolcorrection" >
    <i type="logical" name="LDIPOL"> F  </i>
    <i type="logical" name="LMONO"> F  </i>
    <i type="int" name="IDIPOL">     0</i>
    <i name="EPSILON">      1.00000000</i>
    <v name="DIPOL">   -100.00000000   -100.00000000   -100.00000000</v>
    <i name="EFIELD">      0.00000000</i>
   </separator>
  </separator>
  <separator name="grids" >
   <i type="int" name="NGX">    64</i>
   <i type="int" name="NGY">    64</i>
   <i type="int" name="NGZ">    90</i>
   <i type="int" name="NGXF">   128</i>
   <i type="int" name="NGYF">   128</i>
   <i type="int" name="NGZF">   180</i>
   <i type="logical" name="ADDGRID"> F  </i>
  </separator>
  <separator name="ionic" >
   <i type="int" name="NSW">    30</i>
   <i type="int" name="IBRION">     2</i>
   <i type="int" name="ISIF">     3</i>
   <i name="PSTRESS">      0.00000000</i>
   <i name="EDIFFG">     -0.03000000</i>
   <i type="int" name="NFREE">     1</i>
   <i name="POTIM">      0.50000000</i>
   <i name="SMASS">     -3.00000000</i>
   <i name="SCALEE">      1.00000000</i>
  </separator>
  <separator name="ionic md" >
   <i name="TEBEG">      0.00010000</i>
   <i name="TEEND">      0.00010000</i>
   <i type="int" name="NBLOCK">     1</i>
   <i type="int" name="KBLOCK">    30</i>
   <i type="int" name="NPACO">   256</i>
   <i name="APACO">     16.00000000</i>
  </separator>
  <separator name="symmetry" >
   <i type="int" name="ISYM">     2</i>
   <i name="SYMPREC">      0.00001000</i>
  </separator>
  <separator name="dos" >
   <i type="logical" name="LORBIT"> F  </i>
   <v name="RWIGS">     -1.00000000     -1.00000000     -1.00000000     -1.00000000</v>
   <i type="int" name="NEDOS">   301</i>
   <i name="EMIN">     10.00000000</i>
   <i name="EMAX">    -10.00000000</i>
   <i name="EFERMI">      0.00000000</i>
  </separator>
  <separator name="writing" >
   <i type="int" name="NWRITE">     2</i>
   <i type="logical" name="LWAVE"> T  </i>
   <i type="logical" name="LCHARG"> T  </i>
   <i type="logical" name="LPARD"> F  </i>
   <i type="logical" name="LVTOT"> F  </i>
   <i type="logical" name="LVHAR"> F  </i>
   <i type="logical" name="LELF"> F  </i>
   <i type="logical" name="LOPTICS"> F  </i>
   <v name="STM">      0.00000000      0.00000000      0.00000000      0.00000000      0.00000000      0.00000000      0.00000000</v>
  </separator>
  <separator name="performance" >
   <i type="int" name="NPAR">     2</i>
   <i type="int" name="NSIM">     4</i>
   <i type="int" name="NBLK">    -1</i>
   <i type="logical" name="LPLANE"> T  </i>
   <i type="logical" name="LSCALAPACK"> T  </i>
   <i type="logical" name="LSCAAWARE"> F  </i>
   <i type="logical" name="LSCALU"> F  </i>
   <i type="logical" name="LASYNC"> F  </i>
   <i type="logical" name="LORBITALREAL"> F  </i>
  </separator>
  <separator name="miscellaneous" >
   <i type="int" name="IDIOT">     3</i>
   <i type="logical" name="LMUSIC"> F  </i>
   <v name="POMASS">     87.62000000     47.88000000     55.84700000     16.00000000</v>
   <v name="DARWINR">      0.00000000      0.00000000      0.00000000      0.00000000</v>
   <v name="DARWINV">      1.00000000      1.00000000      1.00000000      1.00000000</v>
   <i type="logical" name="LCORR"> T  </i>
  </separator>
  <i type="logical" name="GGA_COMPAT"> T  </i>
  <i type="logical" name="LBERRY"> F  </i>
  <i type="int" name="ICORELEVEL">     0</i>
  <i type="logical" name="LDAU"> T  </i>
  <v type="int" name="LDAUTYPE">     2</v>
  <v type="int" name="LDAUL">     0</v>
  <v name="LDAUU">      0.00000000</v>
  <v name="LDAUJ">      0.00000000</v>
  <i type="int" name="LDAUPRINT">     1</i>
  <i type="int" name="I_CONSTRAINED_M">     0</i>
  <separator name="electronic exchange-correlation" >
   <i type="string" name="GGA">--</i>
   <i type="int" name="VOSKOWN">     0</i>
   <i type="logical" name="LHFCALC"> F  </i>
   <i type="string" name="PRECFOCK"></i>
   <i type="logical" name="LSYMGRAD"> F  </i>
   <i type="logical" name="LHFONE"> F  </i>
   <i type="logical" name="LRHFCALC"> F  </i>
   <i type="logical" name="LTHOMAS"> F  </i>
   <i type="logical" name="LMODELHF"> F  </i>
   <i name="ENCUT4O">     -1.00000000</i>
   <i type="int" name="EXXOEP">     0</i>
   <i type="int" name="FOURORBIT">     0</i>
   <i name="AEXX">      0.00000000</i>
   <i name="HFALPHA">      0.00000000</i>
   <i name="MCALPHA">      0.00000000</i>
   <i name="ALDAX">      1.00000000</i>
   <i name="AGGAX">      1.00000000</i>
   <i name="ALDAC">      1.00000000</i>
   <i name="AGGAC">      1.00000000</i>
   <i type="int" name="NKREDX">     1</i>
   <i type="int" name="NKREDY">     1</i>
   <i type="int" name="NKREDZ">     1</i>
   <i type="logical" name="SHIFTRED"> F  </i>
   <i type="logical" name="ODDONLY"> F  </i>
   <i type="logical" name="EVENONLY"> F  </i>
   <i type="int" name="LMAXFOCK">     0</i>
   <i type="int" name="NMAXFOCKAE">     0</i>
   <i type="logical" name="LFOCKAEDFT"> F  </i>
   <i name="HFSCREEN">      0.00000000</i>
   <i name="HFSCREENC">      0.00000000</i>
   <i type="int" name="NBANDSGWLOW">     0</i>
  </separator>
  <separator name="vdW DFT" >
   <i type="logical" name="LUSE_VDW"> F  </i>
   <i name="Zab_VDW">     -0.84910000</i>
   <i name="PARAM1">      0.12340000</i>
   <i name="PARAM2">      1.00000000</i>
   <i name="PARAM3">      0.00000000</i>
  </separator>
  <separator name="model GW" >
   <i type="int" name="MODEL_GW">     0</i>
   <i name="MODEL_EPS0">      7.62989541</i>
   <i name="MODEL_ALPHA">      1.00000000</i>
  </separator>
  <separator name="linear response parameters" >
   <i type="logical" name="LEPSILON"> F  </i>
   <i type="logical" name="LRPA"> F  </i>
   <i type="logical" name="LNABLA"> F  </i>
   <i type="logical" name="LVEL"> F  </i>
   <i type="int" name="KINTER">     0</i>
   <i name="CSHIFT">      0.10000000</i>
   <i name="OMEGAMAX">     -1.00000000</i>
   <i name="DEG_THRESHOLD">      0.00200000</i>
  </separator>
  <separator name="orbital magnetization" >
   <i type="logical" name="NUCIND"> F  </i>
   <v name="MAGPOS">      0.00000000      0.00000000      0.00000000</v>
   <i type="logical" name="LNICSALL"> T  </i>
   <i type="logical" name="ORBITALMAG"> F  </i>
   <i type="logical" name="LMAGBLOCH"> F  </i>
   <i type="logical" name="LCHIMAG"> F  </i>
   <i type="logical" name="LGAUGE"> T  </i>
   <i type="int" name="MAGATOM">     0</i>
   <v name="MAGDIPOL">      0.00000000      0.00000000      0.00000000</v>
   <v name="AVECCONST">      0.00000000      0.00000000      0.00000000</v>
  </separator>
  <separator name="response functions" >
   <i type="logical" name="LADDER"> F  </i>
   <i type="logical" name="LFXC"> F  </i>
   <i type="logical" name="LHARTREE"> T  </i>
   <i type="int" name="IBSE">     0</i>
   <v type="int" name="KPOINT">    -1     0     0     0</v>
   <i type="logical" name="LTCTE"> F  </i>
   <i type="logical" name="LTETE"> F  </i>
   <i type="logical" name="LTRIPLET"> F  </i>
   <i type="logical" name="LFXCEPS"> F  </i>
   <i type="logical" name="LFXHEG"> F  </i>
   <i type="int" name="NATURALO">     0</i>
   <i type="logical" name="L2ORDER"> F  </i>
   <i type="logical" name="LUSEW"> F  </i>
   <i name="ENCUTGW">     -2.00000000</i>
   <i name="ENCUTGWSOFT">     -2.00000000</i>
   <i name="ENCUTLF">     -1.00000000</i>
   <i type="int" name="LMAXMP2">    -1</i>
   <i name="SCISSOR">      0.00000000</i>
   <i type="int" name="NOMEGA">     0</i>
   <i type="int" name="NOMEGAR">     0</i>
   <i type="int" name="NBANDSGW">    -1</i>
   <i type="int" name="NBANDSO">    -1</i>
   <i type="int" name="NBANDSV">    -1</i>
   <i type="int" name="NELM">    40</i>
   <i type="int" name="NELMHF">     1</i>
   <i type="int" name="DIM">     3</i>
   <i type="int" name="ANTIRES">     0</i>
   <i name="OMEGAMAX">    -30.00000000</i>
   <i name="OMEGAMIN">    -30.00000000</i>
   <i name="OMEGATL">   -200.00000000</i>
   <i type="int" name="OMEGAGRID">     0</i>
   <i name="CSHIFT">     -0.10000000</i>
   <i type="logical" name="SELFENERGY"> F  </i>
   <i type="logical" name="LSPECTRAL"> F  </i>
   <i type="logical" name="LSPECTRALGW"> F  </i>
   <i type="logical" name="LSINGLES"> F  </i>
   <i type="logical" name="LFERMIGW"> F  </i>
   <i type="logical" name="ODDONLYGW"> F  </i>
   <i type="logical" name="EVENONLYGW"> F  </i>
   <i type="int" name="NKREDLFX">     1</i>
   <i type="int" name="NKREDLFY">     1</i>
   <i type="int" name="NKREDLFZ">     1</i>
   <i type="int" name="MAXMEM">  1800</i>
   <i type="int" name="TELESCOPE">     0</i>
   <i type="int" name="TAUPAR">     1</i>
   <i type="int" name="OMEGAPAR">    -1</i>
   <i name="LAMBDA">      1.00000000</i>
  </separator>
  <separator name="External order field" >
   <i name="OFIELD_KAPPA">      0.00000000</i>
   <v name="OFIELD_K">      0.00000000      0.00000000      0.00000000</v>
   <i name="OFIELD_Q6_NEAR">      0.00000000</i>
   <i name="OFIELD_Q6_FAR">      0.00000000</i>
   <i name="OFIELD_A">      0.00000000</i>
  </separator>
 </parameters>
 <atominfo>
  <atoms>     158 </atoms>
  <types>       4 </types>
  <array name="atoms" >
   <dimension dim="1">ion</dimension>
   <field type="string">element</field>
   <field type="int">atomtype</field>
   <set>
    <rc><c>Sr</c><c>   1</c></rc>
    <rc><c>Sr</c><c>   1</c></rc>
    <rc><c>Sr</c><c>   1</c></rc>
    <rc><c>Sr</c><c>   1</c></rc>
    <rc><c>Sr</c><c>   1</c></rc>
    <rc><c>Sr</c><c>   1</c></rc>
    <rc><c>Sr</c><c>   1</c></rc>
    <rc><c>Sr</c><c>   1</c></rc>
    <rc><c>Sr</c><c>   1</c></rc>
    <rc><c>Sr</c><c>   1</c></rc>
    <rc><c>Sr</c><c>   1</c></rc>
    <rc><c>Sr</c><c>   1</c></rc>
    <rc><c>Sr</c><c>   1</c></rc>
    <rc><c>Sr</c><c>   1</c></rc>
    <rc><c>Sr</c><c>   1</c></rc>
    <rc><c>Sr</c><c>   1</c></rc>
    <rc><c>Sr</c><c>   1</c></rc>
    <rc><c>Sr</c><c>   1</c></rc>
    <rc><c>Sr</c><c>   1</c></rc>
    <rc><c>Sr</c><c>   1</c></rc>
    <rc><c>Sr</c><c>   1</c></rc>
    <rc><c>Sr</c><c>   1</c></rc>
    <rc><c>Sr</c><c>   1</c></rc>
    <rc><c>Sr</c><c>   1</c></rc>
    <rc><c>Sr</c><c>   1</c></rc>
    <rc><c>Sr</c><c>   1</c></rc>
    <rc><c>Sr</c><c>   1</c></rc>
    <rc><c>Sr</c><c>   1</c></rc>
    <rc><c>Sr</c><c>   1</c></rc>
    <rc><c>Sr</c><c>   1</c></rc>
    <rc><c>Sr</c><c>   1</c></rc>
    <rc><c>Sr</c><c>   1</c></rc>
    <rc><c>Ti</c><c>   2</c></rc>
    <rc><c>Ti</c><c>   2</c></rc>
    <rc><c>Ti</c><c>   2</c></rc>
    <rc><c>Ti</c><c>   2</c></rc>
    <rc><c>Ti</c><c>   2</c></rc>
    <rc><c>Ti</c><c>   2</c></rc>
    <rc><c>Ti</c><c>   2</c></rc>
    <rc><c>Ti</c><c>   2</c></rc>
    <rc><c>Ti</c><c>   2</c></rc>
    <rc><c>Ti</c><c>   2</c></rc>
    <rc><c>Ti</c><c>   2</c></rc>
    <rc><c>Ti</c><c>   2</c></rc>
    <rc><c>Ti</c><c>   2</c></rc>
    <rc><c>Ti</c><c>   2</c></rc>
    <rc><c>Ti</c><c>   2</c></rc>
    <rc><c>Ti</c><c>   2</c></rc>
    <rc><c>Ti</c><c>   2</c></rc>
    <rc><c>Ti</c><c>   2</c></rc>
    <rc><c>Ti</c><c>   2</c></rc>
    <rc><c>Ti</c><c>   2</c></rc>
    <rc><c>Ti</c><c>   2</c></rc>
    <rc><c>Ti</c><c>   2</c></rc>
    <rc><c>Ti</c><c>   2</c></rc>
    <rc><c>Ti</c><c>   2</c></rc>
    <rc><c>Ti</c><c>   2</c></rc>
    <rc><c>Ti</c><c>   2</c></rc>
    <rc><c>Ti</c><c>   2</c></rc>
    <rc><c>Ti</c><c>   2</c></rc>
    <rc><c>Fe</c><c>   3</c></rc>
    <rc><c>Fe</c><c>   3</c></rc>
    <rc><c>Fe</c><c>   3</c></rc>
    <rc><c>Fe</c><c>   3</c></rc>
    <rc><c>O </c><c>   4</c></rc>
    <rc><c>O </c><c>   4</c></rc>
    <rc><c>O </c><c>   4</c></rc>
    <rc><c>O </c><c>   4</c></rc>
    <rc><c>O </c><c>   4</c></rc>
    <rc><c>O </c><c>   4</c></rc>
    <rc><c>O </c><c>   4</c></rc>
    <rc><c>O </c><c>   4</c></rc>
    <rc><c>O </c><c>   4</c></rc>
    <rc><c>O </c><c>   4</c></rc>
    <rc><c>O </c><c>   4</c></rc>
    <rc><c>O </c><c>   4</c></rc>
    <rc><c>O </c><c>   4</c></rc>
    <rc><c>O </c><c>   4</c></rc>
    <rc><c>O </c><c>   4</c></rc>
    <rc><c>O </c><c>   4</c></rc>
    <rc><c>O </c><c>   4</c></rc>
    <rc><c>O </c><c>   4</c></rc>
    <rc><c>O </c><c>   4</c></rc>
    <rc><c>O </c><c>   4</c></rc>
    <rc><c>O </c><c>   4</c></rc>
    <rc><c>O </c><c>   4</c></rc>
    <rc><c>O </c><c>   4</c></rc>
    <rc><c>O </c><c>   4</c></rc>
    <rc><c>O </c><c>   4</c></rc>
    <rc><c>O </c><c>   4</c></rc>
    <rc><c>O </c><c>   4</c></rc>
    <rc><c>O </c><c>   4</c></rc>
    <rc><c>O </c><c>   4</c></rc>
    <rc><c>O </c><c>   4</c></rc>
    <rc><c>O </c><c>   4</c></rc>
    <rc><c>O </c><c>   4</c></rc>
    <rc><c>O </c><c>   4</c></rc>
    <rc><c>O </c><c>   4</c></rc>
    <rc><c>O </c><c>   4</c></rc>
    <rc><c>O </c><c>   4</c></rc>
    <rc><c>O </c><c>   4</c></rc>
    <rc><c>O </c><c>   4</c></rc>
    <rc><c>O </c><c>   4</c></rc>
    <rc><c>O </c><c>   4</c></rc>
    <rc><c>O </c><c>   4</c></rc>
    <rc><c>O </c><c>   4</c></rc>
    <rc><c>O </c><c>   4</c></rc>
    <rc><c>O </c><c>   4</c></rc>
    <rc><c>O </c><c>   4</c></rc>
    <rc><c>O </c><c>   4</c></rc>
    <rc><c>O </c><c>   4</c></rc>
    <rc><c>O </c><c>   4</c></rc>
    <rc><c>O </c><c>   4</c></rc>
    <rc><c>O </c><c>   4</c></rc>
    <rc><c>O </c><c>   4</c></rc>
    <rc><c>O </c><c>   4</c></rc>
    <rc><c>O </c><c>   4</c></rc>
    <rc><c>O </c><c>   4</c></rc>
    <rc><c>O </c><c>   4</c></rc>
    <rc><c>O </c><c>   4</c></rc>
    <rc><c>O </c><c>   4</c></rc>
    <rc><c>O </c><c>   4</c></rc>
    <rc><c>O </c><c>   4</c></rc>
    <rc><c>O </c><c>   4</c></rc>
    <rc><c>O </c><c>   4</c></rc>
    <rc><c>O </c><c>   4</c></rc>
    <rc><c>O </c><c>   4</c></rc>
    <rc><c>O </c><c>   4</c></rc>
    <rc><c>O </c><c>   4</c></rc>
    <rc><c>O </c><c>   4</c></rc>
    <rc><c>O </c><c>   4</c></rc>
    <rc><c>O </c><c>   4</c></rc>
    <rc><c>O </c><c>   4</c></rc>
    <rc><c>O </c><c>   4</c></rc>
    <rc><c>O </c><c>   4</c></rc>
    <rc><c>O </c><c>   4</c></rc>
    <rc><c>O </c><c>   4</c></rc>
    <rc><c>O </c><c>   4</c></rc>
    <rc><c>O </c><c>   4</c></rc>
    <rc><c>O </c><c>   4</c></rc>
    <rc><c>O </c><c>   4</c></rc>
    <rc><c>O </c><c>   4</c></rc>
    <rc><c>O </c><c>   4</c></rc>
    <rc><c>O </c><c>   4</c></rc>
    <rc><c>O </c><c>   4</c></rc>
    <rc><c>O </c><c>   4</c></rc>
    <rc><c>O </c><c>   4</c></rc>
    <rc><c>O </c><c>   4</c></rc>
    <rc><c>O </c><c>   4</c></rc>
    <rc><c>O </c><c>   4</c></rc>
    <rc><c>O </c><c>   4</c></rc>
    <rc><c>O </c><c>   4</c></rc>
    <rc><c>O </c><c>   4</c></rc>
    <rc><c>O </c><c>   4</c></rc>
    <rc><c>O </c><c>   4</c></rc>
    <rc><c>O </c><c>   4</c></rc>
    <rc><c>O </c><c>   4</c></rc>
    <rc><c>O </c><c>   4</c></rc>
   </set>
  </array>
  <array name="atomtypes" >
   <dimension dim="1">type</dimension>
   <field type="int">atomspertype</field>
   <field type="string">element</field>
   <field>mass</field>
   <field>valence</field>
   <field type="string">pseudopotential</field>
   <set>
    <rc><c>  32</c><c>Sr</c><c>     87.62000000</c><c>     10.00000000</c><c>  PAW_PBE Sr_sv 07Sep2000               </c></rc>
    <rc><c>  28</c><c>Ti</c><c>     47.88000000</c><c>      4.00000000</c><c>  PAW_PBE Ti 08Apr2002                  </c></rc>
    <rc><c>   4</c><c>Fe</c><c>     55.84700000</c><c>      8.00000000</c><c>  PAW_PBE Fe 06Sep2000                  </c></rc>
    <rc><c>  94</c><c>O </c><c>     16.00000000</c><c>      6.00000000</c><c>  PAW_PBE O 08Apr2002                   </c></rc>
   </set>
  </array>
 </atominfo>
 <structure name="initialpos" >
  <crystal>
   <varray name="basis" >
    <v>      11.21206125      -0.00123184      -0.00231697 </v>
    <v>      -0.00122737      11.21251879      -0.00145838 </v>
    <v>      -0.00331773      -0.00209318      15.98217225 </v>
   </varray>
   <i name="volume">   2009.20579192 </i>
   <varray name="rec_basis" >
    <v>       0.08918967       0.00000977       0.00001852 </v>
    <v>       0.00000980       0.08918603       0.00001168 </v>
    <v>       0.00001293       0.00000814       0.06256972 </v>
   </varray>
  </crystal>
  <varray name="positions" >
   <v>       0.99563104       0.24903270       0.12775781 </v>
   <v>       0.99451939       0.25302525       0.61854298 </v>
   <v>       0.00002824       0.75072972       0.12640792 </v>
   <v>       0.00117736       0.74594261       0.62026807 </v>
   <v>       0.50353765       0.24571296       0.12922679 </v>
   <v>       0.50485005       0.24465979       0.61878485 </v>
   <v>       0.50009605       0.75512720       0.12791867 </v>
   <v>       0.49920657       0.75534259       0.62056092 </v>
   <v>       0.99996898       0.24620738       0.37204056 </v>
   <v>       0.99195410       0.25368342       0.88234442 </v>
   <v>       0.00042341       0.75301925       0.37397454 </v>
   <v>       0.00008064       0.74645691       0.87919983 </v>
   <v>       0.50001899       0.24835513       0.37178474 </v>
   <v>       0.50985805       0.23884288       0.88036397 </v>
   <v>       0.50000164       0.75142414       0.37400323 </v>
   <v>       0.49841300       0.76166048       0.87851538 </v>
   <v>       0.24969903       0.00223983       0.12835384 </v>
   <v>       0.25045890       0.99909679       0.61889893 </v>
   <v>       0.24492689       0.49822128       0.12910651 </v>
   <v>       0.24271307       0.50201682       0.62159448 </v>
   <v>       0.75083790       0.00651281       0.12595728 </v>
   <v>       0.74837742       0.00315504       0.62251012 </v>
   <v>       0.75419943       0.49443144       0.12835475 </v>
   <v>       0.75472268       0.49847656       0.62117014 </v>
   <v>       0.24732793       0.00216107       0.37225593 </v>
   <v>       0.25124625       0.99786474       0.88051370 </v>
   <v>       0.24882534       0.49706615       0.37358932 </v>
   <v>       0.23635778       0.50452987       0.87762661 </v>
   <v>       0.75314907       0.00253938       0.37358815 </v>
   <v>       0.74831379       0.00374314       0.87877553 </v>
   <v>       0.75169462       0.49765547       0.37292987 </v>
   <v>       0.76009625       0.49764786       0.87868459 </v>
   <v>       0.99982880       0.00251282       0.00211540 </v>
   <v>       0.99870564       0.49899832       0.00232813 </v>
   <v>       0.99980203       0.49989844       0.49809639 </v>
   <v>       0.50119049       0.00133019       0.00174289 </v>
   <v>       0.50000527       0.00000149       0.49862632 </v>
   <v>       0.49944091       0.49934537       0.00748734 </v>
   <v>       0.49974693       0.50011503       0.49633363 </v>
   <v>       0.24979829       0.24949861       0.00057425 </v>
   <v>       0.24853469       0.24839854       0.49759742 </v>
   <v>       0.24940633       0.75015205       0.00023201 </v>
   <v>       0.24916033       0.75069793       0.49921999 </v>
   <v>       0.75083448       0.24907651       0.49713675 </v>
   <v>       0.74977680       0.75055998       0.99958813 </v>
   <v>       0.75103560       0.75140289       0.49998980 </v>
   <v>       0.26510291       0.25971284       0.75248488 </v>
   <v>       0.25026191       0.74929206       0.24998840 </v>
   <v>       0.25045830       0.75143330       0.75068808 </v>
   <v>       0.75030119       0.25031048       0.75202720 </v>
   <v>       0.74997999       0.75025398       0.24980318 </v>
   <v>       0.74519671       0.74646187       0.75095020 </v>
   <v>       0.99943069       0.00197089       0.25075364 </v>
   <v>       0.99212710       0.98650149       0.74916771 </v>
   <v>       0.00010055       0.49739742       0.25057269 </v>
   <v>       0.99857892       0.49999622       0.74947572 </v>
   <v>       0.49997099       0.00238913       0.25058211 </v>
   <v>       0.49945092       0.99931349       0.74939781 </v>
   <v>       0.49956007       0.49748194       0.25274857 </v>
   <v>       0.50236572       0.50381455       0.74096324 </v>
   <v>       0.00146885       0.00115744       0.50068237 </v>
   <v>       0.74963770       0.25085479       0.00176728 </v>
   <v>       0.25111922       0.25103252       0.24956643 </v>
   <v>       0.74933058       0.25069213       0.24894244 </v>
   <v>       0.11268167       0.13665812       0.24717820 </v>
   <v>       0.11053885       0.63995529       0.24922509 </v>
   <v>       0.11059217       0.63920501       0.74997848 </v>
   <v>       0.61011289       0.13667521       0.25117314 </v>
   <v>       0.60886885       0.14032186       0.74881481 </v>
   <v>       0.60856446       0.64026805       0.25030787 </v>
   <v>       0.60397358       0.63958816       0.76277586 </v>
   <v>       0.39146245       0.36254240       0.24942703 </v>
   <v>       0.39640846       0.36135372       0.76462532 </v>
   <v>       0.38969965       0.85926929       0.25038643 </v>
   <v>       0.39387967       0.85572307       0.74923630 </v>
   <v>       0.88943548       0.36374404       0.25022615 </v>
   <v>       0.88805427       0.36201976       0.74989924 </v>
   <v>       0.88800857       0.85916440       0.24762966 </v>
   <v>       0.89324525       0.85433358       0.74569186 </v>
   <v>       0.36245344       0.10998557       0.24954744 </v>
   <v>       0.35344928       0.10626627       0.75035649 </v>
   <v>       0.35963157       0.60949517       0.25038369 </v>
   <v>       0.36215264       0.60246561       0.76189365 </v>
   <v>       0.86337482       0.11087145       0.24844987 </v>
   <v>       0.86798829       0.11320140       0.74865477 </v>
   <v>       0.85960930       0.61129362       0.24991223 </v>
   <v>       0.85752481       0.60863432       0.74956325 </v>
   <v>       0.13800305       0.39046202       0.25022709 </v>
   <v>       0.13630599       0.38169942       0.74953952 </v>
   <v>       0.13991403       0.88669544       0.24731931 </v>
   <v>       0.14559498       0.89645726       0.74845954 </v>
   <v>       0.63700254       0.39307649       0.25122759 </v>
   <v>       0.63494341       0.39537685       0.76217775 </v>
   <v>       0.63919271       0.88838399       0.24861180 </v>
   <v>       0.64343451       0.89174701       0.75009165 </v>
   <v>       0.36688211       0.38767233       0.97843740 </v>
   <v>       0.36063527       0.39013186       0.50691914 </v>
   <v>       0.36301829       0.88604595       0.99971372 </v>
   <v>       0.36179312       0.88844623       0.50105386 </v>
   <v>       0.86565079       0.38824697       0.99887146 </v>
   <v>       0.86133650       0.38966060       0.50122088 </v>
   <v>       0.86309568       0.88768987       0.99572663 </v>
   <v>       0.86194421       0.88631252       0.50961293 </v>
   <v>       0.13969632       0.11144629       0.00651223 </v>
   <v>       0.14079180       0.11308689       0.49706515 </v>
   <v>       0.13752658       0.61242116       0.00024279 </v>
   <v>       0.13981165       0.61018173       0.50027602 </v>
   <v>       0.63462443       0.11205814       0.99876448 </v>
   <v>       0.63778126       0.11092972       0.50189392 </v>
   <v>       0.63147379       0.61251296       0.98657273 </v>
   <v>       0.63921838       0.60905181       0.49894494 </v>
   <v>       0.11400042       0.36338336       0.99831765 </v>
   <v>       0.11070214       0.36195426       0.50132156 </v>
   <v>       0.11212618       0.86071594       0.99953594 </v>
   <v>       0.11379016       0.85962020       0.50501752 </v>
   <v>       0.61011019       0.37131036       0.98657626 </v>
   <v>       0.60867643       0.36149917       0.49978431 </v>
   <v>       0.61243211       0.86253895       0.99975546 </v>
   <v>       0.61082977       0.86059512       0.50049669 </v>
   <v>       0.38715025       0.13758202       0.99681962 </v>
   <v>       0.39008938       0.13945117       0.50150501 </v>
   <v>       0.38843213       0.63237108       0.98619788 </v>
   <v>       0.39098065       0.63947135       0.50038334 </v>
   <v>       0.88966524       0.13559297       0.00106700 </v>
   <v>       0.88642355       0.13913854       0.50244085 </v>
   <v>       0.88667174       0.63762978       0.99950689 </v>
   <v>       0.88890767       0.63863798       0.50115252 </v>
   <v>       0.99804470       0.99526080       0.12397198 </v>
   <v>       0.01675910       0.01889148       0.63237944 </v>
   <v>       0.00017610       0.50078611       0.12487115 </v>
   <v>       0.00046352       0.50147255       0.62508988 </v>
   <v>       0.49867026       0.99957985       0.12457851 </v>
   <v>       0.50041614       0.99928491       0.62525268 </v>
   <v>       0.49685071       0.49938126       0.12289341 </v>
   <v>       0.50235425       0.50215980       0.62670404 </v>
   <v>       0.99876042       0.99579354       0.37419165 </v>
   <v>       0.01200373       0.01205918       0.87027284 </v>
   <v>       0.99970793       0.50157746       0.37575172 </v>
   <v>       0.00006813       0.50232678       0.87437665 </v>
   <v>       0.49978968       0.99866819       0.37593564 </v>
   <v>       0.50018102       0.99848056       0.87399331 </v>
   <v>       0.49576536       0.49961972       0.37579573 </v>
   <v>       0.25305069       0.25368349       0.37687858 </v>
   <v>       0.22643140       0.23069969       0.86843807 </v>
   <v>       0.24926081       0.75071782       0.37557393 </v>
   <v>       0.24496944       0.75400501       0.87406646 </v>
   <v>       0.75008939       0.24998150       0.37674308 </v>
   <v>       0.75305622       0.24449806       0.87337382 </v>
   <v>       0.75194326       0.75302754       0.37589654 </v>
   <v>       0.75546937       0.75452496       0.87344373 </v>
   <v>       0.25930887       0.26030376       0.12003574 </v>
   <v>       0.24430434       0.24389786       0.63127431 </v>
   <v>       0.25682099       0.74467709       0.12322300 </v>
   <v>       0.25499918       0.74176495       0.62710913 </v>
   <v>       0.74319405       0.25507154       0.12373364 </v>
   <v>       0.74455670       0.25637477       0.62704321 </v>
   <v>       0.74628652       0.74550749       0.12241412 </v>
   <v>       0.74045751       0.74196582       0.62776136 </v>
  </varray>
 </structure>
 <calculation>
  <scstep>
   <time name="dav">  590.38  590.50</time>
   <time name="total">  597.71  597.88</time>
   <energy>
    <i name="alphaZ">   5622.26015683 </i>
    <i name="ewald"> -60799.12070089 </i>
    <i name="hartreedc"> -15676.33171009 </i>
    <i name="XCdc">   2851.90307636 </i>
    <i name="pawpsdc"> 112020.02701527 </i>
    <i name="pawaedc">-110767.83378093 </i>
    <i name="eentropy">     -0.00000000 </i>
    <i name="bandstr">  -7052.95373065 </i>
    <i name="atom">  72650.08363186 </i>
    <i name="e_fr_energy">  -1151.96604225 </i>
    <i name="e_wo_entrp">  -1151.96604225 </i>
    <i name="e_0_energy">  -1151.96604225 </i>
   </energy>
  </scstep>
  <scstep>
   <time name="diag">   65.15   65.15</time>
   <time name="diis">   63.08   63.08</time>
   <time name="orth">   33.45   33.45</time>
   <time name="total">  168.99  169.04</time>
   <energy>
    <i name="e_fr_energy">  -1151.96604247 </i>
    <i name="e_wo_entrp">  -1151.96604247 </i>
    <i name="e_0_energy">  -1151.96604247 </i>
   </energy>
  </scstep>
  <scstep>
   <time name="diag">   65.27   65.26</time>
   <time name="diis">   61.09   61.09</time>
   <time name="orth">   33.40   33.40</time>
   <time name="total">  167.06  167.14</time>
   <energy>
    <i name="e_fr_energy">  -1151.96604322 </i>
    <i name="e_wo_entrp">  -1151.96604322 </i>
    <i name="e_0_energy">  -1151.96604322 </i>
   </energy>
  </scstep>
  <scstep>
   <time name="diag">   65.20   65.21</time>
   <time name="diis">   52.89   52.90</time>
   <time name="orth">   33.42   33.42</time>
   <time name="total">  158.84  158.93</time>
   <energy>
    <i name="e_fr_energy">  -1151.96604403 </i>
    <i name="e_wo_entrp">  -1151.96604403 </i>
    <i name="e_0_energy">  -1151.96604403 </i>
   </energy>
  </scstep>
  <scstep>
   <time name="diag">   65.25   65.27</time>
   <time name="diis">   51.76   51.76</time>
   <time name="orth">   33.40   33.40</time>
   <time name="total">  157.73  157.75</time>
   <energy>
    <i name="e_fr_energy">  -1151.96604466 </i>
    <i name="e_wo_entrp">  -1151.96604466 </i>
    <i name="e_0_energy">  -1151.96604466 </i>
   </energy>
  </scstep>
  <scstep>
   <time name="diag">   65.24   65.24</time>
   <time name="diis">   49.04   49.04</time>
   <time name="orth">   33.42   33.42</time>
   <time name="total">  155.02  155.09</time>
   <energy>
    <i name="e_fr_energy">  -1151.96604512 </i>
    <i name="e_wo_entrp">  -1151.96604512 </i>
    <i name="e_0_energy">  -1151.96604512 </i>
   </energy>
  </scstep>
  <scstep>
   <time name="diag">   65.11   65.11</time>
   <time name="diis">   47.24   47.24</time>
   <time name="orth">   33.35   33.35</time>
   <time name="total">  152.95  153.02</time>
   <energy>
    <i name="e_fr_energy">  -1151.96604527 </i>
    <i name="e_wo_entrp">  -1151.96604527 </i>
    <i name="e_0_energy">  -1151.96604527 </i>
   </energy>
  </scstep>
  <scstep>
   <time name="diag">   65.04   65.04</time>
   <time name="diis">   45.16   45.18</time>
   <time name="orth">   33.36   33.36</time>
   <time name="total">  144.61  144.70</time>
   <energy>
    <i name="alphaZ">   5622.26015683 </i>
    <i name="ewald"> -60799.12070089 </i>
    <i name="hartreedc"> -15676.34914528 </i>
    <i name="XCdc">   2851.90239874 </i>
    <i name="pawpsdc"> 112018.45759462 </i>
    <i name="pawaedc">-110766.24998535 </i>
    <i name="eentropy">     -0.00000000 </i>
    <i name="bandstr">  -7052.94999592 </i>
    <i name="atom">  72650.08363186 </i>
    <i name="e_fr_energy">  -1151.96604539 </i>
    <i name="e_wo_entrp">  -1151.96604539 </i>
    <i name="e_0_energy">  -1151.96604539 </i>
   </energy>
  </scstep>
  <structure>
   <crystal>
    <varray name="basis" >
     <v>      11.21206125      -0.00123184      -0.00231697 </v>
     <v>      -0.00122737      11.21251879      -0.00145838 </v>
     <v>      -0.00331773      -0.00209318      15.98217225 </v>
    </varray>
    <i name="volume">   2009.20579192 </i>
    <varray name="rec_basis" >
     <v>       0.08918967       0.00000977       0.00001852 </v>
     <v>       0.00000980       0.08918603       0.00001168 </v>
     <v>       0.00001293       0.00000814       0.06256972 </v>
    </varray>
   </crystal>
   <varray name="positions" >
    <v>       0.99563104       0.24903270       0.12775781 </v>
    <v>       0.99451939       0.25302525       0.61854298 </v>
    <v>       0.00002824       0.75072972       0.12640792 </v>
    <v>       0.00117736       0.74594261       0.62026807 </v>
    <v>       0.50353765       0.24571296       0.12922679 </v>
    <v>       0.50485005       0.24465979       0.61878485 </v>
    <v>       0.50009605       0.75512720       0.12791867 </v>
    <v>       0.49920657       0.75534259       0.62056092 </v>
    <v>       0.99996898       0.24620738       0.37204056 </v>
    <v>       0.99195410       0.25368342       0.88234442 </v>
    <v>       0.00042341       0.75301925       0.37397454 </v>
    <v>       0.00008064       0.74645691       0.87919983 </v>
    <v>       0.50001899       0.24835513       0.37178474 </v>
    <v>       0.50985805       0.23884288       0.88036397 </v>
    <v>       0.50000164       0.75142414       0.37400323 </v>
    <v>       0.49841300       0.76166048       0.87851538 </v>
    <v>       0.24969903       0.00223983       0.12835384 </v>
    <v>       0.25045890       0.99909679       0.61889893 </v>
    <v>       0.24492689       0.49822128       0.12910651 </v>
    <v>       0.24271307       0.50201682       0.62159448 </v>
    <v>       0.75083790       0.00651281       0.12595728 </v>
    <v>       0.74837742       0.00315504       0.62251012 </v>
    <v>       0.75419943       0.49443144       0.12835475 </v>
    <v>       0.75472268       0.49847656       0.62117014 </v>
    <v>       0.24732793       0.00216107       0.37225593 </v>
    <v>       0.25124625       0.99786474       0.88051370 </v>
    <v>       0.24882534       0.49706615       0.37358932 </v>
    <v>       0.23635778       0.50452987       0.87762661 </v>
    <v>       0.75314907       0.00253938       0.37358815 </v>
    <v>       0.74831379       0.00374314       0.87877553 </v>
    <v>       0.75169462       0.49765547       0.37292987 </v>
    <v>       0.76009625       0.49764786       0.87868459 </v>
    <v>       0.99982880       0.00251282       0.00211540 </v>
    <v>       0.99870564       0.49899832       0.00232813 </v>
    <v>       0.99980203       0.49989844       0.49809639 </v>
    <v>       0.50119049       0.00133019       0.00174289 </v>
    <v>       0.50000527       0.00000149       0.49862632 </v>
    <v>       0.49944091       0.49934537       0.00748734 </v>
    <v>       0.49974693       0.50011503       0.49633363 </v>
    <v>       0.24979829       0.24949861       0.00057425 </v>
    <v>       0.24853469       0.24839854       0.49759742 </v>
    <v>       0.24940633       0.75015205       0.00023201 </v>
    <v>       0.24916033       0.75069793       0.49921999 </v>
    <v>       0.75083448       0.24907651       0.49713675 </v>
    <v>       0.74977680       0.75055998       0.99958813 </v>
    <v>       0.75103560       0.75140289       0.49998980 </v>
    <v>       0.26510291       0.25971284       0.75248488 </v>
    <v>       0.25026191       0.74929206       0.24998840 </v>
    <v>       0.25045830       0.75143330       0.75068808 </v>
    <v>       0.75030119       0.25031048       0.75202720 </v>
    <v>       0.74997999       0.75025398       0.24980318 </v>
    <v>       0.74519671       0.74646187       0.75095020 </v>
    <v>       0.99943069       0.00197089       0.25075364 </v>
    <v>       0.99212710       0.98650149       0.74916771 </v>
    <v>       0.00010055       0.49739742       0.25057269 </v>
    <v>       0.99857892       0.49999622       0.74947572 </v>
    <v>       0.49997099       0.00238913       0.25058211 </v>
    <v>       0.49945092       0.99931349       0.74939781 </v>
    <v>       0.49956007       0.49748194       0.25274857 </v>
    <v>       0.50236572       0.50381455       0.74096324 </v>
    <v>       0.00146885       0.00115744       0.50068237 </v>
    <v>       0.74963770       0.25085479       0.00176728 </v>
    <v>       0.25111922       0.25103252       0.24956643 </v>
    <v>       0.74933058       0.25069213       0.24894244 </v>
    <v>       0.11268167       0.13665812       0.24717820 </v>
    <v>       0.11053885       0.63995529       0.24922509 </v>
    <v>       0.11059217       0.63920501       0.74997848 </v>
    <v>       0.61011289       0.13667521       0.25117314 </v>
    <v>       0.60886885       0.14032186       0.74881481 </v>
    <v>       0.60856446       0.64026805       0.25030787 </v>
    <v>       0.60397358       0.63958816       0.76277586 </v>
    <v>       0.39146245       0.36254240       0.24942703 </v>
    <v>       0.39640846       0.36135372       0.76462532 </v>
    <v>       0.38969965       0.85926929       0.25038643 </v>
    <v>       0.39387967       0.85572307       0.74923630 </v>
    <v>       0.88943548       0.36374404       0.25022615 </v>
    <v>       0.88805427       0.36201976       0.74989924 </v>
    <v>       0.88800857       0.85916440       0.24762966 </v>
    <v>       0.89324525       0.85433358       0.74569186 </v>
    <v>       0.36245344       0.10998557       0.24954744 </v>
    <v>       0.35344928       0.10626627       0.75035649 </v>
    <v>       0.35963157       0.60949517       0.25038369 </v>
    <v>       0.36215264       0.60246561       0.76189365 </v>
    <v>       0.86337482       0.11087145       0.24844987 </v>
    <v>       0.86798829       0.11320140       0.74865477 </v>
    <v>       0.85960930       0.61129362       0.24991223 </v>
    <v>       0.85752481       0.60863432       0.74956325 </v>
    <v>       0.13800305       0.39046202       0.25022709 </v>
    <v>       0.13630599       0.38169942       0.74953952 </v>
    <v>       0.13991403       0.88669544       0.24731931 </v>
    <v>       0.14559498       0.89645726       0.74845954 </v>
    <v>       0.63700254       0.39307649       0.25122759 </v>
    <v>       0.63494341       0.39537685       0.76217775 </v>
    <v>       0.63919271       0.88838399       0.24861180 </v>
    <v>       0.64343451       0.89174701       0.75009165 </v>
    <v>       0.36688211       0.38767233       0.97843740 </v>
    <v>       0.36063527       0.39013186       0.50691914 </v>
    <v>       0.36301829       0.88604595       0.99971372 </v>
    <v>       0.36179312       0.88844623       0.50105386 </v>
    <v>       0.86565079       0.38824697       0.99887146 </v>
    <v>       0.86133650       0.38966060       0.50122088 </v>
    <v>       0.86309568       0.88768987       0.99572663 </v>
    <v>       0.86194421       0.88631252       0.50961293 </v>
    <v>       0.13969632       0.11144629       0.00651223 </v>
    <v>       0.14079180       0.11308689       0.49706515 </v>
    <v>       0.13752658       0.61242116       0.00024279 </v>
    <v>       0.13981165       0.61018173       0.50027602 </v>
    <v>       0.63462443       0.11205814       0.99876448 </v>
    <v>       0.63778126       0.11092972       0.50189392 </v>
    <v>       0.63147379       0.61251296       0.98657273 </v>
    <v>       0.63921838       0.60905181       0.49894494 </v>
    <v>       0.11400042       0.36338336       0.99831765 </v>
    <v>       0.11070214       0.36195426       0.50132156 </v>
    <v>       0.11212618       0.86071594       0.99953594 </v>
    <v>       0.11379016       0.85962020       0.50501752 </v>
    <v>       0.61011019       0.37131036       0.98657626 </v>
    <v>       0.60867643       0.36149917       0.49978431 </v>
    <v>       0.61243211       0.86253895       0.99975546 </v>
    <v>       0.61082977       0.86059512       0.50049669 </v>
    <v>       0.38715025       0.13758202       0.99681962 </v>
    <v>       0.39008938       0.13945117       0.50150501 </v>
    <v>       0.38843213       0.63237108       0.98619788 </v>
    <v>       0.39098065       0.63947135       0.50038334 </v>
    <v>       0.88966524       0.13559297       0.00106700 </v>
    <v>       0.88642355       0.13913854       0.50244085 </v>
    <v>       0.88667174       0.63762978       0.99950689 </v>
    <v>       0.88890767       0.63863798       0.50115252 </v>
    <v>       0.99804470       0.99526080       0.12397198 </v>
    <v>       0.01675910       0.01889148       0.63237944 </v>
    <v>       0.00017610       0.50078611       0.12487115 </v>
    <v>       0.00046352       0.50147255       0.62508988 </v>
    <v>       0.49867026       0.99957985       0.12457851 </v>
    <v>       0.50041614       0.99928491       0.62525268 </v>
    <v>       0.49685071       0.49938126       0.12289341 </v>
    <v>       0.50235425       0.50215980       0.62670404 </v>
    <v>       0.99876042       0.99579354       0.37419165 </v>
    <v>       0.01200373       0.01205918       0.87027284 </v>
    <v>       0.99970793       0.50157746       0.37575172 </v>
    <v>       0.00006813       0.50232678       0.87437665 </v>
    <v>       0.49978968       0.99866819       0.37593564 </v>
    <v>       0.50018102       0.99848056       0.87399331 </v>
    <v>       0.49576536       0.49961972       0.37579573 </v>
    <v>       0.25305069       0.25368349       0.37687858 </v>
    <v>       0.22643140       0.23069969       0.86843807 </v>
    <v>       0.24926081       0.75071782       0.37557393 </v>
    <v>       0.24496944       0.75400501       0.87406646 </v>
    <v>       0.75008939       0.24998150       0.37674308 </v>
    <v>       0.75305622       0.24449806       0.87337382 </v>
    <v>       0.75194326       0.75302754       0.37589654 </v>
    <v>       0.75546937       0.75452496       0.87344373 </v>
    <v>       0.25930887       0.26030376       0.12003574 </v>
    <v>       0.24430434       0.24389786       0.63127431 </v>
    <v>       0.25682099       0.74467709       0.12322300 </v>
    <v>       0.25499918       0.74176495       0.62710913 </v>
    <v>       0.74319405       0.25507154       0.12373364 </v>
    <v>       0.74455670       0.25637477       0.62704321 </v>
    <v>       0.74628652       0.74550749       0.12241412 </v>
    <v>       0.74045751       0.74196582       0.62776136 </v>
   </varray>
  </structure>
  <varray name="forces" >
   <v>       0.00647928      -0.01066207      -0.01133739 </v>
   <v>      -0.00338341      -0.00254704       0.01509897 </v>
   <v>      -0.01217482       0.01562329      -0.00732043 </v>
   <v>       0.00000598       0.01094159       0.01712083 </v>
   <v>      -0.00397993      -0.00415712      -0.01665197 </v>
   <v>       0.00024529      -0.00861172       0.02200050 </v>
   <v>       0.01160764       0.00460709      -0.00199504 </v>
   <v>       0.00048808       0.01644135       0.00950411 </v>
   <v>       0.00545417      -0.00841663       0.01357051 </v>
   <v>      -0.01879128       0.00357868       0.00221607 </v>
   <v>      -0.00195098       0.00794412       0.01623997 </v>
   <v>      -0.01233555       0.02249207      -0.01207967 </v>
   <v>      -0.00171862      -0.00420249       0.00867463 </v>
   <v>       0.01260812       0.02300337      -0.01323518 </v>
   <v>       0.00324610       0.01133742       0.00895933 </v>
   <v>      -0.00290512      -0.01744209      -0.01452301 </v>
   <v>      -0.00734708      -0.00807003      -0.01840476 </v>
   <v>      -0.01429493       0.01730807       0.02687756 </v>
   <v>      -0.00094136       0.00193510       0.00120162 </v>
   <v>      -0.00398612      -0.00252170       0.00364794 </v>
   <v>       0.00247500       0.00402966      -0.00084616 </v>
   <v>       0.00777906      -0.00309188       0.02376503 </v>
   <v>       0.01182269      -0.00864814      -0.01209563 </v>
   <v>      -0.00075939       0.00929239       0.01141162 </v>
   <v>       0.00304076      -0.00494901       0.01552425 </v>
   <v>      -0.01393336       0.01073901      -0.01960914 </v>
   <v>      -0.01202296       0.00284699       0.00580701 </v>
   <v>       0.01460649      -0.00115393      -0.01829207 </v>
   <v>       0.00791249      -0.00012403       0.00111263 </v>
   <v>       0.01216141      -0.00608349      -0.00555288 </v>
   <v>       0.01265959       0.00154955       0.00068407 </v>
   <v>      -0.01745927       0.00652144      -0.02150557 </v>
   <v>       0.01717198      -0.03366108      -0.01725526 </v>
   <v>      -0.00275441      -0.00189556      -0.01540381 </v>
   <v>       0.02636503       0.02594909       0.00945974 </v>
   <v>       0.01394522      -0.00200103      -0.01045975 </v>
   <v>      -0.01942791      -0.01306241       0.00101620 </v>
   <v>      -0.00697906      -0.00234704      -0.01454501 </v>
   <v>      -0.01259506       0.00379285       0.00912208 </v>
   <v>       0.02004345       0.02425380      -0.00308155 </v>
   <v>      -0.00818766      -0.00330203       0.02252274 </v>
   <v>       0.01935347      -0.01641377       0.00139847 </v>
   <v>      -0.02103543       0.00134138       0.00437950 </v>
   <v>       0.00602229      -0.00656410       0.02740451 </v>
   <v>      -0.02447266      -0.00647968      -0.01792409 </v>
   <v>       0.00727252       0.01408094       0.02406422 </v>
   <v>       0.03892224       0.03243955      -0.05199019 </v>
   <v>       0.02110249      -0.03177586       0.03336463 </v>
   <v>       0.00264198      -0.00015611      -0.01454010 </v>
   <v>      -0.01082811       0.01049785      -0.01281045 </v>
   <v>      -0.01893143      -0.02145225      -0.00105528 </v>
   <v>       0.01606170       0.00383182      -0.00962688 </v>
   <v>       0.01085739       0.00641094       0.01096203 </v>
   <v>      -0.06524137      -0.07696699      -0.02760552 </v>
   <v>      -0.00356635       0.01932016       0.01630196 </v>
   <v>      -0.01940070      -0.02459069       0.00385512 </v>
   <v>      -0.00462833      -0.01686985       0.00694079 </v>
   <v>       0.01397297       0.01677713       0.01242361 </v>
   <v>      -0.03687314       0.03136835      -0.01047097 </v>
   <v>       0.00159562      -0.00135086       0.03619181 </v>
   <v>       0.01149746      -0.01014430       0.00128552 </v>
   <v>      -0.01913237       0.01607195      -0.01083906 </v>
   <v>       0.00906884       0.00079532      -0.01315451 </v>
   <v>       0.00695038      -0.00601708      -0.00532719 </v>
   <v>      -0.01253823       0.00973113       0.01171771 </v>
   <v>       0.01879236      -0.00753394      -0.00142024 </v>
   <v>       0.02895150       0.00155214       0.00095310 </v>
   <v>       0.02182412       0.01657557      -0.00594134 </v>
   <v>       0.01080111      -0.01983544      -0.00495472 </v>
   <v>       0.00888058       0.00048243       0.02039559 </v>
   <v>      -0.02623871      -0.05207858       0.01902347 </v>
   <v>       0.00327193      -0.00931826       0.01048724 </v>
   <v>      -0.01634241       0.00014367      -0.01425792 </v>
   <v>      -0.01749531       0.01531939      -0.00776044 </v>
   <v>      -0.03128200       0.00155212      -0.00311969 </v>
   <v>      -0.01605430      -0.01273602       0.00336625 </v>
   <v>      -0.02406077       0.02347719       0.00575598 </v>
   <v>       0.01006225       0.00298494       0.00983035 </v>
   <v>       0.05855716       0.06509016      -0.02231377 </v>
   <v>       0.00477418       0.00734915       0.00179722 </v>
   <v>       0.00189386       0.02185021       0.00525632 </v>
   <v>       0.01052078       0.01923882       0.01387807 </v>
   <v>       0.02287300       0.03049036      -0.01216482 </v>
   <v>      -0.00161378      -0.00225684       0.02181328 </v>
   <v>       0.00396921      -0.00450170       0.01953880 </v>
   <v>       0.00089540      -0.00601747      -0.00676338 </v>
   <v>       0.01887975      -0.01906145      -0.00174991 </v>
   <v>      -0.00771156      -0.00636237      -0.01021888 </v>
   <v>      -0.01351081      -0.01149593       0.00058016 </v>
   <v>      -0.00078267       0.00857268       0.01391691 </v>
   <v>      -0.00096291       0.00885560       0.01629710 </v>
   <v>       0.02154103      -0.02658304       0.00089217 </v>
   <v>      -0.01307106       0.00551848       0.00159616 </v>
   <v>       0.00202905      -0.00210901      -0.00197421 </v>
   <v>      -0.04375283      -0.00366327      -0.00300473 </v>
   <v>      -0.00072966      -0.03221124      -0.01247836 </v>
   <v>       0.00627690       0.00484216       0.00224570 </v>
   <v>       0.00853400      -0.04695663       0.00059236 </v>
   <v>       0.02675054      -0.00673358      -0.00959291 </v>
   <v>       0.02337765      -0.02407865       0.00737680 </v>
   <v>      -0.00017012      -0.01691044      -0.00620363 </v>
   <v>      -0.00195050       0.00204214       0.02388331 </v>
   <v>      -0.01091001       0.00784479      -0.00085050 </v>
   <v>       0.00347337       0.00391259      -0.00672386 </v>
   <v>       0.01494723      -0.00330305      -0.02997849 </v>
   <v>      -0.02842506       0.03274307       0.01922402 </v>
   <v>      -0.02895486      -0.00647922      -0.00832934 </v>
   <v>      -0.00539222       0.01628227       0.00673594 </v>
   <v>       0.01191573       0.01490578      -0.01268906 </v>
   <v>       0.01973496       0.02746449      -0.00586325 </v>
   <v>      -0.00007471      -0.00055520      -0.01507150 </v>
   <v>       0.03633848       0.01597182      -0.00745998 </v>
   <v>      -0.00091617      -0.00046534      -0.00979479 </v>
   <v>       0.00825187       0.00920104       0.00821921 </v>
   <v>      -0.00213560       0.00999248      -0.01180944 </v>
   <v>       0.02104884      -0.00418700       0.01610982 </v>
   <v>       0.00288503      -0.00548603      -0.00122384 </v>
   <v>       0.02142134       0.00595319       0.01796771 </v>
   <v>       0.01164544       0.01245155      -0.00284461 </v>
   <v>      -0.02904973      -0.02027676      -0.01405357 </v>
   <v>      -0.00408298      -0.00563537      -0.01254541 </v>
   <v>      -0.04302741       0.00163952       0.01402914 </v>
   <v>       0.00445730      -0.02207136      -0.00920383 </v>
   <v>      -0.02151501       0.01470828      -0.00314044 </v>
   <v>      -0.01253719       0.01873455      -0.01345719 </v>
   <v>      -0.01620026      -0.00679602       0.00558365 </v>
   <v>       0.00204740      -0.00405123      -0.01365328 </v>
   <v>       0.00452236       0.00070008       0.00218146 </v>
   <v>       0.00990179       0.01692850       0.00698737 </v>
   <v>      -0.00332865       0.00176581      -0.00503065 </v>
   <v>      -0.00088595       0.00305676      -0.00555094 </v>
   <v>      -0.00232738       0.00255334      -0.00450351 </v>
   <v>      -0.00692658      -0.00508055       0.00358221 </v>
   <v>       0.00848599       0.00157139       0.04506538 </v>
   <v>       0.01352197       0.01509392      -0.02864047 </v>
   <v>      -0.00382841      -0.00261582       0.01066797 </v>
   <v>      -0.01480311      -0.02616878       0.01073512 </v>
   <v>       0.00506413      -0.00693069       0.00281615 </v>
   <v>       0.00869534      -0.00058082       0.01109149 </v>
   <v>       0.00106331      -0.00066821       0.00039531 </v>
   <v>       0.01067672      -0.00258618      -0.00112921 </v>
   <v>       0.01210492      -0.00901417      -0.00561463 </v>
   <v>       0.01498415       0.00626970      -0.02301554 </v>
   <v>      -0.00366752       0.00078338       0.01316760 </v>
   <v>       0.00350667      -0.01214061      -0.02635269 </v>
   <v>       0.01340801      -0.01072998      -0.00064337 </v>
   <v>      -0.01894886       0.01557846      -0.04516235 </v>
   <v>      -0.00263434      -0.00039818       0.00286240 </v>
   <v>      -0.01285799      -0.00889831      -0.01250871 </v>
   <v>       0.00357755      -0.00040770       0.03299124 </v>
   <v>       0.00390556      -0.01416265      -0.00346996 </v>
   <v>      -0.02926996      -0.01535938       0.00286381 </v>
   <v>      -0.01818269       0.01412162      -0.00155693 </v>
   <v>       0.00756183       0.02005794       0.03095142 </v>
   <v>       0.02198126       0.00024754       0.02096276 </v>
   <v>      -0.00451559      -0.01325709      -0.00154726 </v>
   <v>      -0.00195690      -0.01084232      -0.00554487 </v>
   <v>      -0.01236115      -0.01800055      -0.03807389 </v>
  </varray>
  <varray name="stress" >
   <v>       0.18676433      -0.02365987      -0.01496216 </v>
   <v>      -0.02365958       0.19142004      -0.04541496 </v>
   <v>      -0.01496178      -0.04541469       0.33235561 </v>
  </varray>
  <energy>
   <i name="e_fr_energy">  -1151.96604539 </i>
   <i name="e_wo_entrp">  -1151.96604539 </i>
   <i name="e_0_energy">     -0.00000000 </i>
  </energy>
  <time name="totalsc"> 1969.90 1972.38</time>
 </calculation>
 <calculation>
  <scstep>
   <time name="dav">  578.34  578.43</time>
   <time name="total">  585.58  585.72</time>
   <energy>
    <i name="alphaZ">   5620.73080864 </i>
    <i name="ewald"> -60794.10209456 </i>
    <i name="hartreedc"> -15674.51589358 </i>
    <i name="XCdc">   2851.54895781 </i>
    <i name="pawpsdc"> 112018.43131050 </i>
    <i name="pawaedc">-110766.22282593 </i>
    <i name="eentropy">     -0.00000000 </i>
    <i name="bandstr">  -7057.92074640 </i>
    <i name="atom">  72650.08363186 </i>
    <i name="e_fr_energy">  -1151.96685166 </i>
    <i name="e_wo_entrp">  -1151.96685166 </i>
    <i name="e_0_energy">  -1151.96685166 </i>
   </energy>
  </scstep>
  <scstep>
   <time name="diag">   65.13   65.13</time>
   <time name="diis">  104.70  104.73</time>
   <time name="orth">   33.49   33.49</time>
   <time name="total">  210.64  210.73</time>
   <energy>
    <i name="e_fr_energy">  -1151.96853583 </i>
    <i name="e_wo_entrp">  -1151.96853583 </i>
    <i name="e_0_energy">  -1151.96853583 </i>
   </energy>
  </scstep>
  <scstep>
   <time name="diag">   65.43   65.43</time>
   <time name="diis">  106.41  106.43</time>
   <time name="orth">   33.57   33.57</time>
   <time name="total">  212.73  212.79</time>
   <energy>
    <i name="e_fr_energy">  -1151.96816031 </i>
    <i name="e_wo_entrp">  -1151.96816031 </i>
    <i name="e_0_energy">  -1151.96816031 </i>
   </energy>
  </scstep>
  <scstep>
   <time name="diag">   65.35   65.35</time>
   <time name="diis">  102.05  102.07</time>
   <time name="orth">   33.47   33.47</time>
   <time name="total">  208.19  208.30</time>
   <energy>
    <i name="e_fr_energy">  -1151.96789198 </i>
    <i name="e_wo_entrp">  -1151.96789198 </i>
    <i name="e_0_energy">  -1151.96789198 </i>
   </energy>
  </scstep>
  <scstep>
   <time name="diag">   65.43   65.45</time>
   <time name="diis">   73.37   73.38</time>
   <time name="orth">   33.50   33.50</time>
   <time name="total">  179.63  179.70</time>
   <energy>
    <i name="e_fr_energy">  -1151.96781297 </i>
    <i name="e_wo_entrp">  -1151.96781297 </i>
    <i name="e_0_energy">  -1151.96781297 </i>
   </energy>
  </scstep>
  <scstep>
   <time name="diag">   65.36   65.37</time>
   <time name="diis">   64.24   64.34</time>
   <time name="orth">   33.51   33.55</time>
   <time name="total">  170.44  170.69</time>
   <energy>
    <i name="e_fr_energy">  -1151.96781563 </i>
    <i name="e_wo_entrp">  -1151.96781563 </i>
    <i name="e_0_energy">  -1151.96781563 </i>
   </energy>
  </scstep>
  <scstep>
   <time name="diag">   65.15   65.15</time>
   <time name="diis">   63.71   63.72</time>
   <time name="orth">   33.50   33.50</time>
   <time name="total">  169.67  169.77</time>
   <energy>
    <i name="e_fr_energy">  -1151.96781449 </i>
    <i name="e_wo_entrp">  -1151.96781449 </i>
    <i name="e_0_energy">  -1151.96781449 </i>
   </energy>
  </scstep>
  <scstep>
   <time name="diag">   65.08   65.09</time>
   <time name="diis">   61.96   61.98</time>
   <time name="orth">   33.51   33.51</time>
   <time name="total">  161.60  161.70</time>
   <energy>
    <i name="alphaZ">   5620.73080864 </i>
    <i name="ewald"> -60794.10209456 </i>
    <i name="hartreedc"> -15678.45968208 </i>
    <i name="XCdc">   2851.79952420 </i>
    <i name="pawpsdc"> 111938.61868701 </i>
    <i name="pawaedc">-110686.36186581 </i>
    <i name="eentropy">     -0.00000000 </i>
    <i name="bandstr">  -7054.27682190 </i>
    <i name="atom">  72650.08363186 </i>
    <i name="e_fr_energy">  -1151.96781263 </i>
    <i name="e_wo_entrp">  -1151.96781263 </i>
    <i name="e_0_energy">  -1151.96781263 </i>
   </energy>
  </scstep>
  <structure>
   <crystal>
    <varray name="basis" >
     <v>      11.21286308      -0.00133347      -0.00238147 </v>
     <v>      -0.00132903      11.21334065      -0.00165354 </v>
     <v>      -0.00340951      -0.00237123      15.98420620 </v>
    </varray>
    <i name="volume">   2009.75247799 </i>
    <varray name="rec_basis" >
     <v>       0.08918329       0.00001057       0.00001902 </v>
     <v>       0.00001061       0.08917949       0.00001323 </v>
     <v>       0.00001329       0.00000923       0.06256176 </v>
    </varray>
   </crystal>
   <varray name="positions" >
    <v>       0.99565890       0.24898683       0.12772359 </v>
    <v>       0.99450484       0.25301430       0.61858855 </v>
    <v>      -0.00002415       0.75079693       0.12638582 </v>
    <v>       0.00117740       0.74598970       0.62031976 </v>
    <v>       0.50352051       0.24569507       0.12917652 </v>
    <v>       0.50485112       0.24462275       0.61885126 </v>
    <v>       0.50014599       0.75514702       0.12791265 </v>
    <v>       0.49920869       0.75541333       0.62058961 </v>
    <v>       0.99999246       0.24617118       0.37208153 </v>
    <v>       0.99187324       0.25369881       0.88235110 </v>
    <v>       0.00041503       0.75305344       0.37402356 </v>
    <v>       0.00002757       0.74655367       0.87916337 </v>
    <v>       0.50001160       0.24833705       0.37181092 </v>
    <v>       0.50991230       0.23894185       0.88032404 </v>
    <v>       0.50001562       0.75147292       0.37403028 </v>
    <v>       0.49840048       0.76158543       0.87847153 </v>
    <v>       0.24966739       0.00220509       0.12829828 </v>
    <v>       0.25039742       0.99917126       0.61898006 </v>
    <v>       0.24492285       0.49822961       0.12911014 </v>
    <v>       0.24269592       0.50200597       0.62160548 </v>
    <v>       0.75084855       0.00653014       0.12595473 </v>
    <v>       0.74841091       0.00314175       0.62258186 </v>
    <v>       0.75425029       0.49439423       0.12831825 </v>
    <v>       0.75471942       0.49851655       0.62120459 </v>
    <v>       0.24734102       0.00213978       0.37230279 </v>
    <v>       0.25118628       0.99791093       0.88045450 </v>
    <v>       0.24877361       0.49707840       0.37360685 </v>
    <v>       0.23642061       0.50452490       0.87757141 </v>
    <v>       0.75318311       0.00253886       0.37359151 </v>
    <v>       0.74836611       0.00371697       0.87875877 </v>
    <v>       0.75174909       0.49766215       0.37293194 </v>
    <v>       0.76002111       0.49767589       0.87861967 </v>
    <v>       0.99990266       0.00236799       0.00206331 </v>
    <v>       0.99869377       0.49899015       0.00228163 </v>
    <v>       0.99991550       0.50001011       0.49812498 </v>
    <v>       0.50125048       0.00132158       0.00171133 </v>
    <v>       0.49992167      -0.00005472       0.49862937 </v>
    <v>       0.49941087       0.49933526       0.00744343 </v>
    <v>       0.49969275       0.50013134       0.49636116 </v>
    <v>       0.24988454       0.24960297       0.00056497 </v>
    <v>       0.24849948       0.24838434       0.49766540 </v>
    <v>       0.24948959       0.75008144       0.00023624 </v>
    <v>       0.24906982       0.75070369       0.49923320 </v>
    <v>       0.75086041       0.24904828       0.49721947 </v>
    <v>       0.74967148       0.75053208       0.99953401 </v>
    <v>       0.75106692       0.75146349       0.50006245 </v>
    <v>       0.26527035       0.25985240       0.75232798 </v>
    <v>       0.25035273       0.74915537       0.25008912 </v>
    <v>       0.25046965       0.75143262       0.75064420 </v>
    <v>       0.75025459       0.25035564       0.75198853 </v>
    <v>       0.74989852       0.75016167       0.24979997 </v>
    <v>       0.74526581       0.74647836       0.75092115 </v>
    <v>       0.99947742       0.00199848       0.25078674 </v>
    <v>       0.99184633       0.98617029       0.74908431 </v>
    <v>       0.00008523       0.49748055       0.25062190 </v>
    <v>       0.99849543       0.49989041       0.74948734 </v>
    <v>       0.49995107       0.00231655       0.25060305 </v>
    <v>       0.49951107       0.99938569       0.74943532 </v>
    <v>       0.49940142       0.49761688       0.25271695 </v>
    <v>       0.50237262       0.50380876       0.74107249 </v>
    <v>       0.00151832       0.00111380       0.50068625 </v>
    <v>       0.74955537       0.25092392       0.00173455 </v>
    <v>       0.25115823       0.25103594       0.24952673 </v>
    <v>       0.74936048       0.25066624       0.24892636 </v>
    <v>       0.11262773       0.13669999       0.24721356 </v>
    <v>       0.11061970       0.63992288       0.24922081 </v>
    <v>       0.11071674       0.63921170       0.74998137 </v>
    <v>       0.61020679       0.13674653       0.25115523 </v>
    <v>       0.60891531       0.14023652       0.74879986 </v>
    <v>       0.60860268       0.64027014       0.25036944 </v>
    <v>       0.60386067       0.63936409       0.76283325 </v>
    <v>       0.39147654       0.36250231       0.24945868 </v>
    <v>       0.39633813       0.36135433       0.76458227 </v>
    <v>       0.38962437       0.85933519       0.25036300 </v>
    <v>       0.39374507       0.85572974       0.74922687 </v>
    <v>       0.88936639       0.36368923       0.25023630 </v>
    <v>       0.88795076       0.36212077       0.74991661 </v>
    <v>       0.88805187       0.85917725       0.24765934 </v>
    <v>       0.89349722       0.85461365       0.74562457 </v>
    <v>       0.36247399       0.11001719       0.24955287 </v>
    <v>       0.35345744       0.10636028       0.75037236 </v>
    <v>       0.35967686       0.60957796       0.25042560 </v>
    <v>       0.36225106       0.60259681       0.76185696 </v>
    <v>       0.86336790       0.11086175       0.24851571 </v>
    <v>       0.86800538       0.11318205       0.74871375 </v>
    <v>       0.85961314       0.61126772       0.24989181 </v>
    <v>       0.85760603       0.60855231       0.74955797 </v>
    <v>       0.13796986       0.39043464       0.25019624 </v>
    <v>       0.13624785       0.38164995       0.74954126 </v>
    <v>       0.13991068       0.88673233       0.24736132 </v>
    <v>       0.14559085       0.89649537       0.74850873 </v>
    <v>       0.63709522       0.39296212       0.25123029 </v>
    <v>       0.63488717       0.39540059       0.76218256 </v>
    <v>       0.63920143       0.88837491       0.24860584 </v>
    <v>       0.64324625       0.89173122       0.75008255 </v>
    <v>       0.36687894       0.38753373       0.97839973 </v>
    <v>       0.36066228       0.39015269       0.50692592 </v>
    <v>       0.36305499       0.88584392       0.99971549 </v>
    <v>       0.36190821       0.88841726       0.50102492 </v>
    <v>       0.86575137       0.38814339       0.99889373 </v>
    <v>       0.86133575       0.38958784       0.50120215 </v>
    <v>       0.86308731       0.88769867       0.99579872 </v>
    <v>       0.86189727       0.88634626       0.50961036 </v>
    <v>       0.13971126       0.11146312       0.00649194 </v>
    <v>       0.14085609       0.11307267       0.49697467 </v>
    <v>       0.13740430       0.61256203       0.00030081 </v>
    <v>       0.13968705       0.61015383       0.50025086 </v>
    <v>       0.63460124       0.11212820       0.99878481 </v>
    <v>       0.63783253       0.11099385       0.50185563 </v>
    <v>       0.63155871       0.61263113       0.98655505 </v>
    <v>       0.63921805       0.60904941       0.49889944 </v>
    <v>       0.11415678       0.36345209       0.99829516 </v>
    <v>       0.11069819       0.36195225       0.50129199 </v>
    <v>       0.11216170       0.86075554       0.99956076 </v>
    <v>       0.11378096       0.85966318       0.50498187 </v>
    <v>       0.61020077       0.37129237       0.98662490 </v>
    <v>       0.60868884       0.36147557       0.49978061 </v>
    <v>       0.61252430       0.86256459       0.99980971 </v>
    <v>       0.61087988       0.86064870       0.50048811 </v>
    <v>       0.38702524       0.13749476       0.99677718 </v>
    <v>       0.39007180       0.13942692       0.50146713 </v>
    <v>       0.38824701       0.63237812       0.98624020 </v>
    <v>       0.39099981       0.63937638       0.50035555 </v>
    <v>       0.88957267       0.13565624       0.00105751 </v>
    <v>       0.88636960       0.13921913       0.50240023 </v>
    <v>       0.88660203       0.63760054       0.99952373 </v>
    <v>       0.88891646       0.63862054       0.50111130 </v>
    <v>       0.99806416       0.99526381       0.12397857 </v>
    <v>       0.01680172       0.01896432       0.63240055 </v>
    <v>       0.00016178       0.50079371       0.12485596 </v>
    <v>       0.00045971       0.50148570       0.62507313 </v>
    <v>       0.49866025       0.99959083       0.12456491 </v>
    <v>       0.50038634       0.99926305       0.62526348 </v>
    <v>       0.49688726       0.49938805       0.12302945 </v>
    <v>       0.50241241       0.50222474       0.62661760 </v>
    <v>       0.99874395       0.99578229       0.37422385 </v>
    <v>       0.01194003       0.01194659       0.87030523 </v>
    <v>       0.99972972       0.50154764       0.37576022 </v>
    <v>       0.00010555       0.50232429       0.87441014 </v>
    <v>       0.49979425       0.99866532       0.37593684 </v>
    <v>       0.50022696       0.99846943       0.87398991 </v>
    <v>       0.49581744       0.49958094       0.37577879 </v>
    <v>       0.25311515       0.25371046       0.37680912 </v>
    <v>       0.22641564       0.23070307       0.86847782 </v>
    <v>       0.24927587       0.75066557       0.37549438 </v>
    <v>       0.24502713       0.75395885       0.87406452 </v>
    <v>       0.75000782       0.25004850       0.37660675 </v>
    <v>       0.75304489       0.24449635       0.87338246 </v>
    <v>       0.75188792       0.75298924       0.37585877 </v>
    <v>       0.75548479       0.75452323       0.87354332 </v>
    <v>       0.25932567       0.26024282       0.12002526 </v>
    <v>       0.24417840       0.24383177       0.63128293 </v>
    <v>       0.25674276       0.74473784       0.12321829 </v>
    <v>       0.25503175       0.74185127       0.62720257 </v>
    <v>       0.74328865       0.25507263       0.12379693 </v>
    <v>       0.74453726       0.25631772       0.62703853 </v>
    <v>       0.74627809       0.74546084       0.12239738 </v>
    <v>       0.74040428       0.74188834       0.62764642 </v>
   </varray>
  </structure>
  <varray name="forces" >
   <v>       0.00042557      -0.01197662      -0.00825910 </v>
   <v>      -0.00423373      -0.00406639       0.00795435 </v>
   <v>      -0.00729193       0.01568565      -0.00214182 </v>
   <v>       0.00974345      -0.00306184       0.00198484 </v>
   <v>       0.00403520      -0.00766214       0.00326827 </v>
   <v>       0.00674416      -0.00638278      -0.00393013 </v>
   <v>       0.00976143       0.01160877       0.00117508 </v>
   <v>      -0.00622594       0.01043140       0.00204610 </v>
   <v>      -0.00442711      -0.00429829      -0.00196027 </v>
   <v>      -0.00541641      -0.01177094       0.01393859 </v>
   <v>      -0.01124877       0.01163846      -0.00285275 </v>
   <v>       0.01025847       0.01214193       0.01253598 </v>
   <v>       0.00936370       0.00465000      -0.00330074 </v>
   <v>       0.00252230       0.00786515       0.00104035 </v>
   <v>       0.01353867       0.00526279       0.00911247 </v>
   <v>      -0.01612502      -0.00450118      -0.01075179 </v>
   <v>      -0.01107758      -0.00941022      -0.01068260 </v>
   <v>      -0.01087645       0.01414349       0.02846380 </v>
   <v>      -0.01623883       0.00043071       0.00293586 </v>
   <v>      -0.00070424       0.00160879       0.00098501 </v>
   <v>       0.01109705       0.00925787       0.00468023 </v>
   <v>      -0.00258110       0.01081443      -0.00049586 </v>
   <v>       0.01328944      -0.01882721       0.00323657 </v>
   <v>      -0.00698371       0.00181253      -0.01357245 </v>
   <v>       0.00220918       0.00319834      -0.00291305 </v>
   <v>      -0.01970170       0.01179405      -0.00921044 </v>
   <v>      -0.00928127      -0.01289875       0.00005238 </v>
   <v>      -0.00255288       0.00168213      -0.00771484 </v>
   <v>       0.00622699       0.00857848      -0.00849527 </v>
   <v>       0.01625751       0.00960262       0.01827626 </v>
   <v>       0.00387203      -0.01210284      -0.00369237 </v>
   <v>      -0.00583856       0.00031639      -0.00415587 </v>
   <v>       0.00553014       0.01270154       0.01088414 </v>
   <v>       0.00358314       0.00368664       0.01742798 </v>
   <v>      -0.01976524      -0.01253005      -0.00967161 </v>
   <v>      -0.01172894       0.00367780       0.01602197 </v>
   <v>       0.00844246       0.01140033      -0.01156929 </v>
   <v>      -0.00556012      -0.00113180       0.07179138 </v>
   <v>       0.02491364      -0.01669968      -0.01570201 </v>
   <v>      -0.01353714      -0.01557655      -0.00874882 </v>
   <v>       0.00693808       0.00579791      -0.04587428 </v>
   <v>      -0.00686677      -0.00265745       0.01142665 </v>
   <v>       0.02013907       0.00591625      -0.00475208 </v>
   <v>      -0.00755619       0.00959543      -0.06778109 </v>
   <v>       0.01117225       0.00043052       0.03945240 </v>
   <v>      -0.01084921      -0.00781844      -0.04465940 </v>
   <v>      -0.03045125      -0.02192830       0.02773741 </v>
   <v>      -0.04809622       0.05174015      -0.03388985 </v>
   <v>      -0.00514303       0.01440531       0.03478589 </v>
   <v>       0.00136158      -0.01313763       0.00976185 </v>
   <v>       0.00766367       0.00420337       0.00096259 </v>
   <v>      -0.01786099      -0.01116654       0.01096150 </v>
   <v>      -0.00898259      -0.00949223      -0.00608389 </v>
   <v>       0.09158127       0.11523084       0.02827615 </v>
   <v>      -0.02011415      -0.02085636      -0.00600761 </v>
   <v>       0.03803275       0.00312885       0.01253405 </v>
   <v>       0.01222253       0.02469153      -0.00009914 </v>
   <v>      -0.03665879      -0.00121169       0.00165675 </v>
[...]
       <r>   -15.8209     0.0000    32.0000 </r>
       <r>   -15.6691     0.0000    32.0000 </r>
       <r>   -15.5173     0.0000    32.0000 </r>
       <r>   -15.3655     0.0011    32.0002 </r>
       <r>   -15.2137     5.1845    32.7872 </r>
       <r>   -15.0618    17.3031    35.4141 </r>
       <r>   -14.9100    42.4959    41.8655 </r>
       <r>   -14.7582    50.7422    49.5689 </r>
       <r>   -14.6064    40.6244    55.7362 </r>
       <r>   -14.4546    32.6491    60.6927 </r>
       <r>   -14.3028    31.0097    65.4004 </r>
       <r>   -14.1510    75.2566    76.8254 </r>
       <r>   -13.9992   121.0644    95.2045 </r>
       <r>   -13.8473   131.3209   115.1408 </r>
       <r>   -13.6955    54.8398   123.4662 </r>
       <r>   -13.5437    10.8468   125.1129 </r>
       <r>   -13.3919     5.8369   125.9990 </r>
       <r>   -13.2401     0.0068   126.0000 </r>
       <r>   -13.0883     0.0000   126.0000 </r>
       <r>   -12.9365     0.0000   126.0000 </r>
       <r>   -12.7847     0.0012   126.0002 </r>
       <r>   -12.6328    11.6230   127.7647 </r>
       <r>   -12.4810    93.3457   141.9358 </r>
       <r>   -12.3292   177.6251   168.9016 </r>
       <r>   -12.1774   133.6620   189.1933 </r>
       <r>   -12.0256   131.6565   209.1805 </r>
       <r>   -11.8738    78.6659   221.1230 </r>
       <r>   -11.7220     5.7767   222.0000 </r>
       <r>   -11.5701     0.0002   222.0000 </r>
       <r>   -11.4183     0.0000   222.0000 </r>
       <r>   -11.2665     0.0000   222.0000 </r>
       <r>   -11.1147     0.0000   222.0000 </r>
       <r>   -10.9629     0.0000   222.0000 </r>
       <r>   -10.8111     0.0000   222.0000 </r>
       <r>   -10.6593     0.0000   222.0000 </r>
       <r>   -10.5075     0.0000   222.0000 </r>
       <r>   -10.3556     0.0000   222.0000 </r>
       <r>   -10.2038     0.0000   222.0000 </r>
       <r>   -10.0520     0.0000   222.0000 </r>
       <r>    -9.9002     0.0000   222.0000 </r>
       <r>    -9.7484     0.0000   222.0000 </r>
       <r>    -9.5966     0.0000   222.0000 </r>
       <r>    -9.4448     0.0000   222.0000 </r>
       <r>    -9.2929     0.0000   222.0000 </r>
       <r>    -9.1411     0.0000   222.0000 </r>
       <r>    -8.9893     0.0000   222.0000 </r>
       <r>    -8.8375     0.0000   222.0000 </r>
       <r>    -8.6857     0.0000   222.0000 </r>
       <r>    -8.5339     0.0000   222.0000 </r>
       <r>    -8.3821     0.0000   222.0000 </r>
       <r>    -8.2303     0.0000   222.0000 </r>
       <r>    -8.0784     0.0000   222.0000 </r>
       <r>    -7.9266     0.0000   222.0000 </r>
       <r>    -7.7748     0.0000   222.0000 </r>
       <r>    -7.6230     0.0000   222.0000 </r>
       <r>    -7.4712     0.0000   222.0000 </r>
       <r>    -7.3194     0.0000   222.0000 </r>
       <r>    -7.1676     0.0000   222.0000 </r>
       <r>    -7.0158     0.0000   222.0000 </r>
       <r>    -6.8639     0.0000   222.0000 </r>
       <r>    -6.7121     0.0000   222.0000 </r>
       <r>    -6.5603     0.0000   222.0000 </r>
       <r>    -6.4085     0.0000   222.0000 </r>
       <r>    -6.2567     0.0000   222.0000 </r>
       <r>    -6.1049     0.0000   222.0000 </r>
       <r>    -5.9531     0.0000   222.0000 </r>
       <r>    -5.8012     0.0000   222.0000 </r>
       <r>    -5.6494     0.0000   222.0000 </r>
       <r>    -5.4976     0.0000   222.0000 </r>
       <r>    -5.3458     0.0000   222.0000 </r>
       <r>    -5.1940     0.0000   222.0000 </r>
       <r>    -5.0422     0.0000   222.0000 </r>
       <r>    -4.8904     0.0000   222.0000 </r>
       <r>    -4.7386     0.0000   222.0000 </r>
       <r>    -4.5867     0.0000   222.0000 </r>
       <r>    -4.4349     0.0000   222.0000 </r>
       <r>    -4.2831     0.0000   222.0000 </r>
       <r>    -4.1313     0.0000   222.0000 </r>
       <r>    -3.9795     0.0000   222.0000 </r>
       <r>    -3.8277     0.0000   222.0000 </r>
       <r>    -3.6759     0.0000   222.0000 </r>
       <r>    -3.5240     0.0000   222.0000 </r>
       <r>    -3.3722     0.0000   222.0000 </r>
       <r>    -3.2204     0.0000   222.0000 </r>
       <r>    -3.0686     0.0000   222.0000 </r>
       <r>    -2.9168     0.0000   222.0000 </r>
       <r>    -2.7650     0.0000   222.0000 </r>
       <r>    -2.6132     0.0000   222.0000 </r>
       <r>    -2.4614     0.0000   222.0000 </r>
       <r>    -2.3095     2.0556   222.3121 </r>
       <r>    -2.1577    18.2004   225.0751 </r>
       <r>    -2.0059    31.5462   229.8643 </r>
       <r>    -1.8541    34.9585   235.1714 </r>
       <r>    -1.7023    60.5506   244.3638 </r>
       <r>    -1.5505    53.9661   252.5566 </r>
       <r>    -1.3987    60.5055   261.7421 </r>
       <r>    -1.2469    72.0912   272.6865 </r>
       <r>    -1.0950    61.4705   282.0185 </r>
       <r>    -0.9432    82.5022   294.5434 </r>
       <r>    -0.7914    74.7138   305.8860 </r>
       <r>    -0.6396    94.8262   320.2818 </r>
       <r>    -0.4878   122.5110   338.8806 </r>
       <r>    -0.3360    94.5100   353.2285 </r>
       <r>    -0.1842    53.4288   361.3397 </r>
       <r>    -0.0323    50.7604   369.0458 </r>
       <r>     0.1195    43.5579   375.6584 </r>
       <r>     0.2713    45.4976   382.5656 </r>
       <r>     0.4231    44.1512   389.2683 </r>
       <r>     0.5749    60.4632   398.4474 </r>
       <r>     0.7267    52.4407   406.4086 </r>
       <r>     0.8785    43.3958   412.9967 </r>
       <r>     1.0303    60.2433   422.1424 </r>
       <r>     1.1822    72.9624   433.2190 </r>
       <r>     1.3340    89.3983   446.7909 </r>
       <r>     1.4858    93.6907   461.0143 </r>
       <r>     1.6376    87.3525   474.2756 </r>
       <r>     1.7894    74.7408   485.6222 </r>
       <r>     1.9412    51.2176   493.3977 </r>
       <r>     2.0930    36.0259   498.8669 </r>
       <r>     2.2449    30.3559   503.4754 </r>
       <r>     2.3967     3.4557   504.0000 </r>
       <r>     2.5485     0.0000   504.0000 </r>
       <r>     2.7003     0.0000   504.0000 </r>
       <r>     2.8521     0.0000   504.0000 </r>
       <r>     3.0039     0.0000   504.0000 </r>
       <r>     3.1557     0.0000   504.0000 </r>
       <r>     3.3075     0.0000   504.0000 </r>
       <r>     3.4594     0.0000   504.0000 </r>
       <r>     3.6112     0.0000   504.0000 </r>
       <r>     3.7630     0.0000   504.0000 </r>
       <r>     3.9148     0.0000   504.0000 </r>
       <r>     4.0666     0.0000   504.0000 </r>
       <r>     4.2184     0.0000   504.0000 </r>
       <r>     4.3702     0.0001   504.0000 </r>
       <r>     4.5220     3.3102   504.5025 </r>
       <r>     4.6739    18.6989   507.3413 </r>
       <r>     4.8257    40.7740   513.5313 </r>
       <r>     4.9775    26.1640   517.5034 </r>
       <r>     5.1293    32.8168   522.4854 </r>
       <r>     5.2811    50.5664   530.1620 </r>
       <r>     5.4329    69.0669   540.6473 </r>
       <r>     5.5847    61.4966   549.9833 </r>
       <r>     5.7366    63.5832   559.6361 </r>
       <r>     5.8884    76.6227   571.2684 </r>
       <r>     6.0402   101.2559   586.6404 </r>
       <r>     6.1920    88.6229   600.0945 </r>
       <r>     6.3438    61.7564   609.4699 </r>
       <r>     6.4956    44.9559   616.2948 </r>
       <r>     6.6474    18.2449   619.0646 </r>
       <r>     6.7992    17.6415   621.7428 </r>
       <r>     6.9511    23.4292   625.2997 </r>
       <r>     7.1029    21.9800   628.6366 </r>
       <r>     7.2547    18.8780   631.5025 </r>
       <r>     7.4065    16.8290   634.0574 </r>
       <r>     7.5583    13.7347   636.1425 </r>
       <r>     7.7101     9.4934   637.5837 </r>
       <r>     7.8619    20.4489   640.6881 </r>
       <r>     8.0138    21.6055   643.9681 </r>
       <r>     8.1656    23.8953   647.5957 </r>
       <r>     8.3174    28.4264   651.9112 </r>
       <r>     8.4692    28.2619   656.2018 </r>
       <r>     8.6210    21.1049   659.4058 </r>
       <r>     8.7728    25.3037   663.2472 </r>
       <r>     8.9246    27.4435   667.4135 </r>
       <r>     9.0764    35.5005   672.8029 </r>
       <r>     9.2283    41.1830   679.0550 </r>
       <r>     9.3801    40.7217   685.2371 </r>
       <r>     9.5319    42.4744   691.6853 </r>
       <r>     9.6837    43.7105   698.3211 </r>
       <r>     9.8355    58.8976   707.2626 </r>
       <r>     9.9873    66.7387   717.3944 </r>
       <r>    10.1391    73.0650   728.4866 </r>
       <r>    10.2909    69.5007   739.0377 </r>
       <r>    10.4428    56.0114   747.5410 </r>
       <r>    10.5946    56.1743   756.0690 </r>
       <r>    10.7464    59.2975   765.0711 </r>
       <r>    10.8982    19.2819   767.9984 </r>
       <r>    11.0500     0.0107   768.0000 </r>
       <r>    11.2018     0.0000   768.0000 </r>
       <r>    11.3536     0.0000   768.0000 </r>
       <r>    11.5055     0.0000   768.0000 </r>
       <r>    11.6573     0.0000   768.0000 </r>
       <r>    11.8091     0.0000   768.0000 </r>
       <r>    11.9609     0.0000   768.0000 </r>
       <r>    12.1127     0.0000   768.0000 </r>
       <r>    12.2645     0.0000   768.0000 </r>
       <r>    12.4163     0.0000   768.0000 </r>
       <r>    12.5681     0.0000   768.0000 </r>
       <r>    12.7200     0.0000   768.0000 </r>
       <r>    12.8718     0.0000   768.0000 </r>
      </set>
     </set>
    </array>
   </total>
  </dos>
 </calculation>
 <structure name="finalpos" >
  <crystal>
   <varray name="basis" >
    <v>      11.21562418      -0.00198078      -0.00309737 </v>
    <v>      -0.00197606      11.21540636      -0.00129965 </v>
    <v>      -0.00443190      -0.00186805      15.97812379 </v>
   </varray>
   <i name="volume">   2009.85252200 </i>
   <varray name="rec_basis" >
    <v>       0.08916134       0.00001571       0.00002473 </v>
    <v>       0.00001575       0.08916307       0.00001043 </v>
    <v>       0.00001729       0.00000726       0.06258558 </v>
   </varray>
  </crystal>
  <varray name="positions" >
   <v>       0.99596530       0.24868958       0.12761298 </v>
   <v>       0.99432238       0.25340478       0.61872214 </v>
   <v>      -0.00044885       0.75125014       0.12632144 </v>
   <v>       0.00144570       0.74570701       0.62019546 </v>
   <v>       0.50362153       0.24534226       0.12921330 </v>
   <v>       0.50510685       0.24426422       0.61884543 </v>
   <v>       0.50039034       0.75564556       0.12820793 </v>
   <v>       0.49891108       0.75627634       0.62070175 </v>
   <v>       0.00003342       0.24594137       0.37221147 </v>
   <v>       0.99155020       0.25378625       0.88274622 </v>
   <v>       0.00032287       0.75324705       0.37418274 </v>
   <v>      -0.00000207       0.74719996       0.87923876 </v>
   <v>       0.50020550       0.24836673       0.37169959 </v>
   <v>       0.51023633       0.23943518       0.88030155 </v>
   <v>       0.50016998       0.75153587       0.37434278 </v>
   <v>       0.49791126       0.76130754       0.87856787 </v>
   <v>       0.24955291       0.00174787       0.12803355 </v>
   <v>       0.25033001       0.99962723       0.61923450 </v>
   <v>       0.24432134       0.49864929       0.12950095 </v>
   <v>       0.24256056       0.50239507       0.62144573 </v>
   <v>       0.75105795       0.00689864       0.12616823 </v>
   <v>       0.74814212       0.00324704       0.62275919 </v>
   <v>       0.75465135       0.49372107       0.12835045 </v>
   <v>       0.75460100       0.49865011       0.62094959 </v>
   <v>       0.24780061       0.00198210       0.37239109 </v>
   <v>       0.25120700       0.99808723       0.88062699 </v>
   <v>       0.24848062       0.49712691       0.37365458 </v>
   <v>       0.23649584       0.50481290       0.87759317 </v>
   <v>       0.75327982       0.00247451       0.37362643 </v>
   <v>       0.74843617       0.00358244       0.87922478 </v>
   <v>       0.75188689       0.49756574       0.37290064 </v>
   <v>       0.75974412       0.49785126       0.87836392 </v>
   <v>      -0.00015104       0.00231121       0.00205712 </v>
   <v>       0.99862003       0.49933989       0.00215012 </v>
   <v>       0.99985661       0.50003658       0.49823184 </v>
   <v>       0.50121724       0.00127738       0.00146514 </v>
   <v>       0.50004869       0.00006087       0.49869872 </v>
   <v>       0.49943976       0.49928811       0.00766552 </v>
   <v>       0.49985499       0.50002248       0.49640631 </v>
   <v>       0.25005472       0.24983804       0.00027758 </v>
   <v>       0.24852819       0.24844782       0.49756603 </v>
   <v>       0.24954338       0.74987941       0.00026610 </v>
   <v>       0.24912881       0.75083421       0.49920745 </v>
   <v>       0.75090042       0.24907162       0.49718638 </v>
   <v>       0.74942812       0.75044156       0.99962061 </v>
   <v>       0.75103607       0.75141413       0.50014410 </v>
   <v>       0.26481283       0.26002059       0.75208936 </v>
   <v>       0.25026162       0.74928070       0.25008189 </v>
   <v>       0.25034255       0.75175454       0.75066610 </v>
   <v>       0.75021858       0.25036836       0.75207521 </v>
   <v>       0.74985994       0.75001087       0.24993504 </v>
   <v>       0.74511684       0.74623417       0.75091636 </v>
   <v>       0.99957285       0.00200111       0.25105775 </v>
   <v>       0.99161225       0.98646238       0.74902900 </v>
   <v>      -0.00003179       0.49731095       0.25066032 </v>
   <v>       0.99859254       0.50003085       0.74960330 </v>
   <v>       0.49983301       0.00240561       0.25054390 </v>
   <v>       0.49937321       0.99954019       0.74949820 </v>
   <v>       0.49957389       0.49753760       0.25283988 </v>
   <v>       0.50248340       0.50393849       0.74090149 </v>
   <v>       0.00169213       0.00132862       0.50069789 </v>
   <v>       0.74961068       0.25094907       0.00175421 </v>
   <v>       0.25125363       0.25101039       0.24955494 </v>
   <v>       0.74955565       0.25057482       0.24904049 </v>
   <v>       0.11252279       0.13695118       0.24766086 </v>
   <v>       0.11107300       0.63943951       0.24916358 </v>
   <v>       0.11134336       0.63891866       0.74991708 </v>
   <v>       0.61047802       0.13639758       0.25079398 </v>
   <v>       0.60962782       0.13940629       0.74875863 </v>
   <v>       0.60888858       0.64003713       0.25116441 </v>
   <v>       0.60514207       0.63799269       0.76414062 </v>
   <v>       0.39139276       0.36278629       0.24925225 </v>
   <v>       0.39543992       0.36232785       0.76373362 </v>
   <v>       0.38934053       0.85978086       0.25025706 </v>
   <v>       0.39266730       0.85702358       0.74930591 </v>
   <v>       0.88946633       0.36360492       0.25040983 </v>
   <v>       0.88699718       0.36281477       0.75012691 </v>
   <v>       0.88812512       0.85892945       0.24778330 </v>
   <v>       0.89237619       0.85505336       0.74412008 </v>
   <v>       0.36255386       0.11021145       0.24944695 </v>
   <v>       0.35439777       0.10738993       0.75026223 </v>
   <v>       0.36024979       0.61010619       0.25070841 </v>
   <v>       0.36337198       0.60383401       0.76147132 </v>
   <v>       0.86335739       0.11057055       0.24921754 </v>
   <v>       0.86841170       0.11375595       0.74937885 </v>
   <v>       0.85984621       0.61115962       0.24988202 </v>
   <v>       0.85825508       0.60914828       0.74955669 </v>
   <v>       0.13784185       0.39013453       0.24964435 </v>
   <v>       0.13567371       0.38164363       0.74920438 </v>
   <v>       0.13991876       0.88673803       0.24788114 </v>
   <v>       0.14495903       0.89646754       0.74898764 </v>
   <v>       0.63710246       0.39274166       0.25094738 </v>
   <v>       0.63409076       0.39430976       0.76231068 </v>
   <v>       0.63901002       0.88810098       0.24824096 </v>
   <v>       0.64192193       0.89023324       0.74963784 </v>
   <v>       0.36841273       0.38623702       0.97751154 </v>
   <v>       0.36082826       0.38970055       0.50763915 </v>
   <v>       0.36463351       0.88402817       0.99934201 </v>
   <v>       0.36244270       0.88785739       0.50102666 </v>
   <v>       0.86732423       0.38686892       0.99831954 </v>
   <v>       0.86146583       0.38959713       0.50142477 </v>
   <v>       0.86356923       0.88686149       0.99680140 </v>
   <v>       0.86196341       0.88641427       0.51008726 </v>
   <v>       0.13853357       0.11254055       0.00580328 </v>
   <v>       0.14116801       0.11287906       0.49612112 </v>
   <v>       0.13602632       0.61393928       0.00022771 </v>
   <v>       0.13934765       0.61052756       0.50059385 </v>
   <v>       0.63356444       0.11312433       0.99888654 </v>
   <v>       0.63781941       0.11101628       0.50170720 </v>
   <v>       0.63023142       0.61342572       0.98589358 </v>
   <v>       0.63901796       0.60915133       0.49827062 </v>
   <v>       0.11601359       0.36519916       0.99800978 </v>
   <v>       0.11078987       0.36205433       0.50117392 </v>
   <v>       0.11320173       0.86178076       0.99943229 </v>
   <v>       0.11383505       0.85980928       0.50488717 </v>
   <v>       0.61133115       0.37182232       0.98752519 </v>
   <v>       0.60890941       0.36139531       0.50023003 </v>
   <v>       0.61337374       0.86328702       0.99981310 </v>
   <v>       0.61115419       0.86092263       0.50063273 </v>
   <v>       0.38563880       0.13577033       0.99570503 </v>
   <v>       0.38996676       0.13922983       0.50150247 </v>
   <v>       0.38679479       0.63091234       0.98670855 </v>
   <v>       0.39042604       0.63883587       0.50049106 </v>
   <v>       0.88879443       0.13466125       0.00077384 </v>
   <v>       0.88654584       0.13932999       0.50207509 </v>
   <v>       0.88533876       0.63653196       0.99919505 </v>
   <v>       0.88892361       0.63874256       0.50093172 </v>
   <v>       0.99852072       0.99571902       0.12423210 </v>
   <v>       0.01737282       0.02022395       0.63256212 </v>
   <v>      -0.00015653       0.50068556       0.12473590 </v>
   <v>       0.00035330       0.50163843       0.62506367 </v>
   <v>       0.49833520       0.99984376       0.12433742 </v>
   <v>       0.50011869       0.99950090       0.62515224 </v>
   <v>       0.49701688       0.49982902       0.12311010 </v>
   <v>       0.50365859       0.50329171       0.62659756 </v>
   <v>       0.99862814       0.99535083       0.37440596 </v>
   <v>       0.01040137       0.00994543       0.87053604 </v>
   <v>       0.00005002       0.50143921       0.37577020 </v>
   <v>       0.00045254       0.50252424       0.87426147 </v>
   <v>       0.49983920       0.99856074       0.37582728 </v>
   <v>       0.50087483       0.99816914       0.87389695 </v>
   <v>       0.49600104       0.49852200       0.37588226 </v>
   <v>       0.25378697       0.25447086       0.37677078 </v>
   <v>       0.22593093       0.23090080       0.86800968 </v>
   <v>       0.24928884       0.75040104       0.37563228 </v>
   <v>       0.24544124       0.75339419       0.87409957 </v>
   <v>       0.74968371       0.25047176       0.37667746 </v>
   <v>       0.75243213       0.24459343       0.87350817 </v>
   <v>       0.75186849       0.75319536       0.37596141 </v>
   <v>       0.75643952       0.75551978       0.87347574 </v>
   <v>       0.25996244       0.25947972       0.11970635 </v>
   <v>       0.24256452       0.24285813       0.63117460 </v>
   <v>       0.25621986       0.74519733       0.12338920 </v>
   <v>       0.25481972       0.74278357       0.62720278 </v>
   <v>       0.74465905       0.25483795       0.12385306 </v>
   <v>       0.74451625       0.25561899       0.62712823 </v>
   <v>       0.74582316       0.74429270       0.12250385 </v>
   <v>       0.73933675       0.74043511       0.62760226 </v>
  </varray>
 </structure>
</modeling>
