       N       E                     dE             d eps       ncg     rms          rms(c)
DAV:   1    -0.108688148805E+04   -0.10869E+04   -0.98362E-03 13544   0.234E-01    0.335E-02
RMM:   2    -0.108688148640E+04    0.16467E-05   -0.24832E-05  6540   0.802E-03    0.570E-02
RMM:   3    -0.108688148668E+04   -0.27900E-06   -0.66544E-06  5832   0.473E-03    0.441E-03
RMM:   4    -0.108688148667E+04    0.10827E-07   -0.15181E-06  2737   0.197E-03    0.297E-03
RMM:   5    -0.108688148669E+04   -0.20445E-07   -0.10831E-06  2744   0.227E-03    0.322E-03
RMM:   6    -0.108688148672E+04   -0.26834E-07   -0.45919E-07  2093   0.180E-03    0.130E-03
RMM:   7    -0.108688148672E+04   -0.66939E-08   -0.30649E-07  1770   0.185E-03    0.645E-04
RMM:   8    -0.108688148674E+04   -0.13199E-07   -0.10442E-07  1411   0.173E-03
   1 F= -.10868815E+04 E0= -.10868815E+04  d E =-.108688E+04  mag=    60.0000
       N       E                     dE             d eps       ncg     rms          rms(c)
DAV:   1    -0.108688157434E+04   -0.87621E-04   -0.25723E-01 12672   0.600E-01    0.228E-01
RMM:   2    -0.108688209090E+04   -0.51656E-03   -0.88739E-03 12324   0.127E-01    0.202E-01
RMM:   3    -0.108688201525E+04    0.75651E-04   -0.45247E-04 10340   0.386E-02    0.125E-01
RMM:   4    -0.108688192861E+04    0.86641E-04   -0.20241E-04  7938   0.178E-02    0.711E-02
RMM:   5    -0.108688191220E+04    0.16406E-04   -0.74254E-05  7331   0.118E-02    0.514E-02
RMM:   6    -0.108688191441E+04   -0.22130E-05   -0.22608E-05  7126   0.801E-03    0.242E-02
RMM:   7    -0.108688191572E+04   -0.13080E-05   -0.96151E-06  6544   0.428E-03    0.137E-02
RMM:   8    -0.108688191712E+04   -0.13947E-05   -0.50139E-06  6078   0.385E-03
   2 F= -.10868819E+04 E0= -.10868819E+04  d E =-.430381E-03  mag=    60.0000
       N       E                     dE             d eps       ncg     rms          rms(c)
DAV:   1    -0.108688203805E+04   -0.12233E-03   -0.26536E-02 12752   0.193E-01    0.726E-02
RMM:   2    -0.108688208926E+04   -0.51206E-04   -0.90851E-04 11897   0.412E-02    0.642E-02
RMM:   3    -0.108688208122E+04    0.80429E-05   -0.39629E-05  6666   0.127E-02    0.404E-02
RMM:   4    -0.108688207267E+04    0.85425E-05   -0.21223E-05  6502   0.661E-03    0.243E-02
RMM:   5    -0.108688206978E+04    0.28925E-05   -0.98871E-06  5739   0.461E-03    0.248E-02
RMM:   6    -0.108688206960E+04    0.18351E-06   -0.31038E-06  4849   0.320E-03    0.682E-03
RMM:   7    -0.108688206942E+04    0.18062E-06   -0.30374E-07  2578   0.176E-03    0.381E-03
RMM:   8    -0.108688206920E+04    0.21992E-06   -0.64975E-08  1893   0.173E-03
   3 F= -.10868821E+04 E0= -.10868821E+04  d E =-.582461E-03  mag=    60.0000
       N       E                     dE             d eps       ncg     rms          rms(c)
DAV:   1    -0.108688198547E+04    0.83951E-04   -0.23811E-01 12656   0.582E-01    0.172E-01
RMM:   2    -0.108688264475E+04   -0.65929E-03   -0.63125E-03 12366   0.106E-01    0.116E-01
RMM:   3    -0.108688266436E+04   -0.19606E-04   -0.28869E-04  8647   0.349E-02    0.691E-02
RMM:   4    -0.108688264457E+04    0.19787E-04   -0.91213E-05  7150   0.133E-02    0.384E-02
RMM:   5    -0.108688264372E+04    0.85183E-06   -0.33833E-05  6986   0.901E-03    0.329E-02
RMM:   6    -0.108688264492E+04   -0.12001E-05   -0.12860E-05  6725   0.550E-03    0.104E-02
RMM:   7    -0.108688264545E+04   -0.52877E-06   -0.54386E-06  5511   0.378E-03    0.660E-03
RMM:   8    -0.108688264574E+04   -0.29069E-06   -0.32912E-06  4511   0.279E-03
   4 F= -.10868826E+04 E0= -.10868826E+04  d E =-.576543E-03  mag=    60.0000
       N       E                     dE             d eps       ncg     rms          rms(c)
DAV:   1    -0.108688242318E+04    0.22227E-03   -0.12395E-01 12568   0.420E-01    0.124E-01
RMM:   2    -0.108688277067E+04   -0.34749E-03   -0.33309E-03 12340   0.769E-02    0.846E-02
RMM:   3    -0.108688278028E+04   -0.96057E-05   -0.14880E-04  7554   0.254E-02    0.503E-02
RMM:   4    -0.108688277114E+04    0.91404E-05   -0.52768E-05  7051   0.104E-02    0.280E-02
RMM:   5    -0.108688277080E+04    0.34425E-06   -0.21648E-05  6933   0.705E-03    0.267E-02
RMM:   6    -0.108688277154E+04   -0.74747E-06   -0.88755E-06  6251   0.456E-03    0.809E-03
RMM:   7    -0.108688277192E+04   -0.37375E-06   -0.38535E-06  5067   0.325E-03    0.475E-03
RMM:   8    -0.108688277209E+04   -0.17264E-06   -0.21570E-06  3909   0.252E-03
   5 F= -.10868828E+04 E0= -.10868828E+04  d E =-.702893E-03  mag=    60.0000
       N       E                     dE             d eps       ncg     rms          rms(c)
DAV:   1    -0.108688284155E+04   -0.69638E-04   -0.13423E-01 12416   0.432E-01    0.107E-01
RMM:   2    -0.108688318714E+04   -0.34559E-03   -0.35679E-03 12360   0.782E-02    0.752E-02
RMM:   3    -0.108688318912E+04   -0.19769E-05   -0.15841E-04  7489   0.258E-02    0.461E-02
RMM:   4    -0.108688318111E+04    0.80046E-05   -0.50577E-05  7004   0.102E-02    0.288E-02
RMM:   5    -0.108688318054E+04    0.57183E-06   -0.21869E-05  6808   0.714E-03    0.311E-02
RMM:   6    -0.108688318147E+04   -0.93339E-06   -0.93732E-06  6141   0.462E-03    0.716E-03
RMM:   7    -0.108688318199E+04   -0.52001E-06   -0.39444E-06  5013   0.328E-03    0.519E-03
RMM:   8    -0.108688318235E+04   -0.35678E-06   -0.23022E-06  3804   0.258E-03
   6 F= -.10868832E+04 E0= -.10868832E+04  d E =-.410262E-03  mag=    60.0000
