<?xml version="1.0" encoding="ISO-8859-1"?>
<modeling>
 <generator>
  <i name="program" type="string">vasp </i>
  <i name="version" type="string">5.4.1  </i>
  <i name="subversion" type="string">05Feb16 (build Jan 25 2017 20:16:33) complex                          parallel </i>
  <i name="platform" type="string">BWXE6 </i>
  <i name="date" type="string">2019 06 18 </i>
  <i name="time" type="string">09:36:57 </i>
 </generator>
 <incar>
  <i type="string" name="SYSTEM"> STF</i>
  <i type="string" name="PREC">normal</i>
  <i type="string" name="ALGO"> Fast</i>
  <i type="int" name="ISPIN">     2</i>
  <i type="int" name="NELM">    40</i>
  <i type="int" name="NELMIN">     8</i>
  <i type="int" name="IBRION">     2</i>
  <i name="EDIFF">      0.00010000</i>
  <i name="EDIFFG">     -0.03000000</i>
  <i type="int" name="NSW">    30</i>
  <i type="int" name="ISIF">     3</i>
  <i name="ENCUT">    520.00000000</i>
  <i type="int" name="NBANDS">   768</i>
  <v name="MAGMOM">      0.60000000      0.60000000      0.60000000      0.60000000      0.60000000      0.60000000      0.60000000      0.60000000      0.60000000      0.60000000      0.60000000      0.60000000      0.60000000      0.60000000      0.60000000      0.60000000      0.60000000      0.60000000      0.60000000      0.60000000
      0.60000000      0.60000000      0.60000000      0.60000000      0.60000000      0.60000000      0.60000000      0.60000000      0.60000000      0.60000000      0.60000000      0.60000000      0.60000000      0.60000000      0.60000000      0.60000000      0.60000000      0.60000000      0.60000000      0.60000000
      0.60000000      0.60000000      0.60000000      0.60000000      0.60000000      0.60000000      0.60000000      0.60000000      0.60000000      0.60000000      0.60000000      0.60000000      5.00000000      5.00000000      5.00000000      5.00000000      5.00000000      5.00000000      5.00000000      5.00000000
      5.00000000      5.00000000      5.00000000      5.00000000      0.60000000      0.60000000      0.60000000      0.60000000      0.60000000      0.60000000      0.60000000      0.60000000      0.60000000      0.60000000      0.60000000      0.60000000      0.60000000      0.60000000      0.60000000      0.60000000
      0.60000000      0.60000000      0.60000000      0.60000000      0.60000000      0.60000000      0.60000000      0.60000000      0.60000000      0.60000000      0.60000000      0.60000000      0.60000000      0.60000000      0.60000000      0.60000000      0.60000000      0.60000000      0.60000000      0.60000000
      0.60000000      0.60000000      0.60000000      0.60000000      0.60000000      0.60000000      0.60000000      0.60000000      0.60000000      0.60000000      0.60000000      0.60000000      0.60000000      0.60000000      0.60000000      0.60000000      0.60000000      0.60000000      0.60000000      0.60000000
      0.60000000      0.60000000      0.60000000      0.60000000      0.60000000      0.60000000      0.60000000      0.60000000      0.60000000      0.60000000      0.60000000      0.60000000      0.60000000      0.60000000      0.60000000      0.60000000      0.60000000      0.60000000      0.60000000      0.60000000
      0.60000000      0.60000000      0.60000000      0.60000000      0.60000000      0.60000000      0.60000000      0.60000000      0.60000000      0.60000000      0.60000000      0.60000000      0.60000000      0.60000000</v>
  <i type="string" name="LREAL"> Auto</i>
  <i type="int" name="ISMEAR">     0</i>
  <i name="SIGMA">      0.05000000</i>
  <i type="int" name="LMAXMIX">     4</i>
  <v type="int" name="KPOINT_BSE">    -1     0     0     0</v>
  <i type="int" name="NELM">    40</i>
  <i type="logical" name="LDAU"> T  </i>
  <v type="int" name="LDAUTYPE">     2</v>
  <v type="int" name="LDAUL">     0     2     2     0</v>
  <v name="LDAUU">      0.00000000      3.00000000      5.00000000      0.00000000</v>
  <v name="LDAUJ">      0.00000000      0.00000000      0.00000000      0.00000000</v>
  <i type="int" name="LDAUPRINT">     1</i>
 </incar>
 <kpoints>
  <generation param="Monkhorst-Pack">
   <v type="int" name="divisions">       2        2        2 </v>
   <v name="usershift">      0.00000000       0.00000000       0.00000000 </v>
   <v name="genvec1">      0.50000000       0.00000000       0.00000000 </v>
   <v name="genvec2">      0.00000000       0.50000000      -0.00000000 </v>
   <v name="genvec3">     -0.00000000       0.00000000       0.50000000 </v>
   <v name="shift">      0.50000000       0.50000000       0.50000000 </v>
  </generation>
  <varray name="kpointlist" >
   <v>       0.25000000       0.25000000       0.25000000 </v>
   <v>      -0.25000000       0.25000000       0.25000000 </v>
   <v>       0.25000000      -0.25000000       0.25000000 </v>
   <v>      -0.25000000      -0.25000000       0.25000000 </v>
  </varray>
  <varray name="weights" >
   <v>       0.25000000 </v>
   <v>       0.25000000 </v>
   <v>       0.25000000 </v>
   <v>       0.25000000 </v>
  </varray>
 </kpoints>
 <parameters>
  <separator name="general" >
   <i type="string" name="SYSTEM">STF</i>
   <i type="logical" name="LCOMPAT"> F  </i>
  </separator>
  <separator name="electronic" >
   <i type="string" name="PREC">normal</i>
   <i name="ENMAX">    520.00000000</i>
   <i name="ENAUG">    605.39200000</i>
   <i name="EDIFF">      0.00010000</i>
   <i type="int" name="IALGO">    68</i>
   <i type="int" name="IWAVPR">    11</i>
   <i type="int" name="NBANDS">   768</i>
   <i name="NELECT">   1036.00000000</i>
   <i type="int" name="TURBO">     0</i>
   <i type="int" name="IRESTART">     0</i>
   <i type="int" name="NREBOOT">     0</i>
   <i type="int" name="NMIN">     0</i>
   <i name="EREF">      0.00000000</i>
   <separator name="electronic smearing" >
    <i type="int" name="ISMEAR">     0</i>
    <i name="SIGMA">      0.05000000</i>
    <i name="KSPACING">      0.50000000</i>
    <i type="logical" name="KGAMMA"> T  </i>
   </separator>
   <separator name="electronic projectors" >
    <i type="logical" name="LREAL"> T  </i>
    <v name="ROPT">     -0.00050000     -0.00050000     -0.00050000     -0.00050000</v>
    <i type="int" name="LMAXPAW">  -100</i>
    <i type="int" name="LMAXMIX">     4</i>
    <i type="logical" name="NLSPLINE"> F  </i>
   </separator>
   <separator name="electronic startup" >
    <i type="int" name="ISTART">     1</i>
    <i type="int" name="ICHARG">     0</i>
    <i type="int" name="INIWAV">     1</i>
   </separator>
   <separator name="electronic spin" >
    <i type="int" name="ISPIN">     2</i>
    <i type="logical" name="LNONCOLLINEAR"> F  </i>
    <v name="MAGMOM">      0.60000000      0.60000000      0.60000000      0.60000000      0.60000000      0.60000000      0.60000000      0.60000000      0.60000000      0.60000000      0.60000000      0.60000000      0.60000000      0.60000000      0.60000000      0.60000000      0.60000000      0.60000000      0.60000000      0.60000000
      0.60000000      0.60000000      0.60000000      0.60000000      0.60000000      0.60000000      0.60000000      0.60000000      0.60000000      0.60000000      0.60000000      0.60000000      0.60000000      0.60000000      0.60000000      0.60000000      0.60000000      0.60000000      0.60000000      0.60000000
      0.60000000      0.60000000      0.60000000      0.60000000      0.60000000      0.60000000      0.60000000      0.60000000      0.60000000      0.60000000      0.60000000      0.60000000      5.00000000      5.00000000      5.00000000      5.00000000      5.00000000      5.00000000      5.00000000      5.00000000
      5.00000000      5.00000000      5.00000000      5.00000000      0.60000000      0.60000000      0.60000000      0.60000000      0.60000000      0.60000000      0.60000000      0.60000000      0.60000000      0.60000000      0.60000000      0.60000000      0.60000000      0.60000000      0.60000000      0.60000000
      0.60000000      0.60000000      0.60000000      0.60000000      0.60000000      0.60000000      0.60000000      0.60000000      0.60000000      0.60000000      0.60000000      0.60000000      0.60000000      0.60000000      0.60000000      0.60000000      0.60000000      0.60000000      0.60000000      0.60000000
      0.60000000      0.60000000      0.60000000      0.60000000      0.60000000      0.60000000      0.60000000      0.60000000      0.60000000      0.60000000      0.60000000      0.60000000      0.60000000      0.60000000      0.60000000      0.60000000      0.60000000      0.60000000      0.60000000      0.60000000
      0.60000000      0.60000000      0.60000000      0.60000000      0.60000000      0.60000000      0.60000000      0.60000000      0.60000000      0.60000000      0.60000000      0.60000000      0.60000000      0.60000000      0.60000000      0.60000000      0.60000000      0.60000000      0.60000000      0.60000000
      0.60000000      0.60000000      0.60000000      0.60000000      0.60000000      0.60000000      0.60000000      0.60000000      0.60000000      0.60000000      0.60000000      0.60000000      0.60000000      0.60000000</v>
    <i name="NUPDOWN">     -1.00000000</i>
    <i type="logical" name="LSORBIT"> F  </i>
    <v name="SAXIS">      0.00000000      0.00000000      1.00000000</v>
    <i type="logical" name="LSPIRAL"> F  </i>
    <v name="QSPIRAL">      0.00000000      0.00000000      0.00000000</v>
    <i type="logical" name="LZEROZ"> F  </i>
   </separator>
   <separator name="electronic exchange-correlation" >
    <i type="logical" name="LASPH"> F  </i>
    <i type="logical" name="LMETAGGA"> F  </i>
   </separator>
   <separator name="electronic convergence" >
    <i type="int" name="NELM">    40</i>
    <i type="int" name="NELMDL">     0</i>
    <i type="int" name="NELMIN">     8</i>
    <i name="ENINI">    520.00000000</i>
    <separator name="electronic convergence detail" >
     <i type="logical" name="LDIAG"> T  </i>
     <i type="logical" name="LSUBROT"> F  </i>
     <i name="WEIMIN">      0.00100000</i>
     <i name="EBREAK">      0.00000003</i>
     <i name="DEPER">      0.30000000</i>
     <i type="int" name="NRMM">     4</i>
     <i name="TIME">      0.40000000</i>
    </separator>
   </separator>
   <separator name="electronic mixer" >
    <i name="AMIX">      0.40000000</i>
    <i name="BMIX">      1.00000000</i>
    <i name="AMIN">      0.10000000</i>
    <i name="AMIX_MAG">      1.60000000</i>
    <i name="BMIX_MAG">      1.00000000</i>
    <separator name="electronic mixer details" >
     <i type="int" name="IMIX">     4</i>
     <i type="logical" name="MIXFIRST"> F  </i>
     <i type="int" name="MAXMIX">   -45</i>
     <i name="WC">    100.00000000</i>
     <i type="int" name="INIMIX">     1</i>
     <i type="int" name="MIXPRE">     1</i>
     <i type="int" name="MREMOVE">     5</i>
    </separator>
   </separator>
   <separator name="electronic dipolcorrection" >
    <i type="logical" name="LDIPOL"> F  </i>
    <i type="logical" name="LMONO"> F  </i>
    <i type="int" name="IDIPOL">     0</i>
    <i name="EPSILON">      1.00000000</i>
    <v name="DIPOL">   -100.00000000   -100.00000000   -100.00000000</v>
    <i name="EFIELD">      0.00000000</i>
   </separator>
  </separator>
  <separator name="grids" >
   <i type="int" name="NGX">    64</i>
   <i type="int" name="NGY">    64</i>
   <i type="int" name="NGZ">    90</i>
   <i type="int" name="NGXF">   128</i>
   <i type="int" name="NGYF">   128</i>
   <i type="int" name="NGZF">   180</i>
   <i type="logical" name="ADDGRID"> F  </i>
  </separator>
  <separator name="ionic" >
   <i type="int" name="NSW">    30</i>
   <i type="int" name="IBRION">     2</i>
   <i type="int" name="ISIF">     3</i>
   <i name="PSTRESS">      0.00000000</i>
   <i name="EDIFFG">     -0.03000000</i>
   <i type="int" name="NFREE">     1</i>
   <i name="POTIM">      0.50000000</i>
   <i name="SMASS">     -3.00000000</i>
   <i name="SCALEE">      1.00000000</i>
  </separator>
  <separator name="ionic md" >
   <i name="TEBEG">      0.00010000</i>
   <i name="TEEND">      0.00010000</i>
   <i type="int" name="NBLOCK">     1</i>
   <i type="int" name="KBLOCK">    30</i>
   <i type="int" name="NPACO">   256</i>
   <i name="APACO">     16.00000000</i>
  </separator>
  <separator name="symmetry" >
   <i type="int" name="ISYM">     2</i>
   <i name="SYMPREC">      0.00001000</i>
  </separator>
  <separator name="dos" >
   <i type="logical" name="LORBIT"> F  </i>
   <v name="RWIGS">     -1.00000000     -1.00000000     -1.00000000     -1.00000000</v>
   <i type="int" name="NEDOS">   301</i>
   <i name="EMIN">     10.00000000</i>
   <i name="EMAX">    -10.00000000</i>
   <i name="EFERMI">      0.00000000</i>
  </separator>
  <separator name="writing" >
   <i type="int" name="NWRITE">     2</i>
   <i type="logical" name="LWAVE"> T  </i>
   <i type="logical" name="LCHARG"> T  </i>
   <i type="logical" name="LPARD"> F  </i>
   <i type="logical" name="LVTOT"> F  </i>
   <i type="logical" name="LVHAR"> F  </i>
   <i type="logical" name="LELF"> F  </i>
   <i type="logical" name="LOPTICS"> F  </i>
   <v name="STM">      0.00000000      0.00000000      0.00000000      0.00000000      0.00000000      0.00000000      0.00000000</v>
  </separator>
  <separator name="performance" >
   <i type="int" name="NPAR">     2</i>
   <i type="int" name="NSIM">     4</i>
   <i type="int" name="NBLK">    -1</i>
   <i type="logical" name="LPLANE"> T  </i>
   <i type="logical" name="LSCALAPACK"> T  </i>
   <i type="logical" name="LSCAAWARE"> F  </i>
   <i type="logical" name="LSCALU"> F  </i>
   <i type="logical" name="LASYNC"> F  </i>
   <i type="logical" name="LORBITALREAL"> F  </i>
  </separator>
  <separator name="miscellaneous" >
   <i type="int" name="IDIOT">     3</i>
   <i type="logical" name="LMUSIC"> F  </i>
   <v name="POMASS">     87.62000000     47.88000000     55.84700000     16.00000000</v>
   <v name="DARWINR">      0.00000000      0.00000000      0.00000000      0.00000000</v>
   <v name="DARWINV">      1.00000000      1.00000000      1.00000000      1.00000000</v>
   <i type="logical" name="LCORR"> T  </i>
  </separator>
  <i type="logical" name="GGA_COMPAT"> T  </i>
  <i type="logical" name="LBERRY"> F  </i>
  <i type="int" name="ICORELEVEL">     0</i>
  <i type="logical" name="LDAU"> T  </i>
  <v type="int" name="LDAUTYPE">     2</v>
  <v type="int" name="LDAUL">     0</v>
  <v name="LDAUU">      0.00000000</v>
  <v name="LDAUJ">      0.00000000</v>
  <i type="int" name="LDAUPRINT">     1</i>
  <i type="int" name="I_CONSTRAINED_M">     0</i>
  <separator name="electronic exchange-correlation" >
   <i type="string" name="GGA">--</i>
   <i type="int" name="VOSKOWN">     0</i>
   <i type="logical" name="LHFCALC"> F  </i>
   <i type="string" name="PRECFOCK"></i>
   <i type="logical" name="LSYMGRAD"> F  </i>
   <i type="logical" name="LHFONE"> F  </i>
   <i type="logical" name="LRHFCALC"> F  </i>
   <i type="logical" name="LTHOMAS"> F  </i>
   <i type="logical" name="LMODELHF"> F  </i>
   <i name="ENCUT4O">     -1.00000000</i>
   <i type="int" name="EXXOEP">     0</i>
   <i type="int" name="FOURORBIT">     0</i>
   <i name="AEXX">      0.00000000</i>
   <i name="HFALPHA">      0.00000000</i>
   <i name="MCALPHA">      0.00000000</i>
   <i name="ALDAX">      1.00000000</i>
   <i name="AGGAX">      1.00000000</i>
   <i name="ALDAC">      1.00000000</i>
   <i name="AGGAC">      1.00000000</i>
   <i type="int" name="NKREDX">     1</i>
   <i type="int" name="NKREDY">     1</i>
   <i type="int" name="NKREDZ">     1</i>
   <i type="logical" name="SHIFTRED"> F  </i>
   <i type="logical" name="ODDONLY"> F  </i>
   <i type="logical" name="EVENONLY"> F  </i>
   <i type="int" name="LMAXFOCK">     0</i>
   <i type="int" name="NMAXFOCKAE">     0</i>
   <i type="logical" name="LFOCKAEDFT"> F  </i>
   <i name="HFSCREEN">      0.00000000</i>
   <i name="HFSCREENC">      0.00000000</i>
   <i type="int" name="NBANDSGWLOW">     0</i>
  </separator>
  <separator name="vdW DFT" >
   <i type="logical" name="LUSE_VDW"> F  </i>
   <i name="Zab_VDW">     -0.84910000</i>
   <i name="PARAM1">      0.12340000</i>
   <i name="PARAM2">      1.00000000</i>
   <i name="PARAM3">      0.00000000</i>
  </separator>
  <separator name="model GW" >
   <i type="int" name="MODEL_GW">     0</i>
   <i name="MODEL_EPS0">      7.80700462</i>
   <i name="MODEL_ALPHA">      1.00000000</i>
  </separator>
  <separator name="linear response parameters" >
   <i type="logical" name="LEPSILON"> F  </i>
   <i type="logical" name="LRPA"> F  </i>
   <i type="logical" name="LNABLA"> F  </i>
   <i type="logical" name="LVEL"> F  </i>
   <i type="int" name="KINTER">     0</i>
   <i name="CSHIFT">      0.10000000</i>
   <i name="OMEGAMAX">     -1.00000000</i>
   <i name="DEG_THRESHOLD">      0.00200000</i>
  </separator>
  <separator name="orbital magnetization" >
   <i type="logical" name="NUCIND"> F  </i>
   <v name="MAGPOS">      0.00000000      0.00000000      0.00000000</v>
   <i type="logical" name="LNICSALL"> T  </i>
   <i type="logical" name="ORBITALMAG"> F  </i>
   <i type="logical" name="LMAGBLOCH"> F  </i>
   <i type="logical" name="LCHIMAG"> F  </i>
   <i type="logical" name="LGAUGE"> T  </i>
   <i type="int" name="MAGATOM">     0</i>
   <v name="MAGDIPOL">      0.00000000      0.00000000      0.00000000</v>
   <v name="AVECCONST">      0.00000000      0.00000000      0.00000000</v>
  </separator>
  <separator name="response functions" >
   <i type="logical" name="LADDER"> F  </i>
   <i type="logical" name="LFXC"> F  </i>
   <i type="logical" name="LHARTREE"> T  </i>
   <i type="int" name="IBSE">     0</i>
   <v type="int" name="KPOINT">    -1     0     0     0</v>
   <i type="logical" name="LTCTE"> F  </i>
   <i type="logical" name="LTETE"> F  </i>
   <i type="logical" name="LTRIPLET"> F  </i>
   <i type="logical" name="LFXCEPS"> F  </i>
   <i type="logical" name="LFXHEG"> F  </i>
   <i type="int" name="NATURALO">     0</i>
   <i type="logical" name="L2ORDER"> F  </i>
   <i type="logical" name="LUSEW"> F  </i>
   <i name="ENCUTGW">     -2.00000000</i>
   <i name="ENCUTGWSOFT">     -2.00000000</i>
   <i name="ENCUTLF">     -1.00000000</i>
   <i type="int" name="LMAXMP2">    -1</i>
   <i name="SCISSOR">      0.00000000</i>
   <i type="int" name="NOMEGA">     0</i>
   <i type="int" name="NOMEGAR">     0</i>
   <i type="int" name="NBANDSGW">    -1</i>
   <i type="int" name="NBANDSO">    -1</i>
   <i type="int" name="NBANDSV">    -1</i>
   <i type="int" name="NELM">    40</i>
   <i type="int" name="NELMHF">     1</i>
   <i type="int" name="DIM">     3</i>
   <i type="int" name="ANTIRES">     0</i>
   <i name="OMEGAMAX">    -30.00000000</i>
   <i name="OMEGAMIN">    -30.00000000</i>
   <i name="OMEGATL">   -200.00000000</i>
   <i type="int" name="OMEGAGRID">     0</i>
   <i name="CSHIFT">     -0.10000000</i>
   <i type="logical" name="SELFENERGY"> F  </i>
   <i type="logical" name="LSPECTRAL"> F  </i>
   <i type="logical" name="LSPECTRALGW"> F  </i>
   <i type="logical" name="LSINGLES"> F  </i>
   <i type="logical" name="LFERMIGW"> F  </i>
   <i type="logical" name="ODDONLYGW"> F  </i>
   <i type="logical" name="EVENONLYGW"> F  </i>
   <i type="int" name="NKREDLFX">     1</i>
   <i type="int" name="NKREDLFY">     1</i>
   <i type="int" name="NKREDLFZ">     1</i>
   <i type="int" name="MAXMEM">  1800</i>
   <i type="int" name="TELESCOPE">     0</i>
   <i type="int" name="TAUPAR">     1</i>
   <i type="int" name="OMEGAPAR">    -1</i>
   <i name="LAMBDA">      1.00000000</i>
  </separator>
  <separator name="External order field" >
   <i name="OFIELD_KAPPA">      0.00000000</i>
   <v name="OFIELD_K">      0.00000000      0.00000000      0.00000000</v>
   <i name="OFIELD_Q6_NEAR">      0.00000000</i>
   <i name="OFIELD_Q6_FAR">      0.00000000</i>
   <i name="OFIELD_A">      0.00000000</i>
  </separator>
 </parameters>
 <atominfo>
  <atoms>     154 </atoms>
  <types>       4 </types>
  <array name="atoms" >
   <dimension dim="1">ion</dimension>
   <field type="string">element</field>
   <field type="int">atomtype</field>
   <set>
    <rc><c>Sr</c><c>   1</c></rc>
    <rc><c>Sr</c><c>   1</c></rc>
    <rc><c>Sr</c><c>   1</c></rc>
    <rc><c>Sr</c><c>   1</c></rc>
    <rc><c>Sr</c><c>   1</c></rc>
    <rc><c>Sr</c><c>   1</c></rc>
    <rc><c>Sr</c><c>   1</c></rc>
    <rc><c>Sr</c><c>   1</c></rc>
    <rc><c>Sr</c><c>   1</c></rc>
    <rc><c>Sr</c><c>   1</c></rc>
    <rc><c>Sr</c><c>   1</c></rc>
    <rc><c>Sr</c><c>   1</c></rc>
    <rc><c>Sr</c><c>   1</c></rc>
    <rc><c>Sr</c><c>   1</c></rc>
    <rc><c>Sr</c><c>   1</c></rc>
    <rc><c>Sr</c><c>   1</c></rc>
    <rc><c>Sr</c><c>   1</c></rc>
    <rc><c>Sr</c><c>   1</c></rc>
    <rc><c>Sr</c><c>   1</c></rc>
    <rc><c>Sr</c><c>   1</c></rc>
    <rc><c>Sr</c><c>   1</c></rc>
    <rc><c>Sr</c><c>   1</c></rc>
    <rc><c>Sr</c><c>   1</c></rc>
    <rc><c>Sr</c><c>   1</c></rc>
    <rc><c>Sr</c><c>   1</c></rc>
    <rc><c>Sr</c><c>   1</c></rc>
    <rc><c>Sr</c><c>   1</c></rc>
    <rc><c>Sr</c><c>   1</c></rc>
    <rc><c>Sr</c><c>   1</c></rc>
    <rc><c>Sr</c><c>   1</c></rc>
    <rc><c>Sr</c><c>   1</c></rc>
    <rc><c>Sr</c><c>   1</c></rc>
    <rc><c>Ti</c><c>   2</c></rc>
    <rc><c>Ti</c><c>   2</c></rc>
    <rc><c>Ti</c><c>   2</c></rc>
    <rc><c>Ti</c><c>   2</c></rc>
    <rc><c>Ti</c><c>   2</c></rc>
    <rc><c>Ti</c><c>   2</c></rc>
    <rc><c>Ti</c><c>   2</c></rc>
    <rc><c>Ti</c><c>   2</c></rc>
    <rc><c>Ti</c><c>   2</c></rc>
    <rc><c>Ti</c><c>   2</c></rc>
    <rc><c>Ti</c><c>   2</c></rc>
    <rc><c>Ti</c><c>   2</c></rc>
    <rc><c>Ti</c><c>   2</c></rc>
    <rc><c>Ti</c><c>   2</c></rc>
    <rc><c>Ti</c><c>   2</c></rc>
    <rc><c>Ti</c><c>   2</c></rc>
    <rc><c>Ti</c><c>   2</c></rc>
    <rc><c>Ti</c><c>   2</c></rc>
    <rc><c>Ti</c><c>   2</c></rc>
    <rc><c>Ti</c><c>   2</c></rc>
    <rc><c>Fe</c><c>   3</c></rc>
    <rc><c>Fe</c><c>   3</c></rc>
    <rc><c>Fe</c><c>   3</c></rc>
    <rc><c>Fe</c><c>   3</c></rc>
    <rc><c>Fe</c><c>   3</c></rc>
    <rc><c>Fe</c><c>   3</c></rc>
    <rc><c>Fe</c><c>   3</c></rc>
    <rc><c>Fe</c><c>   3</c></rc>
    <rc><c>Fe</c><c>   3</c></rc>
    <rc><c>Fe</c><c>   3</c></rc>
    <rc><c>Fe</c><c>   3</c></rc>
    <rc><c>Fe</c><c>   3</c></rc>
    <rc><c>O </c><c>   4</c></rc>
    <rc><c>O </c><c>   4</c></rc>
    <rc><c>O </c><c>   4</c></rc>
    <rc><c>O </c><c>   4</c></rc>
    <rc><c>O </c><c>   4</c></rc>
    <rc><c>O </c><c>   4</c></rc>
    <rc><c>O </c><c>   4</c></rc>
    <rc><c>O </c><c>   4</c></rc>
    <rc><c>O </c><c>   4</c></rc>
    <rc><c>O </c><c>   4</c></rc>
    <rc><c>O </c><c>   4</c></rc>
    <rc><c>O </c><c>   4</c></rc>
    <rc><c>O </c><c>   4</c></rc>
    <rc><c>O </c><c>   4</c></rc>
    <rc><c>O </c><c>   4</c></rc>
    <rc><c>O </c><c>   4</c></rc>
    <rc><c>O </c><c>   4</c></rc>
    <rc><c>O </c><c>   4</c></rc>
    <rc><c>O </c><c>   4</c></rc>
    <rc><c>O </c><c>   4</c></rc>
    <rc><c>O </c><c>   4</c></rc>
    <rc><c>O </c><c>   4</c></rc>
    <rc><c>O </c><c>   4</c></rc>
    <rc><c>O </c><c>   4</c></rc>
    <rc><c>O </c><c>   4</c></rc>
    <rc><c>O </c><c>   4</c></rc>
    <rc><c>O </c><c>   4</c></rc>
    <rc><c>O </c><c>   4</c></rc>
    <rc><c>O </c><c>   4</c></rc>
    <rc><c>O </c><c>   4</c></rc>
    <rc><c>O </c><c>   4</c></rc>
    <rc><c>O </c><c>   4</c></rc>
    <rc><c>O </c><c>   4</c></rc>
    <rc><c>O </c><c>   4</c></rc>
    <rc><c>O </c><c>   4</c></rc>
    <rc><c>O </c><c>   4</c></rc>
    <rc><c>O </c><c>   4</c></rc>
    <rc><c>O </c><c>   4</c></rc>
    <rc><c>O </c><c>   4</c></rc>
    <rc><c>O </c><c>   4</c></rc>
    <rc><c>O </c><c>   4</c></rc>
    <rc><c>O </c><c>   4</c></rc>
    <rc><c>O </c><c>   4</c></rc>
    <rc><c>O </c><c>   4</c></rc>
    <rc><c>O </c><c>   4</c></rc>
    <rc><c>O </c><c>   4</c></rc>
    <rc><c>O </c><c>   4</c></rc>
    <rc><c>O </c><c>   4</c></rc>
    <rc><c>O </c><c>   4</c></rc>
    <rc><c>O </c><c>   4</c></rc>
    <rc><c>O </c><c>   4</c></rc>
    <rc><c>O </c><c>   4</c></rc>
    <rc><c>O </c><c>   4</c></rc>
    <rc><c>O </c><c>   4</c></rc>
    <rc><c>O </c><c>   4</c></rc>
    <rc><c>O </c><c>   4</c></rc>
    <rc><c>O </c><c>   4</c></rc>
    <rc><c>O </c><c>   4</c></rc>
    <rc><c>O </c><c>   4</c></rc>
    <rc><c>O </c><c>   4</c></rc>
    <rc><c>O </c><c>   4</c></rc>
    <rc><c>O </c><c>   4</c></rc>
    <rc><c>O </c><c>   4</c></rc>
    <rc><c>O </c><c>   4</c></rc>
    <rc><c>O </c><c>   4</c></rc>
    <rc><c>O </c><c>   4</c></rc>
    <rc><c>O </c><c>   4</c></rc>
    <rc><c>O </c><c>   4</c></rc>
    <rc><c>O </c><c>   4</c></rc>
    <rc><c>O </c><c>   4</c></rc>
    <rc><c>O </c><c>   4</c></rc>
    <rc><c>O </c><c>   4</c></rc>
    <rc><c>O </c><c>   4</c></rc>
    <rc><c>O </c><c>   4</c></rc>
    <rc><c>O </c><c>   4</c></rc>
    <rc><c>O </c><c>   4</c></rc>
    <rc><c>O </c><c>   4</c></rc>
    <rc><c>O </c><c>   4</c></rc>
    <rc><c>O </c><c>   4</c></rc>
    <rc><c>O </c><c>   4</c></rc>
    <rc><c>O </c><c>   4</c></rc>
    <rc><c>O </c><c>   4</c></rc>
    <rc><c>O </c><c>   4</c></rc>
    <rc><c>O </c><c>   4</c></rc>
    <rc><c>O </c><c>   4</c></rc>
    <rc><c>O </c><c>   4</c></rc>
    <rc><c>O </c><c>   4</c></rc>
    <rc><c>O </c><c>   4</c></rc>
    <rc><c>O </c><c>   4</c></rc>
    <rc><c>O </c><c>   4</c></rc>
   </set>
  </array>
  <array name="atomtypes" >
   <dimension dim="1">type</dimension>
   <field type="int">atomspertype</field>
   <field type="string">element</field>
   <field>mass</field>
   <field>valence</field>
   <field type="string">pseudopotential</field>
   <set>
    <rc><c>  32</c><c>Sr</c><c>     87.62000000</c><c>     10.00000000</c><c>  PAW_PBE Sr_sv 07Sep2000               </c></rc>
    <rc><c>  20</c><c>Ti</c><c>     47.88000000</c><c>      4.00000000</c><c>  PAW_PBE Ti 08Apr2002                  </c></rc>
    <rc><c>  12</c><c>Fe</c><c>     55.84700000</c><c>      8.00000000</c><c>  PAW_PBE Fe 06Sep2000                  </c></rc>
    <rc><c>  90</c><c>O </c><c>     16.00000000</c><c>      6.00000000</c><c>  PAW_PBE O 08Apr2002                   </c></rc>
   </set>
  </array>
 </atominfo>
 <structure name="initialpos" >
  <crystal>
   <varray name="basis" >
    <v>      11.21757451       0.00931522      -0.01216176 </v>
    <v>       0.00928914      11.21567373       0.02149067 </v>
    <v>      -0.01750307       0.03089115      15.92692771 </v>
   </varray>
   <i name="volume">   2003.79785361 </i>
   <varray name="rec_basis" >
    <v>       0.08914600      -0.00007402       0.00009811 </v>
    <v>      -0.00007423       0.08916133      -0.00017301 </v>
    <v>       0.00006817      -0.00012036       0.06278706 </v>
   </varray>
  </crystal>
  <varray name="positions" >
   <v>       0.00843415       0.26013386       0.13013270 </v>
   <v>       0.00637281       0.24727688       0.62546655 </v>
   <v>       0.00051845       0.74231909       0.12786313 </v>
   <v>       0.99544074       0.74819376       0.62307439 </v>
   <v>       0.48760496       0.25176339       0.12484084 </v>
   <v>       0.50039941       0.25361442       0.63178463 </v>
   <v>       0.49958633       0.75375619       0.13536645 </v>
   <v>       0.50600515       0.74949010       0.62949215 </v>
   <v>       0.00962953       0.24974811       0.37583226 </v>
   <v>       0.00012392       0.25366462       0.86163467 </v>
   <v>       0.99453994       0.75099977       0.37453890 </v>
   <v>       0.00383237       0.74129169       0.86893350 </v>
   <v>       0.49177701       0.26012693       0.37748557 </v>
   <v>       0.50153146       0.24074198       0.86392750 </v>
   <v>       0.51004995       0.74551975       0.37665607 </v>
   <v>       0.49957523       0.76008952       0.86529165 </v>
   <v>       0.26334206       0.00290174       0.12591059 </v>
   <v>       0.25241376       0.00298494       0.62867230 </v>
   <v>       0.24762182       0.49754003       0.12945079 </v>
   <v>       0.25480402       0.49649676       0.62868874 </v>
   <v>       0.74293202       0.99626518       0.12728358 </v>
   <v>       0.74874146       0.99206598       0.63282040 </v>
   <v>       0.74816123       0.49894015       0.13474013 </v>
   <v>       0.74532139       0.50651416       0.62894592 </v>
   <v>       0.24118209       0.00295969       0.37235045 </v>
   <v>       0.25944276       0.00766958       0.86788408 </v>
   <v>       0.25265890       0.49811709       0.37449021 </v>
   <v>       0.24766184       0.49020774       0.86929048 </v>
   <v>       0.75487899       0.99044832       0.37354304 </v>
   <v>       0.74091851       0.01112651       0.86526477 </v>
   <v>       0.74942946       0.51540808       0.37541655 </v>
   <v>       0.75072821       0.48762294       0.86637755 </v>
   <v>       0.00336875       0.99652337       0.99115160 </v>
   <v>       0.00080006       0.99822912       0.50097920 </v>
   <v>       0.99897142       0.50063461       0.99713587 </v>
   <v>       0.00552016       0.50335406       0.50028232 </v>
   <v>       0.49796898       0.99966723       0.99668574 </v>
   <v>       0.48778705       0.99468804       0.49778134 </v>
   <v>       0.48711895       0.51647432       0.99496475 </v>
   <v>       0.49921085       0.50306484       0.50368189 </v>
   <v>       0.24781022       0.24970720       0.00068908 </v>
   <v>       0.24755902       0.74704546       0.49854501 </v>
   <v>       0.76483106       0.23672876       0.00639715 </v>
   <v>       0.75812521       0.26167303       0.49715427 </v>
   <v>       0.74818132       0.74883561       0.01033427 </v>
   <v>       0.25071575       0.24905158       0.25012101 </v>
   <v>       0.25250305       0.24948462       0.74675101 </v>
   <v>       0.24708258       0.75161888       0.25154702 </v>
   <v>       0.00022133       0.99533108       0.74935119 </v>
   <v>       0.99920597       0.50387693       0.25177052 </v>
   <v>       0.99847633       0.49996407       0.74831634 </v>
   <v>       0.50186716       0.50071361       0.25273184 </v>
   <v>       0.25190475       0.25082906       0.50129524 </v>
   <v>       0.24751366       0.75171529       0.01014833 </v>
   <v>       0.75258019       0.75260799       0.49882105 </v>
   <v>       0.25244062       0.74805706       0.74105687 </v>
   <v>       0.75892050       0.25794225       0.25154842 </v>
   <v>       0.74850245       0.24729044       0.74227200 </v>
   <v>       0.75244250       0.75562568       0.25259187 </v>
   <v>       0.74950956       0.74824066       0.74207614 </v>
   <v>       0.99694608       0.00082779       0.25679822 </v>
   <v>       0.49372121       0.99057994       0.25457176 </v>
   <v>       0.50198090       0.99903538       0.74774385 </v>
   <v>       0.50368278       0.50008140       0.75494513 </v>
   <v>       0.11697425       0.12989419       0.24163363 </v>
   <v>       0.12194819       0.12481065       0.74809535 </v>
   <v>       0.11586293       0.63484928       0.24937982 </v>
   <v>       0.12330826       0.62693825       0.76095691 </v>
   <v>       0.62272174       0.12787021       0.75481763 </v>
   <v>       0.61547874       0.63343794       0.25111602 </v>
   <v>       0.62554907       0.63025573       0.76684232 </v>
   <v>       0.37908994       0.37206960       0.24751460 </v>
   <v>       0.37682544       0.37098036       0.75341615 </v>
   <v>       0.38311823       0.86504350       0.25826405 </v>
   <v>       0.37631559       0.87029612       0.75274282 </v>
   <v>       0.88466348       0.36875457       0.24972231 </v>
   <v>       0.88048874       0.36806804       0.73730064 </v>
   <v>       0.88908229       0.87077969       0.23152333 </v>
   <v>       0.87895031       0.86736006       0.76605790 </v>
   <v>       0.38172352       0.12523384       0.24429103 </v>
   <v>       0.37075655       0.12254583       0.74763321 </v>
   <v>       0.36685466       0.61663458       0.24742807 </v>
   <v>       0.36954561       0.62260454       0.77050235 </v>
   <v>       0.85829502       0.11479679       0.23926973 </v>
   <v>       0.87363733       0.11680378       0.74605351 </v>
   <v>       0.86783308       0.61682927       0.24724568 </v>
   <v>       0.87116317       0.62113215       0.75918786 </v>
   <v>       0.13199748       0.38351742       0.24891715 </v>
   <v>       0.12737712       0.37695897       0.75103267 </v>
   <v>       0.13415800       0.88616491       0.23464822 </v>
   <v>       0.13144441       0.87425617       0.77107796 </v>
   <v>       0.62698005       0.37574896       0.25667497 </v>
   <v>       0.63287975       0.37818615       0.74179493 </v>
   <v>       0.63784912       0.89616131       0.25121310 </v>
   <v>       0.63401653       0.87663359       0.75996235 </v>
   <v>       0.36679036       0.38299816       0.00370413 </v>
   <v>       0.36037507       0.39531178       0.49968715 </v>
   <v>       0.36304406       0.88069897       0.99184270 </v>
   <v>       0.35610496       0.89475016       0.49162612 </v>
   <v>       0.85001383       0.38903364       0.01271595 </v>
   <v>       0.85826152       0.39286498       0.50024546 </v>
   <v>       0.86758455       0.88536502       0.00709944 </v>
   <v>       0.86492032       0.89140009       0.50253660 </v>
   <v>       0.12790688       0.10951243       0.01877986 </v>
   <v>       0.14018216       0.10631403       0.50260362 </v>
   <v>       0.13321594       0.61754489       0.98627525 </v>
   <v>       0.14645478       0.60598658       0.49832642 </v>
   <v>       0.62605889       0.12918693       0.99688614 </v>
   <v>       0.63530090       0.61833490       0.98734516 </v>
   <v>       0.63773946       0.61309496       0.49690032 </v>
   <v>       0.10888602       0.36239249       0.00011310 </v>
   <v>       0.10608393       0.35968629       0.49919253 </v>
   <v>       0.11229526       0.86406501       0.00128483 </v>
   <v>       0.10985453       0.85628834       0.49856607 </v>
   <v>       0.60942676       0.35886175       0.49997294 </v>
   <v>       0.62556438       0.86774912       0.98532514 </v>
   <v>       0.61721778       0.87809889       0.49524034 </v>
   <v>       0.37793340       0.13101136       0.00428010 </v>
   <v>       0.40254517       0.14589818       0.50342148 </v>
   <v>       0.37687548       0.63739347       0.97735680 </v>
   <v>       0.39211975       0.64820705       0.49730750 </v>
   <v>       0.88732877       0.12631258       0.02810632 </v>
   <v>       0.88863406       0.13874389       0.49874155 </v>
   <v>       0.87986756       0.64030905       0.98706838 </v>
   <v>       0.89497957       0.63848231       0.49846271 </v>
   <v>       0.00552030       0.98459392       0.62863934 </v>
   <v>       0.00373786       0.50858741       0.12190118 </v>
   <v>       0.00538745       0.50960526       0.62501522 </v>
   <v>       0.50622125       0.99402119       0.12320347 </v>
   <v>       0.50991682       0.00054421       0.62035945 </v>
   <v>       0.51251793       0.49819728       0.11688183 </v>
   <v>       0.49683937       0.51315061       0.62667803 </v>
   <v>       0.00221075       0.99748171       0.37518280 </v>
   <v>       0.99541287       0.01926879       0.87855568 </v>
   <v>       0.00046564       0.50071877       0.37445765 </v>
   <v>       0.99036471       0.48382951       0.87531794 </v>
   <v>       0.52041215       0.02886481       0.37606085 </v>
   <v>       0.49415321       0.00590355       0.87619814 </v>
   <v>       0.49618746       0.50341918       0.37482351 </v>
   <v>       0.52270272       0.46224096       0.88577333 </v>
   <v>       0.24813375       0.24404918       0.37260436 </v>
   <v>       0.24293086       0.24239937       0.87810685 </v>
   <v>       0.24077865       0.75104361       0.37330010 </v>
   <v>       0.73071395       0.22381005       0.37705344 </v>
   <v>       0.76172649       0.25158469       0.88438943 </v>
   <v>       0.75841982       0.75371529       0.37336602 </v>
   <v>       0.24923702       0.25625987       0.12518845 </v>
   <v>       0.24792959       0.25319589       0.62561454 </v>
   <v>       0.26043597       0.74127082       0.12578861 </v>
   <v>       0.24937852       0.74980396       0.62208610 </v>
   <v>       0.71691157       0.25377788       0.12659121 </v>
   <v>       0.73121287       0.22149629       0.61234779 </v>
   <v>       0.73834805       0.74324637       0.12435364 </v>
   <v>       0.74920736       0.74790748       0.62413983 </v>
  </varray>
 </structure>
 <calculation>
  <scstep>
   <time name="dav">  601.77  601.81</time>
   <time name="total">  608.96  609.08</time>
   <energy>
    <i name="alphaZ">   5626.32083444 </i>
    <i name="ewald"> -61637.23331051 </i>
    <i name="hartreedc"> -16943.68251123 </i>
    <i name="XCdc">   3074.08323681 </i>
    <i name="pawpsdc"> 113398.06752166 </i>
    <i name="pawaedc">-112449.20927020 </i>
    <i name="eentropy">     -0.00000000 </i>
    <i name="bandstr">  -7072.03995055 </i>
    <i name="atom">  74916.81196153 </i>
    <i name="e_fr_energy">  -1086.88148805 </i>
    <i name="e_wo_entrp">  -1086.88148805 </i>
    <i name="e_0_energy">  -1086.88148805 </i>
   </energy>
  </scstep>
  <scstep>
   <time name="diag">   64.78   64.79</time>
   <time name="diis">   60.00   60.01</time>
   <time name="orth">   33.45   33.45</time>
   <time name="total">  165.40  165.42</time>
   <energy>
    <i name="e_fr_energy">  -1086.88148640 </i>
    <i name="e_wo_entrp">  -1086.88148640 </i>
    <i name="e_0_energy">  -1086.88148640 </i>
   </energy>
  </scstep>
  <scstep>
   <time name="diag">   64.84   64.84</time>
   <time name="diis">   56.24   56.24</time>
   <time name="orth">   33.46   33.46</time>
   <time name="total">  161.71  161.80</time>
   <energy>
    <i name="e_fr_energy">  -1086.88148668 </i>
    <i name="e_wo_entrp">  -1086.88148668 </i>
    <i name="e_0_energy">  -1086.88148668 </i>
   </energy>
  </scstep>
  <scstep>
   <time name="diag">   64.78   64.79</time>
   <time name="diis">   45.89   45.89</time>
   <time name="orth">   33.45   33.45</time>
   <time name="total">  151.30  151.39</time>
   <energy>
    <i name="e_fr_energy">  -1086.88148667 </i>
    <i name="e_wo_entrp">  -1086.88148667 </i>
    <i name="e_0_energy">  -1086.88148667 </i>
   </energy>
  </scstep>
  <scstep>
   <time name="diag">   64.72   64.72</time>
   <time name="diis">   46.07   46.08</time>
   <time name="orth">   33.44   33.44</time>
   <time name="total">  151.41  151.45</time>
   <energy>
    <i name="e_fr_energy">  -1086.88148669 </i>
    <i name="e_wo_entrp">  -1086.88148669 </i>
    <i name="e_0_energy">  -1086.88148669 </i>
   </energy>
  </scstep>
  <scstep>
   <time name="diag">   64.78   64.78</time>
   <time name="diis">   43.93   43.93</time>
   <time name="orth">   33.45   33.44</time>
   <time name="total">  149.31  149.34</time>
   <energy>
    <i name="e_fr_energy">  -1086.88148672 </i>
    <i name="e_wo_entrp">  -1086.88148672 </i>
    <i name="e_0_energy">  -1086.88148672 </i>
   </energy>
  </scstep>
  <scstep>
   <time name="diag">   64.69   64.69</time>
   <time name="diis">   42.93   42.94</time>
   <time name="orth">   33.34   33.34</time>
   <time name="total">  148.13  148.17</time>
   <energy>
    <i name="e_fr_energy">  -1086.88148672 </i>
    <i name="e_wo_entrp">  -1086.88148672 </i>
    <i name="e_0_energy">  -1086.88148672 </i>
   </energy>
  </scstep>
  <scstep>
   <time name="diag">   64.77   64.77</time>
   <time name="diis">   41.82   41.82</time>
   <time name="orth">   33.46   33.46</time>
   <time name="total">  141.09  141.15</time>
   <energy>
    <i name="alphaZ">   5626.32083444 </i>
    <i name="ewald"> -61637.23331051 </i>
    <i name="hartreedc"> -16943.69861471 </i>
    <i name="XCdc">   3074.08202138 </i>
    <i name="pawpsdc"> 113397.82508346 </i>
    <i name="pawaedc">-112448.97500942 </i>
    <i name="eentropy">     -0.00000000 </i>
    <i name="bandstr">  -7072.01445290 </i>
    <i name="atom">  74916.81196153 </i>
    <i name="e_fr_energy">  -1086.88148674 </i>
    <i name="e_wo_entrp">  -1086.88148674 </i>
    <i name="e_0_energy">  -1086.88148674 </i>
   </energy>
  </scstep>
  <structure>
   <crystal>
    <varray name="basis" >
     <v>      11.21757451       0.00931522      -0.01216176 </v>
     <v>       0.00928914      11.21567373       0.02149067 </v>
     <v>      -0.01750307       0.03089115      15.92692771 </v>
    </varray>
    <i name="volume">   2003.79785361 </i>
    <varray name="rec_basis" >
     <v>       0.08914600      -0.00007402       0.00009811 </v>
     <v>      -0.00007423       0.08916133      -0.00017301 </v>
     <v>       0.00006817      -0.00012036       0.06278706 </v>
    </varray>
   </crystal>
   <varray name="positions" >
    <v>       0.00843415       0.26013386       0.13013270 </v>
    <v>       0.00637281       0.24727688       0.62546655 </v>
    <v>       0.00051845       0.74231909       0.12786313 </v>
    <v>       0.99544074       0.74819376       0.62307439 </v>
    <v>       0.48760496       0.25176339       0.12484084 </v>
    <v>       0.50039941       0.25361442       0.63178463 </v>
    <v>       0.49958633       0.75375619       0.13536645 </v>
    <v>       0.50600515       0.74949010       0.62949215 </v>
    <v>       0.00962953       0.24974811       0.37583226 </v>
    <v>       0.00012392       0.25366462       0.86163467 </v>
    <v>       0.99453994       0.75099977       0.37453890 </v>
    <v>       0.00383237       0.74129169       0.86893350 </v>
    <v>       0.49177701       0.26012693       0.37748557 </v>
    <v>       0.50153146       0.24074198       0.86392750 </v>
    <v>       0.51004995       0.74551975       0.37665607 </v>
    <v>       0.49957523       0.76008952       0.86529165 </v>
    <v>       0.26334206       0.00290174       0.12591059 </v>
    <v>       0.25241376       0.00298494       0.62867230 </v>
    <v>       0.24762182       0.49754003       0.12945079 </v>
    <v>       0.25480402       0.49649676       0.62868874 </v>
    <v>       0.74293202       0.99626518       0.12728358 </v>
    <v>       0.74874146       0.99206598       0.63282040 </v>
    <v>       0.74816123       0.49894015       0.13474013 </v>
    <v>       0.74532139       0.50651416       0.62894592 </v>
    <v>       0.24118209       0.00295969       0.37235045 </v>
    <v>       0.25944276       0.00766958       0.86788408 </v>
    <v>       0.25265890       0.49811709       0.37449021 </v>
    <v>       0.24766184       0.49020774       0.86929048 </v>
    <v>       0.75487899       0.99044832       0.37354304 </v>
    <v>       0.74091851       0.01112651       0.86526477 </v>
    <v>       0.74942946       0.51540808       0.37541655 </v>
    <v>       0.75072821       0.48762294       0.86637755 </v>
    <v>       0.00336875       0.99652337       0.99115160 </v>
    <v>       0.00080006       0.99822912       0.50097920 </v>
    <v>       0.99897142       0.50063461       0.99713587 </v>
    <v>       0.00552016       0.50335406       0.50028232 </v>
    <v>       0.49796898       0.99966723       0.99668574 </v>
    <v>       0.48778705       0.99468804       0.49778134 </v>
    <v>       0.48711895       0.51647432       0.99496475 </v>
    <v>       0.49921085       0.50306484       0.50368189 </v>
    <v>       0.24781022       0.24970720       0.00068908 </v>
    <v>       0.24755902       0.74704546       0.49854501 </v>
    <v>       0.76483106       0.23672876       0.00639715 </v>
    <v>       0.75812521       0.26167303       0.49715427 </v>
    <v>       0.74818132       0.74883561       0.01033427 </v>
    <v>       0.25071575       0.24905158       0.25012101 </v>
    <v>       0.25250305       0.24948462       0.74675101 </v>
    <v>       0.24708258       0.75161888       0.25154702 </v>
    <v>       0.00022133       0.99533108       0.74935119 </v>
    <v>       0.99920597       0.50387693       0.25177052 </v>
    <v>       0.99847633       0.49996407       0.74831634 </v>
    <v>       0.50186716       0.50071361       0.25273184 </v>
    <v>       0.25190475       0.25082906       0.50129524 </v>
    <v>       0.24751366       0.75171529       0.01014833 </v>
    <v>       0.75258019       0.75260799       0.49882105 </v>
    <v>       0.25244062       0.74805706       0.74105687 </v>
    <v>       0.75892050       0.25794225       0.25154842 </v>
    <v>       0.74850245       0.24729044       0.74227200 </v>
    <v>       0.75244250       0.75562568       0.25259187 </v>
    <v>       0.74950956       0.74824066       0.74207614 </v>
    <v>       0.99694608       0.00082779       0.25679822 </v>
    <v>       0.49372121       0.99057994       0.25457176 </v>
    <v>       0.50198090       0.99903538       0.74774385 </v>
    <v>       0.50368278       0.50008140       0.75494513 </v>
    <v>       0.11697425       0.12989419       0.24163363 </v>
    <v>       0.12194819       0.12481065       0.74809535 </v>
    <v>       0.11586293       0.63484928       0.24937982 </v>
    <v>       0.12330826       0.62693825       0.76095691 </v>
    <v>       0.62272174       0.12787021       0.75481763 </v>
    <v>       0.61547874       0.63343794       0.25111602 </v>
    <v>       0.62554907       0.63025573       0.76684232 </v>
    <v>       0.37908994       0.37206960       0.24751460 </v>
    <v>       0.37682544       0.37098036       0.75341615 </v>
    <v>       0.38311823       0.86504350       0.25826405 </v>
    <v>       0.37631559       0.87029612       0.75274282 </v>
    <v>       0.88466348       0.36875457       0.24972231 </v>
    <v>       0.88048874       0.36806804       0.73730064 </v>
    <v>       0.88908229       0.87077969       0.23152333 </v>
    <v>       0.87895031       0.86736006       0.76605790 </v>
    <v>       0.38172352       0.12523384       0.24429103 </v>
    <v>       0.37075655       0.12254583       0.74763321 </v>
    <v>       0.36685466       0.61663458       0.24742807 </v>
    <v>       0.36954561       0.62260454       0.77050235 </v>
    <v>       0.85829502       0.11479679       0.23926973 </v>
    <v>       0.87363733       0.11680378       0.74605351 </v>
    <v>       0.86783308       0.61682927       0.24724568 </v>
    <v>       0.87116317       0.62113215       0.75918786 </v>
    <v>       0.13199748       0.38351742       0.24891715 </v>
    <v>       0.12737712       0.37695897       0.75103267 </v>
    <v>       0.13415800       0.88616491       0.23464822 </v>
    <v>       0.13144441       0.87425617       0.77107796 </v>
    <v>       0.62698005       0.37574896       0.25667497 </v>
    <v>       0.63287975       0.37818615       0.74179493 </v>
    <v>       0.63784912       0.89616131       0.25121310 </v>
    <v>       0.63401653       0.87663359       0.75996235 </v>
    <v>       0.36679036       0.38299816       0.00370413 </v>
    <v>       0.36037507       0.39531178       0.49968715 </v>
    <v>       0.36304406       0.88069897       0.99184270 </v>
    <v>       0.35610496       0.89475016       0.49162612 </v>
    <v>       0.85001383       0.38903364       0.01271595 </v>
    <v>       0.85826152       0.39286498       0.50024546 </v>
    <v>       0.86758455       0.88536502       0.00709944 </v>
    <v>       0.86492032       0.89140009       0.50253660 </v>
    <v>       0.12790688       0.10951243       0.01877986 </v>
    <v>       0.14018216       0.10631403       0.50260362 </v>
    <v>       0.13321594       0.61754489       0.98627525 </v>
    <v>       0.14645478       0.60598658       0.49832642 </v>
    <v>       0.62605889       0.12918693       0.99688614 </v>
    <v>       0.63530090       0.61833490       0.98734516 </v>
    <v>       0.63773946       0.61309496       0.49690032 </v>
    <v>       0.10888602       0.36239249       0.00011310 </v>
    <v>       0.10608393       0.35968629       0.49919253 </v>
    <v>       0.11229526       0.86406501       0.00128483 </v>
    <v>       0.10985453       0.85628834       0.49856607 </v>
    <v>       0.60942676       0.35886175       0.49997294 </v>
    <v>       0.62556438       0.86774912       0.98532514 </v>
    <v>       0.61721778       0.87809889       0.49524034 </v>
    <v>       0.37793340       0.13101136       0.00428010 </v>
    <v>       0.40254517       0.14589818       0.50342148 </v>
    <v>       0.37687548       0.63739347       0.97735680 </v>
    <v>       0.39211975       0.64820705       0.49730750 </v>
    <v>       0.88732877       0.12631258       0.02810632 </v>
    <v>       0.88863406       0.13874389       0.49874155 </v>
    <v>       0.87986756       0.64030905       0.98706838 </v>
    <v>       0.89497957       0.63848231       0.49846271 </v>
    <v>       0.00552030       0.98459392       0.62863934 </v>
    <v>       0.00373786       0.50858741       0.12190118 </v>
    <v>       0.00538745       0.50960526       0.62501522 </v>
    <v>       0.50622125       0.99402119       0.12320347 </v>
    <v>       0.50991682       0.00054421       0.62035945 </v>
    <v>       0.51251793       0.49819728       0.11688183 </v>
    <v>       0.49683937       0.51315061       0.62667803 </v>
    <v>       0.00221075       0.99748171       0.37518280 </v>
    <v>       0.99541287       0.01926879       0.87855568 </v>
    <v>       0.00046564       0.50071877       0.37445765 </v>
    <v>       0.99036471       0.48382951       0.87531794 </v>
    <v>       0.52041215       0.02886481       0.37606085 </v>
    <v>       0.49415321       0.00590355       0.87619814 </v>
    <v>       0.49618746       0.50341918       0.37482351 </v>
    <v>       0.52270272       0.46224096       0.88577333 </v>
    <v>       0.24813375       0.24404918       0.37260436 </v>
    <v>       0.24293086       0.24239937       0.87810685 </v>
    <v>       0.24077865       0.75104361       0.37330010 </v>
    <v>       0.73071395       0.22381005       0.37705344 </v>
    <v>       0.76172649       0.25158469       0.88438943 </v>
    <v>       0.75841982       0.75371529       0.37336602 </v>
    <v>       0.24923702       0.25625987       0.12518845 </v>
    <v>       0.24792959       0.25319589       0.62561454 </v>
    <v>       0.26043597       0.74127082       0.12578861 </v>
    <v>       0.24937852       0.74980396       0.62208610 </v>
    <v>       0.71691157       0.25377788       0.12659121 </v>
    <v>       0.73121287       0.22149629       0.61234779 </v>
    <v>       0.73834805       0.74324637       0.12435364 </v>
    <v>       0.74920736       0.74790748       0.62413983 </v>
   </varray>
  </structure>
  <varray name="forces" >
   <v>       0.00142619      -0.01001419      -0.00906467 </v>
   <v>      -0.00395310      -0.00298765      -0.00559951 </v>
   <v>       0.00382424       0.00799758      -0.00312326 </v>
   <v>      -0.00243074       0.00810148      -0.00648943 </v>
   <v>       0.00627167       0.00441252      -0.01000062 </v>
   <v>      -0.00384871      -0.00425695      -0.00125836 </v>
   <v>      -0.00610941      -0.01251807      -0.00506672 </v>
   <v>      -0.00139694       0.00197306      -0.00377747 </v>
   <v>       0.00229238      -0.00017392       0.00631775 </v>
   <v>      -0.00799033      -0.02018609       0.00249852 </v>
   <v>       0.01369915      -0.00697026       0.00512002 </v>
   <v>      -0.00043499      -0.00036841       0.00806598 </v>
   <v>      -0.00944353       0.00040050      -0.00925082 </v>
   <v>       0.00697192      -0.00043167       0.01227175 </v>
   <v>      -0.00938953      -0.00032376      -0.00384293 </v>
   <v>       0.00522936       0.00356660       0.00709795 </v>
   <v>       0.00717190      -0.00613877       0.00011325 </v>
   <v>      -0.00087295      -0.00854578      -0.00352291 </v>
   <v>      -0.00656818       0.01666592       0.00338734 </v>
   <v>       0.00156985       0.00331199      -0.01039980 </v>
   <v>       0.00776595      -0.00297760      -0.00531161 </v>
   <v>       0.00189653      -0.00329035      -0.00771886 </v>
   <v>       0.00611796       0.00556895       0.00531290 </v>
   <v>      -0.00327313       0.00447405      -0.00184586 </v>
   <v>       0.00758773      -0.00016092       0.01085622 </v>
   <v>       0.00932777      -0.00453285      -0.00205946 </v>
   <v>      -0.01023568       0.00064035       0.00011819 </v>
   <v>      -0.00565630       0.01071793       0.00715203 </v>
   <v>      -0.00035108      -0.00922856       0.00965315 </v>
   <v>       0.00278633       0.00768715       0.00543777 </v>
   <v>       0.00222183       0.00202483       0.00484334 </v>
   <v>       0.00090512      -0.00295541       0.00230310 </v>
   <v>      -0.00541460      -0.00023941      -0.02672523 </v>
   <v>      -0.01876311       0.00420471       0.01969755 </v>
   <v>      -0.00371866       0.01579573      -0.00375985 </v>
   <v>       0.01672320      -0.00236661      -0.00062460 </v>
   <v>       0.00267853       0.00018120      -0.01851863 </v>
   <v>       0.01415298      -0.01209049       0.02470967 </v>
   <v>      -0.00194734      -0.00565160      -0.01414289 </v>
   <v>      -0.01428363       0.01274352      -0.00204973 </v>
   <v>       0.01638502       0.00459353      -0.01820597 </v>
   <v>       0.02483408      -0.02221379      -0.00095247 </v>
   <v>      -0.04209336       0.00182844      -0.03138614 </v>
   <v>       0.00838845      -0.01099969       0.02271857 </v>
   <v>       0.00489844      -0.01504731       0.00403985 </v>
   <v>       0.00985876       0.00945448       0.05554096 </v>
   <v>      -0.00097529      -0.00327120      -0.00596522 </v>
   <v>       0.00012355      -0.01553166       0.01057169 </v>
   <v>      -0.01205211       0.00267504      -0.00617887 </v>
   <v>       0.02922914       0.00959582       0.00715178 </v>
   <v>      -0.00368758       0.01179917       0.00019247 </v>
   <v>      -0.01561687       0.00585372       0.00407121 </v>
   <v>      -0.00907501       0.00599947      -0.00185503 </v>
   <v>       0.00295165      -0.00987529      -0.01123681 </v>
   <v>       0.00197534       0.00030689       0.00647333 </v>
   <v>       0.00707880       0.00212071       0.00630657 </v>
   <v>      -0.00411176      -0.00564625      -0.00609866 </v>
   <v>      -0.01061219      -0.00139460       0.00078768 </v>
   <v>       0.00126649      -0.00523291       0.00081479 </v>
   <v>      -0.00929518       0.00159584       0.01002923 </v>
   <v>      -0.00343475      -0.00550232       0.00160185 </v>
   <v>      -0.00323820       0.00946229      -0.00847259 </v>
   <v>       0.00577141       0.00102024       0.00629486 </v>
   <v>      -0.00129829      -0.00071189       0.00065892 </v>
   <v>      -0.00058661      -0.00351618      -0.00192449 </v>
   <v>       0.00253649      -0.00219438      -0.00071591 </v>
   <v>       0.00227452      -0.00262563       0.00502065 </v>
   <v>      -0.00453079      -0.00842376      -0.00770108 </v>
   <v>      -0.00286993       0.01250812      -0.01207362 </v>
   <v>      -0.00051547      -0.00726836       0.00517670 </v>
   <v>      -0.01053513       0.01024101      -0.01296003 </v>
   <v>       0.01227637       0.00090735      -0.00773132 </v>
   <v>      -0.00045606       0.00346504       0.00218047 </v>
   <v>       0.00859642       0.00850081      -0.00886244 </v>
   <v>      -0.00408512      -0.00492841      -0.00277646 </v>
   <v>      -0.00419053      -0.00628157       0.00089809 </v>
   <v>       0.00585146       0.00529677       0.00617734 </v>
   <v>       0.00074521       0.00721491      -0.00244753 </v>
   <v>       0.00252524       0.00249775      -0.01107884 </v>
   <v>       0.00831467       0.00202366       0.00503266 </v>
   <v>      -0.01579502      -0.00432145      -0.00172472 </v>
   <v>       0.00818839       0.00231521      -0.00488787 </v>
   <v>       0.00317524       0.00260226      -0.01016756 </v>
   <v>       0.01348609       0.00238357       0.00365449 </v>
   <v>       0.00331338       0.01685356       0.00528132 </v>
   <v>       0.00033257       0.00368272      -0.00210618 </v>
   <v>       0.00895283      -0.00880043      -0.00790947 </v>
   <v>      -0.00674665      -0.00303380       0.00244270 </v>
   <v>      -0.00487862       0.00230154      -0.00309867 </v>
   <v>      -0.00670875       0.00377675       0.00223932 </v>
   <v>       0.00112878      -0.00407336      -0.01348941 </v>
   <v>      -0.00046724       0.00091522       0.00191526 </v>
   <v>      -0.00648602      -0.00772153       0.00400865 </v>
   <v>       0.00300847       0.00118512       0.00068268 </v>
   <v>       0.01016439      -0.00077754      -0.00169939 </v>
   <v>      -0.00813041       0.00268901      -0.00272547 </v>
   <v>       0.00218474       0.00043108      -0.00374209 </v>
   <v>       0.01560964       0.00422501       0.01310234 </v>
   <v>      -0.00099062       0.00458567       0.01066502 </v>
   <v>       0.00262590       0.00270095       0.00022956 </v>
   <v>      -0.01153546      -0.01340938      -0.00672396 </v>
   <v>       0.01748775      -0.00582759       0.03486566 </v>
   <v>       0.00000772      -0.00953391       0.00226164 </v>
   <v>       0.00446474       0.00309862       0.01093308 </v>
   <v>       0.00077501      -0.00208611      -0.00236239 </v>
   <v>      -0.01233090       0.00020815      -0.00239907 </v>
   <v>      -0.01732434      -0.01048995       0.00499108 </v>
   <v>      -0.00973359      -0.00031067      -0.00091886 </v>
   <v>      -0.00989029       0.01122803      -0.00344202 </v>
   <v>      -0.00728475       0.00285375       0.00106111 </v>
   <v>       0.00187902      -0.00298354      -0.00261378 </v>
   <v>      -0.00232464      -0.00160206      -0.00123029 </v>
   <v>       0.01018084       0.00579676      -0.00708256 </v>
   <v>      -0.00379417       0.00314250       0.00096731 </v>
   <v>       0.01230559      -0.00088093      -0.00206430 </v>
   <v>       0.00650949       0.01229109      -0.00029583 </v>
   <v>       0.00785698       0.00536273      -0.00780811 </v>
   <v>      -0.01468400       0.01224801       0.00469715 </v>
   <v>      -0.00775549       0.00262455      -0.00252698 </v>
   <v>       0.00047450      -0.00634675       0.00251017 </v>
   <v>       0.00258308      -0.00204122       0.00046422 </v>
   <v>       0.00455503      -0.00543535      -0.01079553 </v>
   <v>       0.00180389       0.00518409      -0.00777583 </v>
   <v>       0.00401140      -0.00751380      -0.00896767 </v>
   <v>      -0.00449734       0.01094837       0.00491616 </v>
   <v>       0.00318291       0.01020228       0.00828480 </v>
   <v>      -0.00319772      -0.00755507      -0.00489639 </v>
   <v>       0.00347659       0.00311538       0.02050367 </v>
   <v>       0.00698105       0.00289532       0.00877924 </v>
   <v>       0.00087785      -0.00408108      -0.01107296 </v>
   <v>      -0.00221239      -0.00318987       0.00580010 </v>
   <v>       0.00376552      -0.00974852       0.00423690 </v>
   <v>       0.00132142      -0.00036795      -0.01192409 </v>
   <v>       0.00334953       0.00194957       0.03661768 </v>
   <v>      -0.00467545      -0.00482936      -0.00056636 </v>
   <v>       0.00005226       0.00109070      -0.00165743 </v>
   <v>      -0.00347112       0.00051793      -0.01323114 </v>
   <v>      -0.00557279       0.00076398       0.02347680 </v>
   <v>      -0.00197577      -0.00475407      -0.02049182 </v>
   <v>      -0.00215310       0.00486031       0.01572089 </v>
   <v>       0.00765782      -0.00396740      -0.00961888 </v>
   <v>       0.00160109      -0.00700930       0.01803338 </v>
   <v>       0.00079304      -0.00059598      -0.01967407 </v>
   <v>       0.00274270      -0.00020743      -0.01323549 </v>
   <v>      -0.00548355       0.01271885       0.00145750 </v>
   <v>       0.00115725       0.00497097       0.00187020 </v>
   <v>      -0.00645339      -0.00448764      -0.00963799 </v>
   <v>      -0.00004926      -0.00012893       0.01133659 </v>
   <v>      -0.00932582       0.00009742      -0.00995225 </v>
   <v>      -0.00253608       0.00177365       0.00627423 </v>
   <v>       0.00898815      -0.00256076       0.00764746 </v>
   <v>       0.00499949       0.00339297      -0.00991119 </v>
   <v>      -0.01062980      -0.00125455       0.00099939 </v>
   <v>      -0.00607750      -0.00441102      -0.01241919 </v>
  </varray>
  <varray name="stress" >
   <v>      -0.07568430      -0.12502226       0.00726046 </v>
   <v>      -0.12502238      -0.05924889      -0.01672385 </v>
   <v>       0.00726002      -0.01672447      -0.16102847 </v>
  </varray>
  <energy>
   <i name="e_fr_energy">  -1086.88148674 </i>
   <i name="e_wo_entrp">  -1086.88148674 </i>
   <i name="e_0_energy">     -0.00000000 </i>
  </energy>
  <time name="totalsc"> 1941.38 1943.63</time>
 </calculation>
 <calculation>
  <scstep>
   <time name="dav">  568.71  568.76</time>
   <time name="total">  575.86  575.99</time>
   <energy>
    <i name="alphaZ">   5626.97330092 </i>
    <i name="ewald"> -61640.24175644 </i>
    <i name="hartreedc"> -16943.67035233 </i>
    <i name="XCdc">   3074.23361363 </i>
    <i name="pawpsdc"> 113397.82490837 </i>
    <i name="pawaedc">-112448.97476735 </i>
    <i name="eentropy">     -0.00000000 </i>
    <i name="bandstr">  -7069.83848267 </i>
    <i name="atom">  74916.81196153 </i>
    <i name="e_fr_energy">  -1086.88157434 </i>
    <i name="e_wo_entrp">  -1086.88157434 </i>
    <i name="e_0_energy">  -1086.88157434 </i>
   </energy>
  </scstep>
  <scstep>
   <time name="diag">   64.73   64.73</time>
   <time name="diis">  104.21  104.21</time>
   <time name="orth">   33.49   33.49</time>
   <time name="total">  209.59  209.60</time>
   <energy>
    <i name="e_fr_energy">  -1086.88209090 </i>
    <i name="e_wo_entrp">  -1086.88209090 </i>
    <i name="e_0_energy">  -1086.88209090 </i>
   </energy>
  </scstep>
  <scstep>
   <time name="diag">   64.70   64.71</time>
   <time name="diis">   88.79   88.79</time>
   <time name="orth">   33.39   33.39</time>
   <time name="total">  194.04  194.12</time>
   <energy>
    <i name="e_fr_energy">  -1086.88201525 </i>
    <i name="e_wo_entrp">  -1086.88201525 </i>
    <i name="e_0_energy">  -1086.88201525 </i>
   </energy>
  </scstep>
  <scstep>
   <time name="diag">   64.85   64.85</time>
   <time name="diis">   69.46   69.46</time>
   <time name="orth">   33.35   33.35</time>
   <time name="total">  174.82  174.87</time>
   <energy>
    <i name="e_fr_energy">  -1086.88192861 </i>
    <i name="e_wo_entrp">  -1086.88192861 </i>
    <i name="e_0_energy">  -1086.88192861 </i>
   </energy>
  </scstep>
  <scstep>
   <time name="diag">   64.69   64.69</time>
   <time name="diis">   64.62   64.62</time>
   <time name="orth">   33.38   33.38</time>
   <time name="total">  169.85  169.89</time>
   <energy>
    <i name="e_fr_energy">  -1086.88191220 </i>
    <i name="e_wo_entrp">  -1086.88191220 </i>
    <i name="e_0_energy">  -1086.88191220 </i>
   </energy>
  </scstep>
  <scstep>
   <time name="diag">   64.62   64.63</time>
   <time name="diis">   63.48   63.48</time>
   <time name="orth">   33.40   33.40</time>
   <time name="total">  168.67  168.74</time>
   <energy>
    <i name="e_fr_energy">  -1086.88191441 </i>
    <i name="e_wo_entrp">  -1086.88191441 </i>
    <i name="e_0_energy">  -1086.88191441 </i>
   </energy>
  </scstep>
  <scstep>
   <time name="diag">   64.84   64.84</time>
   <time name="diis">   61.18   61.18</time>
   <time name="orth">   33.39   33.39</time>
   <time name="total">  166.56  166.60</time>
   <energy>
    <i name="e_fr_energy">  -1086.88191572 </i>
    <i name="e_wo_entrp">  -1086.88191572 </i>
    <i name="e_0_energy">  -1086.88191572 </i>
   </energy>
  </scstep>
  <scstep>
   <time name="diag">   64.77   64.77</time>
   <time name="diis">   59.49   59.49</time>
   <time name="orth">   33.37   33.37</time>
   <time name="total">  158.67  158.78</time>
   <energy>
    <i name="alphaZ">   5626.97330092 </i>
    <i name="ewald"> -61640.24175644 </i>
    <i name="hartreedc"> -16941.91284349 </i>
    <i name="XCdc">   3074.12064826 </i>
    <i name="pawpsdc"> 113416.95897675 </i>
    <i name="pawaedc">-112468.13116250 </i>
    <i name="eentropy">     -0.00000000 </i>
    <i name="bandstr">  -7071.46104216 </i>
    <i name="atom">  74916.81196153 </i>
    <i name="e_fr_energy">  -1086.88191712 </i>
    <i name="e_wo_entrp">  -1086.88191712 </i>
    <i name="e_0_energy">  -1086.88191712 </i>
   </energy>
  </scstep>
  <structure>
   <crystal>
    <varray name="basis" >
     <v>      11.21724139       0.00876562      -0.01212914 </v>
     <v>       0.00873955      11.21541279       0.02141586 </v>
     <v>      -0.01745876       0.03078693      15.92592263 </v>
    </varray>
    <i name="volume">   2003.56550651 </i>
    <varray name="rec_basis" >
     <v>       0.08914864      -0.00006966       0.00009786 </v>
     <v>      -0.00006986       0.08916340      -0.00017244 </v>
     <v>       0.00006799      -0.00011995       0.06279102 </v>
    </varray>
   </crystal>
   <varray name="positions" >
    <v>       0.00844027       0.26009086       0.13010531 </v>
    <v>       0.00635579       0.24726409       0.62544959 </v>
    <v>       0.00053485       0.74235351       0.12785363 </v>
    <v>       0.99543023       0.74822867       0.62305468 </v>
    <v>       0.48763187       0.25178243       0.12481054 </v>
    <v>       0.50038287       0.25359614       0.63178083 </v>
    <v>       0.49956008       0.75370241       0.13535116 </v>
    <v>       0.50599912       0.74949862       0.62948070 </v>
    <v>       0.00963942       0.24974731       0.37585141 </v>
    <v>       0.00008964       0.25357780       0.86164232 </v>
    <v>       0.99459891       0.75096970       0.37455450 </v>
    <v>       0.00383054       0.74129004       0.86895793 </v>
    <v>       0.49173635       0.26012877       0.37745752 </v>
    <v>       0.50156151       0.24074000       0.86396469 </v>
    <v>       0.51000955       0.74551842       0.37664440 </v>
    <v>       0.49959774       0.76010478       0.86531315 </v>
    <v>       0.26337293       0.00287531       0.12591099 </v>
    <v>       0.25241002       0.00294822       0.62866168 </v>
    <v>       0.24759353       0.49761172       0.12946093 </v>
    <v>       0.25481071       0.49651109       0.62865722 </v>
    <v>       0.74296540       0.99625239       0.12726754 </v>
    <v>       0.74874959       0.99205188       0.63279704 </v>
    <v>       0.74818755       0.49896404       0.13475621 </v>
    <v>       0.74530729       0.50653343       0.62894029 </v>
    <v>       0.24121478       0.00295888       0.37238336 </v>
    <v>       0.25948288       0.00765007       0.86787790 </v>
    <v>       0.25261488       0.49811988       0.37449053 </v>
    <v>       0.24763751       0.49025380       0.86931206 </v>
    <v>       0.75487756       0.99040855       0.37357233 </v>
    <v>       0.74093049       0.01115952       0.86528120 </v>
    <v>       0.74943903       0.51541674       0.37543122 </v>
    <v>       0.75073213       0.48761021       0.86638455 </v>
    <v>       0.00334534       0.99652258       0.99107063 </v>
    <v>       0.00071945       0.99824711       0.50103878 </v>
    <v>       0.99895535       0.50070260       0.99712438 </v>
    <v>       0.00559209       0.50334382       0.50028050 </v>
    <v>       0.49798041       0.99966816       0.99662966 </v>
    <v>       0.48784807       0.99463578       0.49785630 </v>
    <v>       0.48711053       0.51645014       0.99492193 </v>
    <v>       0.49914937       0.50311972       0.50367556 </v>
    <v>       0.24788058       0.24972705       0.00063396 </v>
    <v>       0.24766590       0.74694983       0.49854234 </v>
    <v>       0.76464988       0.23673704       0.00630193 </v>
    <v>       0.75816143       0.26162550       0.49722317 </v>
    <v>       0.74820246       0.74877083       0.01034661 </v>
    <v>       0.25075838       0.24909175       0.25028922 </v>
    <v>       0.25249884       0.24947060       0.74673295 </v>
    <v>       0.24708322       0.75155199       0.25157913 </v>
    <v>       0.00016946       0.99534269       0.74933242 </v>
    <v>       0.99933168       0.50391804       0.25179222 </v>
    <v>       0.99846043       0.50001483       0.74831684 </v>
    <v>       0.50180000       0.50073881       0.25274409 </v>
    <v>       0.25186569       0.25085491       0.50128956 </v>
    <v>       0.24752634       0.75167290       0.01011436 </v>
    <v>       0.75258871       0.75260925       0.49884066 </v>
    <v>       0.25247108       0.74806611       0.74107598 </v>
    <v>       0.75890281       0.25791802       0.25152996 </v>
    <v>       0.74845682       0.24728447       0.74227435 </v>
    <v>       0.75244797       0.75560316       0.25259438 </v>
    <v>       0.74946962       0.74824747       0.74210648 </v>
    <v>       0.99693134       0.00080412       0.25680309 </v>
    <v>       0.49370721       0.99062072       0.25454603 </v>
    <v>       0.50200575       0.99903969       0.74776293 </v>
    <v>       0.50367720       0.50007834       0.75494712 </v>
    <v>       0.11697173       0.12987908       0.24162782 </v>
    <v>       0.12195911       0.12480121       0.74809320 </v>
    <v>       0.11587274       0.63483794       0.24939505 </v>
    <v>       0.12328876       0.62690209       0.76093362 </v>
    <v>       0.62270929       0.12792412       0.75478098 </v>
    <v>       0.61547658       0.63340664       0.25113174 </v>
    <v>       0.62550366       0.63029993       0.76680297 </v>
    <v>       0.37914270       0.37207353       0.24749122 </v>
    <v>       0.37682347       0.37099525       0.75342273 </v>
    <v>       0.38315513       0.86508011       0.25823718 </v>
    <v>       0.37629803       0.87027495       0.75273443 </v>
    <v>       0.88464548       0.36872756       0.24972505 </v>
    <v>       0.88051392       0.36809075       0.73731934 </v>
    <v>       0.88908546       0.87081074       0.23151588 </v>
    <v>       0.87896111       0.86737089       0.76602433 </v>
    <v>       0.38175930       0.12524247       0.24430629 </v>
    <v>       0.37068863       0.12252732       0.74762796 </v>
    <v>       0.36688985       0.61664455       0.24741328 </v>
    <v>       0.36955920       0.62261580       0.77047155 </v>
    <v>       0.85835303       0.11480696       0.23928083 </v>
    <v>       0.87365154       0.11687622       0.74606942 </v>
    <v>       0.86783449       0.61684513       0.24723928 </v>
    <v>       0.87120167       0.62109433       0.75916398 </v>
    <v>       0.13196848       0.38350437       0.24892454 </v>
    <v>       0.12735612       0.37696891       0.75102325 </v>
    <v>       0.13412914       0.88618116       0.23465496 </v>
    <v>       0.13144921       0.87423875       0.77103713 </v>
    <v>       0.62697805       0.37575289       0.25668077 </v>
    <v>       0.63285191       0.37815293       0.74180709 </v>
    <v>       0.63786206       0.89616639       0.25121517 </v>
    <v>       0.63406024       0.87663023       0.75995724 </v>
    <v>       0.36675537       0.38300978       0.00369583 </v>
    <v>       0.36038445       0.39531366       0.49967582 </v>
    <v>       0.36311124       0.88071698       0.99188242 </v>
    <v>       0.35610073       0.89476980       0.49165840 </v>
    <v>       0.85002511       0.38904524       0.01271664 </v>
    <v>       0.85821193       0.39280740       0.50022513 </v>
    <v>       0.86765995       0.88533960       0.00720514 </v>
    <v>       0.86492040       0.89135907       0.50254351 </v>
    <v>       0.12792612       0.10952565       0.01881297 </v>
    <v>       0.14018549       0.10630507       0.50259648 </v>
    <v>       0.13316289       0.61754585       0.98626794 </v>
    <v>       0.14638033       0.60594148       0.49834154 </v>
    <v>       0.62601702       0.12918563       0.99688333 </v>
    <v>       0.63525831       0.61838326       0.98733463 </v>
    <v>       0.63770812       0.61310726       0.49690350 </v>
    <v>       0.10889410       0.36237967       0.00010521 </v>
    <v>       0.10607393       0.35967941       0.49918880 </v>
    <v>       0.11233899       0.86408997       0.00126338 </v>
    <v>       0.10983821       0.85630186       0.49856897 </v>
    <v>       0.60947967       0.35885794       0.49996673 </v>
    <v>       0.62559233       0.86780197       0.98532419 </v>
    <v>       0.61725152       0.87812200       0.49521669 </v>
    <v>       0.37787023       0.13106406       0.00429421 </v>
    <v>       0.40251180       0.14590952       0.50341379 </v>
    <v>       0.37687755       0.63736614       0.97736444 </v>
    <v>       0.39213087       0.64819825       0.49730893 </v>
    <v>       0.88734833       0.12628928       0.02807366 </v>
    <v>       0.88864176       0.13876624       0.49871797 </v>
    <v>       0.87988479       0.64027679       0.98704127 </v>
    <v>       0.89496021       0.63852938       0.49847752 </v>
    <v>       0.00553399       0.98463773       0.62866439 </v>
    <v>       0.00372412       0.50855497       0.12188638 </v>
    <v>       0.00540249       0.50961848       0.62507732 </v>
    <v>       0.50625131       0.99403354       0.12323007 </v>
    <v>       0.50992056       0.00052675       0.62032593 </v>
    <v>       0.51250845       0.49818352       0.11689941 </v>
    <v>       0.49685562       0.51310863       0.62669093 </v>
    <v>       0.00221638       0.99748022       0.37514669 </v>
    <v>       0.99542744       0.01927686       0.87866659 </v>
    <v>       0.00044555       0.50069802       0.37445595 </v>
    <v>       0.99036492       0.48383421       0.87531291 </v>
    <v>       0.52039716       0.02886716       0.37602076 </v>
    <v>       0.49412935       0.00590666       0.87626923 </v>
    <v>       0.49617888       0.50339891       0.37476146 </v>
    <v>       0.52269352       0.46226174       0.88582092 </v>
    <v>       0.24816666       0.24403217       0.37257527 </v>
    <v>       0.24293786       0.24236907       0.87816152 </v>
    <v>       0.24078197       0.75104121       0.37324052 </v>
    <v>       0.73072568       0.22380926       0.37701336 </v>
    <v>       0.76170287       0.25163941       0.88439375 </v>
    <v>       0.75842479       0.75373665       0.37337166 </v>
    <v>       0.24920924       0.25624067       0.12515926 </v>
    <v>       0.24792943       0.25319524       0.62564888 </v>
    <v>       0.26039582       0.74127135       0.12575843 </v>
    <v>       0.24936764       0.74981154       0.62210509 </v>
    <v>       0.71695027       0.25376677       0.12661442 </v>
    <v>       0.73123431       0.22151095       0.61231776 </v>
    <v>       0.73830234       0.74324100       0.12435664 </v>
    <v>       0.74918118       0.74788863       0.62410221 </v>
   </varray>
  </structure>
  <varray name="forces" >
   <v>       0.00505318      -0.00992865      -0.00891206 </v>
   <v>      -0.00287125       0.00138894       0.00230449 </v>
   <v>       0.00448263       0.01268705      -0.00296872 </v>
   <v>       0.00046282       0.00242329      -0.00612408 </v>
   <v>      -0.00198304       0.00372001      -0.00262667 </v>
   <v>      -0.00347025       0.00064053      -0.00404213 </v>
   <v>      -0.00213659      -0.00624626      -0.00273660 </v>
   <v>       0.00219909      -0.00124530       0.00105219 </v>
   <v>      -0.01070799      -0.00608098      -0.00576430 </v>
   <v>      -0.00161110      -0.00721954       0.00912474 </v>
   <v>       0.00735468       0.00079495       0.00388184 </v>
   <v>       0.00367127      -0.00213168       0.00808153 </v>
   <v>       0.00572807      -0.00332569      -0.01023940 </v>
   <v>      -0.00238387       0.00409207       0.00916236 </v>
   <v>       0.00046138       0.00544684      -0.01543391 </v>
   <v>       0.00300400      -0.00054505       0.01071824 </v>
   <v>       0.00154725       0.00575664       0.00078898 </v>
   <v>      -0.00344908      -0.00635512      -0.00244816 </v>
   <v>      -0.00453132       0.00095340      -0.00435293 </v>
   <v>      -0.00148177      -0.00149630       0.00138754 </v>
   <v>       0.00902697       0.00119285       0.00069776 </v>
   <v>       0.00294810      -0.00499081      -0.00716333 </v>
   <v>       0.00501520      -0.00424136       0.01008678 </v>
   <v>      -0.00032751       0.00294570      -0.00410389 </v>
   <v>       0.00239503      -0.00213650       0.00363169 </v>
   <v>       0.00081310      -0.00347825       0.00655151 </v>
   <v>      -0.00571662       0.00021282      -0.00511762 </v>
   <v>      -0.00996187       0.00405675       0.00712350 </v>
   <v>      -0.00192737      -0.00449439      -0.00251849 </v>
   <v>       0.00464608       0.00439946       0.01010466 </v>
   <v>       0.00086729      -0.00572507      -0.00140998 </v>
   <v>       0.00679503      -0.00220450       0.00423171 </v>
   <v>       0.01325213       0.00815490       0.07091765 </v>
   <v>       0.00914212       0.00247307      -0.01982003 </v>
   <v>       0.00242560      -0.01547888       0.00236848 </v>
   <v>      -0.02362870      -0.00077634       0.00668013 </v>
   <v>      -0.00125823      -0.00072149       0.03392208 </v>
   <v>       0.00159820       0.01253295      -0.02006348 </v>
   <v>      -0.00883511      -0.00645485       0.02828219 </v>
   <v>       0.02486031      -0.02200906      -0.00176583 </v>
   <v>      -0.02082535       0.00050184       0.02645067 </v>
   <v>      -0.03199054       0.02421044       0.00775115 </v>
   <v>       0.03126508      -0.00099035       0.02404615 </v>
   <v>      -0.02017471      -0.00419273      -0.03159903 </v>
   <v>      -0.01290826       0.02509030       0.00499615 </v>
   <v>       0.00169343      -0.01247932      -0.05032822 </v>
   <v>      -0.01236558       0.01445620       0.01117569 </v>
   <v>       0.00869721       0.01794679      -0.01848829 </v>
   <v>       0.00522068       0.00623183       0.00742348 </v>
   <v>      -0.02343146      -0.02746483      -0.01912106 </v>
   <v>       0.00383285      -0.00408538       0.00925941 </v>
   <v>       0.01802373      -0.00959917      -0.01997764 </v>
   <v>       0.00097668      -0.00755794       0.00762151 </v>
   <v>      -0.00435135       0.00149682      -0.00565650 </v>
   <v>       0.00242863      -0.00715683      -0.00700965 </v>
   <v>      -0.00322962      -0.00553984       0.00715012 </v>
   <v>       0.00070126      -0.00455117      -0.00013000 </v>
   <v>       0.00285567       0.01292799      -0.00262903 </v>
   <v>       0.00102554       0.00133311       0.00153400 </v>
   <v>       0.00318502      -0.00682781      -0.00444651 </v>
   <v>       0.00041883       0.00441583      -0.00708815 </v>
   <v>       0.00873937       0.00778584      -0.01070628 </v>
   <v>      -0.00160907       0.00188961       0.00592209 </v>
   <v>      -0.00642455      -0.00379318      -0.00072056 </v>
   <v>       0.01040882       0.00340383       0.00865935 </v>
   <v>      -0.00690469      -0.00802825       0.00337444 </v>
   <v>       0.00700898       0.00001202       0.00696788 </v>
   <v>       0.00639593       0.00240716      -0.00280443 </v>
   <v>      -0.01131270      -0.00008733      -0.00631937 </v>
   <v>       0.00037001       0.00031319       0.00342398 </v>
   <v>      -0.00872106       0.00648016      -0.00909884 </v>
   <v>      -0.00153373      -0.00359768      -0.00264267 </v>
   <v>       0.00277239       0.00228030       0.00366912 </v>
   <v>      -0.00777247      -0.00886902      -0.00749337 </v>
   <v>       0.00863163       0.00382304      -0.00081769 </v>
   <v>       0.00872309       0.00849277       0.00334183 </v>
   <v>      -0.00956341      -0.00499689       0.00374166 </v>
   <v>      -0.00443916      -0.00323290      -0.00202125 </v>
[...]
       <r>   -16.6559     0.0000    32.0000 </r>
       <r>   -16.5026     0.0000    32.0000 </r>
       <r>   -16.3492     0.0000    32.0000 </r>
       <r>   -16.1958     0.0000    32.0000 </r>
       <r>   -16.0424     0.0000    32.0000 </r>
       <r>   -15.8891     0.0000    32.0000 </r>
       <r>   -15.7357     0.0000    32.0000 </r>
       <r>   -15.5823     0.0000    32.0000 </r>
       <r>   -15.4289     0.0000    32.0000 </r>
       <r>   -15.2756     0.0298    32.0046 </r>
       <r>   -15.1222    12.5918    33.9358 </r>
       <r>   -14.9688    32.1307    38.8638 </r>
       <r>   -14.8154    36.5796    44.4742 </r>
       <r>   -14.6621    38.4870    50.3771 </r>
       <r>   -14.5087    42.1166    56.8367 </r>
       <r>   -14.3553    37.9160    62.6520 </r>
       <r>   -14.2019    51.3088    70.5214 </r>
       <r>   -14.0486    86.2414    83.7486 </r>
       <r>   -13.8952    97.3171    98.6745 </r>
       <r>   -13.7418    71.1970   109.5943 </r>
       <r>   -13.5885    45.2003   116.5268 </r>
       <r>   -13.4351    26.4754   120.5874 </r>
       <r>   -13.2817     8.4970   121.8906 </r>
       <r>   -13.1283     0.7130   122.0000 </r>
       <r>   -12.9750     0.0000   122.0000 </r>
       <r>   -12.8216     0.6082   122.0933 </r>
       <r>   -12.6682    29.2300   126.5764 </r>
       <r>   -12.5148    92.7244   140.7979 </r>
       <r>   -12.3615   135.4919   161.5788 </r>
       <r>   -12.2081   125.3115   180.7983 </r>
       <r>   -12.0547   105.8029   197.0257 </r>
       <r>   -11.9013    75.6340   208.6260 </r>
       <r>   -11.7480    42.8009   215.1905 </r>
       <r>   -11.5946    18.1697   217.9773 </r>
       <r>   -11.4412     0.1482   218.0000 </r>
       <r>   -11.2878     0.0000   218.0000 </r>
       <r>   -11.1345     0.0000   218.0000 </r>
       <r>   -10.9811     0.0000   218.0000 </r>
       <r>   -10.8277     0.0000   218.0000 </r>
       <r>   -10.6744     0.0000   218.0000 </r>
       <r>   -10.5210     0.0000   218.0000 </r>
       <r>   -10.3676     0.0000   218.0000 </r>
       <r>   -10.2142     0.0000   218.0000 </r>
       <r>   -10.0609     0.0000   218.0000 </r>
       <r>    -9.9075     0.0000   218.0000 </r>
       <r>    -9.7541     0.0000   218.0000 </r>
       <r>    -9.6007     0.0000   218.0000 </r>
       <r>    -9.4474     0.0000   218.0000 </r>
       <r>    -9.2940     0.0000   218.0000 </r>
       <r>    -9.1406     0.0000   218.0000 </r>
       <r>    -8.9872     0.0000   218.0000 </r>
       <r>    -8.8339     0.0000   218.0000 </r>
       <r>    -8.6805     0.0000   218.0000 </r>
       <r>    -8.5271     0.0000   218.0000 </r>
       <r>    -8.3737     0.0000   218.0000 </r>
       <r>    -8.2204     0.0000   218.0000 </r>
       <r>    -8.0670     0.0000   218.0000 </r>
       <r>    -7.9136     0.0000   218.0000 </r>
       <r>    -7.7602     0.0000   218.0000 </r>
       <r>    -7.6069     0.0000   218.0000 </r>
       <r>    -7.4535     0.0000   218.0000 </r>
       <r>    -7.3001     0.0000   218.0000 </r>
       <r>    -7.1468     0.0000   218.0000 </r>
       <r>    -6.9934     0.0000   218.0000 </r>
       <r>    -6.8400     0.0000   218.0000 </r>
       <r>    -6.6866     0.0000   218.0000 </r>
       <r>    -6.5333     0.0000   218.0000 </r>
       <r>    -6.3799     0.0000   218.0000 </r>
       <r>    -6.2265     0.0000   218.0000 </r>
       <r>    -6.0731     0.0000   218.0000 </r>
       <r>    -5.9198     0.0000   218.0000 </r>
       <r>    -5.7664     0.0000   218.0000 </r>
       <r>    -5.6130     0.0000   218.0000 </r>
       <r>    -5.4596     0.0000   218.0000 </r>
       <r>    -5.3063     0.0000   218.0000 </r>
       <r>    -5.1529     0.0000   218.0000 </r>
       <r>    -4.9995     0.0000   218.0000 </r>
       <r>    -4.8461     0.0000   218.0000 </r>
       <r>    -4.6928     0.0000   218.0000 </r>
       <r>    -4.5394     0.0000   218.0000 </r>
       <r>    -4.3860     0.0000   218.0000 </r>
       <r>    -4.2326     0.0000   218.0000 </r>
       <r>    -4.0793     0.0000   218.0000 </r>
       <r>    -3.9259     0.0000   218.0000 </r>
       <r>    -3.7725     0.0000   218.0000 </r>
       <r>    -3.6192     0.0000   218.0000 </r>
       <r>    -3.4658     0.0000   218.0000 </r>
       <r>    -3.3124     0.0000   218.0000 </r>
       <r>    -3.1590     0.0000   218.0000 </r>
       <r>    -3.0057     0.0000   218.0000 </r>
       <r>    -2.8523     0.0000   218.0000 </r>
       <r>    -2.6989     0.0000   218.0000 </r>
       <r>    -2.5455     0.0032   218.0005 </r>
       <r>    -2.3922     5.7798   218.8870 </r>
       <r>    -2.2388    13.5132   220.9595 </r>
       <r>    -2.0854    18.3534   223.7745 </r>
       <r>    -1.9320    32.2631   228.7228 </r>
       <r>    -1.7787    35.1183   234.1090 </r>
       <r>    -1.6253    42.3893   240.6104 </r>
       <r>    -1.4719    51.8049   248.5559 </r>
       <r>    -1.3185    52.1193   256.5497 </r>
       <r>    -1.1652    61.4874   265.9802 </r>
       <r>    -1.0118    73.7862   277.2971 </r>
       <r>    -0.8584    79.2575   289.4531 </r>
       <r>    -0.7051    83.1703   302.2093 </r>
       <r>    -0.5517    90.5036   316.0902 </r>
       <r>    -0.3983    98.8964   331.2583 </r>
       <r>    -0.2449    79.3215   343.4241 </r>
       <r>    -0.0916    56.7551   352.1289 </r>
       <r>     0.0618    51.1744   359.9777 </r>
       <r>     0.2152    51.7300   367.9117 </r>
       <r>     0.3686    51.5325   375.8154 </r>
       <r>     0.5219    49.9528   383.4769 </r>
       <r>     0.6753    56.6589   392.1669 </r>
       <r>     0.8287    51.2721   400.0307 </r>
       <r>     0.9821    56.7192   408.7299 </r>
       <r>     1.1354    60.8522   418.0631 </r>
       <r>     1.2888    67.5825   428.4285 </r>
       <r>     1.4422    80.2984   440.7441 </r>
       <r>     1.5956    77.9165   452.6945 </r>
       <r>     1.7489    65.6698   462.7665 </r>
       <r>     1.9023    62.2263   472.3104 </r>
       <r>     2.0557    48.4447   479.7406 </r>
       <r>     2.2091    37.5750   485.5036 </r>
       <r>     2.3624     8.8698   486.8640 </r>
       <r>     2.5158     3.7459   487.4385 </r>
       <r>     2.6692     3.6608   488.0000 </r>
       <r>     2.8225     0.0001   488.0000 </r>
       <r>     2.9759     0.0000   488.0000 </r>
       <r>     3.1293     0.0000   488.0000 </r>
       <r>     3.2827     0.0000   488.0000 </r>
       <r>     3.4360     0.0000   488.0000 </r>
       <r>     3.5894     0.0000   488.0000 </r>
       <r>     3.7428     0.0000   488.0000 </r>
       <r>     3.8962     0.0000   488.0000 </r>
       <r>     4.0495     0.0000   488.0000 </r>
       <r>     4.2029     0.0001   488.0000 </r>
       <r>     4.3563     3.5436   488.5435 </r>
       <r>     4.5097    14.2312   490.7262 </r>
       <r>     4.6630    39.4464   496.7763 </r>
       <r>     4.8164    46.5588   503.9172 </r>
       <r>     4.9698    42.0202   510.3620 </r>
       <r>     5.1232    57.2176   519.1376 </r>
       <r>     5.2765    58.0670   528.0436 </r>
       <r>     5.4299    65.3763   538.0706 </r>
       <r>     5.5833    71.2386   548.9967 </r>
       <r>     5.7367    79.1056   561.1295 </r>
       <r>     5.8900    74.2868   572.5231 </r>
       <r>     6.0434    71.3152   583.4610 </r>
       <r>     6.1968    74.4059   594.8729 </r>
       <r>     6.3501    67.2631   605.1893 </r>
       <r>     6.5035    36.2535   610.7497 </r>
       <r>     6.6569    21.9892   614.1222 </r>
       <r>     6.8103    15.9564   616.5695 </r>
       <r>     6.9636    16.8834   619.1590 </r>
       <r>     7.1170    16.2692   621.6543 </r>
       <r>     7.2704    17.6106   624.3553 </r>
       <r>     7.4238    16.0204   626.8124 </r>
       <r>     7.5771    12.7648   628.7702 </r>
       <r>     7.7305    15.4807   631.1445 </r>
       <r>     7.8839    18.6678   634.0077 </r>
       <r>     8.0373    21.7899   637.3497 </r>
       <r>     8.1906    19.7778   640.3830 </r>
       <r>     8.3440    23.6867   644.0160 </r>
       <r>     8.4974    26.4309   648.0698 </r>
       <r>     8.6508    24.9759   651.9004 </r>
       <r>     8.8041    33.9639   657.1096 </r>
       <r>     8.9575    35.4329   662.5441 </r>
       <r>     9.1109    32.5020   667.5290 </r>
       <r>     9.2642    37.3038   673.2505 </r>
       <r>     9.4176    41.1484   679.5616 </r>
       <r>     9.5710    46.2677   686.6578 </r>
       <r>     9.7244    50.0731   694.3377 </r>
       <r>     9.8777    59.3231   703.4363 </r>
       <r>    10.0311    63.2435   713.1362 </r>
       <r>    10.1845    58.5570   722.1173 </r>
       <r>    10.3379    58.5742   731.1011 </r>
       <r>    10.4912    55.4492   739.6055 </r>
       <r>    10.6446    60.3795   748.8662 </r>
       <r>    10.7980    50.9329   756.6780 </r>
       <r>    10.9514    52.7395   764.7668 </r>
       <r>    11.1047    21.0668   767.9979 </r>
       <r>    11.2581     0.0135   768.0000 </r>
       <r>    11.4115     0.0000   768.0000 </r>
       <r>    11.5649     0.0000   768.0000 </r>
       <r>    11.7182     0.0000   768.0000 </r>
       <r>    11.8716     0.0000   768.0000 </r>
       <r>    12.0250     0.0000   768.0000 </r>
       <r>    12.1784     0.0000   768.0000 </r>
       <r>    12.3317     0.0000   768.0000 </r>
       <r>    12.4851     0.0000   768.0000 </r>
       <r>    12.6385     0.0000   768.0000 </r>
       <r>    12.7918     0.0000   768.0000 </r>
       <r>    12.9452     0.0000   768.0000 </r>
       <r>    13.0986     0.0000   768.0000 </r>
      </set>
     </set>
    </array>
   </total>
  </dos>
 </calculation>
 <structure name="finalpos" >
  <crystal>
   <varray name="basis" >
    <v>      11.21713418       0.00835296      -0.01212360 </v>
    <v>       0.00832674      11.21539930       0.02128412 </v>
    <v>      -0.01745139       0.03059990      15.92621546 </v>
   </varray>
   <i name="volume">   2003.58099016 </i>
   <varray name="rec_basis" >
    <v>       0.08914949      -0.00006637       0.00009781 </v>
    <v>      -0.00006658       0.08916350      -0.00017139 </v>
    <v>       0.00006795      -0.00011921       0.06278986 </v>
   </varray>
  </crystal>
  <varray name="positions" >
   <v>       0.00848504       0.25995883       0.13002251 </v>
   <v>       0.00630544       0.24725596       0.62544685 </v>
   <v>       0.00059719       0.74248484       0.12783182 </v>
   <v>       0.99541755       0.74830626       0.62299839 </v>
   <v>       0.48765064       0.25183774       0.12475847 </v>
   <v>       0.50033002       0.25357178       0.63176455 </v>
   <v>       0.49950050       0.75357519       0.13531791 </v>
   <v>       0.50600473       0.74949604       0.62947335 </v>
   <v>       0.00958060       0.24970614       0.37585482 </v>
   <v>       0.00002099       0.25341896       0.86168575 </v>
   <v>       0.99474537       0.75092180       0.37459614 </v>
   <v>       0.00384726       0.74128491       0.86902217 </v>
   <v>       0.49170603       0.26011147       0.37737306 </v>
   <v>       0.50157588       0.24076645       0.86405788 </v>
   <v>       0.50995301       0.74554904       0.37656045 </v>
   <v>       0.49965040       0.76011062       0.86538229 </v>
   <v>       0.26343784       0.00287077       0.12591296 </v>
   <v>       0.25238636       0.00284692       0.62863921 </v>
   <v>       0.24751653       0.49772323       0.12946391 </v>
   <v>       0.25481351       0.49651978       0.62861613 </v>
   <v>       0.74306939       0.99622962       0.12725837 </v>
   <v>       0.74877945       0.99199325       0.63272875 </v>
   <v>       0.74826711       0.49897356       0.13483250 </v>
   <v>       0.74528904       0.50657846       0.62892182 </v>
   <v>       0.24127810       0.00294404       0.37245454 </v>
   <v>       0.25953306       0.00759027       0.86788831 </v>
   <v>       0.25252446       0.49813528       0.37447784 </v>
   <v>       0.24753304       0.49035583       0.86936325 </v>
   <v>       0.75485902       0.99030413       0.37360855 </v>
   <v>       0.74098000       0.01123768       0.86533643 </v>
   <v>       0.74945727       0.51538771       0.37544957 </v>
   <v>       0.75077531       0.48758067       0.86640960 </v>
   <v>       0.00339196       0.99657071       0.99121002 </v>
   <v>       0.00070287       0.99830337       0.50101942 </v>
   <v>       0.99892088       0.50069757       0.99710571 </v>
   <v>       0.00552842       0.50333029       0.50030919 </v>
   <v>       0.49798070       0.99967842       0.99670295 </v>
   <v>       0.48789629       0.99460695       0.49785886 </v>
   <v>       0.48706820       0.51639266       0.99497939 </v>
   <v>       0.49921982       0.50304777       0.50366240 </v>
   <v>       0.24784874       0.24976987       0.00066886 </v>
   <v>       0.24758506       0.74699696       0.49858690 </v>
   <v>       0.76461041       0.23677542       0.00627538 </v>
   <v>       0.75805766       0.26155112       0.49717028 </v>
   <v>       0.74815618       0.74883710       0.01037535 </v>
   <v>       0.25078975       0.24908807       0.25024099 </v>
   <v>       0.25242254       0.24952011       0.74676097 </v>
   <v>       0.24714687       0.75158791       0.25154224 </v>
   <v>       0.00013898       0.99540849       0.74934928 </v>
   <v>       0.99934789       0.50381786       0.25174958 </v>
   <v>       0.99847345       0.50002136       0.74834690 </v>
   <v>       0.50184416       0.50071219       0.25268597 </v>
   <v>       0.25182461       0.25084174       0.50132021 </v>
   <v>       0.24751741       0.75163205       0.01004583 </v>
   <v>       0.75261606       0.75255198       0.49883743 </v>
   <v>       0.25248713       0.74804411       0.74112403 </v>
   <v>       0.75889274       0.25785619       0.25150503 </v>
   <v>       0.74840934       0.24737125       0.74226567 </v>
   <v>       0.75246744       0.75557969       0.25261416 </v>
   <v>       0.74944174       0.74821890       0.74211734 </v>
   <v>       0.99692770       0.00079582       0.25679121 </v>
   <v>       0.49375858       0.99071416       0.25446073 </v>
   <v>       0.50202627       0.99906815       0.74781434 </v>
   <v>       0.50362977       0.50004195       0.75494258 </v>
   <v>       0.11703922       0.12987825       0.24165608 </v>
   <v>       0.12193249       0.12474311       0.74811131 </v>
   <v>       0.11594197       0.63479430       0.24945317 </v>
   <v>       0.12331638       0.62686938       0.76090184 </v>
   <v>       0.62259477       0.12799731       0.75470370 </v>
   <v>       0.61548401       0.63336930       0.25116161 </v>
   <v>       0.62536707       0.63041082       0.76670294 </v>
   <v>       0.37920158       0.37205309       0.24743607 </v>
   <v>       0.37683300       0.37102661       0.75345811 </v>
   <v>       0.38316532       0.86508699       0.25814654 </v>
   <v>       0.37633921       0.87026606       0.75272550 </v>
   <v>       0.88466467       0.36873439       0.24974279 </v>
   <v>       0.88049063       0.36809669       0.73737120 </v>
   <v>       0.88906080       0.87083133       0.23149041 </v>
   <v>       0.87896092       0.86740547       0.76593328 </v>
   <v>       0.38183361       0.12533615       0.24436704 </v>
   <v>       0.37058930       0.12240871       0.74762388 </v>
   <v>       0.36691774       0.61671573       0.24737159 </v>
   <v>       0.36960901       0.62264772       0.77038466 </v>
   <v>       0.85851733       0.11481123       0.23930085 </v>
   <v>       0.87367706       0.11703188       0.74611963 </v>
   <v>       0.86792012       0.61687209       0.24723042 </v>
   <v>       0.87115070       0.62111664       0.75908771 </v>
   <v>       0.13194256       0.38349753       0.24899826 </v>
   <v>       0.12735683       0.37693398       0.75101769 </v>
   <v>       0.13411751       0.88610286       0.23469652 </v>
   <v>       0.13142069       0.87419663       0.77091678 </v>
   <v>       0.62694355       0.37578276       0.25669254 </v>
   <v>       0.63276990       0.37808928       0.74184620 </v>
   <v>       0.63790089       0.89614339       0.25121916 </v>
   <v>       0.63414877       0.87670303       0.75996065 </v>
   <v>       0.36673782       0.38312549       0.00365759 </v>
   <v>       0.36036846       0.39533720       0.49965039 </v>
   <v>       0.36330982       0.88070944       0.99199356 </v>
   <v>       0.35608264       0.89474183       0.49176751 </v>
   <v>       0.84996018       0.38901482       0.01268089 </v>
   <v>       0.85820013       0.39273269       0.50019325 </v>
   <v>       0.86785726       0.88519680       0.00749672 </v>
   <v>       0.86494455       0.89128694       0.50261008 </v>
   <v>       0.12791546       0.10948928       0.01888626 </v>
   <v>       0.14018534       0.10630720       0.50258918 </v>
   <v>       0.13306048       0.61761171       0.98622988 </v>
   <v>       0.14633438       0.60591813       0.49836578 </v>
   <v>       0.62590865       0.12924318       0.99685391 </v>
   <v>       0.63514527       0.61853771       0.98729386 </v>
   <v>       0.63758955       0.61315303       0.49690692 </v>
   <v>       0.10887611       0.36242959       0.00005119 </v>
   <v>       0.10607446       0.35964808       0.49918482 </v>
   <v>       0.11252094       0.86412140       0.00115784 </v>
   <v>       0.10988784       0.85626814       0.49858366 </v>
   <v>       0.60956240       0.35890194       0.49996109 </v>
   <v>       0.62574924       0.86795564       0.98529809 </v>
   <v>       0.61736107       0.87818921       0.49516373 </v>
   <v>       0.37785697       0.13110493       0.00430959 </v>
   <v>       0.40242977       0.14587569       0.50340655 </v>
   <v>       0.37683266       0.63732949       0.97735362 </v>
   <v>       0.39212296       0.64818181       0.49731332 </v>
   <v>       0.88719230       0.12634138       0.02791135 </v>
   <v>       0.88870451       0.13874496       0.49869352 </v>
   <v>       0.87986804       0.64025084       0.98697784 </v>
   <v>       0.89496407       0.63857134       0.49853160 </v>
   <v>       0.00553054       0.98476815       0.62868652 </v>
   <v>       0.00371890       0.50852071       0.12188702 </v>
   <v>       0.00545098       0.50965628       0.62511924 </v>
   <v>       0.50634503       0.99409149       0.12324331 </v>
   <v>       0.50996827       0.00046542       0.62034351 </v>
   <v>       0.51248528       0.49817893       0.11688641 </v>
   <v>       0.49688579       0.51299050       0.62670062 </v>
   <v>       0.00222638       0.99745017       0.37519596 </v>
   <v>       0.99540620       0.01930589       0.87863348 </v>
   <v>       0.00042206       0.50065289       0.37451037 </v>
   <v>       0.99035697       0.48386495       0.87529638 </v>
   <v>       0.52035845       0.02883652       0.37602237 </v>
   <v>       0.49408521       0.00593209       0.87629152 </v>
   <v>       0.49609312       0.50336413       0.37471543 </v>
   <v>       0.52273464       0.46226982       0.88583537 </v>
   <v>       0.24825933       0.24402199       0.37262270 </v>
   <v>       0.24297535       0.24226393       0.87817436 </v>
   <v>       0.24081981       0.75098189       0.37321876 </v>
   <v>       0.73078799       0.22378570       0.37698191 </v>
   <v>       0.76155451       0.25179253       0.88432528 </v>
   <v>       0.75843225       0.75378842       0.37339496 </v>
   <v>       0.24917460       0.25623484       0.12517739 </v>
   <v>       0.24793211       0.25320214       0.62566977 </v>
   <v>       0.26027301       0.74122427       0.12570068 </v>
   <v>       0.24935532       0.74980172       0.62210049 </v>
   <v>       0.71704198       0.25370284       0.12660127 </v>
   <v>       0.73127730       0.22147453       0.61235456 </v>
   <v>       0.73815900       0.74318976       0.12435819 </v>
   <v>       0.74907886       0.74785753       0.62410317 </v>
  </varray>
 </structure>
</modeling>
