       N       E                     dE             d eps       ncg     rms          rms(c)
DAV:   1    -0.990185344729E+03   -0.99019E+03   -0.40520E-03 13200   0.146E-01    0.683E-02
RMM:   2    -0.990185344840E+03   -0.11081E-06   -0.45917E-05  6924   0.124E-02    0.128E-01
RMM:   3    -0.990185341791E+03    0.30492E-05   -0.13099E-05  6428   0.709E-03    0.265E-02
RMM:   4    -0.990185341537E+03    0.25435E-06   -0.25654E-06  3920   0.245E-03    0.143E-02
RMM:   5    -0.990185341556E+03   -0.18845E-07   -0.11971E-06  3273   0.238E-03    0.432E-03
RMM:   6    -0.990185341711E+03   -0.15525E-06   -0.57438E-07  2437   0.200E-03    0.460E-03
RMM:   7    -0.990185341843E+03   -0.13252E-06   -0.41910E-07  2262   0.201E-03    0.322E-03
RMM:   8    -0.990185342044E+03   -0.20063E-06   -0.42006E-07  2266   0.201E-03
   1 F= -.99018534E+03 E0= -.99018373E+03  d E =-.990185E+03  mag=   112.0000
       N       E                     dE             d eps       ncg     rms          rms(c)
DAV:   1    -0.990183333710E+03    0.20081E-02   -0.12651E+00 12640   0.133E+00    0.611E-01
RMM:   2    -0.990188550536E+03   -0.52168E-02   -0.38554E-02 12624   0.283E-01    0.462E-01
RMM:   3    -0.990189042408E+03   -0.49187E-03   -0.23920E-03 12699   0.790E-02    0.242E-01
RMM:   4    -0.990188865402E+03    0.17701E-03   -0.32062E-04  9455   0.249E-02    0.157E-01
RMM:   5    -0.990188769431E+03    0.95971E-04   -0.41611E-04 10354   0.230E-02    0.607E-02
RMM:   6    -0.990188772305E+03   -0.28737E-05   -0.37641E-05  7401   0.121E-02    0.307E-02
RMM:   7    -0.990188772553E+03   -0.24868E-06   -0.15256E-05  7258   0.519E-03    0.187E-02
RMM:   8    -0.990188773519E+03   -0.96542E-06   -0.62562E-06  6748   0.449E-03
   2 F= -.99018877E+03 E0= -.99018718E+03  d E =-.343147E-02  mag=   112.0000
       N       E                     dE             d eps       ncg     rms          rms(c)
DAV:   1    -0.990188774047E+03   -0.14933E-05   -0.27044E-04 11784   0.203E-02    0.989E-03
RMM:   2    -0.990188775825E+03   -0.17786E-05   -0.11819E-05  6554   0.586E-03    0.902E-03
RMM:   3    -0.990188776326E+03   -0.50053E-06   -0.22625E-06  4724   0.293E-03    0.483E-03
RMM:   4    -0.990188776561E+03   -0.23557E-06   -0.51967E-07  2888   0.221E-03    0.370E-03
RMM:   5    -0.990188776935E+03   -0.37368E-06   -0.54347E-07  2808   0.213E-03    0.230E-03
RMM:   6    -0.990188777224E+03   -0.28899E-06   -0.42858E-07  2471   0.198E-03    0.187E-03
RMM:   7    -0.990188777338E+03   -0.11452E-06   -0.12465E-07  1700   0.179E-03    0.162E-03
RMM:   8    -0.990188777520E+03   -0.18202E-06   -0.25986E-07  1810   0.182E-03
   3 F= -.99018878E+03 E0= -.99018719E+03  d E =-.343548E-02  mag=   112.0000
       N       E                     dE             d eps       ncg     rms          rms(c)
DAV:   1    -0.990188121466E+03    0.65587E-03   -0.11883E+00 12672   0.129E+00    0.411E-01
RMM:   2    -0.990191916771E+03   -0.37953E-02   -0.31674E-02 12705   0.248E-01    0.250E-01
RMM:   3    -0.990192180058E+03   -0.26329E-03   -0.19023E-03 12608   0.708E-02    0.133E-01
RMM:   4    -0.990192102074E+03    0.77983E-04   -0.21077E-04  8241   0.197E-02    0.829E-02
RMM:   5    -0.990192071763E+03    0.30312E-04   -0.13711E-04  7387   0.155E-02    0.464E-02
RMM:   6    -0.990192076178E+03   -0.44154E-05   -0.37079E-05  7216   0.106E-02    0.283E-02
RMM:   7    -0.990192077530E+03   -0.13517E-05   -0.16823E-05  7069   0.643E-03    0.164E-02
RMM:   8    -0.990192077814E+03   -0.28414E-06   -0.92762E-06  6731   0.518E-03
   4 F= -.99019208E+03 E0= -.99019049E+03  d E =-.330029E-02  mag=   112.0000
       N       E                     dE             d eps       ncg     rms          rms(c)
DAV:   1    -0.990179715206E+03    0.12362E-01   -0.44760E+00 12496   0.251E+00    0.797E-01
RMM:   2    -0.990194047517E+03   -0.14332E-01   -0.11955E-01 12712   0.481E-01    0.487E-01
RMM:   3    -0.990195048341E+03   -0.10008E-02   -0.72757E-03 13484   0.138E-01    0.259E-01
RMM:   4    -0.990194769624E+03    0.27872E-03   -0.97288E-04 13140   0.370E-02    0.159E-01
RMM:   5    -0.990194657752E+03    0.11187E-03   -0.59984E-04 10829   0.254E-02    0.649E-02
RMM:   6    -0.990194663020E+03   -0.52686E-05   -0.70185E-05  7441   0.143E-02    0.320E-02
RMM:   7    -0.990194665696E+03   -0.26761E-05   -0.33479E-05  7310   0.835E-03    0.206E-02
RMM:   8    -0.990194666311E+03   -0.61419E-06   -0.19141E-05  7228   0.736E-03
   5 F= -.99019467E+03 E0= -.99019309E+03  d E =-.588879E-02  mag=   112.0000
       N       E                     dE             d eps       ncg     rms          rms(c)
DAV:   1    -0.990193544601E+03    0.11211E-02   -0.11412E+00 12576   0.126E+00    0.379E-01
RMM:   2    -0.990197127965E+03   -0.35834E-02   -0.29836E-02 12809   0.236E-01    0.229E-01
RMM:   3    -0.990197351291E+03   -0.22333E-03   -0.17437E-03 12418   0.661E-02    0.123E-01
RMM:   4    -0.990197281533E+03    0.69758E-04   -0.18470E-04  7995   0.185E-02    0.829E-02
RMM:   5    -0.990197247722E+03    0.33811E-04   -0.12549E-04  7395   0.147E-02    0.528E-02
RMM:   6    -0.990197252524E+03   -0.48024E-05   -0.43925E-05  7206   0.105E-02    0.287E-02
RMM:   7    -0.990197254533E+03   -0.20092E-05   -0.18633E-05  7036   0.699E-03    0.190E-02
RMM:   8    -0.990197255366E+03   -0.83262E-06   -0.10509E-05  6732   0.512E-03
   6 F= -.99019726E+03 E0= -.99019568E+03  d E =-.258906E-02  mag=   112.0000
       N       E                     dE             d eps       ncg     rms          rms(c)
DAV:   1    -0.990183267568E+03    0.13987E-01   -0.50270E+00 12576   0.263E+00    0.796E-01
RMM:   2    -0.990198971580E+03   -0.15704E-01   -0.13061E-01 12803   0.495E-01    0.481E-01
RMM:   3    -0.990199972592E+03   -0.10010E-02   -0.76196E-03 13432   0.138E-01    0.259E-01
RMM:   4    -0.990199676659E+03    0.29593E-03   -0.93502E-04 12863   0.362E-02    0.171E-01
RMM:   5    -0.990199524580E+03    0.15208E-03   -0.64012E-04 10940   0.259E-02    0.794E-02
RMM:   6    -0.990199532036E+03   -0.74560E-05   -0.95388E-05  7433   0.154E-02    0.342E-02
RMM:   7    -0.990199535686E+03   -0.36497E-05   -0.36467E-05  7288   0.916E-03    0.215E-02
RMM:   8    -0.990199536818E+03   -0.11326E-05   -0.20867E-05  7186   0.729E-03
   7 F= -.99019954E+03 E0= -.99019798E+03  d E =-.487051E-02  mag=   112.0000
       N       E                     dE             d eps       ncg     rms          rms(c)
DAV:   1    -0.990196289158E+03    0.32465E-02   -0.17066E+00 12552   0.153E+00    0.486E-01
RMM:   2    -0.990201806120E+03   -0.55170E-02   -0.45075E-02 12715   0.293E-01    0.292E-01
RMM:   3    -0.990202200894E+03   -0.39477E-03   -0.27670E-03 12898   0.829E-02    0.156E-01
RMM:   4    -0.990202091646E+03    0.10925E-03   -0.31456E-04  9518   0.226E-02    0.107E-01
RMM:   5    -0.990202036713E+03    0.54932E-04   -0.20319E-04  7766   0.174E-02    0.615E-02
RMM:   6    -0.990202042148E+03   -0.54348E-05   -0.57481E-05  7286   0.123E-02    0.333E-02
RMM:   7    -0.990202044947E+03   -0.27991E-05   -0.22657E-05  7167   0.777E-03    0.225E-02
RMM:   8    -0.990202045948E+03   -0.10009E-05   -0.12442E-05  7005   0.575E-03
   8 F= -.99020205E+03 E0= -.99020047E+03  d E =-.250913E-02  mag=   112.0000
       N       E                     dE             d eps       ncg     rms          rms(c)
DAV:   1    -0.990197059070E+03    0.49859E-02   -0.17298E+00 12512   0.154E+00    0.490E-01
RMM:   2    -0.990202647397E+03   -0.55883E-02   -0.45654E-02 12720   0.295E-01    0.295E-01
RMM:   3    -0.990203047328E+03   -0.39993E-03   -0.27965E-03 12896   0.831E-02    0.158E-01
RMM:   4    -0.990202936199E+03    0.11113E-03   -0.31727E-04  9487   0.226E-02    0.107E-01
RMM:   5    -0.990202880078E+03    0.56121E-04   -0.20460E-04  7761   0.175E-02    0.620E-02
RMM:   6    -0.990202885783E+03   -0.57046E-05   -0.57975E-05  7303   0.124E-02    0.338E-02
RMM:   7    -0.990202888548E+03   -0.27656E-05   -0.22637E-05  7169   0.780E-03    0.223E-02
RMM:   8    -0.990202889553E+03   -0.10044E-05   -0.12387E-05  7001   0.577E-03
   9 F= -.99020289E+03 E0= -.99020130E+03  d E =-.335273E-02  mag=   112.0000
       N       E                     dE             d eps       ncg     rms          rms(c)
DAV:   1    -0.990198753513E+03    0.41350E-02   -0.19273E+00 12288   0.163E+00    0.506E-01
RMM:   2    -0.990204909187E+03   -0.61557E-02   -0.50351E-02 12803   0.309E-01    0.294E-01
RMM:   3    -0.990205320102E+03   -0.41091E-03   -0.29864E-03 12932   0.867E-02    0.158E-01
RMM:   4    -0.990205208361E+03    0.11174E-03   -0.35100E-04  9853   0.237E-02    0.114E-01
RMM:   5    -0.990205158503E+03    0.49858E-04   -0.17850E-04  7604   0.172E-02    0.627E-02
RMM:   6    -0.990205165958E+03   -0.74550E-05   -0.64594E-05  7271   0.127E-02    0.337E-02
RMM:   7    -0.990205169004E+03   -0.30461E-05   -0.23958E-05  7108   0.829E-03    0.241E-02
RMM:   8    -0.990205170135E+03   -0.11305E-05   -0.13455E-05  6967   0.576E-03
  10 F= -.99020517E+03 E0= -.99020362E+03  d E =-.228058E-02  mag=   112.0000
       N       E                     dE             d eps       ncg     rms          rms(c)
DAV:   1    -0.990191221924E+03    0.13947E-01   -0.46113E+00 12320   0.252E+00    0.782E-01
RMM:   2    -0.990205923090E+03   -0.14701E-01   -0.12025E-01 12788   0.477E-01    0.455E-01
RMM:   3    -0.990206916468E+03   -0.99338E-03   -0.71804E-03 13421   0.134E-01    0.245E-01
RMM:   4    -0.990206652229E+03    0.26424E-03   -0.87984E-04 12686   0.354E-02    0.175E-01
RMM:   5    -0.990206534347E+03    0.11788E-03   -0.48047E-04 10555   0.238E-02    0.807E-02
RMM:   6    -0.990206544421E+03   -0.10073E-04   -0.10205E-04  7449   0.151E-02    0.345E-02
RMM:   7    -0.990206548584E+03   -0.41633E-05   -0.34941E-05  7284   0.961E-03    0.231E-02
RMM:   8    -0.990206550351E+03   -0.17667E-05   -0.19891E-05  7117   0.665E-03
  11 F= -.99020655E+03 E0= -.99020506E+03  d E =-.366080E-02  mag=   112.0000
       N       E                     dE             d eps       ncg     rms          rms(c)
DAV:   1    -0.990202025074E+03    0.45235E-02   -0.20324E+00 12432   0.168E+00    0.543E-01
RMM:   2    -0.990208286828E+03   -0.62618E-02   -0.54595E-02 12694   0.323E-01    0.330E-01
RMM:   3    -0.990208688428E+03   -0.40160E-03   -0.33811E-03 13012   0.937E-02    0.182E-01
RMM:   4    -0.990208550579E+03    0.13785E-03   -0.43432E-04 10570   0.266E-02    0.124E-01
RMM:   5    -0.990208488133E+03    0.62447E-04   -0.23440E-04  7951   0.190E-02    0.752E-02
RMM:   6    -0.990208490908E+03   -0.27755E-05   -0.65528E-05  7300   0.135E-02    0.398E-02
RMM:   7    -0.990208493687E+03   -0.27791E-05   -0.28327E-05  7208   0.850E-03    0.262E-02
RMM:   8    -0.990208493650E+03    0.37180E-07   -0.14881E-05  7130   0.659E-03
  12 F= -.99020849E+03 E0= -.99020703E+03  d E =-.194330E-02  mag=   112.0000
       N       E                     dE             d eps       ncg     rms          rms(c)
DAV:   1    -0.990207283411E+03    0.12103E-02   -0.45212E-01 12592   0.792E-01    0.255E-01
RMM:   2    -0.990208684806E+03   -0.14014E-02   -0.12236E-02 12710   0.153E-01    0.156E-01
RMM:   3    -0.990208767779E+03   -0.82972E-04   -0.70192E-04 10432   0.442E-02    0.874E-02
RMM:   4    -0.990208741019E+03    0.26759E-04   -0.93969E-05  7310   0.146E-02    0.606E-02
RMM:   5    -0.990208728304E+03    0.12715E-04   -0.56966E-05  7209   0.109E-02    0.397E-02
RMM:   6    -0.990208729304E+03   -0.99941E-06   -0.25324E-05  7115   0.804E-03    0.202E-02
RMM:   7    -0.990208730193E+03   -0.88917E-06   -0.11041E-05  6931   0.551E-03    0.139E-02
RMM:   8    -0.990208730388E+03   -0.19514E-06   -0.61503E-06  6117   0.400E-03
  13 F= -.99020873E+03 E0= -.99020728E+03  d E =-.218004E-02  mag=   112.0000
       N       E                     dE             d eps       ncg     rms          rms(c)
DAV:   1    -0.990203815951E+03    0.49142E-02   -0.19717E+00 12400   0.165E+00    0.512E-01
RMM:   2    -0.990210042825E+03   -0.62269E-02   -0.51631E-02 12760   0.312E-01    0.306E-01
RMM:   3    -0.990210427894E+03   -0.38507E-03   -0.29504E-03 12956   0.885E-02    0.169E-01
RMM:   4    -0.990210307752E+03    0.12014E-03   -0.36843E-04  9973   0.246E-02    0.116E-01
RMM:   5    -0.990210260050E+03    0.47702E-04   -0.21700E-04  7882   0.183E-02    0.629E-02
RMM:   6    -0.990210268159E+03   -0.81091E-05   -0.55884E-05  7284   0.126E-02    0.337E-02
RMM:   7    -0.990210270966E+03   -0.28069E-05   -0.22714E-05  7150   0.770E-03    0.202E-02
RMM:   8    -0.990210271985E+03   -0.10192E-05   -0.12478E-05  6986   0.591E-03
  14 F= -.99021027E+03 E0= -.99020885E+03  d E =-.154160E-02  mag=   112.0000
       N       E                     dE             d eps       ncg     rms          rms(c)
DAV:   1    -0.990209059471E+03    0.12115E-02   -0.41524E-01 12480   0.757E-01    0.235E-01
RMM:   2    -0.990210387556E+03   -0.13281E-02   -0.11021E-02 12783   0.144E-01    0.141E-01
RMM:   3    -0.990210461705E+03   -0.74148E-04   -0.57248E-04 10018   0.408E-02    0.785E-02
RMM:   4    -0.990210441308E+03    0.20397E-04   -0.82913E-05  7272   0.140E-02    0.562E-02
RMM:   5    -0.990210434099E+03    0.72094E-05   -0.52169E-05  7183   0.104E-02    0.351E-02
RMM:   6    -0.990210437494E+03   -0.33957E-05   -0.22164E-05  7039   0.755E-03    0.169E-02
RMM:   7    -0.990210438770E+03   -0.12760E-05   -0.97489E-06  6720   0.509E-03    0.116E-02
RMM:   8    -0.990210439547E+03   -0.77649E-06   -0.55226E-06  5789   0.379E-03
  15 F= -.99021044E+03 E0= -.99020903E+03  d E =-.170916E-02  mag=   112.0000
       N       E                     dE             d eps       ncg     rms          rms(c)
DAV:   1    -0.990206628234E+03    0.38105E-02   -0.15751E+00 12352   0.147E+00    0.447E-01
RMM:   2    -0.990211454525E+03   -0.48263E-02   -0.40828E-02 12772   0.275E-01    0.267E-01
RMM:   3    -0.990211727245E+03   -0.27272E-03   -0.22665E-03 12930   0.782E-02    0.146E-01
RMM:   4    -0.990211628868E+03    0.98377E-04   -0.28053E-04  9073   0.219E-02    0.948E-02
RMM:   5    -0.990211587477E+03    0.41390E-04   -0.16657E-04  7517   0.168E-02    0.574E-02
RMM:   6    -0.990211594061E+03   -0.65837E-05   -0.47468E-05  7247   0.118E-02    0.312E-02
RMM:   7    -0.990211596867E+03   -0.28058E-05   -0.20391E-05  7133   0.725E-03    0.191E-02
RMM:   8    -0.990211598290E+03   -0.14236E-05   -0.11025E-05  6938   0.563E-03
  16 F= -.99021160E+03 E0= -.99021019E+03  d E =-.115874E-02  mag=   112.0000
       N       E                     dE             d eps       ncg     rms          rms(c)
DAV:   1    -0.990210992442E+03    0.60443E-03   -0.22036E-01 12576   0.549E-01    0.167E-01
RMM:   2    -0.990211679211E+03   -0.68677E-03   -0.58087E-03 12733   0.103E-01    0.999E-02
RMM:   3    -0.990211710485E+03   -0.31274E-04   -0.26637E-04  8853   0.300E-02    0.554E-02
RMM:   4    -0.990211701988E+03    0.84970E-05   -0.52114E-05  7168   0.115E-02    0.374E-02
RMM:   5    -0.990211698614E+03    0.33742E-05   -0.30790E-05  7036   0.796E-03    0.244E-02
RMM:   6    -0.990211700677E+03   -0.20638E-05   -0.13698E-05  6913   0.571E-03    0.113E-02
RMM:   7    -0.990211701602E+03   -0.92504E-06   -0.60963E-06  6098   0.403E-03    0.793E-03
RMM:   8    -0.990211702222E+03   -0.61998E-06   -0.32737E-06  4668   0.298E-03
  17 F= -.99021170E+03 E0= -.99021029E+03  d E =-.126268E-02  mag=   112.0000
       N       E                     dE             d eps       ncg     rms          rms(c)
DAV:   1    -0.990208989235E+03    0.27124E-02   -0.11317E+00 12624   0.124E+00    0.385E-01
RMM:   2    -0.990212453472E+03   -0.34642E-02   -0.29572E-02 12653   0.235E-01    0.240E-01
RMM:   3    -0.990212664517E+03   -0.21104E-03   -0.17077E-03 12621   0.686E-02    0.138E-01
RMM:   4    -0.990212589362E+03    0.75155E-04   -0.19313E-04  8117   0.191E-02    0.888E-02
RMM:   5    -0.990212552742E+03    0.36619E-04   -0.13901E-04  7404   0.151E-02    0.465E-02
RMM:   6    -0.990212556564E+03   -0.38219E-05   -0.36886E-05  7230   0.103E-02    0.307E-02
RMM:   7    -0.990212557818E+03   -0.12540E-05   -0.16712E-05  7140   0.624E-03    0.173E-02
RMM:   8    -0.990212557712E+03    0.10621E-06   -0.90320E-06  6846   0.510E-03
  18 F= -.99021256E+03 E0= -.99021117E+03  d E =-.855490E-03  mag=   112.0000
       N       E                     dE             d eps       ncg     rms          rms(c)
DAV:   1    -0.990212431118E+03    0.12670E-03   -0.46662E-02 12704   0.253E-01    0.785E-02
RMM:   2    -0.990212577433E+03   -0.14631E-03   -0.12545E-03 12179   0.482E-02    0.490E-02
RMM:   3    -0.990212584299E+03   -0.68666E-05   -0.56758E-05  7070   0.154E-02    0.293E-02
RMM:   4    -0.990212583602E+03    0.69765E-06   -0.16754E-05  6883   0.653E-03    0.187E-02
RMM:   5    -0.990212582317E+03    0.12848E-05   -0.86218E-06  6043   0.412E-03    0.126E-02
RMM:   6    -0.990212582497E+03   -0.18062E-06   -0.40179E-06  5271   0.339E-03    0.668E-03
RMM:   7    -0.990212582724E+03   -0.22617E-06   -0.16648E-06  3606   0.231E-03    0.287E-03
RMM:   8    -0.990212582858E+03   -0.13420E-06   -0.83006E-07  2933   0.235E-03
  19 F= -.99021258E+03 E0= -.99021120E+03  d E =-.880635E-03  mag=   112.0000
       N       E                     dE             d eps       ncg     rms          rms(c)
DAV:   1    -0.990209696251E+03    0.28865E-02   -0.12041E+00 12464   0.128E+00    0.357E-01
RMM:   2    -0.990213190824E+03   -0.34946E-02   -0.31483E-02 12809   0.240E-01    0.222E-01
RMM:   3    -0.990213341894E+03   -0.15107E-03   -0.16833E-03 12385   0.683E-02    0.129E-01
RMM:   4    -0.990213271932E+03    0.69961E-04   -0.19948E-04  8069   0.195E-02    0.947E-02
RMM:   5    -0.990213240727E+03    0.31206E-04   -0.12293E-04  7379   0.150E-02    0.563E-02
RMM:   6    -0.990213246472E+03   -0.57451E-05   -0.43476E-05  7204   0.107E-02    0.268E-02
RMM:   7    -0.990213248117E+03   -0.16452E-05   -0.16956E-05  7052   0.693E-03    0.198E-02
RMM:   8    -0.990213248695E+03   -0.57832E-06   -0.91054E-06  6559   0.480E-03
  20 F= -.99021325E+03 E0= -.99021191E+03  d E =-.665837E-03  mag=   112.0000
       N       E                     dE             d eps       ncg     rms          rms(c)
DAV:   1    -0.990213202514E+03    0.45602E-04   -0.17896E-02 13024   0.156E-01    0.447E-02
RMM:   2    -0.990213254778E+03   -0.52263E-04   -0.46405E-04  9696   0.300E-02    0.291E-02
RMM:   3    -0.990213259502E+03   -0.47243E-05   -0.35209E-05  6836   0.121E-02    0.175E-02
RMM:   4    -0.990213260144E+03   -0.64152E-06   -0.10711E-05  6170   0.519E-03    0.130E-02
RMM:   5    -0.990213260214E+03   -0.70053E-07   -0.49040E-06  5373   0.365E-03    0.730E-03
RMM:   6    -0.990213260583E+03   -0.36934E-06   -0.24557E-06  3944   0.263E-03    0.272E-03
RMM:   7    -0.990213260740E+03   -0.15704E-06   -0.91045E-07  2722   0.220E-03    0.164E-03
RMM:   8    -0.990213260838E+03   -0.97702E-07   -0.46534E-07  2109   0.201E-03
  21 F= -.99021326E+03 E0= -.99021193E+03  d E =-.677980E-03  mag=   112.0000
       N       E                     dE             d eps       ncg     rms          rms(c)
DAV:   1    -0.990210796936E+03    0.24638E-02   -0.94526E-01 12456   0.114E+00    0.343E-01
RMM:   2    -0.990213630955E+03   -0.28340E-02   -0.25204E-02 12744   0.217E-01    0.221E-01
RMM:   3    -0.990213778999E+03   -0.14804E-03   -0.14034E-03 12136   0.624E-02    0.135E-01
RMM:   4    -0.990213721930E+03    0.57069E-04   -0.14460E-04  7737   0.175E-02    0.929E-02
RMM:   5    -0.990213689035E+03    0.32896E-04   -0.11134E-04  7356   0.144E-02    0.576E-02
RMM:   6    -0.990213693756E+03   -0.47211E-05   -0.43668E-05  7195   0.105E-02    0.293E-02
RMM:   7    -0.990213695746E+03   -0.19899E-05   -0.16130E-05  7056   0.710E-03    0.217E-02
RMM:   8    -0.990213696641E+03   -0.89523E-06   -0.80327E-06  6500   0.443E-03
  22 F= -.99021370E+03 E0= -.99021238E+03  d E =-.435803E-03  mag=   112.0000
       N       E                     dE             d eps       ncg     rms          rms(c)
DAV:   1    -0.990213692072E+03    0.36735E-05   -0.29072E-03 12976   0.632E-02    0.187E-02
RMM:   2    -0.990213699774E+03   -0.77017E-05   -0.65129E-05  6589   0.124E-02    0.145E-02
RMM:   3    -0.990213701313E+03   -0.15393E-05   -0.85579E-06  6143   0.587E-03    0.104E-02
RMM:   4    -0.990213701476E+03   -0.16316E-06   -0.19959E-06  3853   0.276E-03    0.588E-03
RMM:   5    -0.990213701611E+03   -0.13497E-06   -0.56376E-07  2760   0.213E-03    0.327E-03
RMM:   6    -0.990213701856E+03   -0.24495E-06   -0.64564E-07  2330   0.204E-03    0.264E-03
RMM:   7    -0.990213701930E+03   -0.73545E-07   -0.89195E-08  1367   0.184E-03    0.174E-03
RMM:   8    -0.990213702009E+03   -0.79424E-07   -0.12766E-07  1345   0.184E-03
  23 F= -.99021370E+03 E0= -.99021238E+03  d E =-.441171E-03  mag=   112.0000
       N       E                     dE             d eps       ncg     rms          rms(c)
DAV:   1    -0.990211299597E+03    0.24023E-02   -0.91605E-01 12416   0.112E+00    0.335E-01
RMM:   2    -0.990214106862E+03   -0.28073E-02   -0.24045E-02 12811   0.211E-01    0.204E-01
RMM:   3    -0.990214255572E+03   -0.14871E-03   -0.12851E-03 11781   0.598E-02    0.114E-01
RMM:   4    -0.990214197474E+03    0.58098E-04   -0.15120E-04  7711   0.177E-02    0.741E-02
RMM:   5    -0.990214177737E+03    0.19738E-04   -0.10129E-04  7324   0.135E-02    0.489E-02
RMM:   6    -0.990214181632E+03   -0.38953E-05   -0.29497E-05  7113   0.959E-03    0.244E-02
RMM:   7    -0.990214182923E+03   -0.12914E-05   -0.12818E-05  6916   0.557E-03    0.149E-02
RMM:   8    -0.990214183422E+03   -0.49881E-06   -0.66593E-06  6309   0.448E-03
  24 F= -.99021418E+03 E0= -.99021287E+03  d E =-.481413E-03  mag=   112.0000
