<?xml version="1.0" encoding="ISO-8859-1"?>
<modeling>
 <generator>
  <i name="program" type="string">vasp </i>
  <i name="version" type="string">5.4.1  </i>
  <i name="subversion" type="string">05Feb16 (build Jan 25 2017 20:16:33) complex                          parallel </i>
  <i name="platform" type="string">BWXE6 </i>
  <i name="date" type="string">2019 07 26 </i>
  <i name="time" type="string">13:14:36 </i>
 </generator>
 <incar>
  <i type="string" name="SYSTEM"> STF</i>
  <i type="string" name="PREC">normal</i>
  <i type="string" name="ALGO"> Fast</i>
  <i type="int" name="ISPIN">     2</i>
  <i type="int" name="NELM">    40</i>
  <i type="int" name="NELMIN">     8</i>
  <i type="int" name="IBRION">     2</i>
  <i name="EDIFF">      0.00010000</i>
  <i name="EDIFFG">     -0.03000000</i>
  <i type="int" name="NSW">    30</i>
  <i type="int" name="ISIF">     3</i>
  <i name="ENCUT">    520.00000000</i>
  <i type="int" name="NBANDS">   768</i>
  <v name="MAGMOM">      0.60000000      0.60000000      0.60000000      0.60000000      0.60000000      0.60000000      0.60000000      0.60000000      0.60000000      0.60000000      0.60000000      0.60000000      0.60000000      0.60000000      0.60000000      0.60000000      0.60000000      0.60000000      0.60000000      0.60000000
      0.60000000      0.60000000      0.60000000      0.60000000      0.60000000      0.60000000      0.60000000      0.60000000      0.60000000      0.60000000      0.60000000      0.60000000      0.60000000      0.60000000      0.60000000      0.60000000      0.60000000      0.60000000      0.60000000      0.60000000
      5.00000000      5.00000000      5.00000000      5.00000000      5.00000000      5.00000000      5.00000000      5.00000000      5.00000000      5.00000000      5.00000000      5.00000000      5.00000000      5.00000000      5.00000000      5.00000000      5.00000000      5.00000000      5.00000000      5.00000000
      5.00000000      5.00000000      5.00000000      5.00000000      0.60000000      0.60000000      0.60000000      0.60000000      0.60000000      0.60000000      0.60000000      0.60000000      0.60000000      0.60000000      0.60000000      0.60000000      0.60000000      0.60000000      0.60000000      0.60000000
      0.60000000      0.60000000      0.60000000      0.60000000      0.60000000      0.60000000      0.60000000      0.60000000      0.60000000      0.60000000      0.60000000      0.60000000      0.60000000      0.60000000      0.60000000      0.60000000      0.60000000      0.60000000      0.60000000      0.60000000
      0.60000000      0.60000000      0.60000000      0.60000000      0.60000000      0.60000000      0.60000000      0.60000000      0.60000000      0.60000000      0.60000000      0.60000000      0.60000000      0.60000000      0.60000000      0.60000000      0.60000000      0.60000000      0.60000000      0.60000000
      0.60000000      0.60000000      0.60000000      0.60000000      0.60000000      0.60000000      0.60000000      0.60000000      0.60000000      0.60000000      0.60000000      0.60000000      0.60000000      0.60000000      0.60000000      0.60000000      0.60000000      0.60000000      0.60000000      0.60000000
      0.60000000      0.60000000      0.60000000      0.60000000      0.60000000      0.60000000      0.60000000      0.60000000</v>
  <i type="string" name="LREAL"> Auto</i>
  <i type="int" name="ISMEAR">     0</i>
  <i name="SIGMA">      0.05000000</i>
  <i type="int" name="LMAXMIX">     4</i>
  <v type="int" name="KPOINT_BSE">    -1     0     0     0</v>
  <i type="int" name="NELM">    40</i>
  <i type="logical" name="LDAU"> T  </i>
  <v type="int" name="LDAUTYPE">     2</v>
  <v type="int" name="LDAUL">     0     2     2     0</v>
  <v name="LDAUU">      0.00000000      3.00000000      5.00000000      0.00000000</v>
  <v name="LDAUJ">      0.00000000      0.00000000      0.00000000      0.00000000</v>
  <i type="int" name="LDAUPRINT">     1</i>
 </incar>
 <kpoints>
  <generation param="Monkhorst-Pack">
   <v type="int" name="divisions">       2        2        2 </v>
   <v name="usershift">      0.00000000       0.00000000       0.00000000 </v>
   <v name="genvec1">      0.50000000       0.00000000       0.00000000 </v>
   <v name="genvec2">      0.00000000       0.50000000      -0.00000000 </v>
   <v name="genvec3">      0.00000000      -0.00000000       0.50000000 </v>
   <v name="shift">      0.50000000       0.50000000       0.50000000 </v>
  </generation>
  <varray name="kpointlist" >
   <v>       0.25000000       0.25000000       0.25000000 </v>
   <v>      -0.25000000       0.25000000       0.25000000 </v>
   <v>       0.25000000      -0.25000000       0.25000000 </v>
   <v>      -0.25000000      -0.25000000       0.25000000 </v>
  </varray>
  <varray name="weights" >
   <v>       0.25000000 </v>
   <v>       0.25000000 </v>
   <v>       0.25000000 </v>
   <v>       0.25000000 </v>
  </varray>
 </kpoints>
 <parameters>
  <separator name="general" >
   <i type="string" name="SYSTEM">STF</i>
   <i type="logical" name="LCOMPAT"> F  </i>
  </separator>
  <separator name="electronic" >
   <i type="string" name="PREC">normal</i>
   <i name="ENMAX">    520.00000000</i>
   <i name="ENAUG">    605.39200000</i>
   <i name="EDIFF">      0.00010000</i>
   <i type="int" name="IALGO">    68</i>
   <i type="int" name="IWAVPR">    11</i>
   <i type="int" name="NBANDS">   768</i>
   <i name="NELECT">   1048.00000000</i>
   <i type="int" name="TURBO">     0</i>
   <i type="int" name="IRESTART">     0</i>
   <i type="int" name="NREBOOT">     0</i>
   <i type="int" name="NMIN">     0</i>
   <i name="EREF">      0.00000000</i>
   <separator name="electronic smearing" >
    <i type="int" name="ISMEAR">     0</i>
    <i name="SIGMA">      0.05000000</i>
    <i name="KSPACING">      0.50000000</i>
    <i type="logical" name="KGAMMA"> T  </i>
   </separator>
   <separator name="electronic projectors" >
    <i type="logical" name="LREAL"> T  </i>
    <v name="ROPT">     -0.00050000     -0.00050000     -0.00050000     -0.00050000</v>
    <i type="int" name="LMAXPAW">  -100</i>
    <i type="int" name="LMAXMIX">     4</i>
    <i type="logical" name="NLSPLINE"> F  </i>
   </separator>
   <separator name="electronic startup" >
    <i type="int" name="ISTART">     1</i>
    <i type="int" name="ICHARG">     0</i>
    <i type="int" name="INIWAV">     1</i>
   </separator>
   <separator name="electronic spin" >
    <i type="int" name="ISPIN">     2</i>
    <i type="logical" name="LNONCOLLINEAR"> F  </i>
    <v name="MAGMOM">      0.60000000      0.60000000      0.60000000      0.60000000      0.60000000      0.60000000      0.60000000      0.60000000      0.60000000      0.60000000      0.60000000      0.60000000      0.60000000      0.60000000      0.60000000      0.60000000      0.60000000      0.60000000      0.60000000      0.60000000
      0.60000000      0.60000000      0.60000000      0.60000000      0.60000000      0.60000000      0.60000000      0.60000000      0.60000000      0.60000000      0.60000000      0.60000000      0.60000000      0.60000000      0.60000000      0.60000000      0.60000000      0.60000000      0.60000000      0.60000000
      5.00000000      5.00000000      5.00000000      5.00000000      5.00000000      5.00000000      5.00000000      5.00000000      5.00000000      5.00000000      5.00000000      5.00000000      5.00000000      5.00000000      5.00000000      5.00000000      5.00000000      5.00000000      5.00000000      5.00000000
      5.00000000      5.00000000      5.00000000      5.00000000      0.60000000      0.60000000      0.60000000      0.60000000      0.60000000      0.60000000      0.60000000      0.60000000      0.60000000      0.60000000      0.60000000      0.60000000      0.60000000      0.60000000      0.60000000      0.60000000
      0.60000000      0.60000000      0.60000000      0.60000000      0.60000000      0.60000000      0.60000000      0.60000000      0.60000000      0.60000000      0.60000000      0.60000000      0.60000000      0.60000000      0.60000000      0.60000000      0.60000000      0.60000000      0.60000000      0.60000000
      0.60000000      0.60000000      0.60000000      0.60000000      0.60000000      0.60000000      0.60000000      0.60000000      0.60000000      0.60000000      0.60000000      0.60000000      0.60000000      0.60000000      0.60000000      0.60000000      0.60000000      0.60000000      0.60000000      0.60000000
      0.60000000      0.60000000      0.60000000      0.60000000      0.60000000      0.60000000      0.60000000      0.60000000      0.60000000      0.60000000      0.60000000      0.60000000      0.60000000      0.60000000      0.60000000      0.60000000      0.60000000      0.60000000      0.60000000      0.60000000
      0.60000000      0.60000000      0.60000000      0.60000000      0.60000000      0.60000000      0.60000000      0.60000000</v>
    <i name="NUPDOWN">     -1.00000000</i>
    <i type="logical" name="LSORBIT"> F  </i>
    <v name="SAXIS">      0.00000000      0.00000000      1.00000000</v>
    <i type="logical" name="LSPIRAL"> F  </i>
    <v name="QSPIRAL">      0.00000000      0.00000000      0.00000000</v>
    <i type="logical" name="LZEROZ"> F  </i>
   </separator>
   <separator name="electronic exchange-correlation" >
    <i type="logical" name="LASPH"> F  </i>
    <i type="logical" name="LMETAGGA"> F  </i>
   </separator>
   <separator name="electronic convergence" >
    <i type="int" name="NELM">    40</i>
    <i type="int" name="NELMDL">     0</i>
    <i type="int" name="NELMIN">     8</i>
    <i name="ENINI">    520.00000000</i>
    <separator name="electronic convergence detail" >
     <i type="logical" name="LDIAG"> T  </i>
     <i type="logical" name="LSUBROT"> F  </i>
     <i name="WEIMIN">      0.00100000</i>
     <i name="EBREAK">      0.00000003</i>
     <i name="DEPER">      0.30000000</i>
     <i type="int" name="NRMM">     4</i>
     <i name="TIME">      0.40000000</i>
    </separator>
   </separator>
   <separator name="electronic mixer" >
    <i name="AMIX">      0.40000000</i>
    <i name="BMIX">      1.00000000</i>
    <i name="AMIN">      0.10000000</i>
    <i name="AMIX_MAG">      1.60000000</i>
    <i name="BMIX_MAG">      1.00000000</i>
    <separator name="electronic mixer details" >
     <i type="int" name="IMIX">     4</i>
     <i type="logical" name="MIXFIRST"> F  </i>
     <i type="int" name="MAXMIX">   -45</i>
     <i name="WC">    100.00000000</i>
     <i type="int" name="INIMIX">     1</i>
     <i type="int" name="MIXPRE">     1</i>
     <i type="int" name="MREMOVE">     5</i>
    </separator>
   </separator>
   <separator name="electronic dipolcorrection" >
    <i type="logical" name="LDIPOL"> F  </i>
    <i type="logical" name="LMONO"> F  </i>
    <i type="int" name="IDIPOL">     0</i>
    <i name="EPSILON">      1.00000000</i>
    <v name="DIPOL">   -100.00000000   -100.00000000   -100.00000000</v>
    <i name="EFIELD">      0.00000000</i>
   </separator>
  </separator>
  <separator name="grids" >
   <i type="int" name="NGX">    64</i>
   <i type="int" name="NGY">    64</i>
   <i type="int" name="NGZ">    90</i>
   <i type="int" name="NGXF">   128</i>
   <i type="int" name="NGYF">   128</i>
   <i type="int" name="NGZF">   180</i>
   <i type="logical" name="ADDGRID"> F  </i>
  </separator>
  <separator name="ionic" >
   <i type="int" name="NSW">    30</i>
   <i type="int" name="IBRION">     2</i>
   <i type="int" name="ISIF">     3</i>
   <i name="PSTRESS">      0.00000000</i>
   <i name="EDIFFG">     -0.03000000</i>
   <i type="int" name="NFREE">     1</i>
   <i name="POTIM">      0.50000000</i>
   <i name="SMASS">     -3.00000000</i>
   <i name="SCALEE">      1.00000000</i>
  </separator>
  <separator name="ionic md" >
   <i name="TEBEG">      0.00010000</i>
   <i name="TEEND">      0.00010000</i>
   <i type="int" name="NBLOCK">     1</i>
   <i type="int" name="KBLOCK">    30</i>
   <i type="int" name="NPACO">   256</i>
   <i name="APACO">     16.00000000</i>
  </separator>
  <separator name="symmetry" >
   <i type="int" name="ISYM">     2</i>
   <i name="SYMPREC">      0.00001000</i>
  </separator>
  <separator name="dos" >
   <i type="logical" name="LORBIT"> F  </i>
   <v name="RWIGS">     -1.00000000     -1.00000000     -1.00000000     -1.00000000</v>
   <i type="int" name="NEDOS">   301</i>
   <i name="EMIN">     10.00000000</i>
   <i name="EMAX">    -10.00000000</i>
   <i name="EFERMI">      0.00000000</i>
  </separator>
  <separator name="writing" >
   <i type="int" name="NWRITE">     2</i>
   <i type="logical" name="LWAVE"> T  </i>
   <i type="logical" name="LCHARG"> T  </i>
   <i type="logical" name="LPARD"> F  </i>
   <i type="logical" name="LVTOT"> F  </i>
   <i type="logical" name="LVHAR"> F  </i>
   <i type="logical" name="LELF"> F  </i>
   <i type="logical" name="LOPTICS"> F  </i>
   <v name="STM">      0.00000000      0.00000000      0.00000000      0.00000000      0.00000000      0.00000000      0.00000000</v>
  </separator>
  <separator name="performance" >
   <i type="int" name="NPAR">     2</i>
   <i type="int" name="NSIM">     4</i>
   <i type="int" name="NBLK">    -1</i>
   <i type="logical" name="LPLANE"> T  </i>
   <i type="logical" name="LSCALAPACK"> T  </i>
   <i type="logical" name="LSCAAWARE"> F  </i>
   <i type="logical" name="LSCALU"> F  </i>
   <i type="logical" name="LASYNC"> F  </i>
   <i type="logical" name="LORBITALREAL"> F  </i>
  </separator>
  <separator name="miscellaneous" >
   <i type="int" name="IDIOT">     3</i>
   <i type="logical" name="LMUSIC"> F  </i>
   <v name="POMASS">     87.62000000     47.88000000     55.84700000     16.00000000</v>
   <v name="DARWINR">      0.00000000      0.00000000      0.00000000      0.00000000</v>
   <v name="DARWINV">      1.00000000      1.00000000      1.00000000      1.00000000</v>
   <i type="logical" name="LCORR"> T  </i>
  </separator>
  <i type="logical" name="GGA_COMPAT"> T  </i>
  <i type="logical" name="LBERRY"> F  </i>
  <i type="int" name="ICORELEVEL">     0</i>
  <i type="logical" name="LDAU"> T  </i>
  <v type="int" name="LDAUTYPE">     2</v>
  <v type="int" name="LDAUL">     0</v>
  <v name="LDAUU">      0.00000000</v>
  <v name="LDAUJ">      0.00000000</v>
  <i type="int" name="LDAUPRINT">     1</i>
  <i type="int" name="I_CONSTRAINED_M">     0</i>
  <separator name="electronic exchange-correlation" >
   <i type="string" name="GGA">--</i>
   <i type="int" name="VOSKOWN">     0</i>
   <i type="logical" name="LHFCALC"> F  </i>
   <i type="string" name="PRECFOCK"></i>
   <i type="logical" name="LSYMGRAD"> F  </i>
   <i type="logical" name="LHFONE"> F  </i>
   <i type="logical" name="LRHFCALC"> F  </i>
   <i type="logical" name="LTHOMAS"> F  </i>
   <i type="logical" name="LMODELHF"> F  </i>
   <i name="ENCUT4O">     -1.00000000</i>
   <i type="int" name="EXXOEP">     0</i>
   <i type="int" name="FOURORBIT">     0</i>
   <i name="AEXX">      0.00000000</i>
   <i name="HFALPHA">      0.00000000</i>
   <i name="MCALPHA">      0.00000000</i>
   <i name="ALDAX">      1.00000000</i>
   <i name="AGGAX">      1.00000000</i>
   <i name="ALDAC">      1.00000000</i>
   <i name="AGGAC">      1.00000000</i>
   <i type="int" name="NKREDX">     1</i>
   <i type="int" name="NKREDY">     1</i>
   <i type="int" name="NKREDZ">     1</i>
   <i type="logical" name="SHIFTRED"> F  </i>
   <i type="logical" name="ODDONLY"> F  </i>
   <i type="logical" name="EVENONLY"> F  </i>
   <i type="int" name="LMAXFOCK">     0</i>
   <i type="int" name="NMAXFOCKAE">     0</i>
   <i type="logical" name="LFOCKAEDFT"> F  </i>
   <i name="HFSCREEN">      0.00000000</i>
   <i name="HFSCREENC">      0.00000000</i>
   <i type="int" name="NBANDSGWLOW">     0</i>
  </separator>
  <separator name="vdW DFT" >
   <i type="logical" name="LUSE_VDW"> F  </i>
   <i name="Zab_VDW">     -0.84910000</i>
   <i name="PARAM1">      0.12340000</i>
   <i name="PARAM2">      1.00000000</i>
   <i name="PARAM3">      0.00000000</i>
  </separator>
  <separator name="model GW" >
   <i type="int" name="MODEL_GW">     0</i>
   <i name="MODEL_EPS0">      8.05529942</i>
   <i name="MODEL_ALPHA">      1.00000000</i>
  </separator>
  <separator name="linear response parameters" >
   <i type="logical" name="LEPSILON"> F  </i>
   <i type="logical" name="LRPA"> F  </i>
   <i type="logical" name="LNABLA"> F  </i>
   <i type="logical" name="LVEL"> F  </i>
   <i type="int" name="KINTER">     0</i>
   <i name="CSHIFT">      0.10000000</i>
   <i name="OMEGAMAX">     -1.00000000</i>
   <i name="DEG_THRESHOLD">      0.00200000</i>
  </separator>
  <separator name="orbital magnetization" >
   <i type="logical" name="NUCIND"> F  </i>
   <v name="MAGPOS">      0.00000000      0.00000000      0.00000000</v>
   <i type="logical" name="LNICSALL"> T  </i>
   <i type="logical" name="ORBITALMAG"> F  </i>
   <i type="logical" name="LMAGBLOCH"> F  </i>
   <i type="logical" name="LCHIMAG"> F  </i>
   <i type="logical" name="LGAUGE"> T  </i>
   <i type="int" name="MAGATOM">     0</i>
   <v name="MAGDIPOL">      0.00000000      0.00000000      0.00000000</v>
   <v name="AVECCONST">      0.00000000      0.00000000      0.00000000</v>
  </separator>
  <separator name="response functions" >
   <i type="logical" name="LADDER"> F  </i>
   <i type="logical" name="LFXC"> F  </i>
   <i type="logical" name="LHARTREE"> T  </i>
   <i type="int" name="IBSE">     0</i>
   <v type="int" name="KPOINT">    -1     0     0     0</v>
   <i type="logical" name="LTCTE"> F  </i>
   <i type="logical" name="LTETE"> F  </i>
   <i type="logical" name="LTRIPLET"> F  </i>
   <i type="logical" name="LFXCEPS"> F  </i>
   <i type="logical" name="LFXHEG"> F  </i>
   <i type="int" name="NATURALO">     0</i>
   <i type="logical" name="L2ORDER"> F  </i>
   <i type="logical" name="LUSEW"> F  </i>
   <i name="ENCUTGW">     -2.00000000</i>
   <i name="ENCUTGWSOFT">     -2.00000000</i>
   <i name="ENCUTLF">     -1.00000000</i>
   <i type="int" name="LMAXMP2">    -1</i>
   <i name="SCISSOR">      0.00000000</i>
   <i type="int" name="NOMEGA">     0</i>
   <i type="int" name="NOMEGAR">     0</i>
   <i type="int" name="NBANDSGW">    -1</i>
   <i type="int" name="NBANDSO">    -1</i>
   <i type="int" name="NBANDSV">    -1</i>
   <i type="int" name="NELM">    40</i>
   <i type="int" name="NELMHF">     1</i>
   <i type="int" name="DIM">     3</i>
   <i type="int" name="ANTIRES">     0</i>
   <i name="OMEGAMAX">    -30.00000000</i>
   <i name="OMEGAMIN">    -30.00000000</i>
   <i name="OMEGATL">   -200.00000000</i>
   <i type="int" name="OMEGAGRID">     0</i>
   <i name="CSHIFT">     -0.10000000</i>
   <i type="logical" name="SELFENERGY"> F  </i>
   <i type="logical" name="LSPECTRAL"> F  </i>
   <i type="logical" name="LSPECTRALGW"> F  </i>
   <i type="logical" name="LSINGLES"> F  </i>
   <i type="logical" name="LFERMIGW"> F  </i>
   <i type="logical" name="ODDONLYGW"> F  </i>
   <i type="logical" name="EVENONLYGW"> F  </i>
   <i type="int" name="NKREDLFX">     1</i>
   <i type="int" name="NKREDLFY">     1</i>
   <i type="int" name="NKREDLFZ">     1</i>
   <i type="int" name="MAXMEM">  1800</i>
   <i type="int" name="TELESCOPE">     0</i>
   <i type="int" name="TAUPAR">     1</i>
   <i type="int" name="OMEGAPAR">    -1</i>
   <i name="LAMBDA">      1.00000000</i>
  </separator>
  <separator name="External order field" >
   <i name="OFIELD_KAPPA">      0.00000000</i>
   <v name="OFIELD_K">      0.00000000      0.00000000      0.00000000</v>
   <i name="OFIELD_Q6_NEAR">      0.00000000</i>
   <i name="OFIELD_Q6_FAR">      0.00000000</i>
   <i name="OFIELD_A">      0.00000000</i>
  </separator>
 </parameters>
 <atominfo>
  <atoms>     148 </atoms>
  <types>       4 </types>
  <array name="atoms" >
   <dimension dim="1">ion</dimension>
   <field type="string">element</field>
   <field type="int">atomtype</field>
   <set>
    <rc><c>Sr</c><c>   1</c></rc>
    <rc><c>Sr</c><c>   1</c></rc>
    <rc><c>Sr</c><c>   1</c></rc>
    <rc><c>Sr</c><c>   1</c></rc>
    <rc><c>Sr</c><c>   1</c></rc>
    <rc><c>Sr</c><c>   1</c></rc>
    <rc><c>Sr</c><c>   1</c></rc>
    <rc><c>Sr</c><c>   1</c></rc>
    <rc><c>Sr</c><c>   1</c></rc>
    <rc><c>Sr</c><c>   1</c></rc>
    <rc><c>Sr</c><c>   1</c></rc>
    <rc><c>Sr</c><c>   1</c></rc>
    <rc><c>Sr</c><c>   1</c></rc>
    <rc><c>Sr</c><c>   1</c></rc>
    <rc><c>Sr</c><c>   1</c></rc>
    <rc><c>Sr</c><c>   1</c></rc>
    <rc><c>Sr</c><c>   1</c></rc>
    <rc><c>Sr</c><c>   1</c></rc>
    <rc><c>Sr</c><c>   1</c></rc>
    <rc><c>Sr</c><c>   1</c></rc>
    <rc><c>Sr</c><c>   1</c></rc>
    <rc><c>Sr</c><c>   1</c></rc>
    <rc><c>Sr</c><c>   1</c></rc>
    <rc><c>Sr</c><c>   1</c></rc>
    <rc><c>Sr</c><c>   1</c></rc>
    <rc><c>Sr</c><c>   1</c></rc>
    <rc><c>Sr</c><c>   1</c></rc>
    <rc><c>Sr</c><c>   1</c></rc>
    <rc><c>Sr</c><c>   1</c></rc>
    <rc><c>Sr</c><c>   1</c></rc>
    <rc><c>Sr</c><c>   1</c></rc>
    <rc><c>Sr</c><c>   1</c></rc>
    <rc><c>Ti</c><c>   2</c></rc>
    <rc><c>Ti</c><c>   2</c></rc>
    <rc><c>Ti</c><c>   2</c></rc>
    <rc><c>Ti</c><c>   2</c></rc>
    <rc><c>Ti</c><c>   2</c></rc>
    <rc><c>Ti</c><c>   2</c></rc>
    <rc><c>Ti</c><c>   2</c></rc>
    <rc><c>Ti</c><c>   2</c></rc>
    <rc><c>Fe</c><c>   3</c></rc>
    <rc><c>Fe</c><c>   3</c></rc>
    <rc><c>Fe</c><c>   3</c></rc>
    <rc><c>Fe</c><c>   3</c></rc>
    <rc><c>Fe</c><c>   3</c></rc>
    <rc><c>Fe</c><c>   3</c></rc>
    <rc><c>Fe</c><c>   3</c></rc>
    <rc><c>Fe</c><c>   3</c></rc>
    <rc><c>Fe</c><c>   3</c></rc>
    <rc><c>Fe</c><c>   3</c></rc>
    <rc><c>Fe</c><c>   3</c></rc>
    <rc><c>Fe</c><c>   3</c></rc>
    <rc><c>Fe</c><c>   3</c></rc>
    <rc><c>Fe</c><c>   3</c></rc>
    <rc><c>Fe</c><c>   3</c></rc>
    <rc><c>Fe</c><c>   3</c></rc>
    <rc><c>Fe</c><c>   3</c></rc>
    <rc><c>Fe</c><c>   3</c></rc>
    <rc><c>Fe</c><c>   3</c></rc>
    <rc><c>Fe</c><c>   3</c></rc>
    <rc><c>Fe</c><c>   3</c></rc>
    <rc><c>Fe</c><c>   3</c></rc>
    <rc><c>Fe</c><c>   3</c></rc>
    <rc><c>Fe</c><c>   3</c></rc>
    <rc><c>O </c><c>   4</c></rc>
    <rc><c>O </c><c>   4</c></rc>
    <rc><c>O </c><c>   4</c></rc>
    <rc><c>O </c><c>   4</c></rc>
    <rc><c>O </c><c>   4</c></rc>
    <rc><c>O </c><c>   4</c></rc>
    <rc><c>O </c><c>   4</c></rc>
    <rc><c>O </c><c>   4</c></rc>
    <rc><c>O </c><c>   4</c></rc>
    <rc><c>O </c><c>   4</c></rc>
    <rc><c>O </c><c>   4</c></rc>
    <rc><c>O </c><c>   4</c></rc>
    <rc><c>O </c><c>   4</c></rc>
    <rc><c>O </c><c>   4</c></rc>
    <rc><c>O </c><c>   4</c></rc>
    <rc><c>O </c><c>   4</c></rc>
    <rc><c>O </c><c>   4</c></rc>
    <rc><c>O </c><c>   4</c></rc>
    <rc><c>O </c><c>   4</c></rc>
    <rc><c>O </c><c>   4</c></rc>
    <rc><c>O </c><c>   4</c></rc>
    <rc><c>O </c><c>   4</c></rc>
    <rc><c>O </c><c>   4</c></rc>
    <rc><c>O </c><c>   4</c></rc>
    <rc><c>O </c><c>   4</c></rc>
    <rc><c>O </c><c>   4</c></rc>
    <rc><c>O </c><c>   4</c></rc>
    <rc><c>O </c><c>   4</c></rc>
    <rc><c>O </c><c>   4</c></rc>
    <rc><c>O </c><c>   4</c></rc>
    <rc><c>O </c><c>   4</c></rc>
    <rc><c>O </c><c>   4</c></rc>
    <rc><c>O </c><c>   4</c></rc>
    <rc><c>O </c><c>   4</c></rc>
    <rc><c>O </c><c>   4</c></rc>
    <rc><c>O </c><c>   4</c></rc>
    <rc><c>O </c><c>   4</c></rc>
    <rc><c>O </c><c>   4</c></rc>
    <rc><c>O </c><c>   4</c></rc>
    <rc><c>O </c><c>   4</c></rc>
    <rc><c>O </c><c>   4</c></rc>
    <rc><c>O </c><c>   4</c></rc>
    <rc><c>O </c><c>   4</c></rc>
    <rc><c>O </c><c>   4</c></rc>
    <rc><c>O </c><c>   4</c></rc>
    <rc><c>O </c><c>   4</c></rc>
    <rc><c>O </c><c>   4</c></rc>
    <rc><c>O </c><c>   4</c></rc>
    <rc><c>O </c><c>   4</c></rc>
    <rc><c>O </c><c>   4</c></rc>
    <rc><c>O </c><c>   4</c></rc>
    <rc><c>O </c><c>   4</c></rc>
    <rc><c>O </c><c>   4</c></rc>
    <rc><c>O </c><c>   4</c></rc>
    <rc><c>O </c><c>   4</c></rc>
    <rc><c>O </c><c>   4</c></rc>
    <rc><c>O </c><c>   4</c></rc>
    <rc><c>O </c><c>   4</c></rc>
    <rc><c>O </c><c>   4</c></rc>
    <rc><c>O </c><c>   4</c></rc>
    <rc><c>O </c><c>   4</c></rc>
    <rc><c>O </c><c>   4</c></rc>
    <rc><c>O </c><c>   4</c></rc>
    <rc><c>O </c><c>   4</c></rc>
    <rc><c>O </c><c>   4</c></rc>
    <rc><c>O </c><c>   4</c></rc>
    <rc><c>O </c><c>   4</c></rc>
    <rc><c>O </c><c>   4</c></rc>
    <rc><c>O </c><c>   4</c></rc>
    <rc><c>O </c><c>   4</c></rc>
    <rc><c>O </c><c>   4</c></rc>
    <rc><c>O </c><c>   4</c></rc>
    <rc><c>O </c><c>   4</c></rc>
    <rc><c>O </c><c>   4</c></rc>
    <rc><c>O </c><c>   4</c></rc>
    <rc><c>O </c><c>   4</c></rc>
    <rc><c>O </c><c>   4</c></rc>
    <rc><c>O </c><c>   4</c></rc>
    <rc><c>O </c><c>   4</c></rc>
    <rc><c>O </c><c>   4</c></rc>
    <rc><c>O </c><c>   4</c></rc>
    <rc><c>O </c><c>   4</c></rc>
    <rc><c>O </c><c>   4</c></rc>
    <rc><c>O </c><c>   4</c></rc>
   </set>
  </array>
  <array name="atomtypes" >
   <dimension dim="1">type</dimension>
   <field type="int">atomspertype</field>
   <field type="string">element</field>
   <field>mass</field>
   <field>valence</field>
   <field type="string">pseudopotential</field>
   <set>
    <rc><c>  32</c><c>Sr</c><c>     87.62000000</c><c>     10.00000000</c><c>  PAW_PBE Sr_sv 07Sep2000               </c></rc>
    <rc><c>   8</c><c>Ti</c><c>     47.88000000</c><c>      4.00000000</c><c>  PAW_PBE Ti 08Apr2002                  </c></rc>
    <rc><c>  24</c><c>Fe</c><c>     55.84700000</c><c>      8.00000000</c><c>  PAW_PBE Fe 06Sep2000                  </c></rc>
    <rc><c>  84</c><c>O </c><c>     16.00000000</c><c>      6.00000000</c><c>  PAW_PBE O 08Apr2002                   </c></rc>
   </set>
  </array>
 </atominfo>
 <structure name="initialpos" >
  <crystal>
   <varray name="basis" >
    <v>      11.21941908       0.02250426       0.01636653 </v>
    <v>       0.02280394      11.30202420      -0.00558443 </v>
    <v>       0.02257964      -0.00773087      15.66997586 </v>
   </varray>
   <i name="volume">   1986.97385667 </i>
   <varray name="rec_basis" >
    <v>       0.08913172      -0.00017990      -0.00012852 </v>
    <v>      -0.00017754       0.08848011       0.00004391 </v>
    <v>      -0.00009316       0.00003172       0.06381646 </v>
   </varray>
  </crystal>
  <varray name="positions" >
   <v>       0.00550297       0.25032485       0.13172182 </v>
   <v>       0.99607851       0.25297998       0.62377562 </v>
   <v>       0.99333515       0.74564631       0.12781482 </v>
   <v>       0.99363881       0.75222383       0.62669634 </v>
   <v>       0.49925209       0.25145001       0.13275412 </v>
   <v>       0.50573635       0.25452729       0.61948442 </v>
   <v>       0.50458340       0.72617864       0.12620299 </v>
   <v>       0.50270770       0.73812480       0.62379824 </v>
   <v>       0.00024214       0.25215969       0.37230189 </v>
   <v>       0.01154727       0.25206472       0.86912790 </v>
   <v>       0.99924766       0.74880945       0.37080950 </v>
   <v>       0.00661377       0.75170928       0.87222458 </v>
   <v>       0.50843373       0.26376441       0.37489027 </v>
   <v>       0.49925370       0.24849979       0.87204525 </v>
   <v>       0.50527528       0.73238875       0.37339370 </v>
   <v>       0.49600889       0.74757696       0.87456940 </v>
   <v>       0.22770505       0.00077603       0.13086137 </v>
   <v>       0.23123133       0.99612764       0.62267358 </v>
   <v>       0.24270724       0.48524917       0.13243907 </v>
   <v>       0.24038871       0.50501548       0.62019463 </v>
   <v>       0.75732350       0.00751206       0.12804179 </v>
   <v>       0.76820424       0.01224243       0.62514251 </v>
   <v>       0.75658260       0.49608272       0.13665236 </v>
   <v>       0.75856106       0.50099105       0.61692218 </v>
   <v>       0.23447641       0.00076565       0.36743401 </v>
   <v>       0.23412083       0.00061234       0.87043074 </v>
   <v>       0.25336984       0.49294455       0.36868025 </v>
   <v>       0.23261182       0.49155227       0.87156208 </v>
   <v>       0.76658962       0.00670146       0.37680590 </v>
   <v>       0.77745336       0.01723665       0.86851603 </v>
   <v>       0.75325155       0.49665980       0.37402414 </v>
   <v>       0.76697626       0.50436729       0.87340417 </v>
   <v>       0.75406987       0.25078944       0.25097440 </v>
   <v>       0.99973077       0.50078128       0.49775917 </v>
   <v>       0.75028960       0.74977142       0.50121224 </v>
   <v>       0.74616259       0.74805183       0.24787461 </v>
   <v>       0.50123160       0.49917666       0.50087357 </v>
   <v>       0.00304409       0.00090205       0.49865898 </v>
   <v>       0.99397995       0.50209188       0.00049235 </v>
   <v>       0.00594444       0.99872820       0.99972771 </v>
   <v>       0.25150443       0.24491493       0.25054519 </v>
   <v>       0.24569485       0.25463459       0.74264322 </v>
   <v>       0.75554827       0.76405945       0.99750963 </v>
   <v>       0.53959341       0.99964752       0.96849182 </v>
   <v>       0.51026156       0.00444344       0.27396105 </v>
   <v>       0.52206195       0.99827539       0.50571868 </v>
   <v>       0.24139905       0.25336092       0.99886899 </v>
   <v>       0.24414882       0.25668183       0.50050817 </v>
   <v>       0.24613944       0.73940158       0.00158166 </v>
   <v>       0.50087630       0.49492688       0.24820045 </v>
   <v>       0.76254774       0.24697534       0.99905019 </v>
   <v>       0.75319484       0.25504367       0.50024126 </v>
   <v>       0.24444466       0.74276085       0.74973799 </v>
   <v>       0.75846483       0.24857875       0.75024457 </v>
   <v>       0.00774602       0.00111288       0.74872102 </v>
   <v>       0.24522980       0.74098509       0.49574766 </v>
   <v>       0.24537843       0.74047963       0.24654686 </v>
   <v>       0.99420284       0.50471333       0.74793181 </v>
   <v>       0.99705489       0.99856128       0.24864359 </v>
   <v>       0.00085472       0.49793243       0.25098746 </v>
   <v>       0.47283300       0.49167663       0.99456944 </v>
   <v>       0.51959767       0.99804525       0.74179484 </v>
   <v>       0.75438228       0.76098628       0.75299798 </v>
   <v>       0.47546838       0.49616178       0.75288887 </v>
   <v>       0.14404214       0.11555056       0.74913928 </v>
   <v>       0.12765444       0.62374674       0.24743162 </v>
   <v>       0.13107569       0.62155388       0.75779960 </v>
   <v>       0.62989887       0.11781237       0.25845238 </v>
   <v>       0.62211051       0.14347398       0.74789808 </v>
   <v>       0.62619506       0.61793312       0.25576114 </v>
   <v>       0.52462273       0.49036008       0.87442611 </v>
   <v>       0.37807843       0.36563485       0.24360442 </v>
   <v>       0.39648810       0.34074628       0.74666482 </v>
   <v>       0.12803054       0.87197706       0.24560070 </v>
   <v>       0.48866384       0.49395417       0.37592707 </v>
   <v>       0.62298577       0.36998098       0.25180353 </v>
   <v>       0.85520562       0.38729179       0.74565444 </v>
   <v>       0.86168302       0.87842060       0.23698378 </v>
   <v>       0.86498847       0.88683164       0.75197300 </v>
   <v>       0.45808097       0.00422162       0.61914684 </v>
   <v>       0.25588842       0.24509926       0.87328191 </v>
   <v>       0.37503862       0.62086395       0.24263198 </v>
   <v>       0.87740264       0.12793068       0.25076603 </v>
   <v>       0.13140315       0.87216983       0.74658379 </v>
   <v>       0.87407502       0.63043821       0.25488543 </v>
   <v>       0.87119859       0.62990678       0.75810828 </v>
   <v>       0.13000852       0.37075944       0.25127198 </v>
   <v>       0.26680694       0.77975361       0.87775243 </v>
   <v>       0.74429135       0.24844047       0.12307091 </v>
   <v>       0.38621774       0.64619705       0.75478904 </v>
   <v>       0.59189819       0.86516507       0.24039547 </v>
   <v>       0.59966342       0.84312311       0.74687168 </v>
   <v>       0.39363265       0.33812242       0.99994516 </v>
   <v>       0.37544612       0.37790238       0.51049713 </v>
   <v>       0.88616871       0.13582657       0.75506273 </v>
   <v>       0.63302587       0.61877426       0.49083074 </v>
   <v>       0.87405570       0.38188232       0.50577140 </v>
   <v>       0.85826168       0.89616586       0.99801651 </v>
   <v>       0.86844300       0.87927532       0.50862303 </v>
   <v>       0.13539462       0.11611498       0.49326358 </v>
   <v>       0.14069650       0.60963065       0.99890936 </v>
   <v>       0.61227725       0.14235949       0.00281119 </v>
   <v>       0.13089727       0.87301513       0.49871730 </v>
   <v>       0.84713561       0.39687346       0.00276296 </v>
   <v>       0.88077863       0.12867530       0.50133836 </v>
   <v>       0.11485894       0.36496353       0.00132635 </v>
   <v>       0.99887990       0.50368722       0.12405030 </v>
   <v>       0.11549342       0.86164499       0.00612530 </v>
   <v>       0.12603386       0.37288056       0.73752037 </v>
   <v>       0.62267639       0.37411413       0.49907685 </v>
   <v>       0.59498636       0.85422559       0.00934602 </v>
   <v>       0.61218873       0.86157224       0.50796253 </v>
   <v>       0.62305353       0.12673495       0.49973357 </v>
   <v>       0.27911998       0.77132110       0.37015840 </v>
   <v>       0.39374941       0.64419897       0.99595787 </v>
   <v>       0.89084875       0.14003340       0.98833945 </v>
   <v>       0.74511115       0.25664365       0.62986092 </v>
   <v>       0.88812232       0.63959791       0.99140611 </v>
   <v>       0.88118020       0.63345401       0.49162853 </v>
   <v>       0.99629896       0.01227008       0.12242280 </v>
   <v>       0.99987105       0.00333517       0.62432073 </v>
   <v>       0.00122300       0.51853264       0.62334540 </v>
   <v>       0.38073673       0.08124613       0.22629981 </v>
   <v>       0.13446938       0.61812355       0.49202189 </v>
   <v>       0.52205273       0.49185731       0.11156906 </v>
   <v>       0.52597665       0.50594909       0.63475739 </v>
   <v>       0.99125338       0.98706926       0.37427994 </v>
   <v>       0.00536184       0.99303763       0.87467075 </v>
   <v>       0.00097656       0.49219095       0.37491798 </v>
   <v>       0.00366665       0.48525575       0.87450497 </v>
   <v>       0.45862350       0.99069119       0.39260084 </v>
   <v>       0.45600296       0.01229705       0.86277238 </v>
   <v>       0.28036623       0.23584236       0.37792290 </v>
   <v>       0.27594510       0.21741190       0.62039103 </v>
   <v>       0.12167517       0.37087676       0.50633422 </v>
   <v>       0.12754611       0.12419023       0.25460686 </v>
   <v>       0.75728971       0.25501233       0.37578272 </v>
   <v>       0.73132496       0.27075852       0.87225181 </v>
   <v>       0.74566851       0.77043759       0.37294908 </v>
   <v>       0.71868586       0.72686333       0.87895963 </v>
   <v>       0.25394548       0.23871457       0.12143853 </v>
   <v>       0.87469549       0.37532387       0.24656930 </v>
   <v>       0.28585877       0.78219127       0.12335811 </v>
   <v>       0.26997343       0.76489029       0.62538528 </v>
   <v>       0.15003646       0.10558349       0.99692964 </v>
   <v>       0.38583220       0.63517609       0.50355095 </v>
   <v>       0.74094534       0.72718953       0.11909360 </v>
   <v>       0.74539248       0.73073671       0.62717357 </v>
  </varray>
 </structure>
 <calculation>
  <scstep>
   <time name="dav">  296.09  296.21</time>
   <time name="total">  299.86  300.09</time>
   <energy>
    <i name="alphaZ">   5655.54349729 </i>
    <i name="ewald"> -63087.41024300 </i>
    <i name="hartreedc"> -18698.88294741 </i>
    <i name="XCdc">   3403.48677053 </i>
    <i name="pawpsdc"> 116433.10364571 </i>
    <i name="pawaedc">-115933.82040404 </i>
    <i name="eentropy">     -0.00322792 </i>
    <i name="bandstr">  -7079.10689194 </i>
    <i name="atom">  78316.90445604 </i>
    <i name="e_fr_energy">   -990.18534473 </i>
    <i name="e_wo_entrp">   -990.18211681 </i>
    <i name="e_0_energy">   -990.18373077 </i>
   </energy>
  </scstep>
  <scstep>
   <time name="diag">   32.98   33.00</time>
   <time name="diis">   30.88   30.90</time>
   <time name="orth">   18.76   18.78</time>
   <time name="total">   86.41   86.52</time>
   <energy>
    <i name="e_fr_energy">   -990.18534484 </i>
    <i name="e_wo_entrp">   -990.18211847 </i>
    <i name="e_0_energy">   -990.18373166 </i>
   </energy>
  </scstep>
  <scstep>
   <time name="diag">   32.95   32.98</time>
   <time name="diis">   29.26   29.29</time>
   <time name="orth">   18.76   18.76</time>
   <time name="total">   84.77   84.93</time>
   <energy>
    <i name="e_fr_energy">   -990.18534179 </i>
    <i name="e_wo_entrp">   -990.18211462 </i>
    <i name="e_0_energy">   -990.18372820 </i>
   </energy>
  </scstep>
  <scstep>
   <time name="diag">   32.99   33.00</time>
   <time name="diis">   25.44   25.45</time>
   <time name="orth">   18.79   18.79</time>
   <time name="total">   81.02   81.16</time>
   <energy>
    <i name="e_fr_energy">   -990.18534154 </i>
    <i name="e_wo_entrp">   -990.18211406 </i>
    <i name="e_0_energy">   -990.18372780 </i>
   </energy>
  </scstep>
  <scstep>
   <time name="diag">   32.98   32.99</time>
   <time name="diis">   24.47   24.47</time>
   <time name="orth">   18.78   18.78</time>
   <time name="total">   80.04   80.10</time>
   <energy>
    <i name="e_fr_energy">   -990.18534156 </i>
    <i name="e_wo_entrp">   -990.18211368 </i>
    <i name="e_0_energy">   -990.18372762 </i>
   </energy>
  </scstep>
  <scstep>
   <time name="diag">   33.01   33.01</time>
   <time name="diis">   23.31   23.32</time>
   <time name="orth">   18.79   18.79</time>
   <time name="total">   78.93   79.02</time>
   <energy>
    <i name="e_fr_energy">   -990.18534171 </i>
    <i name="e_wo_entrp">   -990.18211388 </i>
    <i name="e_0_energy">   -990.18372779 </i>
   </energy>
  </scstep>
  <scstep>
   <time name="diag">   32.95   32.95</time>
   <time name="diis">   22.95   22.96</time>
   <time name="orth">   18.79   18.80</time>
   <time name="total">   78.44   78.54</time>
   <energy>
    <i name="e_fr_energy">   -990.18534184 </i>
    <i name="e_wo_entrp">   -990.18211409 </i>
    <i name="e_0_energy">   -990.18372797 </i>
   </energy>
  </scstep>
  <scstep>
   <time name="diag">   32.94   32.97</time>
   <time name="diis">   22.92   22.93</time>
   <time name="orth">   18.80   18.80</time>
   <time name="total">   75.26   75.35</time>
   <energy>
    <i name="alphaZ">   5655.54349729 </i>
    <i name="ewald"> -63087.41024300 </i>
    <i name="hartreedc"> -18698.87787236 </i>
    <i name="XCdc">   3403.48581555 </i>
    <i name="pawpsdc"> 116433.01015367 </i>
    <i name="pawaedc">-115933.72642413 </i>
    <i name="eentropy">     -0.00322779 </i>
    <i name="bandstr">  -7079.11149732 </i>
    <i name="atom">  78316.90445604 </i>
    <i name="e_fr_energy">   -990.18534204 </i>
    <i name="e_wo_entrp">   -990.18211425 </i>
    <i name="e_0_energy">   -990.18372815 </i>
   </energy>
  </scstep>
  <structure>
   <crystal>
    <varray name="basis" >
     <v>      11.21941908       0.02250426       0.01636653 </v>
     <v>       0.02280394      11.30202420      -0.00558443 </v>
     <v>       0.02257964      -0.00773087      15.66997586 </v>
    </varray>
    <i name="volume">   1986.97385667 </i>
    <varray name="rec_basis" >
     <v>       0.08913172      -0.00017990      -0.00012852 </v>
     <v>      -0.00017754       0.08848011       0.00004391 </v>
     <v>      -0.00009316       0.00003172       0.06381646 </v>
    </varray>
   </crystal>
   <varray name="positions" >
    <v>       0.00550297       0.25032485       0.13172182 </v>
    <v>       0.99607851       0.25297998       0.62377562 </v>
    <v>       0.99333515       0.74564631       0.12781482 </v>
    <v>       0.99363881       0.75222383       0.62669634 </v>
    <v>       0.49925209       0.25145001       0.13275412 </v>
    <v>       0.50573635       0.25452729       0.61948442 </v>
    <v>       0.50458340       0.72617864       0.12620299 </v>
    <v>       0.50270770       0.73812480       0.62379824 </v>
    <v>       0.00024214       0.25215969       0.37230189 </v>
    <v>       0.01154727       0.25206472       0.86912790 </v>
    <v>       0.99924766       0.74880945       0.37080950 </v>
    <v>       0.00661377       0.75170928       0.87222458 </v>
    <v>       0.50843373       0.26376441       0.37489027 </v>
    <v>       0.49925370       0.24849979       0.87204525 </v>
    <v>       0.50527528       0.73238875       0.37339370 </v>
    <v>       0.49600889       0.74757696       0.87456940 </v>
    <v>       0.22770505       0.00077603       0.13086137 </v>
    <v>       0.23123133       0.99612764       0.62267358 </v>
    <v>       0.24270724       0.48524917       0.13243907 </v>
    <v>       0.24038871       0.50501548       0.62019463 </v>
    <v>       0.75732350       0.00751206       0.12804179 </v>
    <v>       0.76820424       0.01224243       0.62514251 </v>
    <v>       0.75658260       0.49608272       0.13665236 </v>
    <v>       0.75856106       0.50099105       0.61692218 </v>
    <v>       0.23447641       0.00076565       0.36743401 </v>
    <v>       0.23412083       0.00061234       0.87043074 </v>
    <v>       0.25336984       0.49294455       0.36868025 </v>
    <v>       0.23261182       0.49155227       0.87156208 </v>
    <v>       0.76658962       0.00670146       0.37680590 </v>
    <v>       0.77745336       0.01723665       0.86851603 </v>
    <v>       0.75325155       0.49665980       0.37402414 </v>
    <v>       0.76697626       0.50436729       0.87340417 </v>
    <v>       0.75406987       0.25078944       0.25097440 </v>
    <v>       0.99973077       0.50078128       0.49775917 </v>
    <v>       0.75028960       0.74977142       0.50121224 </v>
    <v>       0.74616259       0.74805183       0.24787461 </v>
    <v>       0.50123160       0.49917666       0.50087357 </v>
    <v>       0.00304409       0.00090205       0.49865898 </v>
    <v>       0.99397995       0.50209188       0.00049235 </v>
    <v>       0.00594444       0.99872820       0.99972771 </v>
    <v>       0.25150443       0.24491493       0.25054519 </v>
    <v>       0.24569485       0.25463459       0.74264322 </v>
    <v>       0.75554827       0.76405945       0.99750963 </v>
    <v>       0.53959341       0.99964752       0.96849182 </v>
    <v>       0.51026156       0.00444344       0.27396105 </v>
    <v>       0.52206195       0.99827539       0.50571868 </v>
    <v>       0.24139905       0.25336092       0.99886899 </v>
    <v>       0.24414882       0.25668183       0.50050817 </v>
    <v>       0.24613944       0.73940158       0.00158166 </v>
    <v>       0.50087630       0.49492688       0.24820045 </v>
    <v>       0.76254774       0.24697534       0.99905019 </v>
    <v>       0.75319484       0.25504367       0.50024126 </v>
    <v>       0.24444466       0.74276085       0.74973799 </v>
    <v>       0.75846483       0.24857875       0.75024457 </v>
    <v>       0.00774602       0.00111288       0.74872102 </v>
    <v>       0.24522980       0.74098509       0.49574766 </v>
    <v>       0.24537843       0.74047963       0.24654686 </v>
    <v>       0.99420284       0.50471333       0.74793181 </v>
    <v>       0.99705489       0.99856128       0.24864359 </v>
    <v>       0.00085472       0.49793243       0.25098746 </v>
    <v>       0.47283300       0.49167663       0.99456944 </v>
    <v>       0.51959767       0.99804525       0.74179484 </v>
    <v>       0.75438228       0.76098628       0.75299798 </v>
    <v>       0.47546838       0.49616178       0.75288887 </v>
    <v>       0.14404214       0.11555056       0.74913928 </v>
    <v>       0.12765444       0.62374674       0.24743162 </v>
    <v>       0.13107569       0.62155388       0.75779960 </v>
    <v>       0.62989887       0.11781237       0.25845238 </v>
    <v>       0.62211051       0.14347398       0.74789808 </v>
    <v>       0.62619506       0.61793312       0.25576114 </v>
    <v>       0.52462273       0.49036008       0.87442611 </v>
    <v>       0.37807843       0.36563485       0.24360442 </v>
    <v>       0.39648810       0.34074628       0.74666482 </v>
    <v>       0.12803054       0.87197706       0.24560070 </v>
    <v>       0.48866384       0.49395417       0.37592707 </v>
    <v>       0.62298577       0.36998098       0.25180353 </v>
    <v>       0.85520562       0.38729179       0.74565444 </v>
    <v>       0.86168302       0.87842060       0.23698378 </v>
    <v>       0.86498847       0.88683164       0.75197300 </v>
    <v>       0.45808097       0.00422162       0.61914684 </v>
    <v>       0.25588842       0.24509926       0.87328191 </v>
    <v>       0.37503862       0.62086395       0.24263198 </v>
    <v>       0.87740264       0.12793068       0.25076603 </v>
    <v>       0.13140315       0.87216983       0.74658379 </v>
    <v>       0.87407502       0.63043821       0.25488543 </v>
    <v>       0.87119859       0.62990678       0.75810828 </v>
    <v>       0.13000852       0.37075944       0.25127198 </v>
    <v>       0.26680694       0.77975361       0.87775243 </v>
    <v>       0.74429135       0.24844047       0.12307091 </v>
    <v>       0.38621774       0.64619705       0.75478904 </v>
    <v>       0.59189819       0.86516507       0.24039547 </v>
    <v>       0.59966342       0.84312311       0.74687168 </v>
    <v>       0.39363265       0.33812242       0.99994516 </v>
    <v>       0.37544612       0.37790238       0.51049713 </v>
    <v>       0.88616871       0.13582657       0.75506273 </v>
    <v>       0.63302587       0.61877426       0.49083074 </v>
    <v>       0.87405570       0.38188232       0.50577140 </v>
    <v>       0.85826168       0.89616586       0.99801651 </v>
    <v>       0.86844300       0.87927532       0.50862303 </v>
    <v>       0.13539462       0.11611498       0.49326358 </v>
    <v>       0.14069650       0.60963065       0.99890936 </v>
    <v>       0.61227725       0.14235949       0.00281119 </v>
    <v>       0.13089727       0.87301513       0.49871730 </v>
    <v>       0.84713561       0.39687346       0.00276296 </v>
    <v>       0.88077863       0.12867530       0.50133836 </v>
    <v>       0.11485894       0.36496353       0.00132635 </v>
    <v>       0.99887990       0.50368722       0.12405030 </v>
    <v>       0.11549342       0.86164499       0.00612530 </v>
    <v>       0.12603386       0.37288056       0.73752037 </v>
    <v>       0.62267639       0.37411413       0.49907685 </v>
    <v>       0.59498636       0.85422559       0.00934602 </v>
    <v>       0.61218873       0.86157224       0.50796253 </v>
    <v>       0.62305353       0.12673495       0.49973357 </v>
    <v>       0.27911998       0.77132110       0.37015840 </v>
    <v>       0.39374941       0.64419897       0.99595787 </v>
    <v>       0.89084875       0.14003340       0.98833945 </v>
    <v>       0.74511115       0.25664365       0.62986092 </v>
    <v>       0.88812232       0.63959791       0.99140611 </v>
    <v>       0.88118020       0.63345401       0.49162853 </v>
    <v>       0.99629896       0.01227008       0.12242280 </v>
    <v>       0.99987105       0.00333517       0.62432073 </v>
    <v>       0.00122300       0.51853264       0.62334540 </v>
    <v>       0.38073673       0.08124613       0.22629981 </v>
    <v>       0.13446938       0.61812355       0.49202189 </v>
    <v>       0.52205273       0.49185731       0.11156906 </v>
    <v>       0.52597665       0.50594909       0.63475739 </v>
    <v>       0.99125338       0.98706926       0.37427994 </v>
    <v>       0.00536184       0.99303763       0.87467075 </v>
    <v>       0.00097656       0.49219095       0.37491798 </v>
    <v>       0.00366665       0.48525575       0.87450497 </v>
    <v>       0.45862350       0.99069119       0.39260084 </v>
    <v>       0.45600296       0.01229705       0.86277238 </v>
    <v>       0.28036623       0.23584236       0.37792290 </v>
    <v>       0.27594510       0.21741190       0.62039103 </v>
    <v>       0.12167517       0.37087676       0.50633422 </v>
    <v>       0.12754611       0.12419023       0.25460686 </v>
    <v>       0.75728971       0.25501233       0.37578272 </v>
    <v>       0.73132496       0.27075852       0.87225181 </v>
    <v>       0.74566851       0.77043759       0.37294908 </v>
    <v>       0.71868586       0.72686333       0.87895963 </v>
    <v>       0.25394548       0.23871457       0.12143853 </v>
    <v>       0.87469549       0.37532387       0.24656930 </v>
    <v>       0.28585877       0.78219127       0.12335811 </v>
    <v>       0.26997343       0.76489029       0.62538528 </v>
    <v>       0.15003646       0.10558349       0.99692964 </v>
    <v>       0.38583220       0.63517609       0.50355095 </v>
    <v>       0.74094534       0.72718953       0.11909360 </v>
    <v>       0.74539248       0.73073671       0.62717357 </v>
   </varray>
  </structure>
  <varray name="forces" >
   <v>      -0.00347607       0.00443038      -0.00024674 </v>
   <v>      -0.00356977      -0.00525353      -0.00886454 </v>
   <v>       0.01505256      -0.01999089       0.00611437 </v>
   <v>       0.02889402      -0.00187379      -0.01288723 </v>
   <v>       0.01242445       0.02704508       0.00046256 </v>
   <v>      -0.01244778       0.01220091       0.00926686 </v>
   <v>      -0.02596870      -0.00191789       0.02045718 </v>
   <v>       0.00934257       0.00463545      -0.00953323 </v>
   <v>       0.01614671      -0.00318782      -0.00403518 </v>
   <v>       0.01225119      -0.01155446      -0.01205272 </v>
   <v>       0.01457187       0.00058691       0.00495299 </v>
   <v>       0.01456148       0.00974054      -0.00624058 </v>
   <v>      -0.00452340       0.03304057       0.01193081 </v>
   <v>      -0.00227171       0.00450986      -0.00798098 </v>
   <v>      -0.02427660       0.01746614       0.02311848 </v>
   <v>       0.01049973      -0.02490273       0.00462487 </v>
   <v>      -0.03345179      -0.01426231      -0.01834271 </v>
   <v>       0.00788634       0.00438389       0.00297081 </v>
   <v>      -0.00413172       0.01405802      -0.00772235 </v>
   <v>       0.00335214       0.00108287      -0.00225059 </v>
   <v>      -0.01272673      -0.00176541      -0.00241874 </v>
   <v>      -0.00320132      -0.01182134      -0.00436201 </v>
   <v>       0.00818668       0.00467149       0.02706814 </v>
   <v>       0.02496985      -0.00152027      -0.01279768 </v>
   <v>      -0.03243768      -0.03428314       0.00534469 </v>
   <v>      -0.03419917      -0.00765623      -0.00596846 </v>
   <v>       0.00910386      -0.00715891      -0.00669237 </v>
   <v>      -0.00464402       0.00377441       0.01427032 </v>
   <v>      -0.00225800      -0.00252401       0.00711044 </v>
   <v>       0.00597126      -0.00149503       0.00304749 </v>
   <v>      -0.00799130       0.00063078      -0.00587099 </v>
   <v>      -0.01113471       0.00407979      -0.01289827 </v>
   <v>      -0.03207538       0.03692624       0.00576934 </v>
   <v>       0.00330764      -0.02305480       0.00678354 </v>
   <v>      -0.02639861       0.01419138       0.01559746 </v>
   <v>       0.02415043      -0.03587754       0.04866771 </v>
   <v>      -0.04050751      -0.02165502      -0.01372545 </v>
   <v>       0.00608690       0.00065800       0.01920100 </v>
   <v>       0.03215715      -0.00401926       0.05702763 </v>
   <v>       0.02668345       0.01504325      -0.09396347 </v>
   <v>       0.01881223       0.00933270       0.00354003 </v>
   <v>       0.01150833       0.00101901       0.00967644 </v>
   <v>       0.01036303       0.01108985      -0.02469278 </v>
   <v>       0.00231050       0.01371524      -0.01929992 </v>
   <v>      -0.05615670       0.00703421       0.03222955 </v>
   <v>       0.00037025      -0.02773500      -0.00188481 </v>
   <v>       0.01090007      -0.02151889      -0.01152155 </v>
   <v>      -0.01390926       0.00547825      -0.00570936 </v>
   <v>      -0.01182851      -0.00159105       0.00268412 </v>
   <v>      -0.00050464      -0.00016567       0.01796128 </v>
   <v>      -0.01771530      -0.02541943      -0.01205948 </v>
   <v>      -0.00133918      -0.03337814      -0.03335222 </v>
   <v>       0.00636767       0.00794129       0.00139456 </v>
   <v>       0.00242015      -0.03007187      -0.01133931 </v>
   <v>       0.02513010       0.00006439      -0.00173707 </v>
   <v>      -0.01615657      -0.00889028       0.00750731 </v>
   <v>      -0.02955768      -0.00531505       0.00367815 </v>
   <v>       0.00737442      -0.00298317      -0.03792610 </v>
   <v>       0.02056852       0.00096371       0.03325461 </v>
   <v>       0.00070712       0.01143600      -0.01725808 </v>
   <v>      -0.01442202       0.03492455       0.01370602 </v>
   <v>       0.00863863       0.00062107      -0.00611434 </v>
   <v>       0.01006242       0.01553305      -0.03208803 </v>
   <v>      -0.01563418      -0.01170775      -0.00641349 </v>
   <v>       0.01404040       0.00468492       0.00561782 </v>
   <v>      -0.00431309       0.02943208      -0.01567574 </v>
   <v>      -0.01481725      -0.03290975      -0.00510572 </v>
   <v>      -0.03466106       0.04268852       0.00094977 </v>
   <v>       0.01176228       0.01678520       0.00251360 </v>
   <v>      -0.00327907       0.02578896      -0.02104906 </v>
   <v>       0.00724716       0.00696773      -0.00794007 </v>
   <v>      -0.00224100      -0.01927488      -0.02010954 </v>
   <v>       0.00142925      -0.00494173       0.00140502 </v>
   <v>      -0.00888524       0.01340772       0.01455135 </v>
   <v>       0.01717423       0.00799203       0.01005722 </v>
   <v>       0.02880612       0.03228552      -0.02093487 </v>
   <v>      -0.00291470       0.00826332       0.01468608 </v>
   <v>      -0.00390133      -0.00961486       0.01034560 </v>
   <v>       0.02116320      -0.03076319      -0.01724683 </v>
   <v>       0.00501443       0.01580709       0.02610347 </v>
   <v>      -0.00396221      -0.01878723       0.00663894 </v>
   <v>      -0.00239154       0.01799977      -0.00726100 </v>
   <v>      -0.03490286      -0.04577736      -0.01729178 </v>
   <v>       0.01502481      -0.00843195      -0.00941437 </v>
   <v>      -0.03422886       0.00125585      -0.00935250 </v>
   <v>      -0.00186738       0.00401347      -0.00121071 </v>
   <v>       0.00359194      -0.00383307      -0.01151854 </v>
   <v>      -0.00117630      -0.01845748      -0.02112029 </v>
   <v>      -0.00163548      -0.01399672       0.02046827 </v>
   <v>       0.00182522      -0.01659398      -0.01577403 </v>
   <v>      -0.01981641       0.01758265       0.01584036 </v>
   <v>       0.02877010      -0.01097870       0.00236285 </v>
   <v>       0.00234659       0.01826317      -0.01018857 </v>
   <v>       0.02165260       0.02029198      -0.00359523 </v>
   <v>       0.00462439       0.01394299      -0.00723584 </v>
   <v>      -0.00224546      -0.00788769       0.01339475 </v>
   <v>       0.02424690       0.01461262      -0.03931201 </v>
   <v>      -0.02664348      -0.00106972       0.00092183 </v>
   <v>       0.01663316       0.00120981      -0.00740642 </v>
   <v>       0.01360195       0.01553740       0.01255061 </v>
   <v>      -0.04647918      -0.02906934      -0.01817208 </v>
   <v>       0.00655983      -0.00532410       0.00546411 </v>
   <v>       0.03610314      -0.01732793       0.00962082 </v>
   <v>      -0.00208750       0.05205116      -0.00030548 </v>
   <v>      -0.00696274      -0.00421038      -0.00475398 </v>
   <v>      -0.03720080       0.00049064       0.02757219 </v>
   <v>      -0.00794274      -0.00701186      -0.05764623 </v>
   <v>      -0.02101265       0.01990304       0.00521107 </v>
   <v>      -0.01242638       0.01303454       0.01093206 </v>
   <v>       0.00051083       0.00470700      -0.00647715 </v>
   <v>      -0.00140194      -0.02546884      -0.00853600 </v>
   <v>       0.02306725      -0.01005985       0.03176254 </v>
   <v>       0.02698932       0.01638333       0.01124400 </v>
   <v>      -0.00157620      -0.00266093      -0.00375081 </v>
   <v>       0.01344361       0.02507236       0.02226128 </v>
   <v>       0.01894576       0.00263188       0.00259593 </v>
   <v>       0.01988396       0.00034055      -0.00045279 </v>
   <v>      -0.01687936       0.01214212       0.03374083 </v>
   <v>       0.01282721      -0.02521600      -0.01380551 </v>
   <v>      -0.01387190      -0.00509872       0.02891894 </v>
   <v>       0.01115249       0.00128049       0.01827566 </v>
   <v>      -0.01187744      -0.00500698       0.00637348 </v>
   <v>       0.03321273      -0.03624922      -0.01258406 </v>
   <v>       0.00323071       0.00401694      -0.00323831 </v>
   <v>      -0.00765992       0.01781631       0.02692524 </v>
   <v>      -0.00686659      -0.00050099      -0.00778070 </v>
   <v>      -0.00427397      -0.01080791      -0.01687147 </v>
   <v>      -0.01585362       0.00132640       0.03567140 </v>
   <v>       0.02425228      -0.00695267       0.02452172 </v>
   <v>      -0.00661475       0.00139996       0.00605271 </v>
   <v>      -0.00908457       0.00129517      -0.01335821 </v>
   <v>       0.02819048       0.00040627       0.02518341 </v>
   <v>      -0.01260973       0.01726040       0.00575198 </v>
   <v>      -0.00219325       0.01286134       0.00220081 </v>
   <v>       0.01029818      -0.01321382      -0.01040227 </v>
   <v>      -0.01113572      -0.00520067       0.01220915 </v>
   <v>      -0.01035950      -0.00931896       0.00986335 </v>
   <v>       0.00929521      -0.00564174      -0.00271911 </v>
   <v>      -0.00941443       0.00863723      -0.01142497 </v>
   <v>       0.02201943       0.01849844       0.00326195 </v>
   <v>       0.02025033      -0.02169195       0.00401526 </v>
   <v>      -0.02896493      -0.02397294      -0.00695322 </v>
   <v>      -0.02341005       0.00406954       0.00153650 </v>
   <v>       0.00347937      -0.00661586      -0.01196789 </v>
   <v>       0.00354437      -0.01131536       0.00225504 </v>
   <v>       0.02821039       0.00353714      -0.00653217 </v>
   <v>      -0.01713166       0.04574436      -0.00716490 </v>
   <v>       0.03253494      -0.01022270       0.01264353 </v>
  </varray>
  <varray name="stress" >
   <v>      -0.19916018       0.05890834      -0.04663074 </v>
   <v>       0.05890886       0.01345766      -0.01014831 </v>
   <v>      -0.04663056      -0.01014850       0.01464199 </v>
  </varray>
  <energy>
   <i name="e_fr_energy">   -990.18534204 </i>
   <i name="e_wo_entrp">   -990.18372815 </i>
   <i name="e_0_energy">     -0.00322779 </i>
  </energy>
  <time name="totalsc"> 1016.04 1018.71</time>
 </calculation>
 <calculation>
  <scstep>
   <time name="dav">  285.71  285.73</time>
   <time name="total">  289.47  289.57</time>
   <energy>
    <i name="alphaZ">   5655.93462330 </i>
    <i name="ewald"> -63087.31560585 </i>
    <i name="hartreedc"> -18700.72881110 </i>
    <i name="XCdc">   3403.58645736 </i>
    <i name="pawpsdc"> 116432.99669274 </i>
    <i name="pawaedc">-115933.71293318 </i>
    <i name="eentropy">     -0.00319923 </i>
    <i name="bandstr">  -7077.84501379 </i>
    <i name="atom">  78316.90445604 </i>
    <i name="e_fr_energy">   -990.18333371 </i>
    <i name="e_wo_entrp">   -990.18013448 </i>
    <i name="e_0_energy">   -990.18173409 </i>
   </energy>
  </scstep>
  <scstep>
   <time name="diag">   32.93   32.95</time>
   <time name="diis">   52.40   52.42</time>
   <time name="orth">   18.84   18.84</time>
   <time name="total">  107.90  107.95</time>
   <energy>
    <i name="e_fr_energy">   -990.18855054 </i>
    <i name="e_wo_entrp">   -990.18539106 </i>
    <i name="e_0_energy">   -990.18697080 </i>
   </energy>
  </scstep>
  <scstep>
   <time name="diag">   32.98   32.99</time>
   <time name="diis">   52.74   52.77</time>
   <time name="orth">   18.84   18.84</time>
   <time name="total">  108.30  108.45</time>
   <energy>
    <i name="e_fr_energy">   -990.18904241 </i>
    <i name="e_wo_entrp">   -990.18586703 </i>
    <i name="e_0_energy">   -990.18745472 </i>
   </energy>
  </scstep>
  <scstep>
   <time name="diag">   32.95   32.97</time>
   <time name="diis">   40.12   40.14</time>
   <time name="orth">   18.81   18.81</time>
   <time name="total">   95.65   95.79</time>
   <energy>
    <i name="e_fr_energy">   -990.18886540 </i>
    <i name="e_wo_entrp">   -990.18568825 </i>
    <i name="e_0_energy">   -990.18727683 </i>
   </energy>
  </scstep>
  <scstep>
   <time name="diag">   32.97   33.00</time>
   <time name="diis">   43.67   43.69</time>
   <time name="orth">   18.86   18.86</time>
   <time name="total">   99.23   99.29</time>
   <energy>
    <i name="e_fr_energy">   -990.18876943 </i>
    <i name="e_wo_entrp">   -990.18559624 </i>
    <i name="e_0_energy">   -990.18718284 </i>
   </energy>
  </scstep>
  <scstep>
   <time name="diag">   32.91   32.94</time>
   <time name="diis">   32.42   32.45</time>
   <time name="orth">   18.82   18.83</time>
   <time name="total">   87.87   88.07</time>
   <energy>
    <i name="e_fr_energy">   -990.18877230 </i>
    <i name="e_wo_entrp">   -990.18559549 </i>
    <i name="e_0_energy">   -990.18718390 </i>
   </energy>
  </scstep>
  <scstep>
   <time name="diag">   32.97   32.99</time>
   <time name="diis">   31.95   31.97</time>
   <time name="orth">   18.83   18.83</time>
   <time name="total">   87.55   87.60</time>
   <energy>
    <i name="e_fr_energy">   -990.18877255 </i>
    <i name="e_wo_entrp">   -990.18559464 </i>
    <i name="e_0_energy">   -990.18718360 </i>
   </energy>
  </scstep>
  <scstep>
   <time name="diag">   32.94   32.96</time>
   <time name="diis">   31.01   31.01</time>
   <time name="orth">   18.83   18.83</time>
   <time name="total">   83.38   83.45</time>
   <energy>
    <i name="alphaZ">   5655.93462330 </i>
    <i name="ewald"> -63087.31560585 </i>
    <i name="hartreedc"> -18699.56116243 </i>
    <i name="XCdc">   3403.51969583 </i>
    <i name="pawpsdc"> 116450.35012600 </i>
    <i name="pawaedc">-115951.08238615 </i>
    <i name="eentropy">     -0.00317778 </i>
    <i name="bandstr">  -7078.93534249 </i>
    <i name="atom">  78316.90445604 </i>
    <i name="e_fr_energy">   -990.18877352 </i>
    <i name="e_wo_entrp">   -990.18559574 </i>
    <i name="e_0_energy">   -990.18718463 </i>
   </energy>
  </scstep>
  <structure>
   <crystal>
    <varray name="basis" >
     <v>      11.21851602       0.02277149       0.01615504 </v>
     <v>       0.02307135      11.30208625      -0.00563126 </v>
     <v>       0.02228226      -0.00779466      15.67006821 </v>
    </varray>
    <i name="volume">   1986.83645106 </i>
    <varray name="rec_basis" >
     <v>       0.08913890      -0.00018203      -0.00012684 </v>
     <v>      -0.00017966       0.08847963       0.00004427 </v>
     <v>      -0.00009196       0.00003198       0.06381608 </v>
    </varray>
   </crystal>
   <varray name="positions" >
    <v>       0.00548798       0.25034379       0.13172108 </v>
    <v>       0.99606326       0.25295757       0.62374834 </v>
    <v>       0.99340001       0.74556086       0.12783354 </v>
    <v>       0.99376315       0.75221556       0.62665653 </v>
    <v>       0.49930528       0.25156534       0.13275553 </v>
    <v>       0.50568266       0.25457949       0.61951302 </v>
    <v>       0.50447163       0.72617072       0.12626608 </v>
    <v>       0.50274789       0.73814448       0.62376886 </v>
    <v>       0.00031162       0.25214593       0.37228939 </v>
    <v>       0.01160013       0.25201527       0.86909072 </v>
    <v>       0.99931029       0.74881184       0.37082468 </v>
    <v>       0.00667634       0.75175072       0.87220532 </v>
    <v>       0.50841392       0.26390550       0.37492708 </v>
    <v>       0.49924394       0.24851905       0.87202070 </v>
    <v>       0.50517060       0.73246356       0.37346501 </v>
    <v>       0.49605423       0.74747058       0.87458355 </v>
    <v>       0.22756145       0.00071540       0.13080503 </v>
    <v>       0.23126518       0.99614629       0.62268269 </v>
    <v>       0.24268940       0.48530920       0.13241534 </v>
    <v>       0.24040313       0.50502007       0.62018768 </v>
    <v>       0.75726880       0.00750463       0.12803439 </v>
    <v>       0.76819060       0.01219199       0.62512908 </v>
    <v>       0.75661760       0.49610264       0.13673566 </v>
    <v>       0.75866852       0.50098432       0.61688267 </v>
    <v>       0.23433719       0.00061960       0.36745055 </v>
    <v>       0.23397388       0.00057994       0.87041251 </v>
    <v>       0.25340909       0.49291390       0.36865960 </v>
    <v>       0.23259173       0.49156845       0.87160604 </v>
    <v>       0.76657989       0.00669072       0.37682780 </v>
    <v>       0.77747903       0.01723022       0.86852539 </v>
    <v>       0.75321722       0.49666254       0.37400610 </v>
    <v>       0.76692843       0.50438478       0.87336452 </v>
    <v>       0.75393159       0.25094735       0.25099236 </v>
    <v>       0.99974515       0.50068286       0.49778001 </v>
    <v>       0.75017587       0.74983226       0.50126040 </v>
    <v>       0.74626644       0.74789859       0.24802427 </v>
    <v>       0.50105770       0.49908454       0.50083147 </v>
    <v>       0.00307014       0.00090485       0.49871807 </v>
    <v>       0.99411790       0.50207457       0.00066777 </v>
    <v>       0.00605963       0.99879198       0.99943833 </v>
    <v>       0.25158522       0.24495461       0.25055601 </v>
    <v>       0.24574427       0.25463886       0.74267296 </v>
    <v>       0.75559289       0.76410665       0.99743357 </v>
    <v>       0.53960335       0.99970600       0.96843241 </v>
    <v>       0.51001983       0.00447401       0.27406054 </v>
    <v>       0.52206380       0.99815700       0.50571284 </v>
    <v>       0.24144618       0.25326895       0.99883344 </v>
    <v>       0.24408900       0.25670532       0.50049067 </v>
    <v>       0.24608858       0.73939489       0.00158997 </v>
    <v>       0.50087402       0.49492622       0.24825575 </v>
    <v>       0.76247186       0.24686696       0.99901310 </v>
    <v>       0.75318958       0.25490113       0.50013854 </v>
    <v>       0.24447196       0.74279469       0.74974226 </v>
    <v>       0.75847556       0.24845034       0.75020961 </v>
    <v>       0.00785409       0.00111294       0.74871556 </v>
    <v>       0.24516036       0.74094729       0.49577083 </v>
    <v>       0.24525136       0.74045720       0.24655831 </v>
    <v>       0.99423481       0.50470045       0.74781501 </v>
    <v>       0.99714312       0.99856528       0.24874587 </v>
    <v>       0.00085777       0.49798120       0.25093434 </v>
    <v>       0.47277060       0.49182586       0.99461175 </v>
    <v>       0.51963485       0.99804782       0.74177598 </v>
    <v>       0.75442561       0.76105243       0.75289917 </v>
    <v>       0.47540129       0.49611193       0.75286918 </v>
    <v>       0.14410244       0.11557045       0.74915652 </v>
    <v>       0.12763574       0.62387237       0.24738343 </v>
    <v>       0.13101229       0.62141352       0.75778390 </v>
    <v>       0.62974945       0.11799488       0.25845552 </v>
    <v>       0.62216093       0.14354554       0.74790579 </v>
    <v>       0.62618087       0.61804319       0.25569639 </v>
    <v>       0.52465388       0.49038974       0.87440165 </v>
    <v>       0.37806909       0.36555255       0.24354249 </v>
    <v>       0.39649428       0.34072518       0.74666913 </v>
    <v>       0.12799213       0.87203440       0.24564556 </v>
    <v>       0.48873756       0.49398815       0.37595797 </v>
    <v>       0.62310948       0.37011850       0.25173900 </v>
    <v>       0.85519292       0.38732711       0.74569968 </v>
    <v>       0.86166627       0.87837961       0.23701564 </v>
    <v>       0.86507985       0.88670010       0.75191976 </v>
    <v>       0.45810223       0.00428910       0.61922721 </v>
    <v>       0.25587151       0.24501912       0.87330233 </v>
    <v>       0.37502822       0.62094079       0.24260966 </v>
    <v>       0.87725307       0.12773554       0.25071288 </v>
    <v>       0.13146789       0.87213369       0.74655472 </v>
    <v>       0.87392789       0.63044384       0.25485679 </v>
    <v>       0.87119053       0.62992393       0.75810457 </v>
    <v>       0.13002407       0.37074302       0.25123649 </v>
    <v>       0.26680218       0.77967479       0.87768739 </v>
    <v>       0.74428431       0.24838078       0.12313391 </v>
    <v>       0.38622583       0.64612617       0.75474044 </v>
    <v>       0.59181273       0.86524032       0.24044436 </v>
    <v>       0.59978721       0.84307600       0.74687880 </v>
    <v>       0.39364265       0.33820033       0.99991381 </v>
    <v>       0.37553907       0.37798880       0.51048599 </v>
    <v>       0.88618852       0.13588603       0.75504045 </v>
    <v>       0.63301620       0.61874064       0.49087197 </v>
    <v>       0.87416008       0.38194441       0.50565029 </v>
    <v>       0.85814712       0.89616152       0.99801947 </v>
    <v>       0.86851456       0.87928033       0.50860015 </v>
    <v>       0.13545289       0.11618121       0.49330218 </v>
    <v>       0.14049701       0.60950692       0.99885358 </v>
    <v>       0.61230547       0.14233671       0.00282798 </v>
    <v>       0.13105260       0.87294087       0.49874673 </v>
    <v>       0.84712618       0.39709566       0.00276211 </v>
    <v>       0.88074876       0.12865738       0.50132375 </v>
    <v>       0.11469881       0.36496600       0.00141141 </v>
    <v>       0.99884617       0.50365724       0.12387285 </v>
    <v>       0.11540286       0.86173014       0.00614147 </v>
    <v>       0.12598024       0.37293633       0.73755410 </v>
    <v>       0.62267858       0.37413420       0.49905691 </v>
    <v>       0.59498061       0.85411687       0.00931971 </v>
    <v>       0.61228781       0.86152917       0.50806020 </v>
    <v>       0.62316937       0.12680468       0.49976809 </v>
    <v>       0.27911324       0.77130975       0.37014686 </v>
    <v>       0.39380686       0.64430592       0.99602638 </v>
    <v>       0.89093018       0.14004448       0.98834736 </v>
    <v>       0.74519665       0.25664493       0.62985944 </v>
    <v>       0.88804942       0.63964996       0.99151008 </v>
    <v>       0.88123566       0.63334623       0.49158593 </v>
    <v>       0.99623917       0.01224849       0.12251188 </v>
    <v>       0.99991888       0.00334058       0.62437695 </v>
    <v>       0.00117193       0.51851138       0.62336507 </v>
    <v>       0.38087994       0.08109109       0.22626086 </v>
    <v>       0.13448325       0.61814066       0.49201191 </v>
    <v>       0.52201948       0.49193348       0.11165201 </v>
    <v>       0.52594717       0.50594700       0.63473347 </v>
    <v>       0.99123520       0.98702313       0.37422800 </v>
    <v>       0.00529344       0.99304350       0.87478064 </v>
    <v>       0.00108075       0.49216112       0.37499335 </v>
    <v>       0.00363815       0.48526179       0.87452363 </v>
    <v>       0.45858451       0.99069677       0.39255976 </v>
    <v>       0.45612401       0.01229859       0.86284978 </v>
    <v>       0.28031182       0.23591615       0.37794069 </v>
    <v>       0.27593554       0.21746682       0.62039783 </v>
    <v>       0.12171963       0.37082024       0.50630212 </v>
    <v>       0.12749819       0.12416815       0.25464449 </v>
    <v>       0.75724518       0.25497266       0.37581312 </v>
    <v>       0.73136499       0.27073436       0.87224338 </v>
    <v>       0.74562803       0.77047451       0.37291396 </v>
    <v>       0.71878036       0.72694211       0.87896961 </v>
    <v>       0.25403272       0.23862181       0.12145076 </v>
    <v>       0.87457120       0.37522178       0.24654799 </v>
    <v>       0.28575806       0.78220885       0.12336295 </v>
    <v>       0.26998853       0.76486200       0.62534841 </v>
    <v>       0.15005178       0.10553517       0.99693655 </v>
    <v>       0.38595351       0.63519094       0.50353072 </v>
    <v>       0.74087132       0.72738492       0.11907169 </v>
    <v>       0.74553239       0.73069283       0.62721233 </v>
   </varray>
  </structure>
  <varray name="forces" >
   <v>      -0.01409260      -0.01615039      -0.00161898 </v>
   <v>      -0.00560491      -0.00151830      -0.00325123 </v>
   <v>      -0.00687098       0.00548644      -0.00535701 </v>
   <v>       0.02560719      -0.00943647      -0.00990079 </v>
   <v>       0.01454715       0.01528248      -0.00191613 </v>
   <v>      -0.00109699       0.01141267       0.00430901 </v>
   <v>       0.00026121       0.01220437       0.02444976 </v>
   <v>       0.00503144      -0.00600349      -0.00152398 </v>
   <v>       0.00925733      -0.00538881      -0.01130753 </v>
   <v>       0.00199686       0.01314776      -0.00874716 </v>
   <v>       0.00762476      -0.00013831       0.00930296 </v>
   <v>      -0.00359821      -0.01743649       0.00094110 </v>
   <v>       0.00056052       0.02049455       0.00818629 </v>
   <v>       0.00372255       0.00285857      -0.00208814 </v>
   <v>      -0.01377647       0.01390286       0.00707561 </v>
   <v>       0.02201225      -0.01948988       0.00767675 </v>
   <v>      -0.03016575      -0.00978868      -0.00998133 </v>
   <v>       0.01158298       0.00410676       0.00217310 </v>
   <v>       0.00304091       0.00831492      -0.00849100 </v>
   <v>       0.00171889       0.00204205       0.00524793 </v>
   <v>      -0.00126367      -0.01387802       0.00911352 </v>
   <v>      -0.00205599      -0.00737324       0.00011248 </v>
   <v>       0.00002145       0.01560565       0.00335325 </v>
   <v>       0.01373540      -0.00692070      -0.01156233 </v>
   <v>      -0.02507467      -0.02313384       0.00406050 </v>
   <v>      -0.00037173      -0.01140489      -0.00731573 </v>
   <v>       0.00147281      -0.00473896      -0.00646037 </v>
   <v>      -0.01908426       0.00267377       0.00872383 </v>
   <v>      -0.00325465       0.00006137      -0.01727086 </v>
   <v>      -0.00325931      -0.00849027       0.00513565 </v>
   <v>      -0.00681918       0.00162160       0.00804797 </v>
   <v>       0.01092420       0.00432125       0.00039256 </v>
   <v>      -0.00209059      -0.04709309      -0.00931300 </v>
   <v>       0.00084994      -0.00208193       0.00276626 </v>
   <v>       0.00603923      -0.04239591       0.00281017 </v>
   <v>      -0.00306904       0.03540904      -0.03513029 </v>
   <v>       0.02780342       0.02162725       0.01939493 </v>
   <v>       0.00100109      -0.00025640      -0.00353807 </v>
   <v>      -0.03662011       0.00360165      -0.05935604 </v>
   <v>      -0.02770872       0.01167128       0.08696562 </v>
   <v>      -0.00068212      -0.01455067      -0.00664588 </v>
   <v>      -0.00791895       0.01557175       0.00336054 </v>
   <v>       0.00250076      -0.00665456       0.00531646 </v>
   <v>       0.02354720      -0.02339889       0.01533996 </v>
   <v>       0.02511302      -0.00890141       0.00581509 </v>
   <v>       0.00854987       0.01580566      -0.00004604 </v>
   <v>      -0.00097089       0.00464959       0.00379212 </v>
   <v>      -0.00018065      -0.00572725      -0.00021156 </v>
   <v>      -0.02149968      -0.01092756       0.00309934 </v>
   <v>       0.00313732       0.02018952       0.00107027 </v>
   <v>       0.00579744       0.01142317       0.00281147 </v>
   <v>      -0.00547193      -0.00756413      -0.01435940 </v>
   <v>      -0.00439779      -0.02581297      -0.00148692 </v>
   <v>       0.00352682       0.01190195      -0.00814566 </v>
   <v>       0.00652505       0.00099367      -0.00946942 </v>
   <v>       0.00847558      -0.01151971       0.00919701 </v>
   <v>       0.00093896       0.02122021       0.00291817 </v>
   <v>      -0.00642898      -0.00500253       0.01692439 </v>
   <v>      -0.01683322       0.00686009      -0.02170006 </v>
   <v>      -0.00392305      -0.00581744       0.00579949 </v>
   <v>      -0.00360716       0.01339205       0.01416578 </v>
   <v>       0.01346292      -0.00215293       0.00820311 </v>
   <v>       0.01380821      -0.01207625      -0.00128699 </v>
   <v>      -0.01034611      -0.00365417      -0.00698508 </v>
   <v>       0.00602061      -0.00594300       0.00841161 </v>
   <v>      -0.03490021      -0.00351043      -0.01962195 </v>
   <v>       0.01804233       0.00380377      -0.01068507 </v>
   <v>      -0.04659016       0.03848528       0.01037003 </v>
   <v>      -0.00249284       0.00108575      -0.00267785 </v>
   <v>      -0.02106671       0.00372475      -0.00557547 </v>
   <v>      -0.00191189       0.00934848      -0.00627179 </v>
   <v>       0.00512433      -0.00606729      -0.00532640 </v>
   <v>       0.00382976      -0.00455611       0.00259956 </v>
   <v>       0.00359162      -0.00066879       0.01992823 </v>
   <v>       0.00508567       0.00149790      -0.01506067 </v>
   <v>       0.00791703       0.04397073      -0.00972743 </v>
   <v>      -0.00977682      -0.00102629       0.00288308 </v>
   <v>       0.00476467      -0.01478560       0.01842291 </v>
   <v>       0.03832984      -0.00045636      -0.01111921 </v>
   <v>       0.00755556       0.01137435      -0.00232644 </v>
   <v>      -0.00290336      -0.01591586       0.00631099 </v>
   <v>      -0.01102908       0.00578261       0.00013139 </v>
   <v>      -0.04177130      -0.01876613       0.00120779 </v>
   <v>       0.00510584       0.00503768      -0.00378272 </v>
   <v>       0.01401234      -0.04100894      -0.00232112 </v>
   <v>       0.00141490       0.00271718      -0.00456921 </v>
   <v>      -0.00582227       0.01081658      -0.01407329 </v>
   <v>      -0.00583164      -0.01660867      -0.01121196 </v>
   <v>      -0.00268028      -0.00838465      -0.00343094 </v>
   <v>       0.00187592      -0.01360379      -0.01534490 </v>
   <v>      -0.02886762       0.02208192       0.02706853 </v>
   <v>       0.01127235       0.00287274      -0.00572730 </v>
   <v>      -0.00109080       0.01892919      -0.00907792 </v>
   <v>      -0.00589760      -0.00199109      -0.00720147 </v>
   <v>       0.02291275      -0.01384153      -0.00296228 </v>
   <v>       0.00661702       0.00861995       0.01176187 </v>
   <v>       0.00700989      -0.01246608      -0.03255574 </v>
   <v>       0.00447683       0.03334452      -0.01315413 </v>
   <v>       0.01725825       0.00090707      -0.00371369 </v>
   <v>       0.00055039      -0.00399157       0.00952254 </v>
   <v>       0.01121275       0.01883545      -0.00598632 </v>
   <v>       0.00812938       0.00319970       0.00365623 </v>
   <v>       0.01536286       0.00973483       0.00941764 </v>
   <v>      -0.02954869       0.00366540       0.00656820 </v>
   <v>       0.00899056      -0.01339848      -0.00106724 </v>
   <v>       0.00246481      -0.03593832       0.02682934 </v>
   <v>      -0.00170095      -0.00146064       0.05148703 </v>
   <v>       0.00215053      -0.00470014      -0.00702249 </v>
   <v>       0.00600678      -0.00800166       0.00587646 </v>
[...]
       <r>   -17.8534     0.0000    32.0000 </r>
       <r>   -17.6981     0.0000    32.0000 </r>
       <r>   -17.5429     0.0000    32.0000 </r>
       <r>   -17.3877     0.0000    32.0000 </r>
       <r>   -17.2324     0.0000    32.0000 </r>
       <r>   -17.0772     0.0000    32.0000 </r>
       <r>   -16.9220     0.0000    32.0000 </r>
       <r>   -16.7668     0.0000    32.0000 </r>
       <r>   -16.6115     0.0000    32.0000 </r>
       <r>   -16.4563     0.0000    32.0000 </r>
       <r>   -16.3011     0.0000    32.0000 </r>
       <r>   -16.1458     0.0000    32.0000 </r>
       <r>   -15.9906     0.0000    32.0000 </r>
       <r>   -15.8354     0.0000    32.0000 </r>
       <r>   -15.6801     0.0000    32.0000 </r>
       <r>   -15.5249     0.0000    32.0000 </r>
       <r>   -15.3697     0.0000    32.0000 </r>
       <r>   -15.2144     0.0039    32.0006 </r>
       <r>   -15.0592     8.0674    33.2529 </r>
       <r>   -14.9040    36.7586    38.9590 </r>
       <r>   -14.7487    41.5097    45.4026 </r>
       <r>   -14.5935    35.6425    50.9354 </r>
       <r>   -14.4383    42.9134    57.5969 </r>
       <r>   -14.2831    40.5328    63.8888 </r>
       <r>   -14.1278    69.2435    74.6376 </r>
       <r>   -13.9726    84.9080    87.8179 </r>
       <r>   -13.8174    75.3893    99.5207 </r>
       <r>   -13.6621    64.3794   109.5144 </r>
       <r>   -13.5069    37.1974   115.2886 </r>
       <r>   -13.3517     4.5831   116.0000 </r>
       <r>   -13.1964     0.0000   116.0000 </r>
       <r>   -13.0412     0.0000   116.0000 </r>
       <r>   -12.8860     1.2350   116.1917 </r>
       <r>   -12.7307    52.2708   124.3058 </r>
       <r>   -12.5755    82.4162   137.0993 </r>
       <r>   -12.4203    90.2949   151.1159 </r>
       <r>   -12.2651    96.8226   166.1458 </r>
       <r>   -12.1098    89.8826   180.0983 </r>
       <r>   -11.9546    79.1152   192.3795 </r>
       <r>   -11.7994    58.3473   201.4368 </r>
       <r>   -11.6441    46.1609   208.6024 </r>
       <r>   -11.4889    18.6088   211.4910 </r>
       <r>   -11.3337     3.2787   212.0000 </r>
       <r>   -11.1784     0.0000   212.0000 </r>
       <r>   -11.0232     0.0000   212.0000 </r>
       <r>   -10.8680     0.0000   212.0000 </r>
       <r>   -10.7127     0.0000   212.0000 </r>
       <r>   -10.5575     0.0000   212.0000 </r>
       <r>   -10.4023     0.0000   212.0000 </r>
       <r>   -10.2470     0.0000   212.0000 </r>
       <r>   -10.0918     0.0000   212.0000 </r>
       <r>    -9.9366     0.0000   212.0000 </r>
       <r>    -9.7814     0.0000   212.0000 </r>
       <r>    -9.6261     0.0000   212.0000 </r>
       <r>    -9.4709     0.0000   212.0000 </r>
       <r>    -9.3157     0.0000   212.0000 </r>
       <r>    -9.1604     0.0000   212.0000 </r>
       <r>    -9.0052     0.0000   212.0000 </r>
       <r>    -8.8500     0.0000   212.0000 </r>
       <r>    -8.6947     0.0000   212.0000 </r>
       <r>    -8.5395     0.0000   212.0000 </r>
       <r>    -8.3843     0.0000   212.0000 </r>
       <r>    -8.2290     0.0000   212.0000 </r>
       <r>    -8.0738     0.0000   212.0000 </r>
       <r>    -7.9186     0.0000   212.0000 </r>
       <r>    -7.7634     0.0000   212.0000 </r>
       <r>    -7.6081     0.0000   212.0000 </r>
       <r>    -7.4529     0.0000   212.0000 </r>
       <r>    -7.2977     0.0000   212.0000 </r>
       <r>    -7.1424     0.0000   212.0000 </r>
       <r>    -6.9872     0.0000   212.0000 </r>
       <r>    -6.8320     0.0000   212.0000 </r>
       <r>    -6.6767     0.0000   212.0000 </r>
       <r>    -6.5215     0.0000   212.0000 </r>
       <r>    -6.3663     0.0000   212.0000 </r>
       <r>    -6.2110     0.0000   212.0000 </r>
       <r>    -6.0558     0.0000   212.0000 </r>
       <r>    -5.9006     0.0000   212.0000 </r>
       <r>    -5.7453     0.0000   212.0000 </r>
       <r>    -5.5901     0.0000   212.0000 </r>
       <r>    -5.4349     0.0000   212.0000 </r>
       <r>    -5.2797     0.0000   212.0000 </r>
       <r>    -5.1244     0.0000   212.0000 </r>
       <r>    -4.9692     0.0000   212.0000 </r>
       <r>    -4.8140     0.0000   212.0000 </r>
       <r>    -4.6587     0.0000   212.0000 </r>
       <r>    -4.5035     0.0000   212.0000 </r>
       <r>    -4.3483     0.0000   212.0000 </r>
       <r>    -4.1930     0.0000   212.0000 </r>
       <r>    -4.0378     0.0000   212.0000 </r>
       <r>    -3.8826     0.0000   212.0000 </r>
       <r>    -3.7273     0.0000   212.0000 </r>
       <r>    -3.5721     0.0000   212.0000 </r>
       <r>    -3.4169     0.0000   212.0000 </r>
       <r>    -3.2617     0.0000   212.0000 </r>
       <r>    -3.1064     0.0000   212.0000 </r>
       <r>    -2.9512     0.0000   212.0000 </r>
       <r>    -2.7960     0.0068   212.0011 </r>
       <r>    -2.6407     5.7896   212.8998 </r>
       <r>    -2.4855     6.9918   213.9851 </r>
       <r>    -2.3303    11.8512   215.8248 </r>
       <r>    -2.1750    16.0822   218.3213 </r>
       <r>    -2.0198    22.1298   221.7565 </r>
       <r>    -1.8646    21.7694   225.1358 </r>
       <r>    -1.7093    27.6292   229.4247 </r>
       <r>    -1.5541    30.6263   234.1788 </r>
       <r>    -1.3989    34.1049   239.4730 </r>
       <r>    -1.2437    50.0219   247.2379 </r>
       <r>    -1.0884    59.4969   256.4737 </r>
       <r>    -0.9332    75.1942   268.1462 </r>
       <r>    -0.7780    82.9300   281.0195 </r>
       <r>    -0.6227    99.5630   296.4747 </r>
       <r>    -0.4675    93.7994   311.0353 </r>
       <r>    -0.3123    66.2264   321.3157 </r>
       <r>    -0.1570    56.9844   330.1614 </r>
       <r>    -0.0018    53.4463   338.4580 </r>
       <r>     0.1534    59.2224   347.6511 </r>
       <r>     0.3087    60.7173   357.0763 </r>
       <r>     0.4639    60.7806   366.5114 </r>
       <r>     0.6191    58.0007   375.5149 </r>
       <r>     0.7744    47.9842   382.9635 </r>
       <r>     0.9296    49.7648   390.6886 </r>
       <r>     1.0848    50.8613   398.5838 </r>
       <r>     1.2400    57.8686   407.5668 </r>
       <r>     1.3953    70.6632   418.5359 </r>
       <r>     1.5505    73.5377   429.9513 </r>
       <r>     1.7057    69.7077   440.7721 </r>
       <r>     1.8610    66.0152   451.0197 </r>
       <r>     2.0162    32.0835   456.0000 </r>
       <r>     2.1714    32.2987   461.0138 </r>
       <r>     2.3267    23.5350   464.6672 </r>
       <r>     2.4819    20.0146   467.7740 </r>
       <r>     2.6371     1.4557   468.0000 </r>
       <r>     2.7924     0.0000   468.0000 </r>
       <r>     2.9476     0.0000   468.0000 </r>
       <r>     3.1028     0.0000   468.0000 </r>
       <r>     3.2580     0.0000   468.0000 </r>
       <r>     3.4133     0.0000   468.0000 </r>
       <r>     3.5685     0.0000   468.0000 </r>
       <r>     3.7237     0.0000   468.0000 </r>
       <r>     3.8790     0.0000   468.0000 </r>
       <r>     4.0342     0.0005   468.0001 </r>
       <r>     4.1894     5.4356   468.8438 </r>
       <r>     4.3447    14.2084   471.0494 </r>
       <r>     4.4999    45.1587   478.0595 </r>
       <r>     4.6551    51.2916   486.0215 </r>
       <r>     4.8104    49.4514   493.6979 </r>
       <r>     4.9656    62.5549   503.4084 </r>
       <r>     5.1208    79.0923   515.6859 </r>
       <r>     5.2761    86.8787   529.1722 </r>
       <r>     5.4313    82.2742   541.9437 </r>
       <r>     5.5865    58.1938   550.9772 </r>
       <r>     5.7417    44.4040   557.8701 </r>
       <r>     5.8970    43.8975   564.6843 </r>
       <r>     6.0522    67.4498   575.1546 </r>
       <r>     6.2074    58.3163   584.2071 </r>
       <r>     6.3627    48.8965   591.7974 </r>
       <r>     6.5179    27.3969   596.0502 </r>
       <r>     6.6731    23.2839   599.6646 </r>
       <r>     6.8284    24.9963   603.5448 </r>
       <r>     6.9836    20.0400   606.6556 </r>
       <r>     7.1388    17.1604   609.3194 </r>
       <r>     7.2941    20.4782   612.4983 </r>
       <r>     7.4493     6.7708   613.5493 </r>
       <r>     7.6045    13.8277   615.6958 </r>
       <r>     7.7597    18.1528   618.5137 </r>
       <r>     7.9150    19.1053   621.4795 </r>
       <r>     8.0702    26.4331   625.5827 </r>
       <r>     8.2254    27.0337   629.7792 </r>
       <r>     8.3807    24.5799   633.5947 </r>
       <r>     8.5359    26.8475   637.7623 </r>
       <r>     8.6911    26.0425   641.8049 </r>
       <r>     8.8464    28.9644   646.3011 </r>
       <r>     9.0016    32.5058   651.3470 </r>
       <r>     9.1568    32.4834   656.3894 </r>
       <r>     9.3121    37.3105   662.1812 </r>
       <r>     9.4673    45.2512   669.2055 </r>
       <r>     9.6225    46.6039   676.4399 </r>
       <r>     9.7778    50.6953   684.3094 </r>
       <r>     9.9330    53.2457   692.5748 </r>
       <r>    10.0882    54.8921   701.0957 </r>
       <r>    10.2434    54.6047   709.5721 </r>
       <r>    10.3987    56.3561   718.3203 </r>
       <r>    10.5539    50.5284   726.1638 </r>
       <r>    10.7091    46.2687   733.3462 </r>
       <r>    10.8644    53.9646   741.7232 </r>
       <r>    11.0196    49.1321   749.3500 </r>
       <r>    11.1748    51.5310   757.3492 </r>
       <r>    11.3301    49.2875   765.0002 </r>
       <r>    11.4853    19.3139   767.9983 </r>
       <r>    11.6405     0.0112   768.0000 </r>
       <r>    11.7958     0.0000   768.0000 </r>
       <r>    11.9510     0.0000   768.0000 </r>
       <r>    12.1062     0.0000   768.0000 </r>
       <r>    12.2614     0.0000   768.0000 </r>
       <r>    12.4167     0.0000   768.0000 </r>
       <r>    12.5719     0.0000   768.0000 </r>
       <r>    12.7271     0.0000   768.0000 </r>
       <r>    12.8824     0.0000   768.0000 </r>
       <r>    13.0376     0.0000   768.0000 </r>
       <r>    13.1928     0.0000   768.0000 </r>
       <r>    13.3481     0.0000   768.0000 </r>
       <r>    13.5033     0.0000   768.0000 </r>
      </set>
     </set>
    </array>
   </total>
  </dos>
 </calculation>
 <structure name="finalpos" >
  <crystal>
   <varray name="basis" >
    <v>      11.21345067       0.02930278       0.01860991 </v>
    <v>       0.02964561      11.29853360      -0.00465739 </v>
    <v>       0.02566986      -0.00642673      15.68696784 </v>
   </varray>
   <i name="volume">   1987.44963679 </i>
   <varray name="rec_basis" >
    <v>       0.08917947      -0.00023405      -0.00014603 </v>
    <v>      -0.00023135       0.08850768       0.00003664 </v>
    <v>      -0.00010586       0.00002656       0.06374737 </v>
   </varray>
  </crystal>
  <varray name="positions" >
   <v>       0.00445831       0.24993832       0.13176475 </v>
   <v>       0.99680723       0.25253995       0.62294156 </v>
   <v>       0.99327613       0.74541786       0.12794430 </v>
   <v>       0.99616215       0.75124654       0.62616904 </v>
   <v>       0.49938819       0.25272217       0.13257910 </v>
   <v>       0.50610389       0.25527007       0.61978955 </v>
   <v>       0.50347082       0.72798264       0.12711526 </v>
   <v>       0.50380530       0.73746204       0.62393990 </v>
   <v>       0.00033957       0.25174664       0.37183153 </v>
   <v>       0.01184154       0.25200366       0.86875877 </v>
   <v>       0.99933018       0.74865212       0.37042307 </v>
   <v>       0.00620378       0.75071674       0.87188709 </v>
   <v>       0.50811244       0.26573060       0.37502915 </v>
   <v>       0.49944861       0.24864963       0.87239534 </v>
   <v>       0.50431096       0.73330756       0.37407991 </v>
   <v>       0.49723326       0.74598093       0.87447357 </v>
   <v>       0.22653879       0.00026360       0.13077163 </v>
   <v>       0.23251599       0.99660705       0.62264315 </v>
   <v>       0.24267375       0.48534235       0.13175626 </v>
   <v>       0.24045672       0.50405773       0.61995659 </v>
   <v>       0.75640223       0.00609322       0.12912167 </v>
   <v>       0.76914386       0.01122177       0.62468674 </v>
   <v>       0.75612768       0.49730833       0.13736862 </v>
   <v>       0.75940131       0.49975451       0.61627290 </v>
   <v>       0.23364508       0.00037797       0.36707423 </v>
   <v>       0.23437740      -0.00062819       0.87057707 </v>
   <v>       0.25306815       0.49226512       0.36805642 </v>
   <v>       0.23207434       0.49109067       0.87176936 </v>
   <v>       0.76645996       0.00665614       0.37722753 </v>
   <v>       0.77847473       0.01663581       0.86783146 </v>
   <v>       0.75258144       0.49682650       0.37394535 </v>
   <v>       0.76632358       0.50451243       0.87317307 </v>
   <v>       0.75284090       0.25094535       0.25100497 </v>
   <v>       0.99999618       0.50019220       0.49709816 </v>
   <v>       0.75095408       0.74937862       0.50144485 </v>
   <v>       0.74568837       0.74852081       0.24853551 </v>
   <v>       0.50133379       0.49933639       0.50081575 </v>
   <v>       0.00416226       0.00053040       0.49873480 </v>
   <v>       0.99282407       0.50167959       0.00085161 </v>
   <v>       0.00563218       0.99909819       0.99944540 </v>
   <v>       0.25193369       0.24422377       0.25014646 </v>
   <v>       0.24599539       0.25457300       0.74281287 </v>
   <v>       0.75553213       0.76501720       0.99747694 </v>
   <v>       0.54040744       0.99925072       0.96806061 </v>
   <v>       0.50836080       0.00585366       0.27560078 </v>
   <v>       0.52236575       0.99837251       0.50671058 </v>
   <v>       0.24111412       0.25293043       0.99895865 </v>
   <v>       0.24442918       0.25663633       0.50006359 </v>
   <v>       0.24524622       0.73888765       0.00142405 </v>
   <v>       0.50044609       0.49593911       0.24802236 </v>
   <v>       0.76235994       0.24676524       0.99904458 </v>
   <v>       0.75342596       0.25429352       0.49974528 </v>
   <v>       0.24501295       0.74201438       0.74955953 </v>
   <v>       0.75925228       0.24819682       0.74991818 </v>
   <v>       0.00904144       0.00096745       0.74841504 </v>
   <v>       0.24545286       0.74060960       0.49579571 </v>
   <v>       0.24407626       0.74046222       0.24635590 </v>
   <v>       0.99410484       0.50403441       0.74760747 </v>
   <v>       0.99644367       0.99858803       0.24888311 </v>
   <v>       0.00078052       0.49736383       0.25065320 </v>
   <v>       0.47318266       0.49359527       0.99500888 </v>
   <v>       0.52070150       0.99811872       0.74188223 </v>
   <v>       0.75604514       0.76097768       0.75226456 </v>
   <v>       0.47558031       0.49575879       0.75285674 </v>
   <v>       0.14617712       0.11440008       0.74943804 </v>
   <v>       0.12520521       0.62519681       0.24596271 </v>
   <v>       0.13154914       0.62028728       0.75671424 </v>
   <v>       0.62505266       0.12188336       0.25902765 </v>
   <v>       0.62288634       0.14386448       0.74711867 </v>
   <v>       0.62377151       0.62115052       0.25528337 </v>
   <v>       0.52528413       0.49298730       0.87453977 </v>
   <v>       0.37931046       0.36522794       0.24350415 </v>
   <v>       0.39690441       0.33999360       0.74754758 </v>
   <v>       0.12800640       0.87244005       0.24613518 </v>
   <v>       0.48944850       0.49541112       0.37585631 </v>
   <v>       0.62517962       0.37329110       0.25192802 </v>
   <v>       0.85485830       0.38755070       0.74623326 </v>
   <v>       0.86293366       0.87722968       0.23851939 </v>
   <v>       0.86732725       0.88607216       0.75090242 </v>
   <v>       0.45815341       0.00483360       0.61988355 </v>
   <v>       0.25536555       0.24501179       0.87405335 </v>
   <v>       0.37300922       0.62108747       0.24261284 </v>
   <v>       0.87379813       0.12508285       0.25069630 </v>
   <v>       0.13253090       0.87143920       0.74618132 </v>
   <v>       0.87157465       0.62863133       0.25564822 </v>
   <v>       0.87199244       0.62944740       0.75820780 </v>
   <v>       0.13109081       0.37118889       0.24956966 </v>
   <v>       0.26620502       0.77754855       0.87670664 </v>
   <v>       0.74387337       0.24752066       0.12327831 </v>
   <v>       0.38660225       0.64621924       0.75402820 </v>
   <v>       0.59182974       0.86822114       0.24102040 </v>
   <v>       0.60148945       0.84312495       0.74634611 </v>
   <v>       0.39191704       0.34074361       0.99958317 </v>
   <v>       0.37592024       0.37832065       0.50952701 </v>
   <v>       0.88751351       0.13570381       0.75468904 </v>
   <v>       0.63293405       0.61939008       0.49140425 </v>
   <v>       0.87483967       0.38110841       0.50357245 </v>
   <v>       0.85663025       0.89821467       0.99761187 </v>
   <v>       0.87101759       0.87767238       0.50879072 </v>
   <v>       0.13599104       0.11631788       0.49335630 </v>
   <v>       0.14024115       0.60854359       0.99882100 </v>
   <v>       0.61214144       0.14222877       0.00286403 </v>
   <v>       0.13308933       0.87341207       0.49916830 </v>
   <v>       0.84440312       0.39834558       0.00306359 </v>
   <v>       0.88083439       0.12762943       0.50098819 </v>
   <v>       0.11248005       0.36314867       0.00247168 </v>
   <v>       0.99741157       0.50349970       0.12402131 </v>
   <v>       0.11483244       0.86111900       0.00537654 </v>
   <v>       0.12540460       0.37224275       0.73815753 </v>
   <v>       0.62330093       0.37448464       0.49877953 </v>
   <v>       0.59343427       0.85253760       0.00842098 </v>
   <v>       0.61482700       0.86310816       0.51041153 </v>
   <v>       0.62292829       0.12712963       0.50043041 </v>
   <v>       0.27745810       0.76993403       0.36992896 </v>
   <v>       0.39376825       0.64680845       0.99681793 </v>
   <v>       0.89222294       0.14132245       0.98818970 </v>
   <v>       0.74745204       0.25692209       0.62942726 </v>
   <v>       0.88750091       0.64048073       0.99281133 </v>
   <v>       0.88099720       0.63201732       0.49000548 </v>
   <v>       0.99537534       0.01099434       0.12235615 </v>
   <v>       0.00142456       0.00400212       0.62426425 </v>
   <v>      -0.00003940       0.51684980       0.62287337 </v>
   <v>       0.37715891       0.07979432       0.22821797 </v>
   <v>       0.13431123       0.61843811       0.49316397 </v>
   <v>       0.52166990       0.49316397       0.11240251 </v>
   <v>       0.52558141       0.50480071       0.63436798 </v>
   <v>       0.99179450       0.98697072       0.37457122 </v>
   <v>       0.00553270       0.99286621       0.87446885 </v>
   <v>       0.00436550       0.49195090       0.37438891 </v>
   <v>       0.00314282       0.48565434       0.87500919 </v>
   <v>       0.45746944       0.98899760       0.39420092 </v>
   <v>       0.45687858       0.01263833       0.86255255 </v>
   <v>       0.27935791       0.23667184       0.37758888 </v>
   <v>       0.27581472       0.21932509       0.62022872 </v>
   <v>       0.12214823       0.37081955       0.50609279 </v>
   <v>       0.12509250       0.12489588       0.25433527 </v>
   <v>       0.75653845       0.25398204       0.37571869 </v>
   <v>       0.73166386       0.26981080       0.87212506 </v>
   <v>       0.74422679       0.77139401       0.37352383 </v>
   <v>       0.72124421       0.72893851       0.87858990 </v>
   <v>       0.25623950       0.23713000       0.12082884 </v>
   <v>       0.87563595       0.37355076       0.24693123 </v>
   <v>       0.28347987       0.78177034       0.12360866 </v>
   <v>       0.27005984       0.76398621       0.62577165 </v>
   <v>       0.15057082       0.10452673       0.99706348 </v>
   <v>       0.38651679       0.63628708       0.50366347 </v>
   <v>       0.74095876       0.73107947       0.11979585 </v>
   <v>       0.74760491       0.72911647       0.62711000 </v>
  </varray>
 </structure>
</modeling>
