       N       E                     dE             d eps       ncg     rms          rms(c)
DAV:   1    -0.112034995793E+04   -0.11203E+04   -0.46946E-02 13320   0.501E-01    0.460E-02
RMM:   2    -0.112034995495E+04    0.29763E-05   -0.56360E-05  7152   0.119E-02    0.804E-02
RMM:   3    -0.112034995508E+04   -0.12397E-06   -0.13162E-05  6782   0.691E-03    0.776E-03
RMM:   4    -0.112034995541E+04   -0.33586E-06   -0.48926E-06  4254   0.276E-03    0.500E-03
RMM:   5    -0.112034995573E+04   -0.31943E-06   -0.26725E-06  3931   0.312E-03    0.551E-03
RMM:   6    -0.112034995588E+04   -0.14373E-06   -0.15717E-06  2924   0.219E-03    0.141E-03
RMM:   7    -0.112034995595E+04   -0.69122E-07   -0.87819E-07  2467   0.227E-03    0.111E-03
RMM:   8    -0.112034995599E+04   -0.46581E-07   -0.56703E-07  2146   0.200E-03
   1 F= -.11203500E+04 E0= -.11203500E+04  d E =-.112035E+04  mag=    40.0000
       N       E                     dE             d eps       ncg     rms          rms(c)
DAV:   1    -0.112035025007E+04   -0.29413E-03   -0.64786E-01 12416   0.953E-01    0.393E-01
RMM:   2    -0.112035185139E+04   -0.16013E-02   -0.20520E-02 12308   0.192E-01    0.307E-01
RMM:   3    -0.112035180165E+04    0.49736E-04   -0.11530E-03 12281   0.607E-02    0.170E-01
RMM:   4    -0.112035166647E+04    0.13519E-03   -0.42241E-04 10442   0.252E-02    0.107E-01
RMM:   5    -0.112035163013E+04    0.36335E-04   -0.96680E-05  7538   0.152E-02    0.586E-02
RMM:   6    -0.112035163035E+04   -0.21624E-06   -0.31058E-05  7156   0.848E-03    0.250E-02
RMM:   7    -0.112035162934E+04    0.10103E-05   -0.13478E-05  7047   0.620E-03    0.224E-02
RMM:   8    -0.112035162838E+04    0.96313E-06   -0.76612E-06  6684   0.391E-03
   2 F= -.11203516E+04 E0= -.11203516E+04  d E =-.167238E-02  mag=    40.0000
       N       E                     dE             d eps       ncg     rms          rms(c)
DAV:   1    -0.112035162756E+04    0.17792E-05   -0.17751E-03 12968   0.501E-02    0.202E-02
RMM:   2    -0.112035163173E+04   -0.41750E-05   -0.50830E-05  6651   0.107E-02    0.185E-02
RMM:   3    -0.112035163219E+04   -0.45712E-06   -0.65281E-06  6076   0.490E-03    0.944E-03
RMM:   4    -0.112035163183E+04    0.35722E-06   -0.16654E-06  4065   0.254E-03    0.843E-03
RMM:   5    -0.112035163158E+04    0.25205E-06   -0.77373E-07  3492   0.223E-03    0.340E-03
RMM:   6    -0.112035163157E+04    0.11918E-07   -0.13900E-07  1511   0.172E-03    0.117E-03
RMM:   7    -0.112035163165E+04   -0.76092E-07   -0.13232E-08  1131   0.166E-03    0.606E-04
RMM:   8    -0.112035163169E+04   -0.45358E-07   -0.41898E-09  1029   0.166E-03
   3 F= -.11203516E+04 E0= -.11203516E+04  d E =-.167570E-02  mag=    40.0000
       N       E                     dE             d eps       ncg     rms          rms(c)
DAV:   1    -0.112035154661E+04    0.85037E-04   -0.53408E-01 12544   0.869E-01    0.267E-01
RMM:   2    -0.112035304412E+04   -0.14975E-02   -0.13889E-02 12361   0.159E-01    0.174E-01
RMM:   3    -0.112035311506E+04   -0.70941E-04   -0.73345E-04 11064   0.511E-02    0.102E-01
RMM:   4    -0.112035306569E+04    0.49373E-04   -0.16591E-04  7420   0.171E-02    0.573E-02
RMM:   5    -0.112035305970E+04    0.59855E-05   -0.76715E-05  7156   0.121E-02    0.501E-02
RMM:   6    -0.112035306175E+04   -0.20518E-05   -0.26036E-05  6972   0.893E-03    0.196E-02
RMM:   7    -0.112035306311E+04   -0.13621E-05   -0.12535E-05  6573   0.470E-03    0.102E-02
RMM:   8    -0.112035306387E+04   -0.75763E-06   -0.70011E-06  6221   0.467E-03
   4 F= -.11203531E+04 E0= -.11203531E+04  d E =-.143218E-02  mag=    40.0000
