<?xml version="1.0" encoding="ISO-8859-1"?>
<modeling>
 <generator>
  <i name="program" type="string">vasp </i>
  <i name="version" type="string">5.4.1  </i>
  <i name="subversion" type="string">05Feb16 (build Jan 25 2017 20:16:33) complex                          parallel </i>
  <i name="platform" type="string">BWXE6 </i>
  <i name="date" type="string">2019 06 22 </i>
  <i name="time" type="string">03:11:15 </i>
 </generator>
 <incar>
  <i type="string" name="SYSTEM"> STF</i>
  <i type="string" name="PREC">normal</i>
  <i type="string" name="ALGO"> Fast</i>
  <i type="int" name="ISPIN">     2</i>
  <i type="int" name="NELM">    40</i>
  <i type="int" name="NELMIN">     8</i>
  <i type="int" name="IBRION">     2</i>
  <i name="EDIFF">      0.00010000</i>
  <i name="EDIFFG">     -0.03000000</i>
  <i type="int" name="NSW">    30</i>
  <i type="int" name="ISIF">     3</i>
  <i name="ENCUT">    520.00000000</i>
  <i type="int" name="NBANDS">   768</i>
  <v name="MAGMOM">      0.60000000      0.60000000      0.60000000      0.60000000      0.60000000      0.60000000      0.60000000      0.60000000      0.60000000      0.60000000      0.60000000      0.60000000      0.60000000      0.60000000      0.60000000      0.60000000      0.60000000      0.60000000      0.60000000      0.60000000
      0.60000000      0.60000000      0.60000000      0.60000000      0.60000000      0.60000000      0.60000000      0.60000000      0.60000000      0.60000000      0.60000000      0.60000000      0.60000000      0.60000000      0.60000000      0.60000000      0.60000000      0.60000000      0.60000000      0.60000000
      0.60000000      0.60000000      0.60000000      0.60000000      0.60000000      0.60000000      0.60000000      0.60000000      0.60000000      0.60000000      0.60000000      0.60000000      0.60000000      0.60000000      0.60000000      0.60000000      5.00000000      5.00000000      5.00000000      5.00000000
      5.00000000      5.00000000      5.00000000      5.00000000      0.60000000      0.60000000      0.60000000      0.60000000      0.60000000      0.60000000      0.60000000      0.60000000      0.60000000      0.60000000      0.60000000      0.60000000      0.60000000      0.60000000      0.60000000      0.60000000
      0.60000000      0.60000000      0.60000000      0.60000000      0.60000000      0.60000000      0.60000000      0.60000000      0.60000000      0.60000000      0.60000000      0.60000000      0.60000000      0.60000000      0.60000000      0.60000000      0.60000000      0.60000000      0.60000000      0.60000000
      0.60000000      0.60000000      0.60000000      0.60000000      0.60000000      0.60000000      0.60000000      0.60000000      0.60000000      0.60000000      0.60000000      0.60000000      0.60000000      0.60000000      0.60000000      0.60000000      0.60000000      0.60000000      0.60000000      0.60000000
      0.60000000      0.60000000      0.60000000      0.60000000      0.60000000      0.60000000      0.60000000      0.60000000      0.60000000      0.60000000      0.60000000      0.60000000      0.60000000      0.60000000      0.60000000      0.60000000      0.60000000      0.60000000      0.60000000      0.60000000
      0.60000000      0.60000000      0.60000000      0.60000000      0.60000000      0.60000000      0.60000000      0.60000000      0.60000000      0.60000000      0.60000000      0.60000000      0.60000000      0.60000000      0.60000000      0.60000000</v>
  <i type="string" name="LREAL"> Auto</i>
  <i type="int" name="ISMEAR">     0</i>
  <i name="SIGMA">      0.05000000</i>
  <i type="int" name="LMAXMIX">     4</i>
  <v type="int" name="KPOINT_BSE">    -1     0     0     0</v>
  <i type="int" name="NELM">    40</i>
  <i type="logical" name="LDAU"> T  </i>
  <v type="int" name="LDAUTYPE">     2</v>
  <v type="int" name="LDAUL">     0     2     2     0</v>
  <v name="LDAUU">      0.00000000      3.00000000      5.00000000      0.00000000</v>
  <v name="LDAUJ">      0.00000000      0.00000000      0.00000000      0.00000000</v>
  <i type="int" name="LDAUPRINT">     1</i>
 </incar>
 <kpoints>
  <generation param="Monkhorst-Pack">
   <v type="int" name="divisions">       2        2        2 </v>
   <v name="usershift">      0.00000000       0.00000000       0.00000000 </v>
   <v name="genvec1">      0.50000000      -0.00000000       0.00000000 </v>
   <v name="genvec2">     -0.00000000       0.50000000       0.00000000 </v>
   <v name="genvec3">      0.00000000       0.00000000       0.50000000 </v>
   <v name="shift">      0.50000000       0.50000000       0.50000000 </v>
  </generation>
  <varray name="kpointlist" >
   <v>       0.25000000       0.25000000       0.25000000 </v>
   <v>      -0.25000000       0.25000000       0.25000000 </v>
   <v>       0.25000000      -0.25000000       0.25000000 </v>
   <v>      -0.25000000      -0.25000000       0.25000000 </v>
  </varray>
  <varray name="weights" >
   <v>       0.25000000 </v>
   <v>       0.25000000 </v>
   <v>       0.25000000 </v>
   <v>       0.25000000 </v>
  </varray>
 </kpoints>
 <parameters>
  <separator name="general" >
   <i type="string" name="SYSTEM">STF</i>
   <i type="logical" name="LCOMPAT"> F  </i>
  </separator>
  <separator name="electronic" >
   <i type="string" name="PREC">normal</i>
   <i name="ENMAX">    520.00000000</i>
   <i name="ENAUG">    605.39200000</i>
   <i name="EDIFF">      0.00010000</i>
   <i type="int" name="IALGO">    68</i>
   <i type="int" name="IWAVPR">    11</i>
   <i type="int" name="NBANDS">   768</i>
   <i name="NELECT">   1032.00000000</i>
   <i type="int" name="TURBO">     0</i>
   <i type="int" name="IRESTART">     0</i>
   <i type="int" name="NREBOOT">     0</i>
   <i type="int" name="NMIN">     0</i>
   <i name="EREF">      0.00000000</i>
   <separator name="electronic smearing" >
    <i type="int" name="ISMEAR">     0</i>
    <i name="SIGMA">      0.05000000</i>
    <i name="KSPACING">      0.50000000</i>
    <i type="logical" name="KGAMMA"> T  </i>
   </separator>
   <separator name="electronic projectors" >
    <i type="logical" name="LREAL"> T  </i>
    <v name="ROPT">     -0.00050000     -0.00050000     -0.00050000     -0.00050000</v>
    <i type="int" name="LMAXPAW">  -100</i>
    <i type="int" name="LMAXMIX">     4</i>
    <i type="logical" name="NLSPLINE"> F  </i>
   </separator>
   <separator name="electronic startup" >
    <i type="int" name="ISTART">     1</i>
    <i type="int" name="ICHARG">     0</i>
    <i type="int" name="INIWAV">     1</i>
   </separator>
   <separator name="electronic spin" >
    <i type="int" name="ISPIN">     2</i>
    <i type="logical" name="LNONCOLLINEAR"> F  </i>
    <v name="MAGMOM">      0.60000000      0.60000000      0.60000000      0.60000000      0.60000000      0.60000000      0.60000000      0.60000000      0.60000000      0.60000000      0.60000000      0.60000000      0.60000000      0.60000000      0.60000000      0.60000000      0.60000000      0.60000000      0.60000000      0.60000000
      0.60000000      0.60000000      0.60000000      0.60000000      0.60000000      0.60000000      0.60000000      0.60000000      0.60000000      0.60000000      0.60000000      0.60000000      0.60000000      0.60000000      0.60000000      0.60000000      0.60000000      0.60000000      0.60000000      0.60000000
      0.60000000      0.60000000      0.60000000      0.60000000      0.60000000      0.60000000      0.60000000      0.60000000      0.60000000      0.60000000      0.60000000      0.60000000      0.60000000      0.60000000      0.60000000      0.60000000      5.00000000      5.00000000      5.00000000      5.00000000
      5.00000000      5.00000000      5.00000000      5.00000000      0.60000000      0.60000000      0.60000000      0.60000000      0.60000000      0.60000000      0.60000000      0.60000000      0.60000000      0.60000000      0.60000000      0.60000000      0.60000000      0.60000000      0.60000000      0.60000000
      0.60000000      0.60000000      0.60000000      0.60000000      0.60000000      0.60000000      0.60000000      0.60000000      0.60000000      0.60000000      0.60000000      0.60000000      0.60000000      0.60000000      0.60000000      0.60000000      0.60000000      0.60000000      0.60000000      0.60000000
      0.60000000      0.60000000      0.60000000      0.60000000      0.60000000      0.60000000      0.60000000      0.60000000      0.60000000      0.60000000      0.60000000      0.60000000      0.60000000      0.60000000      0.60000000      0.60000000      0.60000000      0.60000000      0.60000000      0.60000000
      0.60000000      0.60000000      0.60000000      0.60000000      0.60000000      0.60000000      0.60000000      0.60000000      0.60000000      0.60000000      0.60000000      0.60000000      0.60000000      0.60000000      0.60000000      0.60000000      0.60000000      0.60000000      0.60000000      0.60000000
      0.60000000      0.60000000      0.60000000      0.60000000      0.60000000      0.60000000      0.60000000      0.60000000      0.60000000      0.60000000      0.60000000      0.60000000      0.60000000      0.60000000      0.60000000      0.60000000</v>
    <i name="NUPDOWN">     -1.00000000</i>
    <i type="logical" name="LSORBIT"> F  </i>
    <v name="SAXIS">      0.00000000      0.00000000      1.00000000</v>
    <i type="logical" name="LSPIRAL"> F  </i>
    <v name="QSPIRAL">      0.00000000      0.00000000      0.00000000</v>
    <i type="logical" name="LZEROZ"> F  </i>
   </separator>
   <separator name="electronic exchange-correlation" >
    <i type="logical" name="LASPH"> F  </i>
    <i type="logical" name="LMETAGGA"> F  </i>
   </separator>
   <separator name="electronic convergence" >
    <i type="int" name="NELM">    40</i>
    <i type="int" name="NELMDL">     0</i>
    <i type="int" name="NELMIN">     8</i>
    <i name="ENINI">    520.00000000</i>
    <separator name="electronic convergence detail" >
     <i type="logical" name="LDIAG"> T  </i>
     <i type="logical" name="LSUBROT"> F  </i>
     <i name="WEIMIN">      0.00100000</i>
     <i name="EBREAK">      0.00000003</i>
     <i name="DEPER">      0.30000000</i>
     <i type="int" name="NRMM">     4</i>
     <i name="TIME">      0.40000000</i>
    </separator>
   </separator>
   <separator name="electronic mixer" >
    <i name="AMIX">      0.40000000</i>
    <i name="BMIX">      1.00000000</i>
    <i name="AMIN">      0.10000000</i>
    <i name="AMIX_MAG">      1.60000000</i>
    <i name="BMIX_MAG">      1.00000000</i>
    <separator name="electronic mixer details" >
     <i type="int" name="IMIX">     4</i>
     <i type="logical" name="MIXFIRST"> F  </i>
     <i type="int" name="MAXMIX">   -45</i>
     <i name="WC">    100.00000000</i>
     <i type="int" name="INIMIX">     1</i>
     <i type="int" name="MIXPRE">     1</i>
     <i type="int" name="MREMOVE">     5</i>
    </separator>
   </separator>
   <separator name="electronic dipolcorrection" >
    <i type="logical" name="LDIPOL"> F  </i>
    <i type="logical" name="LMONO"> F  </i>
    <i type="int" name="IDIPOL">     0</i>
    <i name="EPSILON">      1.00000000</i>
    <v name="DIPOL">   -100.00000000   -100.00000000   -100.00000000</v>
    <i name="EFIELD">      0.00000000</i>
   </separator>
  </separator>
  <separator name="grids" >
   <i type="int" name="NGX">    64</i>
   <i type="int" name="NGY">    64</i>
   <i type="int" name="NGZ">    90</i>
   <i type="int" name="NGXF">   128</i>
   <i type="int" name="NGYF">   128</i>
   <i type="int" name="NGZF">   180</i>
   <i type="logical" name="ADDGRID"> F  </i>
  </separator>
  <separator name="ionic" >
   <i type="int" name="NSW">    30</i>
   <i type="int" name="IBRION">     2</i>
   <i type="int" name="ISIF">     3</i>
   <i name="PSTRESS">      0.00000000</i>
   <i name="EDIFFG">     -0.03000000</i>
   <i type="int" name="NFREE">     1</i>
   <i name="POTIM">      0.50000000</i>
   <i name="SMASS">     -3.00000000</i>
   <i name="SCALEE">      1.00000000</i>
  </separator>
  <separator name="ionic md" >
   <i name="TEBEG">      0.00010000</i>
   <i name="TEEND">      0.00010000</i>
   <i type="int" name="NBLOCK">     1</i>
   <i type="int" name="KBLOCK">    30</i>
   <i type="int" name="NPACO">   256</i>
   <i name="APACO">     16.00000000</i>
  </separator>
  <separator name="symmetry" >
   <i type="int" name="ISYM">     2</i>
   <i name="SYMPREC">      0.00001000</i>
  </separator>
  <separator name="dos" >
   <i type="logical" name="LORBIT"> F  </i>
   <v name="RWIGS">     -1.00000000     -1.00000000     -1.00000000     -1.00000000</v>
   <i type="int" name="NEDOS">   301</i>
   <i name="EMIN">     10.00000000</i>
   <i name="EMAX">    -10.00000000</i>
   <i name="EFERMI">      0.00000000</i>
  </separator>
  <separator name="writing" >
   <i type="int" name="NWRITE">     2</i>
   <i type="logical" name="LWAVE"> T  </i>
   <i type="logical" name="LCHARG"> T  </i>
   <i type="logical" name="LPARD"> F  </i>
   <i type="logical" name="LVTOT"> F  </i>
   <i type="logical" name="LVHAR"> F  </i>
   <i type="logical" name="LELF"> F  </i>
   <i type="logical" name="LOPTICS"> F  </i>
   <v name="STM">      0.00000000      0.00000000      0.00000000      0.00000000      0.00000000      0.00000000      0.00000000</v>
  </separator>
  <separator name="performance" >
   <i type="int" name="NPAR">     2</i>
   <i type="int" name="NSIM">     4</i>
   <i type="int" name="NBLK">    -1</i>
   <i type="logical" name="LPLANE"> T  </i>
   <i type="logical" name="LSCALAPACK"> T  </i>
   <i type="logical" name="LSCAAWARE"> F  </i>
   <i type="logical" name="LSCALU"> F  </i>
   <i type="logical" name="LASYNC"> F  </i>
   <i type="logical" name="LORBITALREAL"> F  </i>
  </separator>
  <separator name="miscellaneous" >
   <i type="int" name="IDIOT">     3</i>
   <i type="logical" name="LMUSIC"> F  </i>
   <v name="POMASS">     87.62000000     47.88000000     55.84700000     16.00000000</v>
   <v name="DARWINR">      0.00000000      0.00000000      0.00000000      0.00000000</v>
   <v name="DARWINV">      1.00000000      1.00000000      1.00000000      1.00000000</v>
   <i type="logical" name="LCORR"> T  </i>
  </separator>
  <i type="logical" name="GGA_COMPAT"> T  </i>
  <i type="logical" name="LBERRY"> F  </i>
  <i type="int" name="ICORELEVEL">     0</i>
  <i type="logical" name="LDAU"> T  </i>
  <v type="int" name="LDAUTYPE">     2</v>
  <v type="int" name="LDAUL">     0</v>
  <v name="LDAUU">      0.00000000</v>
  <v name="LDAUJ">      0.00000000</v>
  <i type="int" name="LDAUPRINT">     1</i>
  <i type="int" name="I_CONSTRAINED_M">     0</i>
  <separator name="electronic exchange-correlation" >
   <i type="string" name="GGA">--</i>
   <i type="int" name="VOSKOWN">     0</i>
   <i type="logical" name="LHFCALC"> F  </i>
   <i type="string" name="PRECFOCK"></i>
   <i type="logical" name="LSYMGRAD"> F  </i>
   <i type="logical" name="LHFONE"> F  </i>
   <i type="logical" name="LRHFCALC"> F  </i>
   <i type="logical" name="LTHOMAS"> F  </i>
   <i type="logical" name="LMODELHF"> F  </i>
   <i name="ENCUT4O">     -1.00000000</i>
   <i type="int" name="EXXOEP">     0</i>
   <i type="int" name="FOURORBIT">     0</i>
   <i name="AEXX">      0.00000000</i>
   <i name="HFALPHA">      0.00000000</i>
   <i name="MCALPHA">      0.00000000</i>
   <i name="ALDAX">      1.00000000</i>
   <i name="AGGAX">      1.00000000</i>
   <i name="ALDAC">      1.00000000</i>
   <i name="AGGAC">      1.00000000</i>
   <i type="int" name="NKREDX">     1</i>
   <i type="int" name="NKREDY">     1</i>
   <i type="int" name="NKREDZ">     1</i>
   <i type="logical" name="SHIFTRED"> F  </i>
   <i type="logical" name="ODDONLY"> F  </i>
   <i type="logical" name="EVENONLY"> F  </i>
   <i type="int" name="LMAXFOCK">     0</i>
   <i type="int" name="NMAXFOCKAE">     0</i>
   <i type="logical" name="LFOCKAEDFT"> F  </i>
   <i name="HFSCREEN">      0.00000000</i>
   <i name="HFSCREENC">      0.00000000</i>
   <i type="int" name="NBANDSGWLOW">     0</i>
  </separator>
  <separator name="vdW DFT" >
   <i type="logical" name="LUSE_VDW"> F  </i>
   <i name="Zab_VDW">     -0.84910000</i>
   <i name="PARAM1">      0.12340000</i>
   <i name="PARAM2">      1.00000000</i>
   <i name="PARAM3">      0.00000000</i>
  </separator>
  <separator name="model GW" >
   <i type="int" name="MODEL_GW">     0</i>
   <i name="MODEL_EPS0">      7.69914525</i>
   <i name="MODEL_ALPHA">      1.00000000</i>
  </separator>
  <separator name="linear response parameters" >
   <i type="logical" name="LEPSILON"> F  </i>
   <i type="logical" name="LRPA"> F  </i>
   <i type="logical" name="LNABLA"> F  </i>
   <i type="logical" name="LVEL"> F  </i>
   <i type="int" name="KINTER">     0</i>
   <i name="CSHIFT">      0.10000000</i>
   <i name="OMEGAMAX">     -1.00000000</i>
   <i name="DEG_THRESHOLD">      0.00200000</i>
  </separator>
  <separator name="orbital magnetization" >
   <i type="logical" name="NUCIND"> F  </i>
   <v name="MAGPOS">      0.00000000      0.00000000      0.00000000</v>
   <i type="logical" name="LNICSALL"> T  </i>
   <i type="logical" name="ORBITALMAG"> F  </i>
   <i type="logical" name="LMAGBLOCH"> F  </i>
   <i type="logical" name="LCHIMAG"> F  </i>
   <i type="logical" name="LGAUGE"> T  </i>
   <i type="int" name="MAGATOM">     0</i>
   <v name="MAGDIPOL">      0.00000000      0.00000000      0.00000000</v>
   <v name="AVECCONST">      0.00000000      0.00000000      0.00000000</v>
  </separator>
  <separator name="response functions" >
   <i type="logical" name="LADDER"> F  </i>
   <i type="logical" name="LFXC"> F  </i>
   <i type="logical" name="LHARTREE"> T  </i>
   <i type="int" name="IBSE">     0</i>
   <v type="int" name="KPOINT">    -1     0     0     0</v>
   <i type="logical" name="LTCTE"> F  </i>
   <i type="logical" name="LTETE"> F  </i>
   <i type="logical" name="LTRIPLET"> F  </i>
   <i type="logical" name="LFXCEPS"> F  </i>
   <i type="logical" name="LFXHEG"> F  </i>
   <i type="int" name="NATURALO">     0</i>
   <i type="logical" name="L2ORDER"> F  </i>
   <i type="logical" name="LUSEW"> F  </i>
   <i name="ENCUTGW">     -2.00000000</i>
   <i name="ENCUTGWSOFT">     -2.00000000</i>
   <i name="ENCUTLF">     -1.00000000</i>
   <i type="int" name="LMAXMP2">    -1</i>
   <i name="SCISSOR">      0.00000000</i>
   <i type="int" name="NOMEGA">     0</i>
   <i type="int" name="NOMEGAR">     0</i>
   <i type="int" name="NBANDSGW">    -1</i>
   <i type="int" name="NBANDSO">    -1</i>
   <i type="int" name="NBANDSV">    -1</i>
   <i type="int" name="NELM">    40</i>
   <i type="int" name="NELMHF">     1</i>
   <i type="int" name="DIM">     3</i>
   <i type="int" name="ANTIRES">     0</i>
   <i name="OMEGAMAX">    -30.00000000</i>
   <i name="OMEGAMIN">    -30.00000000</i>
   <i name="OMEGATL">   -200.00000000</i>
   <i type="int" name="OMEGAGRID">     0</i>
   <i name="CSHIFT">     -0.10000000</i>
   <i type="logical" name="SELFENERGY"> F  </i>
   <i type="logical" name="LSPECTRAL"> F  </i>
   <i type="logical" name="LSPECTRALGW"> F  </i>
   <i type="logical" name="LSINGLES"> F  </i>
   <i type="logical" name="LFERMIGW"> F  </i>
   <i type="logical" name="ODDONLYGW"> F  </i>
   <i type="logical" name="EVENONLYGW"> F  </i>
   <i type="int" name="NKREDLFX">     1</i>
   <i type="int" name="NKREDLFY">     1</i>
   <i type="int" name="NKREDLFZ">     1</i>
   <i type="int" name="MAXMEM">  1800</i>
   <i type="int" name="TELESCOPE">     0</i>
   <i type="int" name="TAUPAR">     1</i>
   <i type="int" name="OMEGAPAR">    -1</i>
   <i name="LAMBDA">      1.00000000</i>
  </separator>
  <separator name="External order field" >
   <i name="OFIELD_KAPPA">      0.00000000</i>
   <v name="OFIELD_K">      0.00000000      0.00000000      0.00000000</v>
   <i name="OFIELD_Q6_NEAR">      0.00000000</i>
   <i name="OFIELD_Q6_FAR">      0.00000000</i>
   <i name="OFIELD_A">      0.00000000</i>
  </separator>
 </parameters>
 <atominfo>
  <atoms>     156 </atoms>
  <types>       4 </types>
  <array name="atoms" >
   <dimension dim="1">ion</dimension>
   <field type="string">element</field>
   <field type="int">atomtype</field>
   <set>
    <rc><c>Sr</c><c>   1</c></rc>
    <rc><c>Sr</c><c>   1</c></rc>
    <rc><c>Sr</c><c>   1</c></rc>
    <rc><c>Sr</c><c>   1</c></rc>
    <rc><c>Sr</c><c>   1</c></rc>
    <rc><c>Sr</c><c>   1</c></rc>
    <rc><c>Sr</c><c>   1</c></rc>
    <rc><c>Sr</c><c>   1</c></rc>
    <rc><c>Sr</c><c>   1</c></rc>
    <rc><c>Sr</c><c>   1</c></rc>
    <rc><c>Sr</c><c>   1</c></rc>
    <rc><c>Sr</c><c>   1</c></rc>
    <rc><c>Sr</c><c>   1</c></rc>
    <rc><c>Sr</c><c>   1</c></rc>
    <rc><c>Sr</c><c>   1</c></rc>
    <rc><c>Sr</c><c>   1</c></rc>
    <rc><c>Sr</c><c>   1</c></rc>
    <rc><c>Sr</c><c>   1</c></rc>
    <rc><c>Sr</c><c>   1</c></rc>
    <rc><c>Sr</c><c>   1</c></rc>
    <rc><c>Sr</c><c>   1</c></rc>
    <rc><c>Sr</c><c>   1</c></rc>
    <rc><c>Sr</c><c>   1</c></rc>
    <rc><c>Sr</c><c>   1</c></rc>
    <rc><c>Sr</c><c>   1</c></rc>
    <rc><c>Sr</c><c>   1</c></rc>
    <rc><c>Sr</c><c>   1</c></rc>
    <rc><c>Sr</c><c>   1</c></rc>
    <rc><c>Sr</c><c>   1</c></rc>
    <rc><c>Sr</c><c>   1</c></rc>
    <rc><c>Sr</c><c>   1</c></rc>
    <rc><c>Sr</c><c>   1</c></rc>
    <rc><c>Ti</c><c>   2</c></rc>
    <rc><c>Ti</c><c>   2</c></rc>
    <rc><c>Ti</c><c>   2</c></rc>
    <rc><c>Ti</c><c>   2</c></rc>
    <rc><c>Ti</c><c>   2</c></rc>
    <rc><c>Ti</c><c>   2</c></rc>
    <rc><c>Ti</c><c>   2</c></rc>
    <rc><c>Ti</c><c>   2</c></rc>
    <rc><c>Ti</c><c>   2</c></rc>
    <rc><c>Ti</c><c>   2</c></rc>
    <rc><c>Ti</c><c>   2</c></rc>
    <rc><c>Ti</c><c>   2</c></rc>
    <rc><c>Ti</c><c>   2</c></rc>
    <rc><c>Ti</c><c>   2</c></rc>
    <rc><c>Ti</c><c>   2</c></rc>
    <rc><c>Ti</c><c>   2</c></rc>
    <rc><c>Ti</c><c>   2</c></rc>
    <rc><c>Ti</c><c>   2</c></rc>
    <rc><c>Ti</c><c>   2</c></rc>
    <rc><c>Ti</c><c>   2</c></rc>
    <rc><c>Ti</c><c>   2</c></rc>
    <rc><c>Ti</c><c>   2</c></rc>
    <rc><c>Ti</c><c>   2</c></rc>
    <rc><c>Ti</c><c>   2</c></rc>
    <rc><c>Fe</c><c>   3</c></rc>
    <rc><c>Fe</c><c>   3</c></rc>
    <rc><c>Fe</c><c>   3</c></rc>
    <rc><c>Fe</c><c>   3</c></rc>
    <rc><c>Fe</c><c>   3</c></rc>
    <rc><c>Fe</c><c>   3</c></rc>
    <rc><c>Fe</c><c>   3</c></rc>
    <rc><c>Fe</c><c>   3</c></rc>
    <rc><c>O </c><c>   4</c></rc>
    <rc><c>O </c><c>   4</c></rc>
    <rc><c>O </c><c>   4</c></rc>
    <rc><c>O </c><c>   4</c></rc>
    <rc><c>O </c><c>   4</c></rc>
    <rc><c>O </c><c>   4</c></rc>
    <rc><c>O </c><c>   4</c></rc>
    <rc><c>O </c><c>   4</c></rc>
    <rc><c>O </c><c>   4</c></rc>
    <rc><c>O </c><c>   4</c></rc>
    <rc><c>O </c><c>   4</c></rc>
    <rc><c>O </c><c>   4</c></rc>
    <rc><c>O </c><c>   4</c></rc>
    <rc><c>O </c><c>   4</c></rc>
    <rc><c>O </c><c>   4</c></rc>
    <rc><c>O </c><c>   4</c></rc>
    <rc><c>O </c><c>   4</c></rc>
    <rc><c>O </c><c>   4</c></rc>
    <rc><c>O </c><c>   4</c></rc>
    <rc><c>O </c><c>   4</c></rc>
    <rc><c>O </c><c>   4</c></rc>
    <rc><c>O </c><c>   4</c></rc>
    <rc><c>O </c><c>   4</c></rc>
    <rc><c>O </c><c>   4</c></rc>
    <rc><c>O </c><c>   4</c></rc>
    <rc><c>O </c><c>   4</c></rc>
    <rc><c>O </c><c>   4</c></rc>
    <rc><c>O </c><c>   4</c></rc>
    <rc><c>O </c><c>   4</c></rc>
    <rc><c>O </c><c>   4</c></rc>
    <rc><c>O </c><c>   4</c></rc>
    <rc><c>O </c><c>   4</c></rc>
    <rc><c>O </c><c>   4</c></rc>
    <rc><c>O </c><c>   4</c></rc>
    <rc><c>O </c><c>   4</c></rc>
    <rc><c>O </c><c>   4</c></rc>
    <rc><c>O </c><c>   4</c></rc>
    <rc><c>O </c><c>   4</c></rc>
    <rc><c>O </c><c>   4</c></rc>
    <rc><c>O </c><c>   4</c></rc>
    <rc><c>O </c><c>   4</c></rc>
    <rc><c>O </c><c>   4</c></rc>
    <rc><c>O </c><c>   4</c></rc>
    <rc><c>O </c><c>   4</c></rc>
    <rc><c>O </c><c>   4</c></rc>
    <rc><c>O </c><c>   4</c></rc>
    <rc><c>O </c><c>   4</c></rc>
    <rc><c>O </c><c>   4</c></rc>
    <rc><c>O </c><c>   4</c></rc>
    <rc><c>O </c><c>   4</c></rc>
    <rc><c>O </c><c>   4</c></rc>
    <rc><c>O </c><c>   4</c></rc>
    <rc><c>O </c><c>   4</c></rc>
    <rc><c>O </c><c>   4</c></rc>
    <rc><c>O </c><c>   4</c></rc>
    <rc><c>O </c><c>   4</c></rc>
    <rc><c>O </c><c>   4</c></rc>
    <rc><c>O </c><c>   4</c></rc>
    <rc><c>O </c><c>   4</c></rc>
    <rc><c>O </c><c>   4</c></rc>
    <rc><c>O </c><c>   4</c></rc>
    <rc><c>O </c><c>   4</c></rc>
    <rc><c>O </c><c>   4</c></rc>
    <rc><c>O </c><c>   4</c></rc>
    <rc><c>O </c><c>   4</c></rc>
    <rc><c>O </c><c>   4</c></rc>
    <rc><c>O </c><c>   4</c></rc>
    <rc><c>O </c><c>   4</c></rc>
    <rc><c>O </c><c>   4</c></rc>
    <rc><c>O </c><c>   4</c></rc>
    <rc><c>O </c><c>   4</c></rc>
    <rc><c>O </c><c>   4</c></rc>
    <rc><c>O </c><c>   4</c></rc>
    <rc><c>O </c><c>   4</c></rc>
    <rc><c>O </c><c>   4</c></rc>
    <rc><c>O </c><c>   4</c></rc>
    <rc><c>O </c><c>   4</c></rc>
    <rc><c>O </c><c>   4</c></rc>
    <rc><c>O </c><c>   4</c></rc>
    <rc><c>O </c><c>   4</c></rc>
    <rc><c>O </c><c>   4</c></rc>
    <rc><c>O </c><c>   4</c></rc>
    <rc><c>O </c><c>   4</c></rc>
    <rc><c>O </c><c>   4</c></rc>
    <rc><c>O </c><c>   4</c></rc>
    <rc><c>O </c><c>   4</c></rc>
    <rc><c>O </c><c>   4</c></rc>
    <rc><c>O </c><c>   4</c></rc>
    <rc><c>O </c><c>   4</c></rc>
    <rc><c>O </c><c>   4</c></rc>
    <rc><c>O </c><c>   4</c></rc>
    <rc><c>O </c><c>   4</c></rc>
   </set>
  </array>
  <array name="atomtypes" >
   <dimension dim="1">type</dimension>
   <field type="int">atomspertype</field>
   <field type="string">element</field>
   <field>mass</field>
   <field>valence</field>
   <field type="string">pseudopotential</field>
   <set>
    <rc><c>  32</c><c>Sr</c><c>     87.62000000</c><c>     10.00000000</c><c>  PAW_PBE Sr_sv 07Sep2000               </c></rc>
    <rc><c>  24</c><c>Ti</c><c>     47.88000000</c><c>      4.00000000</c><c>  PAW_PBE Ti 08Apr2002                  </c></rc>
    <rc><c>   8</c><c>Fe</c><c>     55.84700000</c><c>      8.00000000</c><c>  PAW_PBE Fe 06Sep2000                  </c></rc>
    <rc><c>  92</c><c>O </c><c>     16.00000000</c><c>      6.00000000</c><c>  PAW_PBE O 08Apr2002                   </c></rc>
   </set>
  </array>
 </atominfo>
 <structure name="initialpos" >
  <crystal>
   <varray name="basis" >
    <v>      11.22205085      -0.01616920      -0.00411815 </v>
    <v>      -0.01621457      11.21928225       0.00319217 </v>
    <v>      -0.00587184       0.00457797      15.89935673 </v>
   </varray>
   <i name="volume">   2001.77776464 </i>
   <varray name="rec_basis" >
    <v>       0.08911047       0.00012878       0.00003287 </v>
    <v>       0.00012842       0.08913245      -0.00002562 </v>
    <v>       0.00002306      -0.00001786       0.06289564 </v>
   </varray>
  </crystal>
  <varray name="positions" >
   <v>       0.00172857       0.25641142       0.13341669 </v>
   <v>       0.99881246       0.23976163       0.62704509 </v>
   <v>       0.00363985       0.74137958       0.12981196 </v>
   <v>       0.00361173       0.75930156       0.63016263 </v>
   <v>       0.49841521       0.25774292       0.13149968 </v>
   <v>       0.50174934       0.25037510       0.62631561 </v>
   <v>       0.49286544       0.74547028       0.12952497 </v>
   <v>       0.49471538       0.75060340       0.62766632 </v>
   <v>       0.99869284       0.23946227       0.36995584 </v>
   <v>       0.00238168       0.25406540       0.86936525 </v>
   <v>       0.00498244       0.75979173       0.36711404 </v>
   <v>       0.00404832       0.74371738       0.87334098 </v>
   <v>       0.50143877       0.24300180       0.37153309 </v>
   <v>       0.49763399       0.25618679       0.87162187 </v>
   <v>       0.49266537       0.75761434       0.37114049 </v>
   <v>       0.49409135       0.74573280       0.87260547 </v>
   <v>       0.24783116       0.99957758       0.12851377 </v>
   <v>       0.24694021       0.99917769       0.62705764 </v>
   <v>       0.24643367       0.50277305       0.12713494 </v>
   <v>       0.25436826       0.50223352       0.62580682 </v>
   <v>       0.75303584       0.99871760       0.13315542 </v>
   <v>       0.75560023       0.00415698       0.62275615 </v>
   <v>       0.75185737       0.49620171       0.12374926 </v>
   <v>       0.74730541       0.49687917       0.63084172 </v>
   <v>       0.24471008       0.99929979       0.37084502 </v>
   <v>       0.24727212       0.99855308       0.87336345 </v>
   <v>       0.24338545       0.50487630       0.37105650 </v>
   <v>       0.24864856       0.50188105       0.87520553 </v>
   <v>       0.75744083       0.00336622       0.37412323 </v>
   <v>       0.75398633       0.99927481       0.86790497 </v>
   <v>       0.75506600       0.49830231       0.36718552 </v>
   <v>       0.74995033       0.49786096       0.87914395 </v>
   <v>       0.00719007       0.98458333       0.00058461 </v>
   <v>       0.00204185       0.99935437       0.50050420 </v>
   <v>       0.00178527       0.49726358       0.00162168 </v>
   <v>       0.00701925       0.48737969       0.50010124 </v>
   <v>       0.49612012       0.01306623       0.00018225 </v>
   <v>       0.49635041       0.00471291       0.50008326 </v>
   <v>       0.49802104       0.50438733       0.99935997 </v>
   <v>       0.24571178       0.25503857       0.00062060 </v>
   <v>       0.25592228       0.24899551       0.49864102 </v>
   <v>       0.25041914       0.74996159       0.49938236 </v>
   <v>       0.74593539       0.25393537       0.49847643 </v>
   <v>       0.73640488       0.75527727       0.49894231 </v>
   <v>       0.24921189       0.25244363       0.25136614 </v>
   <v>       0.24943733       0.24952178       0.74957391 </v>
   <v>       0.24849121       0.74940061       0.24836727 </v>
   <v>       0.24891748       0.75146211       0.75217472 </v>
   <v>       0.75217468       0.25057796       0.24880434 </v>
   <v>       0.75146841       0.24807814       0.75188704 </v>
   <v>       0.75016023       0.74807880       0.24878200 </v>
   <v>       0.75034435       0.75064123       0.75328922 </v>
   <v>       0.99832987       0.50118665       0.74937690 </v>
   <v>       0.50200872       0.99938194       0.24944175 </v>
   <v>       0.50195957       0.99909746       0.74986955 </v>
   <v>       0.50028939       0.50027137       0.75211908 </v>
   <v>       0.50017292       0.49953925       0.50891330 </v>
   <v>       0.25448193       0.74455294       0.00038143 </v>
   <v>       0.73650784       0.25661756       0.99996532 </v>
   <v>       0.76073464       0.74177266       0.00084295 </v>
   <v>       0.99855452       0.00141563       0.24711072 </v>
   <v>       0.99891799       0.00114318       0.75032478 </v>
   <v>       0.99786159       0.50145581       0.25076099 </v>
   <v>       0.50033835       0.50120108       0.24176100 </v>
   <v>       0.11859806       0.13529659       0.24661846 </v>
   <v>       0.11517543       0.13966759       0.74902062 </v>
   <v>       0.11585291       0.63487978       0.25128616 </v>
   <v>       0.11090386       0.63830581       0.74825329 </v>
   <v>       0.61462848       0.13416003       0.24811375 </v>
   <v>       0.61079991       0.13860612       0.75255038 </v>
   <v>       0.61249114       0.63246871       0.26503201 </v>
   <v>       0.61040033       0.63925165       0.74798828 </v>
   <v>       0.38730730       0.36875236       0.26301728 </v>
   <v>       0.38908705       0.36172044       0.75050844 </v>
   <v>       0.38502961       0.86670824       0.24845718 </v>
   <v>       0.38966104       0.86196772       0.75095318 </v>
   <v>       0.88464932       0.36507164       0.25337980 </v>
   <v>       0.88890893       0.36242467       0.74542584 </v>
   <v>       0.88330283       0.86312214       0.24426851 </v>
   <v>       0.88658914       0.85954152       0.75323689 </v>
   <v>       0.36877778       0.11538963       0.24294683 </v>
   <v>       0.36383829       0.11060236       0.75594041 </v>
   <v>       0.36808113       0.61551821       0.26013363 </v>
   <v>       0.36207614       0.61175519       0.75117843 </v>
   <v>       0.86414729       0.11649398       0.25435480 </v>
   <v>       0.86084610       0.11456913       0.74252136 </v>
   <v>       0.86069947       0.61554508       0.23770337 </v>
   <v>       0.85935284       0.61184962       0.76189881 </v>
   <v>       0.13425961       0.38420394       0.25580042 </v>
   <v>       0.13687528       0.38980535       0.74316537 </v>
   <v>       0.13359999       0.88432568       0.24283170 </v>
   <v>       0.13802216       0.88730430       0.75199288 </v>
   <v>       0.63318557       0.38458704       0.25306036 </v>
   <v>       0.63917226       0.38803110       0.75707326 </v>
   <v>       0.63548621       0.88391053       0.26291455 </v>
   <v>       0.63942541       0.88711737       0.73662613 </v>
   <v>       0.35820036       0.39064506       0.99864239 </v>
   <v>       0.35834563       0.39296477       0.48957864 </v>
   <v>       0.37830729       0.88487444       0.99992116 </v>
   <v>       0.36117219       0.89092737       0.50040500 </v>
   <v>       0.86551519       0.37876946       0.99913317 </v>
   <v>       0.85539787       0.39813782       0.50110396 </v>
   <v>       0.85411920       0.89535237       0.00062689 </v>
   <v>       0.86503494       0.87847170       0.50235722 </v>
   <v>       0.13943418       0.11092139       0.00077369 </v>
   <v>       0.14174508       0.11032116       0.50270884 </v>
   <v>       0.13866073       0.60652452       0.99887623 </v>
   <v>       0.13246273       0.61289785       0.50204929 </v>
   <v>       0.65306554       0.09558294       0.99998786 </v>
   <v>       0.63984156       0.10817435       0.49953157 </v>
   <v>       0.63536538       0.61650168       0.99856683 </v>
   <v>       0.64245630       0.60641513       0.49077773 </v>
   <v>       0.10941331       0.35651489       0.99989773 </v>
   <v>       0.10717904       0.35658031       0.49987256 </v>
   <v>       0.11111055       0.85756147       0.00262718 </v>
   <v>       0.11302915       0.86057807       0.50246176 </v>
   <v>       0.60518150       0.36015551       0.99844644 </v>
   <v>       0.60465384       0.36102372       0.48912647 </v>
   <v>       0.60826088       0.85949177       0.50043941 </v>
   <v>       0.39434629       0.14266542       0.00019035 </v>
   <v>       0.39321801       0.14369553       0.50064155 </v>
   <v>       0.38997533       0.63720725       0.99861395 </v>
   <v>       0.39030758       0.63703291       0.49093846 </v>
   <v>       0.88754633       0.13901439       0.50166494 </v>
   <v>       0.89039181       0.63553695       0.99889570 </v>
   <v>       0.98558827       0.02202955       0.11752681 </v>
   <v>       0.00066668       0.99875320       0.62468977 </v>
   <v>       0.00360859       0.49632187       0.12392420 </v>
   <v>       0.98315404       0.51900638       0.62114456 </v>
   <v>       0.51605354       0.98501815       0.12200541 </v>
   <v>       0.49527877       0.00441759       0.62488710 </v>
   <v>       0.49878922       0.50045338       0.12354563 </v>
   <v>       0.50030698       0.49689678       0.62707154 </v>
   <v>       0.00167844       0.99876175       0.37623609 </v>
   <v>       0.98958250       0.01735447       0.88072825 </v>
   <v>       0.98506224       0.52048259       0.38188761 </v>
   <v>       0.00437781       0.49509582       0.87314625 </v>
   <v>       0.49397949       0.00365677       0.37554035 </v>
   <v>       0.51608945       0.98566024       0.87748147 </v>
   <v>       0.49871238       0.50073496       0.87484737 </v>
   <v>       0.24805413       0.23848952       0.37577830 </v>
   <v>       0.24890003       0.25332580       0.87486222 </v>
   <v>       0.24571538       0.75731569       0.37514900 </v>
   <v>       0.24852659       0.75097011       0.87470331 </v>
   <v>       0.75079024       0.24698447       0.37569009 </v>
   <v>       0.76338729       0.23961852       0.87675002 </v>
   <v>       0.77385667       0.73857511       0.37956323 </v>
   <v>       0.73151594       0.76403526       0.87741053 </v>
   <v>       0.25536837       0.25860515       0.12551778 </v>
   <v>       0.25741166       0.25233683       0.62380823 </v>
   <v>       0.25456209       0.74359221       0.12577126 </v>
   <v>       0.25645884       0.74781259       0.62487397 </v>
   <v>       0.75705605       0.24583273       0.12344286 </v>
   <v>       0.73956891       0.25546247       0.62395232 </v>
   <v>       0.72643727       0.75935861       0.12308288 </v>
   <v>       0.76490451       0.72900191       0.61929602 </v>
  </varray>
 </structure>
 <calculation>
  <scstep>
   <time name="dav">  592.91  592.97</time>
   <time name="total">  600.07  600.26</time>
   <energy>
    <i name="alphaZ">   5637.66694644 </i>
    <i name="ewald"> -61470.21517213 </i>
    <i name="hartreedc"> -16084.56748417 </i>
    <i name="XCdc">   2963.46976958 </i>
    <i name="pawpsdc"> 112771.19012814 </i>
    <i name="pawaedc">-111670.77800605 </i>
    <i name="eentropy">     -0.00000000 </i>
    <i name="bandstr">  -7050.56393645 </i>
    <i name="atom">  73783.44779670 </i>
    <i name="e_fr_energy">  -1120.34995793 </i>
    <i name="e_wo_entrp">  -1120.34995793 </i>
    <i name="e_0_energy">  -1120.34995793 </i>
   </energy>
  </scstep>
  <scstep>
   <time name="diag">   64.56   64.56</time>
   <time name="diis">   63.94   63.95</time>
   <time name="orth">   33.23   33.23</time>
   <time name="total">  168.97  169.03</time>
   <energy>
    <i name="e_fr_energy">  -1120.34995495 </i>
    <i name="e_wo_entrp">  -1120.34995495 </i>
    <i name="e_0_energy">  -1120.34995495 </i>
   </energy>
  </scstep>
  <scstep>
   <time name="diag">   64.63   64.63</time>
   <time name="diis">   61.53   61.54</time>
   <time name="orth">   33.22   33.22</time>
   <time name="total">  166.62  166.67</time>
   <energy>
    <i name="e_fr_energy">  -1120.34995508 </i>
    <i name="e_wo_entrp">  -1120.34995508 </i>
    <i name="e_0_energy">  -1120.34995508 </i>
   </energy>
  </scstep>
  <scstep>
   <time name="diag">   64.64   64.64</time>
   <time name="diis">   52.60   52.60</time>
   <time name="orth">   33.20   33.20</time>
   <time name="total">  157.67  157.78</time>
   <energy>
    <i name="e_fr_energy">  -1120.34995541 </i>
    <i name="e_wo_entrp">  -1120.34995541 </i>
    <i name="e_0_energy">  -1120.34995541 </i>
   </energy>
  </scstep>
  <scstep>
   <time name="diag">   64.69   64.70</time>
   <time name="diis">   51.38   51.38</time>
   <time name="orth">   33.27   33.27</time>
   <time name="total">  156.57  156.60</time>
   <energy>
    <i name="e_fr_energy">  -1120.34995573 </i>
    <i name="e_wo_entrp">  -1120.34995573 </i>
    <i name="e_0_energy">  -1120.34995573 </i>
   </energy>
  </scstep>
  <scstep>
   <time name="diag">   64.60   64.60</time>
   <time name="diis">   47.78   47.79</time>
   <time name="orth">   33.19   33.19</time>
   <time name="total">  152.82  152.94</time>
   <energy>
    <i name="e_fr_energy">  -1120.34995588 </i>
    <i name="e_wo_entrp">  -1120.34995588 </i>
    <i name="e_0_energy">  -1120.34995588 </i>
   </energy>
  </scstep>
  <scstep>
   <time name="diag">   64.58   64.58</time>
   <time name="diis">   46.29   46.29</time>
   <time name="orth">   33.23   33.24</time>
   <time name="total">  151.31  151.44</time>
   <energy>
    <i name="e_fr_energy">  -1120.34995595 </i>
    <i name="e_wo_entrp">  -1120.34995595 </i>
    <i name="e_0_energy">  -1120.34995595 </i>
   </energy>
  </scstep>
  <scstep>
   <time name="diag">   64.85   64.86</time>
   <time name="diis">   45.17   45.17</time>
   <time name="orth">   33.17   33.17</time>
   <time name="total">  144.23  144.34</time>
   <energy>
    <i name="alphaZ">   5637.66694644 </i>
    <i name="ewald"> -61470.21517213 </i>
    <i name="hartreedc"> -16084.54015659 </i>
    <i name="XCdc">   2963.46953318 </i>
    <i name="pawpsdc"> 112769.49389602 </i>
    <i name="pawaedc">-111669.06743668 </i>
    <i name="eentropy">     -0.00000000 </i>
    <i name="bandstr">  -7050.60536292 </i>
    <i name="atom">  73783.44779670 </i>
    <i name="e_fr_energy">  -1120.34995599 </i>
    <i name="e_wo_entrp">  -1120.34995599 </i>
    <i name="e_0_energy">  -1120.34995599 </i>
   </energy>
  </scstep>
  <structure>
   <crystal>
    <varray name="basis" >
     <v>      11.22205085      -0.01616920      -0.00411815 </v>
     <v>      -0.01621457      11.21928225       0.00319217 </v>
     <v>      -0.00587184       0.00457797      15.89935673 </v>
    </varray>
    <i name="volume">   2001.77776464 </i>
    <varray name="rec_basis" >
     <v>       0.08911047       0.00012878       0.00003287 </v>
     <v>       0.00012842       0.08913245      -0.00002562 </v>
     <v>       0.00002306      -0.00001786       0.06289564 </v>
    </varray>
   </crystal>
   <varray name="positions" >
    <v>       0.00172857       0.25641142       0.13341669 </v>
    <v>       0.99881246       0.23976163       0.62704509 </v>
    <v>       0.00363985       0.74137958       0.12981196 </v>
    <v>       0.00361173       0.75930156       0.63016263 </v>
    <v>       0.49841521       0.25774292       0.13149968 </v>
    <v>       0.50174934       0.25037510       0.62631561 </v>
    <v>       0.49286544       0.74547028       0.12952497 </v>
    <v>       0.49471538       0.75060340       0.62766632 </v>
    <v>       0.99869284       0.23946227       0.36995584 </v>
    <v>       0.00238168       0.25406540       0.86936525 </v>
    <v>       0.00498244       0.75979173       0.36711404 </v>
    <v>       0.00404832       0.74371738       0.87334098 </v>
    <v>       0.50143877       0.24300180       0.37153309 </v>
    <v>       0.49763399       0.25618679       0.87162187 </v>
    <v>       0.49266537       0.75761434       0.37114049 </v>
    <v>       0.49409135       0.74573280       0.87260547 </v>
    <v>       0.24783116       0.99957758       0.12851377 </v>
    <v>       0.24694021       0.99917769       0.62705764 </v>
    <v>       0.24643367       0.50277305       0.12713494 </v>
    <v>       0.25436826       0.50223352       0.62580682 </v>
    <v>       0.75303584       0.99871760       0.13315542 </v>
    <v>       0.75560023       0.00415698       0.62275615 </v>
    <v>       0.75185737       0.49620171       0.12374926 </v>
    <v>       0.74730541       0.49687917       0.63084172 </v>
    <v>       0.24471008       0.99929979       0.37084502 </v>
    <v>       0.24727212       0.99855308       0.87336345 </v>
    <v>       0.24338545       0.50487630       0.37105650 </v>
    <v>       0.24864856       0.50188105       0.87520553 </v>
    <v>       0.75744083       0.00336622       0.37412323 </v>
    <v>       0.75398633       0.99927481       0.86790497 </v>
    <v>       0.75506600       0.49830231       0.36718552 </v>
    <v>       0.74995033       0.49786096       0.87914395 </v>
    <v>       0.00719007       0.98458333       0.00058461 </v>
    <v>       0.00204185       0.99935437       0.50050420 </v>
    <v>       0.00178527       0.49726358       0.00162168 </v>
    <v>       0.00701925       0.48737969       0.50010124 </v>
    <v>       0.49612012       0.01306623       0.00018225 </v>
    <v>       0.49635041       0.00471291       0.50008326 </v>
    <v>       0.49802104       0.50438733       0.99935997 </v>
    <v>       0.24571178       0.25503857       0.00062060 </v>
    <v>       0.25592228       0.24899551       0.49864102 </v>
    <v>       0.25041914       0.74996159       0.49938236 </v>
    <v>       0.74593539       0.25393537       0.49847643 </v>
    <v>       0.73640488       0.75527727       0.49894231 </v>
    <v>       0.24921189       0.25244363       0.25136614 </v>
    <v>       0.24943733       0.24952178       0.74957391 </v>
    <v>       0.24849121       0.74940061       0.24836727 </v>
    <v>       0.24891748       0.75146211       0.75217472 </v>
    <v>       0.75217468       0.25057796       0.24880434 </v>
    <v>       0.75146841       0.24807814       0.75188704 </v>
    <v>       0.75016023       0.74807880       0.24878200 </v>
    <v>       0.75034435       0.75064123       0.75328922 </v>
    <v>       0.99832987       0.50118665       0.74937690 </v>
    <v>       0.50200872       0.99938194       0.24944175 </v>
    <v>       0.50195957       0.99909746       0.74986955 </v>
    <v>       0.50028939       0.50027137       0.75211908 </v>
    <v>       0.50017292       0.49953925       0.50891330 </v>
    <v>       0.25448193       0.74455294       0.00038143 </v>
    <v>       0.73650784       0.25661756       0.99996532 </v>
    <v>       0.76073464       0.74177266       0.00084295 </v>
    <v>       0.99855452       0.00141563       0.24711072 </v>
    <v>       0.99891799       0.00114318       0.75032478 </v>
    <v>       0.99786159       0.50145581       0.25076099 </v>
    <v>       0.50033835       0.50120108       0.24176100 </v>
    <v>       0.11859806       0.13529659       0.24661846 </v>
    <v>       0.11517543       0.13966759       0.74902062 </v>
    <v>       0.11585291       0.63487978       0.25128616 </v>
    <v>       0.11090386       0.63830581       0.74825329 </v>
    <v>       0.61462848       0.13416003       0.24811375 </v>
    <v>       0.61079991       0.13860612       0.75255038 </v>
    <v>       0.61249114       0.63246871       0.26503201 </v>
    <v>       0.61040033       0.63925165       0.74798828 </v>
    <v>       0.38730730       0.36875236       0.26301728 </v>
    <v>       0.38908705       0.36172044       0.75050844 </v>
    <v>       0.38502961       0.86670824       0.24845718 </v>
    <v>       0.38966104       0.86196772       0.75095318 </v>
    <v>       0.88464932       0.36507164       0.25337980 </v>
    <v>       0.88890893       0.36242467       0.74542584 </v>
    <v>       0.88330283       0.86312214       0.24426851 </v>
    <v>       0.88658914       0.85954152       0.75323689 </v>
    <v>       0.36877778       0.11538963       0.24294683 </v>
    <v>       0.36383829       0.11060236       0.75594041 </v>
    <v>       0.36808113       0.61551821       0.26013363 </v>
    <v>       0.36207614       0.61175519       0.75117843 </v>
    <v>       0.86414729       0.11649398       0.25435480 </v>
    <v>       0.86084610       0.11456913       0.74252136 </v>
    <v>       0.86069947       0.61554508       0.23770337 </v>
    <v>       0.85935284       0.61184962       0.76189881 </v>
    <v>       0.13425961       0.38420394       0.25580042 </v>
    <v>       0.13687528       0.38980535       0.74316537 </v>
    <v>       0.13359999       0.88432568       0.24283170 </v>
    <v>       0.13802216       0.88730430       0.75199288 </v>
    <v>       0.63318557       0.38458704       0.25306036 </v>
    <v>       0.63917226       0.38803110       0.75707326 </v>
    <v>       0.63548621       0.88391053       0.26291455 </v>
    <v>       0.63942541       0.88711737       0.73662613 </v>
    <v>       0.35820036       0.39064506       0.99864239 </v>
    <v>       0.35834563       0.39296477       0.48957864 </v>
    <v>       0.37830729       0.88487444       0.99992116 </v>
    <v>       0.36117219       0.89092737       0.50040500 </v>
    <v>       0.86551519       0.37876946       0.99913317 </v>
    <v>       0.85539787       0.39813782       0.50110396 </v>
    <v>       0.85411920       0.89535237       0.00062689 </v>
    <v>       0.86503494       0.87847170       0.50235722 </v>
    <v>       0.13943418       0.11092139       0.00077369 </v>
    <v>       0.14174508       0.11032116       0.50270884 </v>
    <v>       0.13866073       0.60652452       0.99887623 </v>
    <v>       0.13246273       0.61289785       0.50204929 </v>
    <v>       0.65306554       0.09558294       0.99998786 </v>
    <v>       0.63984156       0.10817435       0.49953157 </v>
    <v>       0.63536538       0.61650168       0.99856683 </v>
    <v>       0.64245630       0.60641513       0.49077773 </v>
    <v>       0.10941331       0.35651489       0.99989773 </v>
    <v>       0.10717904       0.35658031       0.49987256 </v>
    <v>       0.11111055       0.85756147       0.00262718 </v>
    <v>       0.11302915       0.86057807       0.50246176 </v>
    <v>       0.60518150       0.36015551       0.99844644 </v>
    <v>       0.60465384       0.36102372       0.48912647 </v>
    <v>       0.60826088       0.85949177       0.50043941 </v>
    <v>       0.39434629       0.14266542       0.00019035 </v>
    <v>       0.39321801       0.14369553       0.50064155 </v>
    <v>       0.38997533       0.63720725       0.99861395 </v>
    <v>       0.39030758       0.63703291       0.49093846 </v>
    <v>       0.88754633       0.13901439       0.50166494 </v>
    <v>       0.89039181       0.63553695       0.99889570 </v>
    <v>       0.98558827       0.02202955       0.11752681 </v>
    <v>       0.00066668       0.99875320       0.62468977 </v>
    <v>       0.00360859       0.49632187       0.12392420 </v>
    <v>       0.98315404       0.51900638       0.62114456 </v>
    <v>       0.51605354       0.98501815       0.12200541 </v>
    <v>       0.49527877       0.00441759       0.62488710 </v>
    <v>       0.49878922       0.50045338       0.12354563 </v>
    <v>       0.50030698       0.49689678       0.62707154 </v>
    <v>       0.00167844       0.99876175       0.37623609 </v>
    <v>       0.98958250       0.01735447       0.88072825 </v>
    <v>       0.98506224       0.52048259       0.38188761 </v>
    <v>       0.00437781       0.49509582       0.87314625 </v>
    <v>       0.49397949       0.00365677       0.37554035 </v>
    <v>       0.51608945       0.98566024       0.87748147 </v>
    <v>       0.49871238       0.50073496       0.87484737 </v>
    <v>       0.24805413       0.23848952       0.37577830 </v>
    <v>       0.24890003       0.25332580       0.87486222 </v>
    <v>       0.24571538       0.75731569       0.37514900 </v>
    <v>       0.24852659       0.75097011       0.87470331 </v>
    <v>       0.75079024       0.24698447       0.37569009 </v>
    <v>       0.76338729       0.23961852       0.87675002 </v>
    <v>       0.77385667       0.73857511       0.37956323 </v>
    <v>       0.73151594       0.76403526       0.87741053 </v>
    <v>       0.25536837       0.25860515       0.12551778 </v>
    <v>       0.25741166       0.25233683       0.62380823 </v>
    <v>       0.25456209       0.74359221       0.12577126 </v>
    <v>       0.25645884       0.74781259       0.62487397 </v>
    <v>       0.75705605       0.24583273       0.12344286 </v>
    <v>       0.73956891       0.25546247       0.62395232 </v>
    <v>       0.72643727       0.75935861       0.12308288 </v>
    <v>       0.76490451       0.72900191       0.61929602 </v>
   </varray>
  </structure>
  <varray name="forces" >
   <v>       0.00078542       0.01533262      -0.01385722 </v>
   <v>       0.00287586      -0.01142043       0.00009303 </v>
   <v>      -0.01406147      -0.01843019      -0.00326281 </v>
   <v>      -0.00326354       0.02106513       0.00224256 </v>
   <v>      -0.00585497       0.00579208      -0.01037191 </v>
   <v>       0.00493393      -0.01588150      -0.00218379 </v>
   <v>       0.02507731      -0.00805595      -0.01166164 </v>
   <v>      -0.00484761       0.00246756      -0.01040325 </v>
   <v>      -0.00021567       0.00095485      -0.00030710 </v>
   <v>       0.00961653      -0.00048695       0.01434487 </v>
   <v>      -0.01265708       0.01262749       0.00224301 </v>
   <v>      -0.00691571      -0.01064772       0.01358979 </v>
   <v>       0.00343761      -0.00260757       0.01955057 </v>
   <v>      -0.00140098       0.00085618       0.00756250 </v>
   <v>       0.00234559       0.00357585       0.00920540 </v>
   <v>       0.01232254       0.00140326       0.02810704 </v>
   <v>       0.01346972       0.00029772      -0.00351853 </v>
   <v>       0.00285781       0.00582445      -0.00799727 </v>
   <v>       0.00038971      -0.00385275      -0.00732990 </v>
   <v>      -0.00233117      -0.00362031       0.01541390 </v>
   <v>       0.00306684      -0.01238157      -0.01219954 </v>
   <v>      -0.00081171       0.01511437       0.01028884 </v>
   <v>       0.00979555       0.00120920       0.01116353 </v>
   <v>       0.00062757       0.01882883      -0.00366922 </v>
   <v>       0.00485270       0.01617655       0.00851220 </v>
   <v>       0.00476653       0.00118898       0.00834868 </v>
   <v>       0.00675995      -0.00618570      -0.00752147 </v>
   <v>       0.00394676      -0.01015768       0.00036785 </v>
   <v>      -0.00140019       0.00755471      -0.00085130 </v>
   <v>      -0.00518384      -0.01221285       0.01234017 </v>
   <v>      -0.01400286      -0.00480731       0.00167974 </v>
   <v>       0.01602516      -0.00326286       0.00328335 </v>
   <v>      -0.01303868       0.02532584      -0.02261201 </v>
   <v>       0.00139453       0.00405019      -0.00617734 </v>
   <v>      -0.01932202      -0.01840213       0.00855554 </v>
   <v>       0.01065189       0.00458609      -0.00125180 </v>
   <v>       0.00159834       0.00271051       0.00521971 </v>
   <v>      -0.03649429       0.02097855      -0.00216884 </v>
   <v>       0.00029958      -0.01981905       0.02059228 </v>
   <v>      -0.00204864      -0.03320014      -0.00710515 </v>
   <v>       0.02027904      -0.00877987       0.00304448 </v>
   <v>       0.00914170       0.00623127      -0.00064942 </v>
   <v>      -0.00706212       0.00989200       0.00963448 </v>
   <v>      -0.01243164      -0.02465107       0.00970531 </v>
   <v>      -0.00037833       0.00436381       0.02915299 </v>
   <v>      -0.00128153      -0.00016325      -0.03319239 </v>
   <v>      -0.00945433      -0.02780723       0.01547687 </v>
   <v>      -0.01138820       0.00715373      -0.02324741 </v>
   <v>       0.01305119       0.00975859       0.00227688 </v>
   <v>      -0.00102121      -0.00921986      -0.00973815 </v>
   <v>       0.00900386      -0.02100072      -0.01109920 </v>
   <v>       0.01221020      -0.00755844       0.00369744 </v>
   <v>      -0.00039579      -0.00155551      -0.00706237 </v>
   <v>      -0.00973554       0.00005283       0.01012935 </v>
   <v>       0.00826597       0.02177732      -0.01078335 </v>
   <v>      -0.01572537      -0.00868337      -0.02124624 </v>
   <v>       0.00733488       0.02017985      -0.00459044 </v>
   <v>       0.00009213       0.02029241       0.00915690 </v>
   <v>      -0.00997193      -0.02727886       0.00967289 </v>
   <v>       0.02900183       0.02270281       0.00121849 </v>
   <v>       0.01259948       0.00825310      -0.01138504 </v>
   <v>       0.00523080       0.00353471       0.03243883 </v>
   <v>      -0.00703760       0.01547655       0.00346512 </v>
   <v>      -0.00644031      -0.01671200      -0.00717843 </v>
   <v>       0.00172641      -0.00887971       0.01052929 </v>
   <v>      -0.00997378      -0.01064178      -0.00708204 </v>
   <v>       0.00102167       0.01262659       0.00416282 </v>
   <v>       0.01787695       0.01254891       0.00591686 </v>
   <v>       0.01038317      -0.00535784       0.01086322 </v>
   <v>       0.00030208      -0.01332317      -0.00724529 </v>
   <v>      -0.01736293      -0.00733824      -0.01441746 </v>
   <v>       0.00153336      -0.01993038      -0.00446724 </v>
   <v>      -0.01884640      -0.00160515       0.00835372 </v>
   <v>      -0.00311297       0.01376853       0.00175860 </v>
   <v>      -0.00770621       0.01300540      -0.00961007 </v>
   <v>      -0.01525739      -0.00171114      -0.00275808 </v>
   <v>      -0.01577018      -0.00052285       0.00410413 </v>
   <v>      -0.02200812       0.00162467      -0.00422761 </v>
   <v>       0.01037489       0.02739484       0.00634962 </v>
   <v>       0.00806564       0.00992571       0.00544811 </v>
   <v>       0.03528227      -0.00550437      -0.01668543 </v>
   <v>       0.01223931      -0.00648452       0.00473680 </v>
   <v>       0.02252794       0.00981927      -0.00595634 </v>
   <v>       0.00883893      -0.00255384       0.00586971 </v>
   <v>       0.01253125       0.00287758       0.00831752 </v>
   <v>       0.00952177       0.00373369       0.01173584 </v>
   <v>       0.01096501       0.02123384      -0.00094573 </v>
   <v>      -0.00905894       0.01624216      -0.01640719 </v>
   <v>      -0.00125846      -0.02066137       0.00523268 </v>
   <v>      -0.00642731      -0.00571777       0.00324184 </v>
   <v>      -0.02274334       0.00753809      -0.00338630 </v>
   <v>      -0.00883919      -0.00340139       0.00695034 </v>
   <v>      -0.02129775      -0.00828235       0.00547692 </v>
   <v>      -0.00766532      -0.00779493      -0.00980385 </v>
   <v>      -0.01663208      -0.00034639      -0.01093895 </v>
   <v>      -0.00002346      -0.00556602       0.00637959 </v>
   <v>      -0.00680832      -0.00420790      -0.00835115 </v>
   <v>       0.00769072      -0.00570392      -0.00437633 </v>
   <v>       0.00466764      -0.00964265       0.00419369 </v>
   <v>      -0.01049708      -0.01552718       0.00438530 </v>
   <v>       0.01235700      -0.02345292       0.01142008 </v>
   <v>      -0.02421039      -0.01681828       0.00683590 </v>
   <v>       0.01229022       0.00908141      -0.00745719 </v>
   <v>       0.01402396       0.01641062      -0.01538191 </v>
   <v>       0.00332242      -0.00988749       0.00480187 </v>
   <v>      -0.03901557      -0.01712882      -0.00320017 </v>
   <v>       0.00823089      -0.00257355       0.00628288 </v>
   <v>      -0.01526838       0.01482280       0.00219551 </v>
   <v>       0.00837582      -0.01254770      -0.00612944 </v>
   <v>      -0.00259170       0.01372271       0.00429496 </v>
   <v>      -0.01554966       0.00456950       0.00465477 </v>
   <v>      -0.01790752       0.01283070       0.01674111 </v>
   <v>      -0.00609497       0.00198416       0.00325178 </v>
   <v>      -0.00195528       0.01510993      -0.00425726 </v>
   <v>       0.05022538      -0.05021892       0.01051969 </v>
   <v>      -0.01074292       0.01873659      -0.00107624 </v>
   <v>       0.01411582      -0.00112883       0.00132181 </v>
   <v>       0.02709133       0.03385935      -0.00091353 </v>
   <v>      -0.00429954      -0.00031789      -0.00260204 </v>
   <v>       0.00098309       0.01601637       0.00490245 </v>
   <v>       0.02693017      -0.01224664       0.01635646 </v>
   <v>       0.00216191       0.01108846      -0.01734896 </v>
   <v>      -0.00904884      -0.02029507       0.00014573 </v>
   <v>       0.00430972       0.00364164       0.00075956 </v>
   <v>      -0.00226638      -0.01996248      -0.00119670 </v>
   <v>      -0.00874024       0.00648266       0.00989086 </v>
   <v>      -0.01169471      -0.00708761      -0.01125734 </v>
   <v>      -0.00365882      -0.00450476      -0.03151048 </v>
   <v>       0.01297296       0.00398176      -0.00439338 </v>
   <v>       0.00032463      -0.00419460       0.03139192 </v>
   <v>       0.00950594      -0.00083702       0.00752540 </v>
   <v>       0.00216931      -0.00332543      -0.00558667 </v>
   <v>      -0.00676819       0.00022390       0.00847536 </v>
   <v>       0.00080772      -0.00404965      -0.00698185 </v>
   <v>      -0.00292840       0.01246615       0.00070749 </v>
   <v>       0.01029742       0.00621220       0.01275411 </v>
   <v>      -0.00631480      -0.00800390      -0.01642769 </v>
   <v>      -0.00855332       0.01082190      -0.00564409 </v>
   <v>      -0.01089581      -0.00575057      -0.02384705 </v>
   <v>       0.02011763       0.00055462      -0.00803552 </v>
   <v>       0.01572599       0.00923209      -0.01880621 </v>
   <v>       0.00455720      -0.00587544      -0.00240868 </v>
   <v>      -0.00155349      -0.00690620       0.00897934 </v>
   <v>      -0.00211582      -0.00113440      -0.01133866 </v>
   <v>       0.00022941      -0.00037227       0.00570341 </v>
   <v>      -0.01631001       0.01761116       0.01036806 </v>
   <v>       0.00010740       0.01300278       0.00033420 </v>
   <v>      -0.00762071      -0.01132405       0.00643211 </v>
   <v>      -0.00366039       0.01128957       0.01102205 </v>
   <v>       0.00203774       0.00171142      -0.00194391 </v>
   <v>       0.00332076      -0.00009850      -0.00278672 </v>
   <v>      -0.01627872      -0.00521693      -0.01894287 </v>
   <v>      -0.01117975       0.00021003      -0.00186895 </v>
   <v>       0.01371616      -0.00560182      -0.02798407 </v>
   <v>      -0.00187719      -0.00194924      -0.00006978 </v>
   <v>       0.00259953       0.02675491      -0.01317106 </v>
  </varray>
  <varray name="stress" >
   <v>       0.40226636      -0.21369756      -0.00067457 </v>
   <v>      -0.21369755       0.19150856      -0.00964877 </v>
   <v>      -0.00067440      -0.00964923       0.11572125 </v>
  </varray>
  <energy>
   <i name="e_fr_energy">  -1120.34995599 </i>
   <i name="e_wo_entrp">  -1120.34995599 </i>
   <i name="e_0_energy">     -0.00000000 </i>
  </energy>
  <time name="totalsc"> 1962.91 1965.62</time>
 </calculation>
 <calculation>
  <scstep>
   <time name="dav">  558.53  558.57</time>
   <time name="total">  565.70  565.83</time>
   <energy>
    <i name="alphaZ">   5636.12181317 </i>
    <i name="ewald"> -61464.83690672 </i>
    <i name="hartreedc"> -16082.88606313 </i>
    <i name="XCdc">   2963.10808520 </i>
    <i name="pawpsdc"> 112769.45246085 </i>
    <i name="pawaedc">-111669.02593195 </i>
    <i name="eentropy">     -0.00000000 </i>
    <i name="bandstr">  -7055.73150418 </i>
    <i name="atom">  73783.44779670 </i>
    <i name="e_fr_energy">  -1120.35025007 </i>
    <i name="e_wo_entrp">  -1120.35025007 </i>
    <i name="e_0_energy">  -1120.35025007 </i>
   </energy>
  </scstep>
  <scstep>
   <time name="diag">   64.54   64.54</time>
   <time name="diis">  104.32  104.33</time>
   <time name="orth">   33.24   33.24</time>
   <time name="total">  209.26  209.30</time>
   <energy>
    <i name="e_fr_energy">  -1120.35185139 </i>
    <i name="e_wo_entrp">  -1120.35185139 </i>
    <i name="e_0_energy">  -1120.35185139 </i>
   </energy>
  </scstep>
  <scstep>
   <time name="diag">   64.66   64.67</time>
   <time name="diis">  104.53  104.54</time>
   <time name="orth">   33.24   33.24</time>
   <time name="total">  209.60  209.68</time>
   <energy>
    <i name="e_fr_energy">  -1120.35180165 </i>
    <i name="e_wo_entrp">  -1120.35180165 </i>
    <i name="e_0_energy">  -1120.35180165 </i>
   </energy>
  </scstep>
  <scstep>
   <time name="diag">   64.44   64.45</time>
   <time name="diis">   89.19   89.20</time>
   <time name="orth">   33.20   33.20</time>
   <time name="total">  194.02  194.12</time>
   <energy>
    <i name="e_fr_energy">  -1120.35166647 </i>
    <i name="e_wo_entrp">  -1120.35166647 </i>
    <i name="e_0_energy">  -1120.35166647 </i>
   </energy>
  </scstep>
  <scstep>
   <time name="diag">   64.59   64.60</time>
   <time name="diis">   66.58   66.58</time>
   <time name="orth">   33.25   33.26</time>
   <time name="total">  171.61  171.72</time>
   <energy>
    <i name="e_fr_energy">  -1120.35163013 </i>
    <i name="e_wo_entrp">  -1120.35163013 </i>
    <i name="e_0_energy">  -1120.35163013 </i>
   </energy>
  </scstep>
  <scstep>
   <time name="diag">   64.69   64.70</time>
   <time name="diis">   63.70   63.71</time>
   <time name="orth">   33.27   33.28</time>
   <time name="total">  168.84  168.88</time>
   <energy>
    <i name="e_fr_energy">  -1120.35163035 </i>
    <i name="e_wo_entrp">  -1120.35163035 </i>
    <i name="e_0_energy">  -1120.35163035 </i>
   </energy>
  </scstep>
  <scstep>
   <time name="diag">   64.48   64.48</time>
   <time name="diis">   62.93   62.94</time>
   <time name="orth">   33.27   33.27</time>
   <time name="total">  167.83  167.96</time>
   <energy>
    <i name="e_fr_energy">  -1120.35162934 </i>
    <i name="e_wo_entrp">  -1120.35162934 </i>
    <i name="e_0_energy">  -1120.35162934 </i>
   </energy>
  </scstep>
  <scstep>
   <time name="diag">   64.56   64.56</time>
   <time name="diis">   61.44   61.45</time>
   <time name="orth">   33.24   33.24</time>
   <time name="total">  160.29  160.41</time>
   <energy>
    <i name="alphaZ">   5636.12181317 </i>
    <i name="ewald"> -61464.83690672 </i>
    <i name="hartreedc"> -16086.78400271 </i>
    <i name="XCdc">   2963.36897468 </i>
    <i name="pawpsdc"> 112700.11201519 </i>
    <i name="pawaedc">-111599.66274061 </i>
    <i name="eentropy">     -0.00000000 </i>
    <i name="bandstr">  -7052.11857807 </i>
    <i name="atom">  73783.44779670 </i>
    <i name="e_fr_energy">  -1120.35162838 </i>
    <i name="e_wo_entrp">  -1120.35162838 </i>
    <i name="e_0_energy">  -1120.35162838 </i>
   </energy>
  </scstep>
  <structure>
   <crystal>
    <varray name="basis" >
     <v>      11.22379639      -0.01709696      -0.00412120 </v>
     <v>      -0.01714344      11.22011374       0.00315049 </v>
     <v>      -0.00587728       0.00451952      15.90006760 </v>
    </varray>
    <i name="volume">   2002.32654864 </i>
    <varray name="rec_basis" >
     <v>       0.08909663       0.00013612       0.00003289 </v>
     <v>       0.00013575       0.08912587      -0.00002528 </v>
     <v>       0.00002307      -0.00001762       0.06289283 </v>
    </varray>
   </crystal>
   <varray name="positions" >
    <v>       0.00173202       0.25647737       0.13337463 </v>
    <v>       0.99882475       0.23971254       0.62704539 </v>
    <v>       0.00357928       0.74130025       0.12980206 </v>
    <v>       0.00359784       0.75939212       0.63016941 </v>
    <v>       0.49839006       0.25776781       0.13146820 </v>
    <v>       0.50177045       0.25030684       0.62630900 </v>
    <v>       0.49297318       0.74543581       0.12948962 </v>
    <v>       0.49469454       0.75061400       0.62763475 </v>
    <v>       0.99869192       0.23946638       0.36995490 </v>
    <v>       0.00242304       0.25406334       0.86940879 </v>
    <v>       0.00492811       0.75984595       0.36712082 </v>
    <v>       0.00401854       0.74367153       0.87338222 </v>
    <v>       0.50145356       0.24299059       0.37159242 </v>
    <v>       0.49762798       0.25619046       0.87164481 </v>
    <v>       0.49267549       0.75762972       0.37116842 </v>
    <v>       0.49414438       0.74573887       0.87269076 </v>
    <v>       0.24788906       0.99957895       0.12850311 </v>
    <v>       0.24695252       0.99920276       0.62703338 </v>
    <v>       0.24643531       0.50275650       0.12711270 </v>
    <v>       0.25435824       0.50221792       0.62585359 </v>
    <v>       0.75304893       0.99866439       0.13311842 </v>
    <v>       0.75559685       0.00422196       0.62278736 </v>
    <v>       0.75189950       0.49620696       0.12378315 </v>
    <v>       0.74730822       0.49696015       0.63083057 </v>
    <v>       0.24473106       0.99936937       0.37087084 </v>
    <v>       0.24729263       0.99855821       0.87338879 </v>
    <v>       0.24341446       0.50484975       0.37103369 </v>
    <v>       0.24866546       0.50183740       0.87520666 </v>
    <v>       0.75743485       0.00339870       0.37412064 </v>
    <v>       0.75396399       0.99922224       0.86794242 </v>
    <v>       0.75500578       0.49828155       0.36719061 </v>
    <v>       0.75001921       0.49784702       0.87915394 </v>
    <v>       0.00713414       0.98469218       0.00051596 </v>
    <v>       0.00204786       0.99937180       0.50048546 </v>
    <v>       0.00170211       0.49718433       0.00164764 </v>
    <v>       0.00706506       0.48739947       0.50009745 </v>
    <v>       0.49612702       0.01307788       0.00019809 </v>
    <v>       0.49619365       0.00480290       0.50007662 </v>
    <v>       0.49802223       0.50430208       0.99942247 </v>
    <v>       0.24570276       0.25489580       0.00059907 </v>
    <v>       0.25600941       0.24895787       0.49865029 </v>
    <v>       0.25045848       0.74998844       0.49938039 </v>
    <v>       0.74590510       0.25397785       0.49850565 </v>
    <v>       0.73635130       0.75517118       0.49897176 </v>
    <v>       0.24921034       0.25246236       0.25145459 </v>
    <v>       0.24943177       0.24952111       0.74947320 </v>
    <v>       0.24845042       0.74928096       0.24841425 </v>
    <v>       0.24886854       0.75149283       0.75210416 </v>
    <v>       0.75223085       0.25062000       0.24881125 </v>
    <v>       0.75146394       0.24803850       0.75185750 </v>
    <v>       0.75019879       0.74798857       0.24874835 </v>
    <v>       0.75039680       0.75060880       0.75330046 </v>
    <v>       0.99832815       0.50117997       0.74935547 </v>
    <v>       0.50196689       0.99938210       0.24947247 </v>
    <v>       0.50199522       0.99919116       0.74983682 </v>
    <v>       0.50022170       0.50023396       0.75205460 </v>
    <v>       0.50020457       0.49962608       0.50889937 </v>
    <v>       0.25448247       0.74464019       0.00040920 </v>
    <v>       0.73646482       0.25650019       0.99999468 </v>
    <v>       0.76085946       0.74187046       0.00084666 </v>
    <v>       0.99860872       0.00145121       0.24707618 </v>
    <v>       0.99894055       0.00115837       0.75042321 </v>
    <v>       0.99783144       0.50152231       0.25077148 </v>
    <v>       0.50031055       0.50112919       0.24173922 </v>
    <v>       0.11860544       0.13525841       0.24665042 </v>
    <v>       0.11513248       0.13962178       0.74899913 </v>
    <v>       0.11585738       0.63493408       0.25129878 </v>
    <v>       0.11098080       0.63835987       0.74827125 </v>
    <v>       0.61467310       0.13413705       0.24814673 </v>
    <v>       0.61080111       0.13854884       0.75252841 </v>
    <v>       0.61241643       0.63243706       0.26498825 </v>
    <v>       0.61040679       0.63916597       0.74797475 </v>
    <v>       0.38722628       0.36874533       0.26304261 </v>
    <v>       0.38907376       0.36177963       0.75051376 </v>
    <v>       0.38499654       0.86676413       0.24842800 </v>
    <v>       0.38959543       0.86196027       0.75094480 </v>
    <v>       0.88458153       0.36506928       0.25339224 </v>
    <v>       0.88881432       0.36243153       0.74541298 </v>
    <v>       0.88334761       0.86323999       0.24428777 </v>
    <v>       0.88662389       0.85958424       0.75325342 </v>
    <v>       0.36892940       0.11536620       0.24289624 </v>
    <v>       0.36389087       0.11057455       0.75595480 </v>
    <v>       0.36817803       0.61556058       0.26011557 </v>
    <v>       0.36211414       0.61174426       0.75119625 </v>
    <v>       0.86420119       0.11650642       0.25438005 </v>
    <v>       0.86088707       0.11458522       0.74255698 </v>
    <v>       0.86074673       0.61563646       0.23770049 </v>
    <v>       0.85931397       0.61191943       0.76184900 </v>
    <v>       0.13425408       0.38411508       0.25581631 </v>
    <v>       0.13684762       0.38978072       0.74317521 </v>
    <v>       0.13350226       0.88435795       0.24282139 </v>
    <v>       0.13798415       0.88728961       0.75201397 </v>
    <v>       0.63309397       0.38455129       0.25307696 </v>
    <v>       0.63913925       0.38799755       0.75704351 </v>
    <v>       0.63541469       0.88390895       0.26288134 </v>
    <v>       0.63942529       0.88709343       0.73664549 </v>
    <v>       0.35817105       0.39062693       0.99861705 </v>
    <v>       0.35837865       0.39294030       0.48956537 </v>
    <v>       0.37832730       0.88483300       0.99993390 </v>
    <v>       0.36112697       0.89086053       0.50041830 </v>
    <v>       0.86556819       0.37866867       0.99916785 </v>
    <v>       0.85529370       0.39806535       0.50112469 </v>
    <v>       0.85417208       0.89539150       0.00060427 </v>
    <v>       0.86509530       0.87854237       0.50231055 </v>
    <v>       0.13944841       0.11087889       0.00078827 </v>
    <v>       0.14157725       0.11024727       0.50269910 </v>
    <v>       0.13869611       0.60651350       0.99889531 </v>
    <v>       0.13239719       0.61296149       0.50205592 </v>
    <v>       0.65310146       0.09552904       0.99996928 </v>
    <v>       0.63983051       0.10823333       0.49954459 </v>
    <v>       0.63529857       0.61652122       0.99858094 </v>
    <v>       0.64237942       0.60647017       0.49082850 </v>
    <v>       0.10938713       0.35652338       0.99990759 </v>
    <v>       0.10717072       0.35664527       0.49985963 </v>
    <v>       0.11132617       0.85734583       0.00265920 </v>
    <v>       0.11298308       0.86065857       0.50245847 </v>
    <v>       0.60524217       0.36015074       0.99845047 </v>
    <v>       0.60477051       0.36116949       0.48912370 </v>
    <v>       0.60824239       0.85949038       0.50043151 </v>
    <v>       0.39435062       0.14273429       0.00020521 </v>
    <v>       0.39333373       0.14364301       0.50069122 </v>
    <v>       0.38998467       0.63725497       0.99856130 </v>
    <v>       0.39026855       0.63694559       0.49093891 </v>
    <v>       0.88756488       0.13903007       0.50166725 </v>
    <v>       0.89038194       0.63545110       0.99889208 </v>
    <v>       0.98555075       0.02205735       0.11755680 </v>
    <v>       0.00061634       0.99872266       0.62465560 </v>
    <v>       0.00359278       0.49630251       0.12382859 </v>
    <v>       0.98320982       0.51902359       0.62113124 </v>
    <v>       0.51605496       0.98500007       0.12210067 </v>
    <v>       0.49531964       0.00441404       0.62490995 </v>
    <v>       0.49879852       0.50043910       0.12352868 </v>
    <v>       0.50027790       0.49689769       0.62709725 </v>
    <v>       0.00168187       0.99874435       0.37621491 </v>
    <v>       0.98956999       0.01740806       0.88073038 </v>
    <v>       0.98510656       0.52050935       0.38192632 </v>
    <v>       0.00435059       0.49506138       0.87309640 </v>
    <v>       0.49394278       0.00370326       0.37552320 </v>
    <v>       0.51604254       0.98563547       0.87740910 </v>
    <v>       0.49879886       0.50073748       0.87482301 </v>
    <v>       0.24812177       0.23852934       0.37572124 </v>
    <v>       0.24891958       0.25330057       0.87485493 </v>
    <v>       0.24570867       0.75728597       0.37517625 </v>
    <v>       0.24851747       0.75096524       0.87466890 </v>
    <v>       0.75079124       0.24698287       0.37570740 </v>
    <v>       0.76331730       0.23969414       0.87678145 </v>
    <v>       0.77385722       0.73863102       0.37956423 </v>
    <v>       0.73148312       0.76398651       0.87743005 </v>
    <v>       0.25535273       0.25865366       0.12555121 </v>
    <v>       0.25742043       0.25234420       0.62380234 </v>
    <v>       0.25457636       0.74359181       0.12576281 </v>
    <v>       0.25638880       0.74779008       0.62481648 </v>
    <v>       0.75700798       0.24583357       0.12343718 </v>
    <v>       0.73962779       0.25543850       0.62386743 </v>
    <v>       0.72642919       0.75935022       0.12308267 </v>
    <v>       0.76491583       0.72911699       0.61925603 </v>
   </varray>
  </structure>
  <varray name="forces" >
   <v>       0.00557553       0.01015888      -0.00733741 </v>
   <v>      -0.00564933      -0.01507089      -0.00489969 </v>
   <v>      -0.00133415      -0.00695177      -0.00709321 </v>
   <v>      -0.00192537       0.02300401      -0.00261906 </v>
   <v>      -0.00497348      -0.00065181      -0.00134613 </v>
   <v>       0.01423709      -0.00777922       0.00285436 </v>
   <v>       0.01715209      -0.00594111      -0.00807783 </v>
   <v>      -0.00358433       0.00624736       0.00179507 </v>
   <v>      -0.00854434      -0.00637504       0.00050895 </v>
   <v>       0.00347345       0.00653518       0.00633052 </v>
   <v>      -0.01238035       0.02216451       0.00617077 </v>
   <v>       0.00886511      -0.01460155       0.01208980 </v>
   <v>       0.01399867      -0.00163280       0.00529788 </v>
   <v>      -0.00023825       0.00943451       0.00218952 </v>
   <v>       0.00485800       0.00830206      -0.00032057 </v>
   <v>       0.00060816      -0.00867754       0.01536689 </v>
   <v>       0.00879557      -0.00984734       0.00951757 </v>
   <v>      -0.00660242      -0.00541200      -0.00129299 </v>
   <v>      -0.00028281      -0.00311634      -0.01887589 </v>
   <v>      -0.00386803       0.00473965       0.01338952 </v>
   <v>       0.00050261      -0.00807571       0.00580189 </v>
   <v>       0.00077049       0.00590684      -0.00068025 </v>
   <v>       0.00356066      -0.00241253       0.00342645 </v>
   <v>      -0.00053633       0.01283531       0.00115502 </v>
   <v>      -0.00532455       0.00406809      -0.00265996 </v>
   <v>       0.01185005      -0.01160646      -0.00099051 </v>
   <v>       0.00687492      -0.00251524      -0.00175863 </v>
   <v>       0.00566771       0.00010398       0.00510856 </v>
   <v>       0.00052810       0.00499817      -0.00147070 </v>
   <v>      -0.01109281      -0.01204794       0.00099129 </v>
   <v>      -0.01376658      -0.00990241       0.00401128 </v>
   <v>       0.00338808      -0.00573672       0.00121226 </v>
   <v>       0.06076647      -0.05750974       0.03237353 </v>
   <v>      -0.02901359      -0.01012905      -0.00642452 </v>
   <v>       0.02052738      -0.00500824      -0.01547074 </v>
   <v>      -0.00856854       0.00491164       0.00510249 </v>
   <v>      -0.01007861      -0.00784402       0.00765585 </v>
   <v>       0.03346002      -0.01917321      -0.00069654 </v>
   <v>      -0.01149255       0.00525704      -0.02318312 </v>
   <v>      -0.00398065       0.00086341       0.00772632 </v>
   <v>      -0.01975257       0.00749567      -0.01271940 </v>
   <v>      -0.01717003      -0.00172530       0.00217616 </v>
   <v>       0.01002667      -0.00301664      -0.00870292 </v>
   <v>      -0.00295949       0.02986377      -0.00462658 </v>
   <v>       0.00826717      -0.00304653      -0.01584348 </v>
   <v>       0.00789932       0.00474816       0.02755048 </v>
   <v>       0.00276866       0.02952206      -0.01896501 </v>
   <v>       0.01054664       0.00574200       0.01467291 </v>
   <v>      -0.00521688      -0.02842054       0.01320552 </v>
   <v>      -0.00389496       0.01991584       0.00090851 </v>
   <v>      -0.01118058       0.03111677       0.01433894 </v>
   <v>      -0.01016634      -0.00001103      -0.00174017 </v>
   <v>      -0.00118794       0.00442956      -0.00239969 </v>
   <v>       0.00494932      -0.00170568       0.00256197 </v>
   <v>      -0.00767976      -0.03166488       0.00482723 </v>
   <v>       0.00731234       0.01525261       0.02425782 </v>
   <v>       0.00590545       0.00642700       0.00937306 </v>
   <v>       0.00162606      -0.00156665      -0.00144257 </v>
   <v>      -0.00415234      -0.00471297       0.00500687 </v>
   <v>       0.00868377      -0.00635247      -0.00113820 </v>
   <v>       0.00413994       0.00232520       0.00224742 </v>
   <v>       0.00361145      -0.00454020       0.00220705 </v>
   <v>       0.00241835       0.00073052       0.00479368 </v>
   <v>      -0.00322078      -0.01264841      -0.00297378 </v>
   <v>       0.01349478       0.00160538       0.00837455 </v>
   <v>       0.00317873       0.00139633      -0.00643621 </v>
   <v>      -0.01240900      -0.01093566       0.00294167 </v>
   <v>      -0.00317738      -0.00731963       0.00024826 </v>
[...]
       <r>   -16.2655     0.0000    32.0000 </r>
       <r>   -16.1130     0.0000    32.0000 </r>
       <r>   -15.9605     0.0000    32.0000 </r>
       <r>   -15.8080     0.0000    32.0000 </r>
       <r>   -15.6556     0.0000    32.0000 </r>
       <r>   -15.5031     0.0000    32.0000 </r>
       <r>   -15.3506     0.0000    32.0000 </r>
       <r>   -15.1981     0.5827    32.0889 </r>
       <r>   -15.0456    17.3826    34.7394 </r>
       <r>   -14.8931    41.3056    41.0377 </r>
       <r>   -14.7407    50.1673    48.6873 </r>
       <r>   -14.5882    37.8737    54.4623 </r>
       <r>   -14.4357    32.6357    59.4387 </r>
       <r>   -14.2832    35.3030    64.8217 </r>
       <r>   -14.1307    70.1752    75.5222 </r>
       <r>   -13.9783   112.9104    92.7389 </r>
       <r>   -13.8258   111.4124   109.7273 </r>
       <r>   -13.6733    65.3630   119.6939 </r>
       <r>   -13.5208    28.0942   123.9778 </r>
       <r>   -13.3683     0.1458   124.0000 </r>
       <r>   -13.2158     0.0000   124.0000 </r>
       <r>   -13.0634     0.0000   124.0000 </r>
       <r>   -12.9109     0.0000   124.0000 </r>
       <r>   -12.7584     0.0807   124.0123 </r>
       <r>   -12.6059    31.4723   128.8113 </r>
       <r>   -12.4534   113.9259   146.1829 </r>
       <r>   -12.3010   153.2760   169.5546 </r>
       <r>   -12.1485   120.4781   187.9253 </r>
       <r>   -11.9960   109.2441   204.5830 </r>
       <r>   -11.8435    75.0173   216.0218 </r>
       <r>   -11.6910    25.4592   219.9039 </r>
       <r>   -11.5385     0.6305   220.0000 </r>
       <r>   -11.3861     0.0000   220.0000 </r>
       <r>   -11.2336     0.0000   220.0000 </r>
       <r>   -11.0811     0.0000   220.0000 </r>
       <r>   -10.9286     0.0000   220.0000 </r>
       <r>   -10.7761     0.0000   220.0000 </r>
       <r>   -10.6237     0.0000   220.0000 </r>
       <r>   -10.4712     0.0000   220.0000 </r>
       <r>   -10.3187     0.0000   220.0000 </r>
       <r>   -10.1662     0.0000   220.0000 </r>
       <r>   -10.0137     0.0000   220.0000 </r>
       <r>    -9.8612     0.0000   220.0000 </r>
       <r>    -9.7088     0.0000   220.0000 </r>
       <r>    -9.5563     0.0000   220.0000 </r>
       <r>    -9.4038     0.0000   220.0000 </r>
       <r>    -9.2513     0.0000   220.0000 </r>
       <r>    -9.0988     0.0000   220.0000 </r>
       <r>    -8.9464     0.0000   220.0000 </r>
       <r>    -8.7939     0.0000   220.0000 </r>
       <r>    -8.6414     0.0000   220.0000 </r>
       <r>    -8.4889     0.0000   220.0000 </r>
       <r>    -8.3364     0.0000   220.0000 </r>
       <r>    -8.1840     0.0000   220.0000 </r>
       <r>    -8.0315     0.0000   220.0000 </r>
       <r>    -7.8790     0.0000   220.0000 </r>
       <r>    -7.7265     0.0000   220.0000 </r>
       <r>    -7.5740     0.0000   220.0000 </r>
       <r>    -7.4215     0.0000   220.0000 </r>
       <r>    -7.2691     0.0000   220.0000 </r>
       <r>    -7.1166     0.0000   220.0000 </r>
       <r>    -6.9641     0.0000   220.0000 </r>
       <r>    -6.8116     0.0000   220.0000 </r>
       <r>    -6.6591     0.0000   220.0000 </r>
       <r>    -6.5067     0.0000   220.0000 </r>
       <r>    -6.3542     0.0000   220.0000 </r>
       <r>    -6.2017     0.0000   220.0000 </r>
       <r>    -6.0492     0.0000   220.0000 </r>
       <r>    -5.8967     0.0000   220.0000 </r>
       <r>    -5.7442     0.0000   220.0000 </r>
       <r>    -5.5918     0.0000   220.0000 </r>
       <r>    -5.4393     0.0000   220.0000 </r>
       <r>    -5.2868     0.0000   220.0000 </r>
       <r>    -5.1343     0.0000   220.0000 </r>
       <r>    -4.9818     0.0000   220.0000 </r>
       <r>    -4.8294     0.0000   220.0000 </r>
       <r>    -4.6769     0.0000   220.0000 </r>
       <r>    -4.5244     0.0000   220.0000 </r>
       <r>    -4.3719     0.0000   220.0000 </r>
       <r>    -4.2194     0.0000   220.0000 </r>
       <r>    -4.0669     0.0000   220.0000 </r>
       <r>    -3.9145     0.0000   220.0000 </r>
       <r>    -3.7620     0.0000   220.0000 </r>
       <r>    -3.6095     0.0000   220.0000 </r>
       <r>    -3.4570     0.0000   220.0000 </r>
       <r>    -3.3045     0.0000   220.0000 </r>
       <r>    -3.1521     0.0000   220.0000 </r>
       <r>    -2.9996     0.0000   220.0000 </r>
       <r>    -2.8471     0.0000   220.0000 </r>
       <r>    -2.6946     0.0000   220.0000 </r>
       <r>    -2.5421     0.0000   220.0000 </r>
       <r>    -2.3897     0.4448   220.0678 </r>
       <r>    -2.2372    11.2671   221.7858 </r>
       <r>    -2.0847    28.0871   226.0686 </r>
       <r>    -1.9322    26.1685   230.0588 </r>
       <r>    -1.7797    35.4848   235.4696 </r>
       <r>    -1.6272    48.4242   242.8534 </r>
       <r>    -1.4748    52.7650   250.8991 </r>
       <r>    -1.3223    55.6339   259.3823 </r>
       <r>    -1.1698    72.2304   270.3961 </r>
       <r>    -1.0173    77.0026   282.1376 </r>
       <r>    -0.8648    75.6751   293.6766 </r>
       <r>    -0.7124    81.3875   306.0867 </r>
       <r>    -0.5599   100.5442   321.4178 </r>
       <r>    -0.4074   108.7747   338.0040 </r>
       <r>    -0.2549    80.5901   350.2925 </r>
       <r>    -0.1024    55.1804   358.7065 </r>
       <r>     0.0501    45.3758   365.6254 </r>
       <r>     0.2025    47.5299   372.8729 </r>
       <r>     0.3550    48.9983   380.3442 </r>
       <r>     0.5075    54.0018   388.5785 </r>
       <r>     0.6600    54.3866   396.8715 </r>
       <r>     0.8125    45.6970   403.8394 </r>
       <r>     0.9649    49.7404   411.4239 </r>
       <r>     1.1174    64.8448   421.3115 </r>
       <r>     1.2699    78.1171   433.2230 </r>
       <r>     1.4224    82.7071   445.8343 </r>
       <r>     1.5749    89.8055   459.5280 </r>
       <r>     1.7274    79.5460   471.6573 </r>
       <r>     1.8798    61.1361   480.9794 </r>
       <r>     2.0323    51.2643   488.7962 </r>
       <r>     2.1848    25.4332   492.6743 </r>
       <r>     2.3373    19.9757   495.7203 </r>
       <r>     2.4898     1.8346   496.0000 </r>
       <r>     2.6422     0.0000   496.0000 </r>
       <r>     2.7947     0.0000   496.0000 </r>
       <r>     2.9472     0.0000   496.0000 </r>
       <r>     3.0997     0.0000   496.0000 </r>
       <r>     3.2522     0.0000   496.0000 </r>
       <r>     3.4046     0.0000   496.0000 </r>
       <r>     3.5571     0.0000   496.0000 </r>
       <r>     3.7096     0.0000   496.0000 </r>
       <r>     3.8621     0.0000   496.0000 </r>
       <r>     4.0146     0.0000   496.0000 </r>
       <r>     4.1671     0.0000   496.0000 </r>
       <r>     4.3195     0.0016   496.0002 </r>
       <r>     4.4720     7.3596   497.1224 </r>
       <r>     4.6245    25.2941   500.9793 </r>
       <r>     4.7770    44.8547   507.8188 </r>
       <r>     4.9295    33.1419   512.8724 </r>
       <r>     5.0819    37.8500   518.6438 </r>
       <r>     5.2344    56.4276   527.2480 </r>
       <r>     5.3869    71.5600   538.1596 </r>
       <r>     5.5394    60.4478   547.3767 </r>
       <r>     5.6919    64.4321   557.2014 </r>
       <r>     5.8444    61.3816   566.5610 </r>
       <r>     5.9968    86.3626   579.7297 </r>
       <r>     6.1493    92.4103   593.8206 </r>
       <r>     6.3018    71.3406   604.6987 </r>
       <r>     6.4543    51.7363   612.5875 </r>
       <r>     6.6068    17.4283   615.2450 </r>
       <r>     6.7592    16.6305   617.7809 </r>
       <r>     6.9117    19.5593   620.7633 </r>
       <r>     7.0642    18.1064   623.5242 </r>
       <r>     7.2167    18.5154   626.3475 </r>
       <r>     7.3692    13.2923   628.3743 </r>
       <r>     7.5217    11.6577   630.1519 </r>
       <r>     7.6741    14.3292   632.3368 </r>
       <r>     7.8266    17.6735   635.0317 </r>
       <r>     7.9791    26.6628   639.0973 </r>
       <r>     8.1316    25.5152   642.9879 </r>
       <r>     8.2841    24.2383   646.6838 </r>
       <r>     8.4365    24.9581   650.4894 </r>
       <r>     8.5890    22.5672   653.9305 </r>
       <r>     8.7415    23.7564   657.5529 </r>
       <r>     8.8940    29.9832   662.1248 </r>
       <r>     9.0465    35.8429   667.5902 </r>
       <r>     9.1990    41.1849   673.8701 </r>
       <r>     9.3514    35.5003   679.2833 </r>
       <r>     9.5039    39.4571   685.2998 </r>
       <r>     9.6564    44.8185   692.1337 </r>
       <r>     9.8089    52.6980   700.1692 </r>
       <r>     9.9614    64.5616   710.0137 </r>
       <r>    10.1138    67.9523   720.3752 </r>
       <r>    10.2663    67.1637   730.6164 </r>
       <r>    10.4188    60.1653   739.7905 </r>
       <r>    10.5713    56.2562   748.3685 </r>
       <r>    10.7238    57.8670   757.1922 </r>
       <r>    10.8762    52.8518   765.2511 </r>
       <r>    11.0287    18.0150   767.9981 </r>
       <r>    11.1812     0.0126   768.0000 </r>
       <r>    11.3337     0.0000   768.0000 </r>
       <r>    11.4862     0.0000   768.0000 </r>
       <r>    11.6387     0.0000   768.0000 </r>
       <r>    11.7911     0.0000   768.0000 </r>
       <r>    11.9436     0.0000   768.0000 </r>
       <r>    12.0961     0.0000   768.0000 </r>
       <r>    12.2486     0.0000   768.0000 </r>
       <r>    12.4011     0.0000   768.0000 </r>
       <r>    12.5535     0.0000   768.0000 </r>
       <r>    12.7060     0.0000   768.0000 </r>
       <r>    12.8585     0.0000   768.0000 </r>
       <r>    13.0110     0.0000   768.0000 </r>
      </set>
     </set>
    </array>
   </total>
  </dos>
 </calculation>
 <structure name="finalpos" >
  <crystal>
   <varray name="basis" >
    <v>      11.22421612      -0.01772483      -0.00406393 </v>
    <v>      -0.01777228      11.21977981       0.00304925 </v>
    <v>      -0.00579714       0.00437660      15.89923781 </v>
   </varray>
   <i name="volume">   2002.23700258 </i>
   <varray name="rec_basis" >
    <v>       0.08909332       0.00014112       0.00003245 </v>
    <v>       0.00014074       0.08912854      -0.00002448 </v>
    <v>       0.00002275      -0.00001706       0.06289611 </v>
   </varray>
  </crystal>
  <varray name="positions" >
   <v>       0.00175121       0.25654470       0.13333591 </v>
   <v>       0.99881505       0.23963943       0.62703553 </v>
   <v>       0.00354038       0.74123397       0.12978133 </v>
   <v>       0.00358472       0.75951106       0.63016799 </v>
   <v>       0.49836110       0.25777975       0.13144769 </v>
   <v>       0.50182468       0.25024548       0.62631140 </v>
   <v>       0.49308597       0.74539840       0.12945247 </v>
   <v>       0.49467128       0.75063896       0.62762083 </v>
   <v>       0.99866584       0.23944994       0.36995495 </v>
   <v>       0.00245591       0.25408075       0.86944606 </v>
   <v>       0.00486124       0.75994157       0.36713718 </v>
   <v>       0.00402827       0.74360155       0.87343107 </v>
   <v>       0.50150321       0.24297981       0.37163723 </v>
   <v>       0.49762237       0.25622045       0.87166427 </v>
   <v>       0.49269538       0.75766297       0.37118332 </v>
   <v>       0.49417593       0.74572055       0.87277135 </v>
   <v>       0.24795033       0.99955187       0.12851666 </v>
   <v>       0.24693962       0.99920070       0.62701683 </v>
   <v>       0.24643474       0.50273771       0.12706037 </v>
   <v>       0.25434051       0.50222295       0.62590804 </v>
   <v>       0.75305807       0.99861006       0.13310936 </v>
   <v>       0.75559626       0.00427619       0.62280367 </v>
   <v>       0.75193460       0.49620255       0.12381005 </v>
   <v>       0.74730864       0.49704463       0.63082657 </v>
   <v>       0.24472724       0.99942060       0.37088000 </v>
   <v>       0.24733977       0.99852605       0.87340035 </v>
   <v>       0.24345164       0.50482758       0.37101750 </v>
   <v>       0.24869556       0.50181213       0.87521817 </v>
   <v>       0.75743228       0.00343227       0.37411569 </v>
   <v>       0.75391846       0.99915623       0.86796553 </v>
   <v>       0.75493068       0.49824056       0.36720123 </v>
   <v>       0.75006879       0.49782156       0.87916202 </v>
   <v>       0.00729056       0.98457518       0.00054851 </v>
   <v>       0.00196162       0.99934993       0.50046123 </v>
   <v>       0.00171954       0.49712528       0.00162830 </v>
   <v>       0.00706375       0.48742552       0.50010615 </v>
   <v>       0.49609973       0.01306005       0.00022339 </v>
   <v>       0.49620996       0.00479386       0.50007194 </v>
   <v>       0.49798740       0.50426947       0.99940694 </v>
   <v>       0.24568543       0.25481661       0.00060407 </v>
   <v>       0.25599562       0.24895976       0.49862717 </v>
   <v>       0.25042824       0.74999697       0.49938404 </v>
   <v>       0.74591830       0.25399229       0.49850259 </v>
   <v>       0.73631226       0.75520297       0.49897809 </v>
   <v>       0.24923615       0.25246508       0.25146934 </v>
   <v>       0.24945444       0.24953655       0.74947937 </v>
   <v>       0.24843503       0.74930670       0.24839842 </v>
   <v>       0.24887362       0.75152788       0.75209622 </v>
   <v>       0.75224673       0.25055602       0.24884398 </v>
   <v>       0.75144913       0.24807947       0.75184292 </v>
   <v>       0.75018568       0.74803331       0.24876148 </v>
   <v>       0.75039534       0.75059037       0.75330254 </v>
   <v>       0.99832313       0.50119015       0.74933784 </v>
   <v>       0.50195872       0.99937697       0.24949578 </v>
   <v>       0.50199004       0.99914347       0.74982958 </v>
   <v>       0.50020779       0.50026051       0.75207208 </v>
   <v>       0.50024108       0.49969566       0.50891189 </v>
   <v>       0.25448758       0.74468528       0.00042214 </v>
   <v>       0.73642778       0.25641905       0.00002250 </v>
   <v>       0.76095821       0.74190668       0.00084651 </v>
   <v>       0.99865212       0.00147850       0.24706151 </v>
   <v>       0.99896493       0.00115292       0.75048515 </v>
   <v>       0.99782165       0.50156292       0.25078817 </v>
   <v>       0.50028474       0.50104847       0.24172010 </v>
   <v>       0.11865126       0.13524227       0.24668595 </v>
   <v>       0.11511866       0.13960094       0.74897340 </v>
   <v>       0.11582213       0.63492904       0.25131232 </v>
   <v>       0.11101299       0.63836673       0.74828106 </v>
   <v>       0.61474896       0.13413835       0.24818233 </v>
   <v>       0.61082965       0.13851699       0.75249264 </v>
   <v>       0.61237401       0.63241222       0.26494051 </v>
   <v>       0.61045744       0.63909508       0.74794376 </v>
   <v>       0.38714091       0.36875773       0.26307931 </v>
   <v>       0.38899698       0.36178024       0.75050437 </v>
   <v>       0.38492431       0.86679624       0.24840617 </v>
   <v>       0.38953696       0.86198364       0.75091288 </v>
   <v>       0.88454856       0.36513590       0.25339888 </v>
   <v>       0.88873696       0.36246285       0.74539892 </v>
   <v>       0.88332670       0.86330651       0.24429978 </v>
   <v>       0.88665161       0.85962749       0.75328944 </v>
   <v>       0.36905477       0.11539645       0.24284119 </v>
   <v>       0.36390796       0.11059382       0.75595591 </v>
   <v>       0.36825633       0.61559409       0.26011087 </v>
   <v>       0.36213753       0.61173609       0.75119688 </v>
   <v>       0.86423883       0.11656190       0.25440108 </v>
   <v>       0.86092164       0.11461380       0.74260553 </v>
   <v>       0.86084113       0.61569160       0.23769103 </v>
   <v>       0.85930709       0.61197669       0.76178394 </v>
   <v>       0.13419856       0.38405865       0.25583865 </v>
   <v>       0.13681774       0.38973241       0.74317471 </v>
   <v>       0.13344735       0.88433986       0.24281367 </v>
   <v>       0.13792790       0.88729472       0.75203001 </v>
   <v>       0.63298935       0.38451723       0.25309253 </v>
   <v>       0.63912089       0.38792410       0.75699010 </v>
   <v>       0.63536859       0.88385130       0.26284194 </v>
   <v>       0.63943550       0.88705984       0.73667161 </v>
   <v>       0.35813851       0.39058349       0.99858996 </v>
   <v>       0.35840419       0.39285825       0.48955033 </v>
   <v>       0.37839620       0.88485354       0.99994590 </v>
   <v>       0.36110328       0.89082876       0.50043610 </v>
   <v>       0.86562155       0.37854191       0.99920410 </v>
   <v>       0.85524952       0.39806106       0.50114469 </v>
   <v>       0.85423945       0.89544097       0.00056659 </v>
   <v>       0.86511363       0.87857701       0.50225617 </v>
   <v>       0.13944213       0.11081097       0.00080040 </v>
   <v>       0.14153036       0.11029535       0.50268399 </v>
   <v>       0.13868632       0.60645464       0.99891200 </v>
   <v>       0.13232132       0.61302550       0.50206307 </v>
   <v>       0.65313252       0.09543857       0.99994888 </v>
   <v>       0.63975871       0.10828041       0.49955841 </v>
   <v>       0.63525774       0.61656937       0.99861055 </v>
   <v>       0.64228883       0.60652458       0.49088079 </v>
   <v>       0.10939706       0.35647948       0.99990947 </v>
   <v>       0.10723629       0.35666183       0.49984678 </v>
   <v>       0.11134750       0.85737199       0.00267892 </v>
   <v>       0.11299901       0.86069027       0.50245005 </v>
   <v>       0.60531466       0.36013229       0.99846257 </v>
   <v>       0.60485536       0.36135779       0.48912204 </v>
   <v>       0.60822398       0.85947634       0.50042103 </v>
   <v>       0.39438846       0.14276955       0.00022374 </v>
   <v>       0.39335251       0.14366782       0.50074705 </v>
   <v>       0.39001936       0.63725837       0.99851071 </v>
   <v>       0.39022430       0.63685335       0.49093748 </v>
   <v>       0.88757362       0.13906854       0.50166247 </v>
   <v>       0.89033508       0.63537999       0.99889044 </v>
   <v>       0.98550654       0.02209652       0.11750823 </v>
   <v>       0.00055986       0.99870155       0.62466417 </v>
   <v>       0.00355897       0.49628251       0.12379846 </v>
   <v>       0.98327236       0.51903868       0.62112661 </v>
   <v>       0.51605811       0.98499949       0.12212290 </v>
   <v>       0.49535251       0.00442014       0.62490714 </v>
   <v>       0.49880113       0.50040281       0.12353232 </v>
   <v>       0.50023588       0.49689052       0.62707149 </v>
   <v>       0.00169638       0.99873707       0.37618717 </v>
   <v>       0.98955095       0.01748498       0.88074347 </v>
   <v>       0.98514031       0.52053882       0.38193081 </v>
   <v>       0.00430102       0.49502053       0.87302942 </v>
   <v>       0.49387898       0.00376758       0.37555539 </v>
   <v>       0.51598704       0.98563591       0.87737927 </v>
   <v>       0.49889095       0.50072244       0.87481164 </v>
   <v>       0.24821418       0.23854949       0.37574895 </v>
   <v>       0.24893278       0.25325032       0.87482817 </v>
   <v>       0.24570701       0.75724318       0.37519642 </v>
   <v>       0.24850186       0.75096690       0.87461402 </v>
   <v>       0.75078490       0.24699350       0.37570626 </v>
   <v>       0.76324173       0.23976833       0.87679437 </v>
   <v>       0.77384112       0.73865787       0.37955709 </v>
   <v>       0.73146869       0.76393693       0.87746201 </v>
   <v>       0.25532402       0.25869347       0.12556648 </v>
   <v>       0.25742725       0.25234038       0.62376585 </v>
   <v>       0.25459719       0.74357574       0.12580649 </v>
   <v>       0.25630951       0.74776087       0.62475363 </v>
   <v>       0.75695232       0.24583479       0.12343362 </v>
   <v>       0.73968317       0.25539699       0.62382649 </v>
   <v>       0.72645015       0.75933847       0.12307141 </v>
   <v>       0.76493635       0.72922965       0.61922357 </v>
  </varray>
 </structure>
</modeling>
