       N       E                     dE             d eps       ncg     rms          rms(c)
DAV:   1    -0.105609531591E+04   -0.10561E+04   -0.22685E-01  6680   0.109E+00    0.362E-02
RMM:   2    -0.105609532310E+04   -0.71953E-05   -0.63596E-05  3564   0.154E-02    0.435E-02
RMM:   3    -0.105609532374E+04   -0.64154E-06   -0.14525E-05  3518   0.807E-03    0.198E-02
RMM:   4    -0.105609533134E+04   -0.76000E-05   -0.10353E-05  3422   0.548E-03    0.216E-02
RMM:   5    -0.105609533348E+04   -0.21316E-05   -0.50824E-06  3225   0.412E-03    0.643E-03
RMM:   6    -0.105609533367E+04   -0.19792E-06   -0.23395E-06  1906   0.235E-03    0.206E-03
RMM:   7    -0.105609533382E+04   -0.14518E-06   -0.13059E-06  1513   0.228E-03    0.169E-03
RMM:   8    -0.105609533390E+04   -0.83601E-07   -0.85836E-07  1253   0.196E-03
   1 F= -.10560953E+04 E0= -.10560953E+04  d E =-.105610E+04  mag=    80.0000
       N       E                     dE             d eps       ncg     rms          rms(c)
DAV:   1    -0.105611136033E+04   -0.16027E-01   -0.73024E+00  6192   0.327E+00    0.102E+00
RMM:   2    -0.105612402373E+04   -0.12663E-01   -0.20563E-01  6267   0.624E-01    0.680E-01
RMM:   3    -0.105612284734E+04    0.11764E-02   -0.12472E-02  6717   0.196E-01    0.504E-01
RMM:   4    -0.105612191951E+04    0.92783E-03   -0.29163E-03  6980   0.638E-02    0.263E-01
RMM:   5    -0.105612168109E+04    0.23842E-03   -0.81155E-04  6195   0.311E-02    0.750E-02
RMM:   6    -0.105612168337E+04   -0.22884E-05   -0.12635E-04  3844   0.155E-02    0.587E-02
RMM:   7    -0.105612168556E+04   -0.21879E-05   -0.56411E-05  3689   0.990E-03    0.342E-02
RMM:   8    -0.105612168181E+04    0.37533E-05   -0.32084E-05  3596   0.769E-03
   2 F= -.10561217E+04 E0= -.10561217E+04  d E =-.263479E-01  mag=    80.0000
       N       E                     dE             d eps       ncg     rms          rms(c)
DAV:   1    -0.105612102602E+04    0.65954E-03   -0.55372E+00  6176   0.285E+00    0.883E-01
RMM:   2    -0.105613067468E+04   -0.96487E-02   -0.15622E-01  6269   0.543E-01    0.589E-01
RMM:   3    -0.105612978238E+04    0.89230E-03   -0.94771E-03  6724   0.171E-01    0.434E-01
RMM:   4    -0.105612908485E+04    0.69753E-03   -0.22795E-03  6998   0.559E-02    0.226E-01
RMM:   5    -0.105612891042E+04    0.17443E-03   -0.62092E-04  5846   0.271E-02    0.653E-02
RMM:   6    -0.105612891134E+04   -0.91652E-06   -0.10542E-04  3780   0.142E-02    0.536E-02
RMM:   7    -0.105612891329E+04   -0.19544E-05   -0.47318E-05  3666   0.936E-03    0.312E-02
RMM:   8    -0.105612890972E+04    0.35678E-05   -0.28596E-05  3587   0.726E-03
   3 F= -.10561289E+04 E0= -.10561289E+04  d E =-.335758E-01  mag=    80.0000
       N       E                     dE             d eps       ncg     rms          rms(c)
DAV:   1    -0.105613677828E+04   -0.78650E-02   -0.34165E+00  6320   0.228E+00    0.115E+00
RMM:   2    -0.105613773407E+04   -0.95579E-03   -0.11454E-01  6334   0.436E-01    0.657E-01
RMM:   3    -0.105613669729E+04    0.10368E-02   -0.84789E-03  6442   0.168E-01    0.425E-01
RMM:   4    -0.105613625744E+04    0.43985E-03   -0.29207E-03  6972   0.593E-02    0.257E-01
RMM:   5    -0.105613620439E+04    0.53047E-04   -0.81927E-04  5996   0.360E-02    0.155E-01
RMM:   6    -0.105613621544E+04   -0.11050E-04   -0.16689E-04  3856   0.171E-02    0.108E-01
RMM:   7    -0.105613624247E+04   -0.27022E-04   -0.80619E-05  3670   0.111E-02    0.438E-02
RMM:   8    -0.105613626632E+04   -0.23856E-04   -0.60685E-05  3622   0.107E-02
   4 F= -.10561363E+04 E0= -.10561363E+04  d E =-.735660E-02  mag=    80.0000
       N       E                     dE             d eps       ncg     rms          rms(c)
DAV:   1    -0.105613688605E+04   -0.64358E-03   -0.68267E-01  6336   0.102E+00    0.511E-01
RMM:   2    -0.105613720177E+04   -0.31572E-03   -0.22854E-02  6330   0.195E-01    0.295E-01
RMM:   3    -0.105613702938E+04    0.17239E-03   -0.16157E-03  6301   0.755E-02    0.187E-01
RMM:   4    -0.105613694070E+04    0.88679E-04   -0.46346E-04  5121   0.265E-02    0.118E-01
RMM:   5    -0.105613693388E+04    0.68207E-05   -0.17109E-04  3823   0.206E-02    0.890E-02
RMM:   6    -0.105613693889E+04   -0.50164E-05   -0.52717E-05  3566   0.122E-02    0.473E-02
RMM:   7    -0.105613694840E+04   -0.95083E-05   -0.29918E-05  3533   0.697E-03    0.204E-02
RMM:   8    -0.105613695809E+04   -0.96890E-05   -0.19092E-05  3455   0.655E-03
   5 F= -.10561370E+04 E0= -.10561370E+04  d E =-.804837E-02  mag=    80.0000
       N       E                     dE             d eps       ncg     rms          rms(c)
DAV:   1    -0.105613919431E+04   -0.22459E-02   -0.29242E+00  6192   0.203E+00    0.568E-01
RMM:   2    -0.105614418966E+04   -0.49954E-02   -0.75084E-02  6395   0.369E-01    0.404E-01
RMM:   3    -0.105614369056E+04    0.49910E-03   -0.40106E-03  6883   0.102E-01    0.242E-01
RMM:   4    -0.105614321865E+04    0.47191E-03   -0.10859E-03  6669   0.384E-02    0.121E-01
RMM:   5    -0.105614313227E+04    0.86376E-04   -0.27677E-04  4504   0.214E-02    0.373E-02
RMM:   6    -0.105614313544E+04   -0.31643E-05   -0.52194E-05  3611   0.113E-02    0.220E-02
RMM:   7    -0.105614313563E+04   -0.18929E-06   -0.33764E-05  3571   0.754E-03    0.136E-02
RMM:   8    -0.105614313586E+04   -0.23090E-06   -0.16005E-05  3343   0.576E-03
   6 F= -.10561431E+04 E0= -.10561431E+04  d E =-.617777E-02  mag=    80.0000
       N       E                     dE             d eps       ncg     rms          rms(c)
DAV:   1    -0.105613109803E+04    0.12038E-01   -0.14041E+01  6160   0.444E+00    0.124E+00
RMM:   2    -0.105615511416E+04   -0.24016E-01   -0.35895E-01  6380   0.808E-01    0.891E-01
RMM:   3    -0.105615281740E+04    0.22968E-02   -0.19239E-02  7014   0.226E-01    0.535E-01
RMM:   4    -0.105615059699E+04    0.22204E-02   -0.51121E-03  7247   0.827E-02    0.273E-01
RMM:   5    -0.105615019025E+04    0.40675E-03   -0.14969E-03  6994   0.420E-02    0.828E-02
RMM:   6    -0.105615020169E+04   -0.11440E-04   -0.21509E-04  4286   0.174E-02    0.491E-02
RMM:   7    -0.105615020689E+04   -0.52025E-05   -0.11588E-04  3882   0.106E-02    0.247E-02
RMM:   8    -0.105615020793E+04   -0.10408E-05   -0.61602E-05  3683   0.856E-03
   7 F= -.10561502E+04 E0= -.10561502E+04  d E =-.132498E-01  mag=    80.0000
       N       E                     dE             d eps       ncg     rms          rms(c)
DAV:   1    -0.105615467433E+04   -0.44674E-02   -0.46058E+00  6176   0.255E+00    0.944E-01
RMM:   2    -0.105615889674E+04   -0.42224E-02   -0.13735E-01  6447   0.476E-01    0.603E-01
RMM:   3    -0.105615745714E+04    0.14396E-02   -0.78737E-03  6737   0.158E-01    0.336E-01
RMM:   4    -0.105615698702E+04    0.47013E-03   -0.22104E-03  7108   0.538E-02    0.211E-01
RMM:   5    -0.105615683135E+04    0.15567E-03   -0.57063E-04  6102   0.277E-02    0.106E-01
RMM:   6    -0.105615684158E+04   -0.10229E-04   -0.19887E-04  3952   0.165E-02    0.772E-02
RMM:   7    -0.105615686224E+04   -0.20666E-04   -0.87113E-05  3656   0.129E-02    0.607E-02
RMM:   8    -0.105615687866E+04   -0.16417E-04   -0.56297E-05  3580   0.102E-02
   8 F= -.10561569E+04 E0= -.10561569E+04  d E =-.667073E-02  mag=    80.0000
       N       E                     dE             d eps       ncg     rms          rms(c)
DAV:   1    -0.105615712073E+04   -0.25849E-03   -0.48438E+00  6160   0.262E+00    0.970E-01
RMM:   2    -0.105616154615E+04   -0.44254E-02   -0.14377E-01  6437   0.487E-01    0.618E-01
RMM:   3    -0.105616008509E+04    0.14611E-02   -0.81698E-03  6690   0.162E-01    0.341E-01
RMM:   4    -0.105615961116E+04    0.47392E-03   -0.23127E-03  7143   0.551E-02    0.215E-01
RMM:   5    -0.105615946439E+04    0.14677E-03   -0.62879E-04  6327   0.287E-02    0.105E-01
RMM:   6    -0.105615947833E+04   -0.13938E-04   -0.20179E-04  3986   0.165E-02    0.792E-02
RMM:   7    -0.105615950003E+04   -0.21697E-04   -0.84755E-05  3649   0.124E-02    0.589E-02
RMM:   8    -0.105615951772E+04   -0.17691E-04   -0.56258E-05  3589   0.103E-02
   9 F= -.10561595E+04 E0= -.10561595E+04  d E =-.930979E-02  mag=    80.0000
       N       E                     dE             d eps       ncg     rms          rms(c)
DAV:   1    -0.105615726793E+04    0.22321E-02   -0.24631E+00  6240   0.180E+00    0.457E-01
RMM:   2    -0.105616404018E+04   -0.67723E-02   -0.61296E-02  6506   0.316E-01    0.278E-01
RMM:   3    -0.105616419498E+04   -0.15480E-03   -0.27753E-03  6608   0.864E-02    0.151E-01
RMM:   4    -0.105616406941E+04    0.12558E-03   -0.45930E-04  5181   0.264E-02    0.865E-02
RMM:   5    -0.105616404803E+04    0.21376E-04   -0.24457E-04  4238   0.181E-02    0.310E-02
RMM:   6    -0.105616405160E+04   -0.35710E-05   -0.41339E-05  3594   0.111E-02    0.279E-02
RMM:   7    -0.105616405393E+04   -0.23277E-05   -0.27551E-05  3503   0.604E-03    0.128E-02
RMM:   8    -0.105616405459E+04   -0.65907E-06   -0.14376E-05  3332   0.583E-03
  10 F= -.10561641E+04 E0= -.10561641E+04  d E =-.453687E-02  mag=    80.0000
       N       E                     dE             d eps       ncg     rms          rms(c)
DAV:   1    -0.105612599420E+04    0.38060E-01   -0.16276E+01  6176   0.463E+00    0.118E+00
RMM:   2    -0.105617056547E+04   -0.44571E-01   -0.40329E-01  6504   0.812E-01    0.724E-01
RMM:   3    -0.105617162738E+04   -0.10619E-02   -0.17949E-02  6977   0.220E-01    0.391E-01
RMM:   4    -0.105617084071E+04    0.78667E-03   -0.30412E-03  7228   0.647E-02    0.231E-01
RMM:   5    -0.105617064961E+04    0.19110E-03   -0.16267E-03  6504   0.394E-02    0.662E-02
RMM:   6    -0.105617067032E+04   -0.20706E-04   -0.20811E-04  4212   0.185E-02    0.441E-02
RMM:   7    -0.105617067543E+04   -0.51155E-05   -0.86162E-05  3810   0.956E-03    0.315E-02
RMM:   8    -0.105617067763E+04   -0.21954E-05   -0.67439E-05  3729   0.883E-03
  11 F= -.10561707E+04 E0= -.10561707E+04  d E =-.111599E-01  mag=    80.0000
       N       E                     dE             d eps       ncg     rms          rms(c)
DAV:   1    -0.105599090561E+04    0.17977E+00   -0.65115E+01  6176   0.927E+00    0.238E+00
RMM:   2    -0.105617021639E+04   -0.17931E+00   -0.16254E+00  6510   0.163E+00    0.148E+00
RMM:   3    -0.105617433883E+04   -0.41224E-02   -0.71473E-02  7047   0.442E-01    0.796E-01
RMM:   4    -0.105617127620E+04    0.30626E-02   -0.11829E-02  7734   0.128E-01    0.487E-01
RMM:   5    -0.105617038052E+04    0.89569E-03   -0.66779E-03  7083   0.787E-02    0.149E-01
RMM:   6    -0.105617050202E+04   -0.12150E-03   -0.97507E-04  6334   0.349E-02    0.812E-02
RMM:   7    -0.105617052186E+04   -0.19839E-04   -0.34549E-04  4708   0.146E-02    0.519E-02
RMM:   8    -0.105617053031E+04   -0.84466E-05   -0.21753E-04  4358   0.125E-02
  12 F= -.10561705E+04 E0= -.10561705E+04  d E =-.110126E-01  mag=    80.0000
       N       E                     dE             d eps       ncg     rms          rms(c)
DAV:   1    -0.105610053893E+04    0.69983E-01   -0.26565E+01  6176   0.592E+00    0.150E+00
RMM:   2    -0.105617279520E+04   -0.72256E-01   -0.65171E-01  6485   0.104E+00    0.903E-01
RMM:   3    -0.105617464241E+04   -0.18472E-02   -0.28696E-02  6919   0.280E-01    0.497E-01
RMM:   4    -0.105617325945E+04    0.13830E-02   -0.51170E-03  7174   0.850E-02    0.266E-01
RMM:   5    -0.105617308769E+04    0.17176E-03   -0.22141E-03  6616   0.463E-02    0.767E-02
RMM:   6    -0.105617310746E+04   -0.19765E-04   -0.23594E-04  4357   0.198E-02    0.465E-02
RMM:   7    -0.105617311151E+04   -0.40517E-05   -0.89606E-05  3850   0.990E-03    0.314E-02
RMM:   8    -0.105617311315E+04   -0.16414E-05   -0.83603E-05  3809   0.924E-03
  13 F= -.10561731E+04 E0= -.10561731E+04  d E =-.135954E-01  mag=    80.0000
       N       E                     dE             d eps       ncg     rms          rms(c)
DAV:   1    -0.105615313787E+04    0.19974E-01   -0.73139E+00  6176   0.311E+00    0.792E-01
RMM:   2    -0.105617297782E+04   -0.19840E-01   -0.17938E-01  6489   0.544E-01    0.484E-01
RMM:   3    -0.105617349516E+04   -0.51734E-03   -0.78809E-03  6822   0.147E-01    0.263E-01
RMM:   4    -0.105617312645E+04    0.36871E-03   -0.13016E-03  6361   0.436E-02    0.151E-01
RMM:   5    -0.105617304673E+04    0.79725E-04   -0.68084E-04  5430   0.274E-02    0.459E-02
RMM:   6    -0.105617305180E+04   -0.50693E-05   -0.71857E-05  3656   0.135E-02    0.340E-02
RMM:   7    -0.105617305396E+04   -0.21666E-05   -0.33506E-05  3512   0.687E-03    0.217E-02
RMM:   8    -0.105617305396E+04    0.41473E-08   -0.22080E-05  3437   0.656E-03
  14 F= -.10561731E+04 E0= -.10561731E+04  d E =-.135362E-01  mag=    80.0000
       N       E                     dE             d eps       ncg     rms          rms(c)
DAV:   1    -0.105616799039E+04    0.50636E-02   -0.19705E+00  6240   0.161E+00    0.409E-01
RMM:   2    -0.105617334235E+04   -0.53520E-02   -0.48227E-02  6491   0.282E-01    0.248E-01
RMM:   3    -0.105617347856E+04   -0.13621E-03   -0.20969E-03  6307   0.762E-02    0.136E-01
RMM:   4    -0.105617337670E+04    0.10186E-03   -0.33601E-04  4557   0.236E-02    0.753E-02
RMM:   5    -0.105617336187E+04    0.14831E-04   -0.16770E-04  3742   0.162E-02    0.316E-02
RMM:   6    -0.105617336557E+04   -0.37087E-05   -0.31326E-05  3428   0.999E-03    0.242E-02
RMM:   7    -0.105617336680E+04   -0.12307E-05   -0.14786E-05  3148   0.499E-03    0.109E-02
RMM:   8    -0.105617336707E+04   -0.26786E-06   -0.89782E-06  2919   0.470E-03
  15 F= -.10561734E+04 E0= -.10561734E+04  d E =-.138494E-01  mag=    80.0000
       N       E                     dE             d eps       ncg     rms          rms(c)
DAV:   1    -0.105617330086E+04    0.65947E-04   -0.19112E+00  6176   0.155E+00    0.459E-01
RMM:   2    -0.105617768309E+04   -0.43822E-02   -0.50050E-02  6426   0.287E-01    0.358E-01
RMM:   3    -0.105617759514E+04    0.87946E-04   -0.24964E-03  6315   0.773E-02    0.196E-01
RMM:   4    -0.105617743089E+04    0.16425E-03   -0.46768E-04  4866   0.266E-02    0.102E-01
RMM:   5    -0.105617739752E+04    0.33366E-04   -0.18592E-04  3877   0.171E-02    0.341E-02
RMM:   6    -0.105617739974E+04   -0.22180E-05   -0.28443E-05  3566   0.957E-03    0.183E-02
RMM:   7    -0.105617739914E+04    0.59576E-06   -0.17131E-05  3450   0.507E-03    0.112E-02
RMM:   8    -0.105617739719E+04    0.19534E-05   -0.91216E-06  3161   0.441E-03
  16 F= -.10561774E+04 E0= -.10561774E+04  d E =-.403012E-02  mag=    80.0000
       N       E                     dE             d eps       ncg     rms          rms(c)
DAV:   1    -0.105616968344E+04    0.77157E-02   -0.45327E+00  6160   0.239E+00    0.706E-01
RMM:   2    -0.105618017141E+04   -0.10488E-01   -0.11936E-01  6453   0.442E-01    0.554E-01
RMM:   3    -0.105617993267E+04    0.23874E-03   -0.59501E-03  6790   0.118E-01    0.302E-01
RMM:   4    -0.105617955383E+04    0.37884E-03   -0.11856E-03  6228   0.401E-02    0.159E-01
RMM:   5    -0.105617947947E+04    0.74360E-04   -0.48470E-04  5241   0.246E-02    0.438E-02
RMM:   6    -0.105617948154E+04   -0.20775E-05   -0.52334E-05  3682   0.118E-02    0.243E-02
RMM:   7    -0.105617948041E+04    0.11382E-05   -0.37134E-05  3630   0.676E-03    0.169E-02
RMM:   8    -0.105617947860E+04    0.18062E-05   -0.17767E-05  3402   0.562E-03
  17 F= -.10561795E+04 E0= -.10561795E+04  d E =-.611153E-02  mag=    80.0000
       N       E                     dE             d eps       ncg     rms          rms(c)
DAV:   1    -0.105617986121E+04   -0.38081E-03   -0.15658E+00  6208   0.137E+00    0.399E-01
RMM:   2    -0.105618299634E+04   -0.31351E-02   -0.42548E-02  6524   0.253E-01    0.273E-01
RMM:   3    -0.105618273568E+04    0.26067E-03   -0.21118E-03  6483   0.678E-02    0.174E-01
RMM:   4    -0.105618260695E+04    0.12873E-03   -0.49532E-04  5286   0.255E-02    0.103E-01
RMM:   5    -0.105618256996E+04    0.36992E-04   -0.13512E-04  3784   0.153E-02    0.403E-02
RMM:   6    -0.105618257683E+04   -0.68691E-05   -0.45982E-05  3590   0.992E-03    0.317E-02
RMM:   7    -0.105618258132E+04   -0.44973E-05   -0.25190E-05  3540   0.731E-03    0.240E-02
RMM:   8    -0.105618258698E+04   -0.56614E-05   -0.14888E-05  3383   0.522E-03
  18 F= -.10561826E+04 E0= -.10561826E+04  d E =-.310839E-02  mag=    80.0000
       N       E                     dE             d eps       ncg     rms          rms(c)
DAV:   1    -0.105616421591E+04    0.18365E-01   -0.14088E+01  6144   0.411E+00    0.120E+00
RMM:   2    -0.105619227386E+04   -0.28058E-01   -0.38408E-01  6504   0.760E-01    0.816E-01
RMM:   3    -0.105618996749E+04    0.23064E-02   -0.18914E-02  6878   0.205E-01    0.522E-01
RMM:   4    -0.105618881323E+04    0.11543E-02   -0.44504E-03  7089   0.737E-02    0.314E-01
RMM:   5    -0.105618846839E+04    0.34484E-03   -0.11988E-03  6693   0.369E-02    0.123E-01
RMM:   6    -0.105618850201E+04   -0.33624E-04   -0.33313E-04  4643   0.205E-02    0.769E-02
RMM:   7    -0.105618853106E+04   -0.29044E-04   -0.12634E-04  3861   0.131E-02    0.576E-02
RMM:   8    -0.105618854752E+04   -0.16467E-04   -0.77478E-05  3720   0.110E-02
  19 F= -.10561885E+04 E0= -.10561885E+04  d E =-.906892E-02  mag=    80.0000
       N       E                     dE             d eps       ncg     rms          rms(c)
DAV:   1    -0.105618434646E+04    0.41846E-02   -0.39724E+00  6368   0.217E+00    0.715E-01
RMM:   2    -0.105619395136E+04   -0.96049E-02   -0.10374E-01  6430   0.404E-01    0.427E-01
RMM:   3    -0.105619407331E+04   -0.12196E-03   -0.57390E-03  6989   0.110E-01    0.313E-01
RMM:   4    -0.105619385102E+04    0.22229E-03   -0.91514E-04  6075   0.338E-02    0.189E-01
RMM:   5    -0.105619375372E+04    0.97307E-04   -0.47229E-04  5084   0.234E-02    0.698E-02
RMM:   6    -0.105619376280E+04   -0.90812E-05   -0.13644E-04  3857   0.143E-02    0.400E-02
RMM:   7    -0.105619376430E+04   -0.15046E-05   -0.47022E-05  3640   0.893E-03    0.248E-02
RMM:   8    -0.105619376041E+04    0.38927E-05   -0.32549E-05  3532   0.700E-03
  20 F= -.10561938E+04 E0= -.10561938E+04  d E =-.521289E-02  mag=    80.0000
       N       E                     dE             d eps       ncg     rms          rms(c)
DAV:   1    -0.105617390617E+04    0.19858E-01   -0.92285E+00  6160   0.331E+00    0.108E+00
RMM:   2    -0.105619647656E+04   -0.22570E-01   -0.24024E-01  6434   0.617E-01    0.648E-01
RMM:   3    -0.105619685854E+04   -0.38198E-03   -0.13074E-02  6928   0.168E-01    0.470E-01
RMM:   4    -0.105619631376E+04    0.54478E-03   -0.20514E-03  6847   0.507E-02    0.282E-01
RMM:   5    -0.105619609716E+04    0.21659E-03   -0.95038E-04  6079   0.307E-02    0.116E-01
RMM:   6    -0.105619611219E+04   -0.15027E-04   -0.22006E-04  4201   0.178E-02    0.500E-02
RMM:   7    -0.105619611326E+04   -0.10718E-05   -0.69472E-05  3812   0.104E-02    0.241E-02
RMM:   8    -0.105619610910E+04    0.41573E-05   -0.57612E-05  3713   0.798E-03
  21 F= -.10561961E+04 E0= -.10561961E+04  d E =-.756158E-02  mag=    80.0000
       N       E                     dE             d eps       ncg     rms          rms(c)
DAV:   1    -0.105619318727E+04    0.29260E-02   -0.24216E+00  6240   0.164E+00    0.416E-01
RMM:   2    -0.105619931584E+04   -0.61286E-02   -0.59791E-02  6569   0.290E-01    0.256E-01
RMM:   3    -0.105619928459E+04    0.31251E-04   -0.26398E-03  6156   0.695E-02    0.147E-01
RMM:   4    -0.105619913806E+04    0.14653E-03   -0.50767E-04  5021   0.246E-02    0.738E-02
RMM:   5    -0.105619912888E+04    0.91803E-05   -0.18710E-04  4166   0.148E-02    0.227E-02
RMM:   6    -0.105619913267E+04   -0.37909E-05   -0.29510E-05  3598   0.902E-03    0.185E-02
RMM:   7    -0.105619913560E+04   -0.29287E-05   -0.31939E-05  3335   0.543E-03    0.125E-02
RMM:   8    -0.105619913663E+04   -0.10273E-05   -0.15312E-05  3067   0.494E-03
  22 F= -.10561991E+04 E0= -.10561991E+04  d E =-.302752E-02  mag=    80.0000
       N       E                     dE             d eps       ncg     rms          rms(c)
DAV:   1    -0.105615397905E+04    0.45157E-01   -0.21775E+01  6144   0.491E+00    0.125E+00
RMM:   2    -0.105620896178E+04   -0.54983E-01   -0.53633E-01  6557   0.869E-01    0.779E-01
RMM:   3    -0.105620878471E+04    0.17708E-03   -0.23208E-02  7072   0.208E-01    0.445E-01
RMM:   4    -0.105620749370E+04    0.12910E-02   -0.42336E-03  6819   0.693E-02    0.234E-01
RMM:   5    -0.105620735717E+04    0.13653E-03   -0.16972E-03  6318   0.396E-02    0.720E-02
RMM:   6    -0.105620739090E+04   -0.33729E-04   -0.28800E-04  4428   0.184E-02    0.544E-02
RMM:   7    -0.105620740235E+04   -0.11454E-04   -0.12000E-04  3959   0.105E-02    0.386E-02
RMM:   8    -0.105620740811E+04   -0.57586E-05   -0.75043E-05  3801   0.894E-03
  23 F= -.10562074E+04 E0= -.10562074E+04  d E =-.112990E-01  mag=    80.0000
       N       E                     dE             d eps       ncg     rms          rms(c)
DAV:   1    -0.105599772453E+04    0.20968E+00   -0.87075E+01  6144   0.982E+00    0.250E+00
RMM:   2    -0.105622061173E+04   -0.22289E+00   -0.21775E+00  6546   0.174E+00    0.161E+00
RMM:   3    -0.105622005286E+04    0.55887E-03   -0.94563E-02  7187   0.422E-01    0.909E-01
RMM:   4    -0.105621503848E+04    0.50144E-02   -0.16225E-02  7271   0.135E-01    0.523E-01
RMM:   5    -0.105621408540E+04    0.95307E-03   -0.76052E-03  7042   0.834E-02    0.183E-01
RMM:   6    -0.105621425120E+04   -0.16580E-03   -0.13470E-03  6212   0.378E-02    0.108E-01
RMM:   7    -0.105621430004E+04   -0.48843E-04   -0.45440E-04  4765   0.165E-02    0.667E-02
RMM:   8    -0.105621431914E+04   -0.19100E-04   -0.26321E-04  4486   0.132E-02
  24 F= -.10562143E+04 E0= -.10562143E+04  d E =-.182100E-01  mag=    80.0000
       N       E                     dE             d eps       ncg     rms          rms(c)
DAV:   1    -0.105620478922E+04    0.95108E-02   -0.82994E+00  6280   0.307E+00    0.862E-01
RMM:   2    -0.105622399936E+04   -0.19210E-01   -0.21590E-01  6477   0.568E-01    0.573E-01
RMM:   3    -0.105622356756E+04    0.43180E-03   -0.10657E-02  7073   0.150E-01    0.448E-01
RMM:   4    -0.105622310762E+04    0.45994E-03   -0.16493E-03  6678   0.448E-02    0.270E-01
RMM:   5    -0.105622287060E+04    0.23702E-03   -0.12723E-03  6291   0.350E-02    0.838E-02
RMM:   6    -0.105622290556E+04   -0.34952E-04   -0.22146E-04  4189   0.192E-02    0.607E-02
RMM:   7    -0.105622292253E+04   -0.16971E-04   -0.88510E-05  3900   0.958E-03    0.289E-02
RMM:   8    -0.105622293238E+04   -0.98574E-05   -0.59592E-05  3688   0.834E-03
  25 F= -.10562229E+04 E0= -.10562229E+04  d E =-.861324E-02  mag=    80.0000
       N       E                     dE             d eps       ncg     rms          rms(c)
DAV:   1    -0.105614240167E+04    0.80521E-01   -0.40692E+01  6144   0.680E+00    0.196E+00
RMM:   2    -0.105623588626E+04   -0.93485E-01   -0.10602E+00  6476   0.126E+00    0.130E+00
RMM:   3    -0.105623389461E+04    0.19917E-02   -0.51646E-02  7051   0.335E-01    0.101E+00
RMM:   4    -0.105623161338E+04    0.22812E-02   -0.72781E-03  7425   0.964E-02    0.606E-01
RMM:   5    -0.105623030349E+04    0.13099E-02   -0.62790E-03  6623   0.766E-02    0.195E-01
RMM:   6    -0.105623044208E+04   -0.13859E-03   -0.98522E-04  6077   0.390E-02    0.119E-01
RMM:   7    -0.105623050313E+04   -0.61053E-04   -0.30950E-04  4404   0.161E-02    0.627E-02
RMM:   8    -0.105623052311E+04   -0.19980E-04   -0.17586E-04  4072   0.137E-02
  26 F= -.10562305E+04 E0= -.10562305E+04  d E =-.162040E-01  mag=    80.0000
       N       E                     dE             d eps       ncg     rms          rms(c)
DAV:   1    -0.105622516380E+04    0.53393E-02   -0.51390E+00  6368   0.240E+00    0.706E-01
RMM:   2    -0.105623616245E+04   -0.10999E-01   -0.13240E-01  6598   0.434E-01    0.464E-01
RMM:   3    -0.105623558846E+04    0.57399E-03   -0.61960E-03  7050   0.110E-01    0.252E-01
RMM:   4    -0.105623523859E+04    0.34987E-03   -0.14941E-03  6595   0.420E-02    0.139E-01
RMM:   5    -0.105623516945E+04    0.69146E-04   -0.44945E-04  5244   0.234E-02    0.533E-02
RMM:   6    -0.105623517601E+04   -0.65600E-05   -0.10822E-04  3866   0.129E-02    0.348E-02
RMM:   7    -0.105623517640E+04   -0.39011E-06   -0.56666E-05  3702   0.903E-03    0.337E-02
RMM:   8    -0.105623517462E+04    0.17712E-05   -0.35680E-05  3530   0.668E-03
  27 F= -.10562352E+04 E0= -.10562352E+04  d E =-.465152E-02  mag=    80.0000
       N       E                     dE             d eps       ncg     rms          rms(c)
DAV:   1    -0.105619036829E+04    0.44808E-01   -0.25480E+01  6184   0.533E+00    0.156E+00
RMM:   2    -0.105624486229E+04   -0.54494E-01   -0.64842E-01  6577   0.962E-01    0.104E+00
RMM:   3    -0.105624232622E+04    0.25361E-02   -0.30126E-02  7097   0.245E-01    0.561E-01
RMM:   4    -0.105624059713E+04    0.17291E-02   -0.69653E-03  7023   0.911E-02    0.316E-01
RMM:   5    -0.105624025541E+04    0.34171E-03   -0.22424E-03  6932   0.477E-02    0.117E-01
RMM:   6    -0.105624029176E+04   -0.36344E-04   -0.41314E-04  4765   0.211E-02    0.674E-02
RMM:   7    -0.105624029447E+04   -0.27143E-05   -0.18129E-04  4107   0.130E-02    0.266E-02
RMM:   8    -0.105624029439E+04    0.83324E-07   -0.10838E-04  3912   0.102E-02
  28 F= -.10562403E+04 E0= -.10562403E+04  d E =-.977128E-02  mag=    80.0000
       N       E                     dE             d eps       ncg     rms          rms(c)
DAV:   1    -0.105622539085E+04    0.14904E-01   -0.85963E+00  6176   0.312E+00    0.830E-01
RMM:   2    -0.105624618820E+04   -0.20797E-01   -0.21277E-01  6585   0.553E-01    0.524E-01
RMM:   3    -0.105624588056E+04    0.30764E-03   -0.94324E-03  6872   0.136E-01    0.307E-01
RMM:   4    -0.105624521462E+04    0.66594E-03   -0.22209E-03  6628   0.515E-02    0.145E-01
RMM:   5    -0.105624519365E+04    0.20968E-04   -0.63587E-04  5632   0.278E-02    0.512E-02
RMM:   6    -0.105624520467E+04   -0.11016E-04   -0.12033E-04  4026   0.130E-02    0.365E-02
RMM:   7    -0.105624521023E+04   -0.55658E-05   -0.63333E-05  3772   0.802E-03    0.269E-02
RMM:   8    -0.105624521459E+04   -0.43624E-05   -0.45661E-05  3617   0.679E-03
  29 F= -.10562452E+04 E0= -.10562452E+04  d E =-.492020E-02  mag=    80.0000
