<?xml version="1.0" encoding="ISO-8859-1"?>
<modeling>
 <generator>
  <i name="program" type="string">vasp </i>
  <i name="version" type="string">5.4.1  </i>
  <i name="subversion" type="string">05Feb16 (build Jan 25 2017 20:16:33) complex                          parallel </i>
  <i name="platform" type="string">BWXE6 </i>
  <i name="date" type="string">2019 08 11 </i>
  <i name="time" type="string">11:57:31 </i>
 </generator>
 <incar>
  <i type="string" name="SYSTEM"> STF</i>
  <i type="string" name="PREC">normal</i>
  <i type="string" name="ALGO"> Fast</i>
  <i type="int" name="ISPIN">     2</i>
  <i type="int" name="NELM">    40</i>
  <i type="int" name="NELMIN">     8</i>
  <i type="int" name="IBRION">     2</i>
  <i name="EDIFF">      0.00010000</i>
  <i name="EDIFFG">     -0.03000000</i>
  <i type="int" name="NSW">    30</i>
  <i type="int" name="ISIF">     3</i>
  <i name="ENCUT">    520.00000000</i>
  <i type="int" name="NBANDS">   768</i>
  <v name="MAGMOM">      0.60000000      0.60000000      0.60000000      0.60000000      0.60000000      0.60000000      0.60000000      0.60000000      0.60000000      0.60000000      0.60000000      0.60000000      0.60000000      0.60000000      0.60000000      0.60000000      0.60000000      0.60000000      0.60000000      0.60000000
      0.60000000      0.60000000      0.60000000      0.60000000      0.60000000      0.60000000      0.60000000      0.60000000      0.60000000      0.60000000      0.60000000      0.60000000      0.60000000      0.60000000      0.60000000      0.60000000      0.60000000      0.60000000      0.60000000      0.60000000
      0.60000000      0.60000000      0.60000000      0.60000000      0.60000000      0.60000000      0.60000000      0.60000000      5.00000000      5.00000000      5.00000000      5.00000000      5.00000000      5.00000000      5.00000000      5.00000000      5.00000000      5.00000000      5.00000000      5.00000000
      5.00000000      5.00000000      5.00000000      5.00000000      0.60000000      0.60000000      0.60000000      0.60000000      0.60000000      0.60000000      0.60000000      0.60000000      0.60000000      0.60000000      0.60000000      0.60000000      0.60000000      0.60000000      0.60000000      0.60000000
      0.60000000      0.60000000      0.60000000      0.60000000      0.60000000      0.60000000      0.60000000      0.60000000      0.60000000      0.60000000      0.60000000      0.60000000      0.60000000      0.60000000      0.60000000      0.60000000      0.60000000      0.60000000      0.60000000      0.60000000
      0.60000000      0.60000000      0.60000000      0.60000000      0.60000000      0.60000000      0.60000000      0.60000000      0.60000000      0.60000000      0.60000000      0.60000000      0.60000000      0.60000000      0.60000000      0.60000000      0.60000000      0.60000000      0.60000000      0.60000000
      0.60000000      0.60000000      0.60000000      0.60000000      0.60000000      0.60000000      0.60000000      0.60000000      0.60000000      0.60000000      0.60000000      0.60000000      0.60000000      0.60000000      0.60000000      0.60000000      0.60000000      0.60000000      0.60000000      0.60000000
      0.60000000      0.60000000      0.60000000      0.60000000      0.60000000      0.60000000      0.60000000      0.60000000      0.60000000      0.60000000      0.60000000      0.60000000</v>
  <i type="string" name="LREAL"> Auto</i>
  <i type="int" name="ISMEAR">     0</i>
  <i name="SIGMA">      0.05000000</i>
  <i type="int" name="LMAXMIX">     4</i>
  <v type="int" name="KPOINT_BSE">    -1     0     0     0</v>
  <i type="int" name="NELM">    40</i>
  <i type="logical" name="LDAU"> T  </i>
  <v type="int" name="LDAUTYPE">     2</v>
  <v type="int" name="LDAUL">     0     2     2     0</v>
  <v name="LDAUU">      0.00000000      3.00000000      5.00000000      0.00000000</v>
  <v name="LDAUJ">      0.00000000      0.00000000      0.00000000      0.00000000</v>
  <i type="int" name="LDAUPRINT">     1</i>
 </incar>
 <kpoints>
  <generation param="Monkhorst-Pack">
   <v type="int" name="divisions">       2        2        2 </v>
   <v name="usershift">      0.00000000       0.00000000       0.00000000 </v>
   <v name="genvec1">      0.50000000      -0.00000000       0.00000000 </v>
   <v name="genvec2">     -0.00000000       0.50000000       0.00000000 </v>
   <v name="genvec3">      0.00000000       0.00000000       0.50000000 </v>
   <v name="shift">      0.50000000       0.50000000       0.50000000 </v>
  </generation>
  <varray name="kpointlist" >
   <v>       0.25000000       0.25000000       0.25000000 </v>
   <v>      -0.25000000       0.25000000       0.25000000 </v>
  </varray>
  <varray name="weights" >
   <v>       0.50000000 </v>
   <v>       0.50000000 </v>
  </varray>
 </kpoints>
 <parameters>
  <separator name="general" >
   <i type="string" name="SYSTEM">STF</i>
   <i type="logical" name="LCOMPAT"> F  </i>
  </separator>
  <separator name="electronic" >
   <i type="string" name="PREC">normal</i>
   <i name="ENMAX">    520.00000000</i>
   <i name="ENAUG">    605.39200000</i>
   <i name="EDIFF">      0.00010000</i>
   <i type="int" name="IALGO">    68</i>
   <i type="int" name="IWAVPR">    11</i>
   <i type="int" name="NBANDS">   768</i>
   <i name="NELECT">   1040.00000000</i>
   <i type="int" name="TURBO">     0</i>
   <i type="int" name="IRESTART">     0</i>
   <i type="int" name="NREBOOT">     0</i>
   <i type="int" name="NMIN">     0</i>
   <i name="EREF">      0.00000000</i>
   <separator name="electronic smearing" >
    <i type="int" name="ISMEAR">     0</i>
    <i name="SIGMA">      0.05000000</i>
    <i name="KSPACING">      0.50000000</i>
    <i type="logical" name="KGAMMA"> T  </i>
   </separator>
   <separator name="electronic projectors" >
    <i type="logical" name="LREAL"> T  </i>
    <v name="ROPT">     -0.00050000     -0.00050000     -0.00050000     -0.00050000</v>
    <i type="int" name="LMAXPAW">  -100</i>
    <i type="int" name="LMAXMIX">     4</i>
    <i type="logical" name="NLSPLINE"> F  </i>
   </separator>
   <separator name="electronic startup" >
    <i type="int" name="ISTART">     1</i>
    <i type="int" name="ICHARG">     0</i>
    <i type="int" name="INIWAV">     1</i>
   </separator>
   <separator name="electronic spin" >
    <i type="int" name="ISPIN">     2</i>
    <i type="logical" name="LNONCOLLINEAR"> F  </i>
    <v name="MAGMOM">      0.60000000      0.60000000      0.60000000      0.60000000      0.60000000      0.60000000      0.60000000      0.60000000      0.60000000      0.60000000      0.60000000      0.60000000      0.60000000      0.60000000      0.60000000      0.60000000      0.60000000      0.60000000      0.60000000      0.60000000
      0.60000000      0.60000000      0.60000000      0.60000000      0.60000000      0.60000000      0.60000000      0.60000000      0.60000000      0.60000000      0.60000000      0.60000000      0.60000000      0.60000000      0.60000000      0.60000000      0.60000000      0.60000000      0.60000000      0.60000000
      0.60000000      0.60000000      0.60000000      0.60000000      0.60000000      0.60000000      0.60000000      0.60000000      5.00000000      5.00000000      5.00000000      5.00000000      5.00000000      5.00000000      5.00000000      5.00000000      5.00000000      5.00000000      5.00000000      5.00000000
      5.00000000      5.00000000      5.00000000      5.00000000      0.60000000      0.60000000      0.60000000      0.60000000      0.60000000      0.60000000      0.60000000      0.60000000      0.60000000      0.60000000      0.60000000      0.60000000      0.60000000      0.60000000      0.60000000      0.60000000
      0.60000000      0.60000000      0.60000000      0.60000000      0.60000000      0.60000000      0.60000000      0.60000000      0.60000000      0.60000000      0.60000000      0.60000000      0.60000000      0.60000000      0.60000000      0.60000000      0.60000000      0.60000000      0.60000000      0.60000000
      0.60000000      0.60000000      0.60000000      0.60000000      0.60000000      0.60000000      0.60000000      0.60000000      0.60000000      0.60000000      0.60000000      0.60000000      0.60000000      0.60000000      0.60000000      0.60000000      0.60000000      0.60000000      0.60000000      0.60000000
      0.60000000      0.60000000      0.60000000      0.60000000      0.60000000      0.60000000      0.60000000      0.60000000      0.60000000      0.60000000      0.60000000      0.60000000      0.60000000      0.60000000      0.60000000      0.60000000      0.60000000      0.60000000      0.60000000      0.60000000
      0.60000000      0.60000000      0.60000000      0.60000000      0.60000000      0.60000000      0.60000000      0.60000000      0.60000000      0.60000000      0.60000000      0.60000000</v>
    <i name="NUPDOWN">     -1.00000000</i>
    <i type="logical" name="LSORBIT"> F  </i>
    <v name="SAXIS">      0.00000000      0.00000000      1.00000000</v>
    <i type="logical" name="LSPIRAL"> F  </i>
    <v name="QSPIRAL">      0.00000000      0.00000000      0.00000000</v>
    <i type="logical" name="LZEROZ"> F  </i>
   </separator>
   <separator name="electronic exchange-correlation" >
    <i type="logical" name="LASPH"> F  </i>
    <i type="logical" name="LMETAGGA"> F  </i>
   </separator>
   <separator name="electronic convergence" >
    <i type="int" name="NELM">    40</i>
    <i type="int" name="NELMDL">     0</i>
    <i type="int" name="NELMIN">     8</i>
    <i name="ENINI">    520.00000000</i>
    <separator name="electronic convergence detail" >
     <i type="logical" name="LDIAG"> T  </i>
     <i type="logical" name="LSUBROT"> F  </i>
     <i name="WEIMIN">      0.00100000</i>
     <i name="EBREAK">      0.00000003</i>
     <i name="DEPER">      0.30000000</i>
     <i type="int" name="NRMM">     4</i>
     <i name="TIME">      0.40000000</i>
    </separator>
   </separator>
   <separator name="electronic mixer" >
    <i name="AMIX">      0.40000000</i>
    <i name="BMIX">      1.00000000</i>
    <i name="AMIN">      0.10000000</i>
    <i name="AMIX_MAG">      1.60000000</i>
    <i name="BMIX_MAG">      1.00000000</i>
    <separator name="electronic mixer details" >
     <i type="int" name="IMIX">     4</i>
     <i type="logical" name="MIXFIRST"> F  </i>
     <i type="int" name="MAXMIX">   -45</i>
     <i name="WC">    100.00000000</i>
     <i type="int" name="INIMIX">     1</i>
     <i type="int" name="MIXPRE">     1</i>
     <i type="int" name="MREMOVE">     5</i>
    </separator>
   </separator>
   <separator name="electronic dipolcorrection" >
    <i type="logical" name="LDIPOL"> F  </i>
    <i type="logical" name="LMONO"> F  </i>
    <i type="int" name="IDIPOL">     0</i>
    <i name="EPSILON">      1.00000000</i>
    <v name="DIPOL">   -100.00000000   -100.00000000   -100.00000000</v>
    <i name="EFIELD">      0.00000000</i>
   </separator>
  </separator>
  <separator name="grids" >
   <i type="int" name="NGX">    64</i>
   <i type="int" name="NGY">    64</i>
   <i type="int" name="NGZ">    90</i>
   <i type="int" name="NGXF">   128</i>
   <i type="int" name="NGYF">   128</i>
   <i type="int" name="NGZF">   180</i>
   <i type="logical" name="ADDGRID"> F  </i>
  </separator>
  <separator name="ionic" >
   <i type="int" name="NSW">    30</i>
   <i type="int" name="IBRION">     2</i>
   <i type="int" name="ISIF">     3</i>
   <i name="PSTRESS">      0.00000000</i>
   <i name="EDIFFG">     -0.03000000</i>
   <i type="int" name="NFREE">     1</i>
   <i name="POTIM">      0.50000000</i>
   <i name="SMASS">     -3.00000000</i>
   <i name="SCALEE">      1.00000000</i>
  </separator>
  <separator name="ionic md" >
   <i name="TEBEG">      0.00010000</i>
   <i name="TEEND">      0.00010000</i>
   <i type="int" name="NBLOCK">     1</i>
   <i type="int" name="KBLOCK">    30</i>
   <i type="int" name="NPACO">   256</i>
   <i name="APACO">     16.00000000</i>
  </separator>
  <separator name="symmetry" >
   <i type="int" name="ISYM">     2</i>
   <i name="SYMPREC">      0.00001000</i>
  </separator>
  <separator name="dos" >
   <i type="logical" name="LORBIT"> F  </i>
   <v name="RWIGS">     -1.00000000     -1.00000000     -1.00000000     -1.00000000</v>
   <i type="int" name="NEDOS">   301</i>
   <i name="EMIN">     10.00000000</i>
   <i name="EMAX">    -10.00000000</i>
   <i name="EFERMI">      0.00000000</i>
  </separator>
  <separator name="writing" >
   <i type="int" name="NWRITE">     2</i>
   <i type="logical" name="LWAVE"> T  </i>
   <i type="logical" name="LCHARG"> T  </i>
   <i type="logical" name="LPARD"> F  </i>
   <i type="logical" name="LVTOT"> F  </i>
   <i type="logical" name="LVHAR"> F  </i>
   <i type="logical" name="LELF"> F  </i>
   <i type="logical" name="LOPTICS"> F  </i>
   <v name="STM">      0.00000000      0.00000000      0.00000000      0.00000000      0.00000000      0.00000000      0.00000000</v>
  </separator>
  <separator name="performance" >
   <i type="int" name="NPAR">     2</i>
   <i type="int" name="NSIM">     4</i>
   <i type="int" name="NBLK">    -1</i>
   <i type="logical" name="LPLANE"> T  </i>
   <i type="logical" name="LSCALAPACK"> T  </i>
   <i type="logical" name="LSCAAWARE"> F  </i>
   <i type="logical" name="LSCALU"> F  </i>
   <i type="logical" name="LASYNC"> F  </i>
   <i type="logical" name="LORBITALREAL"> F  </i>
  </separator>
  <separator name="miscellaneous" >
   <i type="int" name="IDIOT">     3</i>
   <i type="logical" name="LMUSIC"> F  </i>
   <v name="POMASS">     87.62000000     47.88000000     55.84700000     16.00000000</v>
   <v name="DARWINR">      0.00000000      0.00000000      0.00000000      0.00000000</v>
   <v name="DARWINV">      1.00000000      1.00000000      1.00000000      1.00000000</v>
   <i type="logical" name="LCORR"> T  </i>
  </separator>
  <i type="logical" name="GGA_COMPAT"> T  </i>
  <i type="logical" name="LBERRY"> F  </i>
  <i type="int" name="ICORELEVEL">     0</i>
  <i type="logical" name="LDAU"> T  </i>
  <v type="int" name="LDAUTYPE">     2</v>
  <v type="int" name="LDAUL">     0</v>
  <v name="LDAUU">      0.00000000</v>
  <v name="LDAUJ">      0.00000000</v>
  <i type="int" name="LDAUPRINT">     1</i>
  <i type="int" name="I_CONSTRAINED_M">     0</i>
  <separator name="electronic exchange-correlation" >
   <i type="string" name="GGA">--</i>
   <i type="int" name="VOSKOWN">     0</i>
   <i type="logical" name="LHFCALC"> F  </i>
   <i type="string" name="PRECFOCK"></i>
   <i type="logical" name="LSYMGRAD"> F  </i>
   <i type="logical" name="LHFONE"> F  </i>
   <i type="logical" name="LRHFCALC"> F  </i>
   <i type="logical" name="LTHOMAS"> F  </i>
   <i type="logical" name="LMODELHF"> F  </i>
   <i name="ENCUT4O">     -1.00000000</i>
   <i type="int" name="EXXOEP">     0</i>
   <i type="int" name="FOURORBIT">     0</i>
   <i name="AEXX">      0.00000000</i>
   <i name="HFALPHA">      0.00000000</i>
   <i name="MCALPHA">      0.00000000</i>
   <i name="ALDAX">      1.00000000</i>
   <i name="AGGAX">      1.00000000</i>
   <i name="ALDAC">      1.00000000</i>
   <i name="AGGAC">      1.00000000</i>
   <i type="int" name="NKREDX">     1</i>
   <i type="int" name="NKREDY">     1</i>
   <i type="int" name="NKREDZ">     1</i>
   <i type="logical" name="SHIFTRED"> F  </i>
   <i type="logical" name="ODDONLY"> F  </i>
   <i type="logical" name="EVENONLY"> F  </i>
   <i type="int" name="LMAXFOCK">     0</i>
   <i type="int" name="NMAXFOCKAE">     0</i>
   <i type="logical" name="LFOCKAEDFT"> F  </i>
   <i name="HFSCREEN">      0.00000000</i>
   <i name="HFSCREENC">      0.00000000</i>
   <i type="int" name="NBANDSGWLOW">     0</i>
  </separator>
  <separator name="vdW DFT" >
   <i type="logical" name="LUSE_VDW"> F  </i>
   <i name="Zab_VDW">     -0.84910000</i>
   <i name="PARAM1">      0.12340000</i>
   <i name="PARAM2">      1.00000000</i>
   <i name="PARAM3">      0.00000000</i>
  </separator>
  <separator name="model GW" >
   <i type="int" name="MODEL_GW">     0</i>
   <i name="MODEL_EPS0">      7.81078083</i>
   <i name="MODEL_ALPHA">      1.00000000</i>
  </separator>
  <separator name="linear response parameters" >
   <i type="logical" name="LEPSILON"> F  </i>
   <i type="logical" name="LRPA"> F  </i>
   <i type="logical" name="LNABLA"> F  </i>
   <i type="logical" name="LVEL"> F  </i>
   <i type="int" name="KINTER">     0</i>
   <i name="CSHIFT">      0.10000000</i>
   <i name="OMEGAMAX">     -1.00000000</i>
   <i name="DEG_THRESHOLD">      0.00200000</i>
  </separator>
  <separator name="orbital magnetization" >
   <i type="logical" name="NUCIND"> F  </i>
   <v name="MAGPOS">      0.00000000      0.00000000      0.00000000</v>
   <i type="logical" name="LNICSALL"> T  </i>
   <i type="logical" name="ORBITALMAG"> F  </i>
   <i type="logical" name="LMAGBLOCH"> F  </i>
   <i type="logical" name="LCHIMAG"> F  </i>
   <i type="logical" name="LGAUGE"> T  </i>
   <i type="int" name="MAGATOM">     0</i>
   <v name="MAGDIPOL">      0.00000000      0.00000000      0.00000000</v>
   <v name="AVECCONST">      0.00000000      0.00000000      0.00000000</v>
  </separator>
  <separator name="response functions" >
   <i type="logical" name="LADDER"> F  </i>
   <i type="logical" name="LFXC"> F  </i>
   <i type="logical" name="LHARTREE"> T  </i>
   <i type="int" name="IBSE">     0</i>
   <v type="int" name="KPOINT">    -1     0     0     0</v>
   <i type="logical" name="LTCTE"> F  </i>
   <i type="logical" name="LTETE"> F  </i>
   <i type="logical" name="LTRIPLET"> F  </i>
   <i type="logical" name="LFXCEPS"> F  </i>
   <i type="logical" name="LFXHEG"> F  </i>
   <i type="int" name="NATURALO">     0</i>
   <i type="logical" name="L2ORDER"> F  </i>
   <i type="logical" name="LUSEW"> F  </i>
   <i name="ENCUTGW">     -2.00000000</i>
   <i name="ENCUTGWSOFT">     -2.00000000</i>
   <i name="ENCUTLF">     -1.00000000</i>
   <i type="int" name="LMAXMP2">    -1</i>
   <i name="SCISSOR">      0.00000000</i>
   <i type="int" name="NOMEGA">     0</i>
   <i type="int" name="NOMEGAR">     0</i>
   <i type="int" name="NBANDSGW">    -1</i>
   <i type="int" name="NBANDSO">    -1</i>
   <i type="int" name="NBANDSV">    -1</i>
   <i type="int" name="NELM">    40</i>
   <i type="int" name="NELMHF">     1</i>
   <i type="int" name="DIM">     3</i>
   <i type="int" name="ANTIRES">     0</i>
   <i name="OMEGAMAX">    -30.00000000</i>
   <i name="OMEGAMIN">    -30.00000000</i>
   <i name="OMEGATL">   -200.00000000</i>
   <i type="int" name="OMEGAGRID">     0</i>
   <i name="CSHIFT">     -0.10000000</i>
   <i type="logical" name="SELFENERGY"> F  </i>
   <i type="logical" name="LSPECTRAL"> F  </i>
   <i type="logical" name="LSPECTRALGW"> F  </i>
   <i type="logical" name="LSINGLES"> F  </i>
   <i type="logical" name="LFERMIGW"> F  </i>
   <i type="logical" name="ODDONLYGW"> F  </i>
   <i type="logical" name="EVENONLYGW"> F  </i>
   <i type="int" name="NKREDLFX">     1</i>
   <i type="int" name="NKREDLFY">     1</i>
   <i type="int" name="NKREDLFZ">     1</i>
   <i type="int" name="MAXMEM">  1800</i>
   <i type="int" name="TELESCOPE">     0</i>
   <i type="int" name="TAUPAR">     1</i>
   <i type="int" name="OMEGAPAR">    -1</i>
   <i name="LAMBDA">      1.00000000</i>
  </separator>
  <separator name="External order field" >
   <i name="OFIELD_KAPPA">      0.00000000</i>
   <v name="OFIELD_K">      0.00000000      0.00000000      0.00000000</v>
   <i name="OFIELD_Q6_NEAR">      0.00000000</i>
   <i name="OFIELD_Q6_FAR">      0.00000000</i>
   <i name="OFIELD_A">      0.00000000</i>
  </separator>
 </parameters>
 <atominfo>
  <atoms>     152 </atoms>
  <types>       4 </types>
  <array name="atoms" >
   <dimension dim="1">ion</dimension>
   <field type="string">element</field>
   <field type="int">atomtype</field>
   <set>
    <rc><c>Sr</c><c>   1</c></rc>
    <rc><c>Sr</c><c>   1</c></rc>
    <rc><c>Sr</c><c>   1</c></rc>
    <rc><c>Sr</c><c>   1</c></rc>
    <rc><c>Sr</c><c>   1</c></rc>
    <rc><c>Sr</c><c>   1</c></rc>
    <rc><c>Sr</c><c>   1</c></rc>
    <rc><c>Sr</c><c>   1</c></rc>
    <rc><c>Sr</c><c>   1</c></rc>
    <rc><c>Sr</c><c>   1</c></rc>
    <rc><c>Sr</c><c>   1</c></rc>
    <rc><c>Sr</c><c>   1</c></rc>
    <rc><c>Sr</c><c>   1</c></rc>
    <rc><c>Sr</c><c>   1</c></rc>
    <rc><c>Sr</c><c>   1</c></rc>
    <rc><c>Sr</c><c>   1</c></rc>
    <rc><c>Sr</c><c>   1</c></rc>
    <rc><c>Sr</c><c>   1</c></rc>
    <rc><c>Sr</c><c>   1</c></rc>
    <rc><c>Sr</c><c>   1</c></rc>
    <rc><c>Sr</c><c>   1</c></rc>
    <rc><c>Sr</c><c>   1</c></rc>
    <rc><c>Sr</c><c>   1</c></rc>
    <rc><c>Sr</c><c>   1</c></rc>
    <rc><c>Sr</c><c>   1</c></rc>
    <rc><c>Sr</c><c>   1</c></rc>
    <rc><c>Sr</c><c>   1</c></rc>
    <rc><c>Sr</c><c>   1</c></rc>
    <rc><c>Sr</c><c>   1</c></rc>
    <rc><c>Sr</c><c>   1</c></rc>
    <rc><c>Sr</c><c>   1</c></rc>
    <rc><c>Sr</c><c>   1</c></rc>
    <rc><c>Ti</c><c>   2</c></rc>
    <rc><c>Ti</c><c>   2</c></rc>
    <rc><c>Ti</c><c>   2</c></rc>
    <rc><c>Ti</c><c>   2</c></rc>
    <rc><c>Ti</c><c>   2</c></rc>
    <rc><c>Ti</c><c>   2</c></rc>
    <rc><c>Ti</c><c>   2</c></rc>
    <rc><c>Ti</c><c>   2</c></rc>
    <rc><c>Ti</c><c>   2</c></rc>
    <rc><c>Ti</c><c>   2</c></rc>
    <rc><c>Ti</c><c>   2</c></rc>
    <rc><c>Ti</c><c>   2</c></rc>
    <rc><c>Ti</c><c>   2</c></rc>
    <rc><c>Ti</c><c>   2</c></rc>
    <rc><c>Ti</c><c>   2</c></rc>
    <rc><c>Ti</c><c>   2</c></rc>
    <rc><c>Fe</c><c>   3</c></rc>
    <rc><c>Fe</c><c>   3</c></rc>
    <rc><c>Fe</c><c>   3</c></rc>
    <rc><c>Fe</c><c>   3</c></rc>
    <rc><c>Fe</c><c>   3</c></rc>
    <rc><c>Fe</c><c>   3</c></rc>
    <rc><c>Fe</c><c>   3</c></rc>
    <rc><c>Fe</c><c>   3</c></rc>
    <rc><c>Fe</c><c>   3</c></rc>
    <rc><c>Fe</c><c>   3</c></rc>
    <rc><c>Fe</c><c>   3</c></rc>
    <rc><c>Fe</c><c>   3</c></rc>
    <rc><c>Fe</c><c>   3</c></rc>
    <rc><c>Fe</c><c>   3</c></rc>
    <rc><c>Fe</c><c>   3</c></rc>
    <rc><c>Fe</c><c>   3</c></rc>
    <rc><c>O </c><c>   4</c></rc>
    <rc><c>O </c><c>   4</c></rc>
    <rc><c>O </c><c>   4</c></rc>
    <rc><c>O </c><c>   4</c></rc>
    <rc><c>O </c><c>   4</c></rc>
    <rc><c>O </c><c>   4</c></rc>
    <rc><c>O </c><c>   4</c></rc>
    <rc><c>O </c><c>   4</c></rc>
    <rc><c>O </c><c>   4</c></rc>
    <rc><c>O </c><c>   4</c></rc>
    <rc><c>O </c><c>   4</c></rc>
    <rc><c>O </c><c>   4</c></rc>
    <rc><c>O </c><c>   4</c></rc>
    <rc><c>O </c><c>   4</c></rc>
    <rc><c>O </c><c>   4</c></rc>
    <rc><c>O </c><c>   4</c></rc>
    <rc><c>O </c><c>   4</c></rc>
    <rc><c>O </c><c>   4</c></rc>
    <rc><c>O </c><c>   4</c></rc>
    <rc><c>O </c><c>   4</c></rc>
    <rc><c>O </c><c>   4</c></rc>
    <rc><c>O </c><c>   4</c></rc>
    <rc><c>O </c><c>   4</c></rc>
    <rc><c>O </c><c>   4</c></rc>
    <rc><c>O </c><c>   4</c></rc>
    <rc><c>O </c><c>   4</c></rc>
    <rc><c>O </c><c>   4</c></rc>
    <rc><c>O </c><c>   4</c></rc>
    <rc><c>O </c><c>   4</c></rc>
    <rc><c>O </c><c>   4</c></rc>
    <rc><c>O </c><c>   4</c></rc>
    <rc><c>O </c><c>   4</c></rc>
    <rc><c>O </c><c>   4</c></rc>
    <rc><c>O </c><c>   4</c></rc>
    <rc><c>O </c><c>   4</c></rc>
    <rc><c>O </c><c>   4</c></rc>
    <rc><c>O </c><c>   4</c></rc>
    <rc><c>O </c><c>   4</c></rc>
    <rc><c>O </c><c>   4</c></rc>
    <rc><c>O </c><c>   4</c></rc>
    <rc><c>O </c><c>   4</c></rc>
    <rc><c>O </c><c>   4</c></rc>
    <rc><c>O </c><c>   4</c></rc>
    <rc><c>O </c><c>   4</c></rc>
    <rc><c>O </c><c>   4</c></rc>
    <rc><c>O </c><c>   4</c></rc>
    <rc><c>O </c><c>   4</c></rc>
    <rc><c>O </c><c>   4</c></rc>
    <rc><c>O </c><c>   4</c></rc>
    <rc><c>O </c><c>   4</c></rc>
    <rc><c>O </c><c>   4</c></rc>
    <rc><c>O </c><c>   4</c></rc>
    <rc><c>O </c><c>   4</c></rc>
    <rc><c>O </c><c>   4</c></rc>
    <rc><c>O </c><c>   4</c></rc>
    <rc><c>O </c><c>   4</c></rc>
    <rc><c>O </c><c>   4</c></rc>
    <rc><c>O </c><c>   4</c></rc>
    <rc><c>O </c><c>   4</c></rc>
    <rc><c>O </c><c>   4</c></rc>
    <rc><c>O </c><c>   4</c></rc>
    <rc><c>O </c><c>   4</c></rc>
    <rc><c>O </c><c>   4</c></rc>
    <rc><c>O </c><c>   4</c></rc>
    <rc><c>O </c><c>   4</c></rc>
    <rc><c>O </c><c>   4</c></rc>
    <rc><c>O </c><c>   4</c></rc>
    <rc><c>O </c><c>   4</c></rc>
    <rc><c>O </c><c>   4</c></rc>
    <rc><c>O </c><c>   4</c></rc>
    <rc><c>O </c><c>   4</c></rc>
    <rc><c>O </c><c>   4</c></rc>
    <rc><c>O </c><c>   4</c></rc>
    <rc><c>O </c><c>   4</c></rc>
    <rc><c>O </c><c>   4</c></rc>
    <rc><c>O </c><c>   4</c></rc>
    <rc><c>O </c><c>   4</c></rc>
    <rc><c>O </c><c>   4</c></rc>
    <rc><c>O </c><c>   4</c></rc>
    <rc><c>O </c><c>   4</c></rc>
    <rc><c>O </c><c>   4</c></rc>
    <rc><c>O </c><c>   4</c></rc>
    <rc><c>O </c><c>   4</c></rc>
    <rc><c>O </c><c>   4</c></rc>
    <rc><c>O </c><c>   4</c></rc>
    <rc><c>O </c><c>   4</c></rc>
    <rc><c>O </c><c>   4</c></rc>
    <rc><c>O </c><c>   4</c></rc>
   </set>
  </array>
  <array name="atomtypes" >
   <dimension dim="1">type</dimension>
   <field type="int">atomspertype</field>
   <field type="string">element</field>
   <field>mass</field>
   <field>valence</field>
   <field type="string">pseudopotential</field>
   <set>
    <rc><c>  32</c><c>Sr</c><c>     87.62000000</c><c>     10.00000000</c><c>  PAW_PBE Sr_sv 07Sep2000               </c></rc>
    <rc><c>  16</c><c>Ti</c><c>     47.88000000</c><c>      4.00000000</c><c>  PAW_PBE Ti 08Apr2002                  </c></rc>
    <rc><c>  16</c><c>Fe</c><c>     55.84700000</c><c>      8.00000000</c><c>  PAW_PBE Fe 06Sep2000                  </c></rc>
    <rc><c>  88</c><c>O </c><c>     16.00000000</c><c>      6.00000000</c><c>  PAW_PBE O 08Apr2002                   </c></rc>
   </set>
  </array>
 </atominfo>
 <structure name="initialpos" >
  <crystal>
   <varray name="basis" >
    <v>      11.30755707      -0.08365241       0.00000000 </v>
    <v>      -0.08365241      11.30755707       0.00000000 </v>
    <v>       0.00000000       0.00000000      15.47650821 </v>
   </varray>
   <i name="volume">   1978.73114485 </i>
   <varray name="rec_basis" >
    <v>       0.08844127       0.00065428       0.00000000 </v>
    <v>       0.00065428       0.08844127       0.00000000 </v>
    <v>       0.00000000       0.00000000       0.06461406 </v>
   </varray>
  </crystal>
  <varray name="positions" >
   <v>       0.99936121       0.25063879       0.12370281 </v>
   <v>       0.00063879       0.24936121       0.62370281 </v>
   <v>       0.99936121       0.75063879       0.12370281 </v>
   <v>       0.00063879       0.74936121       0.62370281 </v>
   <v>       0.49936121       0.25063879       0.12370281 </v>
   <v>       0.50063879       0.24936121       0.62370281 </v>
   <v>       0.49936121       0.75063879       0.12370281 </v>
   <v>       0.50063879       0.74936121       0.62370281 </v>
   <v>       0.00063879       0.24936121       0.37629719 </v>
   <v>       0.99936121       0.25063879       0.87629719 </v>
   <v>       0.00063879       0.74936121       0.37629719 </v>
   <v>       0.99936121       0.75063879       0.87629719 </v>
   <v>       0.50063879       0.24936121       0.37629719 </v>
   <v>       0.49936121       0.25063879       0.87629719 </v>
   <v>       0.50063879       0.74936121       0.37629719 </v>
   <v>       0.49936121       0.75063879       0.87629719 </v>
   <v>       0.25032025       0.99967975       0.12727761 </v>
   <v>       0.24967975       0.00032025       0.62727761 </v>
   <v>       0.25032025       0.49967975       0.12727761 </v>
   <v>       0.24967975       0.50032025       0.62727761 </v>
   <v>       0.75032025       0.99967975       0.12727761 </v>
   <v>       0.74967975       0.00032025       0.62727761 </v>
   <v>       0.75032025       0.49967975       0.12727761 </v>
   <v>       0.74967975       0.50032025       0.62727761 </v>
   <v>       0.24967975       0.00032025       0.37272239 </v>
   <v>       0.25032025       0.99967975       0.87272239 </v>
   <v>       0.24967975       0.50032025       0.37272239 </v>
   <v>       0.25032025       0.49967975       0.87272239 </v>
   <v>       0.74967975       0.00032025       0.37272239 </v>
   <v>       0.75032025       0.99967975       0.87272239 </v>
   <v>       0.74967975       0.50032025       0.37272239 </v>
   <v>       0.75032025       0.49967975       0.87272239 </v>
   <v>       0.25000000       0.25000000       0.25000000 </v>
   <v>       0.25000000       0.25000000       0.75000000 </v>
   <v>       0.25000000       0.75000000       0.25000000 </v>
   <v>       0.25000000       0.75000000       0.75000000 </v>
   <v>       0.75000000       0.25000000       0.25000000 </v>
   <v>       0.75000000       0.25000000       0.75000000 </v>
   <v>       0.75000000       0.75000000       0.25000000 </v>
   <v>       0.75000000       0.75000000       0.75000000 </v>
   <v>       0.00000000       0.00000000       0.25000000 </v>
   <v>       0.00000000       0.00000000       0.75000000 </v>
   <v>       0.00000000       0.50000000       0.25000000 </v>
   <v>       0.00000000       0.50000000       0.75000000 </v>
   <v>       0.50000000       0.00000000       0.25000000 </v>
   <v>       0.50000000       0.00000000       0.75000000 </v>
   <v>       0.50000000       0.50000000       0.25000000 </v>
   <v>       0.50000000       0.50000000       0.75000000 </v>
   <v>       0.99068870       0.99393329       0.00000000 </v>
   <v>       0.49068870       0.99393329       0.00000000 </v>
   <v>       0.75606671       0.25931130       0.00000000 </v>
   <v>       0.25606671       0.25931130       0.00000000 </v>
   <v>       0.99068870       0.49393329       0.00000000 </v>
   <v>       0.49068870       0.49393329       0.00000000 </v>
   <v>       0.75606671       0.75931130       0.00000000 </v>
   <v>       0.25606671       0.75931130       0.00000000 </v>
   <v>       0.00931130       0.00606671       0.50000000 </v>
   <v>       0.50931130       0.00606671       0.50000000 </v>
   <v>       0.24393329       0.24068870       0.50000000 </v>
   <v>       0.74393329       0.24068870       0.50000000 </v>
   <v>       0.00931130       0.50606671       0.50000000 </v>
   <v>       0.50931130       0.50606671       0.50000000 </v>
   <v>       0.24393329       0.74068870       0.50000000 </v>
   <v>       0.74393329       0.74068870       0.50000000 </v>
   <v>       0.12290347       0.12709653       0.27047710 </v>
   <v>       0.12290347       0.12709653       0.72952290 </v>
   <v>       0.12290347       0.62709653       0.27047710 </v>
   <v>       0.12290347       0.62709653       0.72952290 </v>
   <v>       0.62290347       0.12709653       0.27047710 </v>
   <v>       0.62290347       0.12709653       0.72952290 </v>
   <v>       0.62290347       0.62709653       0.27047710 </v>
   <v>       0.62290347       0.62709653       0.72952290 </v>
   <v>       0.37709653       0.37290347       0.22952290 </v>
   <v>       0.37709653       0.37290347       0.77047710 </v>
   <v>       0.37709653       0.87290347       0.22952290 </v>
   <v>       0.37709653       0.87290347       0.77047710 </v>
   <v>       0.87709653       0.37290347       0.22952290 </v>
   <v>       0.87709653       0.37290347       0.77047710 </v>
   <v>       0.87709653       0.87290347       0.22952290 </v>
   <v>       0.87709653       0.87290347       0.77047710 </v>
   <v>       0.37263703       0.12263703       0.25000000 </v>
   <v>       0.37263703       0.12263703       0.75000000 </v>
   <v>       0.37263703       0.62263703       0.25000000 </v>
   <v>       0.37263703       0.62263703       0.75000000 </v>
   <v>       0.87263703       0.12263703       0.25000000 </v>
   <v>       0.87263703       0.12263703       0.75000000 </v>
   <v>       0.87263703       0.62263703       0.25000000 </v>
   <v>       0.87263703       0.62263703       0.75000000 </v>
   <v>       0.12736297       0.37736297       0.25000000 </v>
   <v>       0.12736297       0.37736297       0.75000000 </v>
   <v>       0.12736297       0.87736297       0.25000000 </v>
   <v>       0.12736297       0.87736297       0.75000000 </v>
   <v>       0.62736297       0.37736297       0.25000000 </v>
   <v>       0.62736297       0.37736297       0.75000000 </v>
   <v>       0.62736297       0.87736297       0.25000000 </v>
   <v>       0.62736297       0.87736297       0.75000000 </v>
   <v>       0.35875242       0.39124758       0.00000000 </v>
   <v>       0.35875242       0.89124758       0.00000000 </v>
   <v>       0.85875242       0.39124758       0.00000000 </v>
   <v>       0.85875242       0.89124758       0.00000000 </v>
   <v>       0.14124758       0.10875242       0.50000000 </v>
   <v>       0.14124758       0.60875242       0.50000000 </v>
   <v>       0.64124758       0.10875242       0.50000000 </v>
   <v>       0.64124758       0.60875242       0.50000000 </v>
   <v>       0.11203725       0.36526713       0.00000000 </v>
   <v>       0.11526713       0.36203725       0.50000000 </v>
   <v>       0.11203725       0.86526713       0.00000000 </v>
   <v>       0.11526713       0.86203725       0.50000000 </v>
   <v>       0.61203725       0.36526713       0.00000000 </v>
   <v>       0.61526713       0.36203725       0.50000000 </v>
   <v>       0.61203725       0.86526713       0.00000000 </v>
   <v>       0.61526713       0.86203725       0.50000000 </v>
   <v>       0.38473287       0.13796275       0.00000000 </v>
   <v>       0.38796275       0.13473287       0.50000000 </v>
   <v>       0.38473287       0.63796275       0.00000000 </v>
   <v>       0.38796275       0.63473287       0.50000000 </v>
   <v>       0.88473287       0.13796275       0.00000000 </v>
   <v>       0.88796275       0.13473287       0.50000000 </v>
   <v>       0.88473287       0.63796275       0.00000000 </v>
   <v>       0.88796275       0.63473287       0.50000000 </v>
   <v>       0.02233825       0.02264752       0.12279943 </v>
   <v>       0.97766175       0.97735248       0.62279943 </v>
   <v>       0.02233825       0.52264752       0.12279943 </v>
   <v>       0.97766175       0.47735248       0.62279943 </v>
   <v>       0.52233825       0.02264752       0.12279943 </v>
   <v>       0.47766175       0.97735248       0.62279943 </v>
   <v>       0.52233825       0.52264752       0.12279943 </v>
   <v>       0.47766175       0.47735248       0.62279943 </v>
   <v>       0.97766175       0.97735248       0.37720057 </v>
   <v>       0.02233825       0.02264752       0.87720057 </v>
   <v>       0.97766175       0.47735248       0.37720057 </v>
   <v>       0.02233825       0.52264752       0.87720057 </v>
   <v>       0.47766175       0.97735248       0.37720057 </v>
   <v>       0.52233825       0.02264752       0.87720057 </v>
   <v>       0.47766175       0.47735248       0.37720057 </v>
   <v>       0.52233825       0.52264752       0.87720057 </v>
   <v>       0.27264752       0.27233825       0.37720057 </v>
   <v>       0.22735248       0.22766175       0.87720057 </v>
   <v>       0.27264752       0.77233825       0.37720057 </v>
   <v>       0.22735248       0.72766175       0.87720057 </v>
   <v>       0.77264752       0.27233825       0.37720057 </v>
   <v>       0.72735248       0.22766175       0.87720057 </v>
   <v>       0.77264752       0.77233825       0.37720057 </v>
   <v>       0.72735248       0.72766175       0.87720057 </v>
   <v>       0.22735248       0.22766175       0.12279943 </v>
   <v>       0.27264752       0.27233825       0.62279943 </v>
   <v>       0.22735248       0.72766175       0.12279943 </v>
   <v>       0.27264752       0.77233825       0.62279943 </v>
   <v>       0.72735248       0.22766175       0.12279943 </v>
   <v>       0.77264752       0.27233825       0.62279943 </v>
   <v>       0.72735248       0.72766175       0.12279943 </v>
   <v>       0.77264752       0.77233825       0.62279943 </v>
  </varray>
 </structure>
 <calculation>
  <scstep>
   <time name="dav">  149.54  149.56</time>
   <time name="total">  152.30  152.37</time>
   <energy>
    <i name="alphaZ">   5691.64614494 </i>
    <i name="ewald"> -63167.06211259 </i>
    <i name="hartreedc"> -16605.49558480 </i>
    <i name="XCdc">   3188.30400459 </i>
    <i name="pawpsdc"> 116545.36966512 </i>
    <i name="pawaedc">-115748.92387969 </i>
    <i name="eentropy">     -0.00000000 </i>
    <i name="bandstr">  -7010.10967984 </i>
    <i name="atom">  76050.17612637 </i>
    <i name="e_fr_energy">  -1056.09531591 </i>
    <i name="e_wo_entrp">  -1056.09531591 </i>
    <i name="e_0_energy">  -1056.09531591 </i>
   </energy>
  </scstep>
  <scstep>
   <time name="diag">   16.45   16.45</time>
   <time name="diis">   15.66   15.68</time>
   <time name="orth">    9.38    9.38</time>
   <time name="total">   44.25   44.31</time>
   <energy>
    <i name="e_fr_energy">  -1056.09532310 </i>
    <i name="e_wo_entrp">  -1056.09532310 </i>
    <i name="e_0_energy">  -1056.09532310 </i>
   </energy>
  </scstep>
  <scstep>
   <time name="diag">   16.43   16.45</time>
   <time name="diis">   15.55   15.55</time>
   <time name="orth">    9.38    9.38</time>
   <time name="total">   44.11   44.20</time>
   <energy>
    <i name="e_fr_energy">  -1056.09532374 </i>
    <i name="e_wo_entrp">  -1056.09532374 </i>
    <i name="e_0_energy">  -1056.09532374 </i>
   </energy>
  </scstep>
  <scstep>
   <time name="diag">   16.42   16.43</time>
   <time name="diis">   15.31   15.32</time>
   <time name="orth">    9.37    9.37</time>
   <time name="total">   43.85   43.94</time>
   <energy>
    <i name="e_fr_energy">  -1056.09533134 </i>
    <i name="e_wo_entrp">  -1056.09533134 </i>
    <i name="e_0_energy">  -1056.09533134 </i>
   </energy>
  </scstep>
  <scstep>
   <time name="diag">   16.45   16.45</time>
   <time name="diis">   15.00   15.02</time>
   <time name="orth">    9.39    9.40</time>
   <time name="total">   43.60   43.70</time>
   <energy>
    <i name="e_fr_energy">  -1056.09533348 </i>
    <i name="e_wo_entrp">  -1056.09533348 </i>
    <i name="e_0_energy">  -1056.09533348 </i>
   </energy>
  </scstep>
  <scstep>
   <time name="diag">   16.40   16.41</time>
   <time name="diis">   13.01   13.02</time>
   <time name="orth">    9.38    9.38</time>
   <time name="total">   41.55   41.64</time>
   <energy>
    <i name="e_fr_energy">  -1056.09533367 </i>
    <i name="e_wo_entrp">  -1056.09533367 </i>
    <i name="e_0_energy">  -1056.09533367 </i>
   </energy>
  </scstep>
  <scstep>
   <time name="diag">   16.42   16.43</time>
   <time name="diis">   12.42   12.44</time>
   <time name="orth">    9.36    9.36</time>
   <time name="total">   40.97   41.04</time>
   <energy>
    <i name="e_fr_energy">  -1056.09533382 </i>
    <i name="e_wo_entrp">  -1056.09533382 </i>
    <i name="e_0_energy">  -1056.09533382 </i>
   </energy>
  </scstep>
  <scstep>
   <time name="diag">   16.40   16.41</time>
   <time name="diis">   12.00   12.01</time>
   <time name="orth">    9.38    9.38</time>
   <time name="total">   38.37   38.47</time>
   <energy>
    <i name="alphaZ">   5691.64614494 </i>
    <i name="ewald"> -63167.06211259 </i>
    <i name="hartreedc"> -16605.34857417 </i>
    <i name="XCdc">   3188.29214300 </i>
    <i name="pawpsdc"> 116535.95754853 </i>
    <i name="pawaedc">-115739.46700603 </i>
    <i name="eentropy">     -0.00000000 </i>
    <i name="bandstr">  -7010.28960396 </i>
    <i name="atom">  76050.17612637 </i>
    <i name="e_fr_energy">  -1056.09533390 </i>
    <i name="e_wo_entrp">  -1056.09533390 </i>
    <i name="e_0_energy">  -1056.09533390 </i>
   </energy>
  </scstep>
  <structure>
   <crystal>
    <varray name="basis" >
     <v>      11.30755707      -0.08365241       0.00000000 </v>
     <v>      -0.08365241      11.30755707       0.00000000 </v>
     <v>       0.00000000       0.00000000      15.47650821 </v>
    </varray>
    <i name="volume">   1978.73114485 </i>
    <varray name="rec_basis" >
     <v>       0.08844127       0.00065428       0.00000000 </v>
     <v>       0.00065428       0.08844127       0.00000000 </v>
     <v>       0.00000000       0.00000000       0.06461406 </v>
    </varray>
   </crystal>
   <varray name="positions" >
    <v>       0.99936121       0.25063879       0.12370281 </v>
    <v>       0.00063879       0.24936121       0.62370281 </v>
    <v>       0.99936121       0.75063879       0.12370281 </v>
    <v>       0.00063879       0.74936121       0.62370281 </v>
    <v>       0.49936121       0.25063879       0.12370281 </v>
    <v>       0.50063879       0.24936121       0.62370281 </v>
    <v>       0.49936121       0.75063879       0.12370281 </v>
    <v>       0.50063879       0.74936121       0.62370281 </v>
    <v>       0.00063879       0.24936121       0.37629719 </v>
    <v>       0.99936121       0.25063879       0.87629719 </v>
    <v>       0.00063879       0.74936121       0.37629719 </v>
    <v>       0.99936121       0.75063879       0.87629719 </v>
    <v>       0.50063879       0.24936121       0.37629719 </v>
    <v>       0.49936121       0.25063879       0.87629719 </v>
    <v>       0.50063879       0.74936121       0.37629719 </v>
    <v>       0.49936121       0.75063879       0.87629719 </v>
    <v>       0.25032025       0.99967975       0.12727761 </v>
    <v>       0.24967975       0.00032025       0.62727761 </v>
    <v>       0.25032025       0.49967975       0.12727761 </v>
    <v>       0.24967975       0.50032025       0.62727761 </v>
    <v>       0.75032025       0.99967975       0.12727761 </v>
    <v>       0.74967975       0.00032025       0.62727761 </v>
    <v>       0.75032025       0.49967975       0.12727761 </v>
    <v>       0.74967975       0.50032025       0.62727761 </v>
    <v>       0.24967975       0.00032025       0.37272239 </v>
    <v>       0.25032025       0.99967975       0.87272239 </v>
    <v>       0.24967975       0.50032025       0.37272239 </v>
    <v>       0.25032025       0.49967975       0.87272239 </v>
    <v>       0.74967975       0.00032025       0.37272239 </v>
    <v>       0.75032025       0.99967975       0.87272239 </v>
    <v>       0.74967975       0.50032025       0.37272239 </v>
    <v>       0.75032025       0.49967975       0.87272239 </v>
    <v>       0.25000000       0.25000000       0.25000000 </v>
    <v>       0.25000000       0.25000000       0.75000000 </v>
    <v>       0.25000000       0.75000000       0.25000000 </v>
    <v>       0.25000000       0.75000000       0.75000000 </v>
    <v>       0.75000000       0.25000000       0.25000000 </v>
    <v>       0.75000000       0.25000000       0.75000000 </v>
    <v>       0.75000000       0.75000000       0.25000000 </v>
    <v>       0.75000000       0.75000000       0.75000000 </v>
    <v>       0.00000000       0.00000000       0.25000000 </v>
    <v>       0.00000000       0.00000000       0.75000000 </v>
    <v>       0.00000000       0.50000000       0.25000000 </v>
    <v>       0.00000000       0.50000000       0.75000000 </v>
    <v>       0.50000000       0.00000000       0.25000000 </v>
    <v>       0.50000000       0.00000000       0.75000000 </v>
    <v>       0.50000000       0.50000000       0.25000000 </v>
    <v>       0.50000000       0.50000000       0.75000000 </v>
    <v>       0.99068870       0.99393329       0.00000000 </v>
    <v>       0.49068870       0.99393329       0.00000000 </v>
    <v>       0.75606671       0.25931130       0.00000000 </v>
    <v>       0.25606671       0.25931130       0.00000000 </v>
    <v>       0.99068870       0.49393329       0.00000000 </v>
    <v>       0.49068870       0.49393329       0.00000000 </v>
    <v>       0.75606671       0.75931130       0.00000000 </v>
    <v>       0.25606671       0.75931130       0.00000000 </v>
    <v>       0.00931130       0.00606671       0.50000000 </v>
    <v>       0.50931130       0.00606671       0.50000000 </v>
    <v>       0.24393329       0.24068870       0.50000000 </v>
    <v>       0.74393329       0.24068870       0.50000000 </v>
    <v>       0.00931130       0.50606671       0.50000000 </v>
    <v>       0.50931130       0.50606671       0.50000000 </v>
    <v>       0.24393329       0.74068870       0.50000000 </v>
    <v>       0.74393329       0.74068870       0.50000000 </v>
    <v>       0.12290347       0.12709653       0.27047710 </v>
    <v>       0.12290347       0.12709653       0.72952290 </v>
    <v>       0.12290347       0.62709653       0.27047710 </v>
    <v>       0.12290347       0.62709653       0.72952290 </v>
    <v>       0.62290347       0.12709653       0.27047710 </v>
    <v>       0.62290347       0.12709653       0.72952290 </v>
    <v>       0.62290347       0.62709653       0.27047710 </v>
    <v>       0.62290347       0.62709653       0.72952290 </v>
    <v>       0.37709653       0.37290347       0.22952290 </v>
    <v>       0.37709653       0.37290347       0.77047710 </v>
    <v>       0.37709653       0.87290347       0.22952290 </v>
    <v>       0.37709653       0.87290347       0.77047710 </v>
    <v>       0.87709653       0.37290347       0.22952290 </v>
    <v>       0.87709653       0.37290347       0.77047710 </v>
    <v>       0.87709653       0.87290347       0.22952290 </v>
    <v>       0.87709653       0.87290347       0.77047710 </v>
    <v>       0.37263703       0.12263703       0.25000000 </v>
    <v>       0.37263703       0.12263703       0.75000000 </v>
    <v>       0.37263703       0.62263703       0.25000000 </v>
    <v>       0.37263703       0.62263703       0.75000000 </v>
    <v>       0.87263703       0.12263703       0.25000000 </v>
    <v>       0.87263703       0.12263703       0.75000000 </v>
    <v>       0.87263703       0.62263703       0.25000000 </v>
    <v>       0.87263703       0.62263703       0.75000000 </v>
    <v>       0.12736297       0.37736297       0.25000000 </v>
    <v>       0.12736297       0.37736297       0.75000000 </v>
    <v>       0.12736297       0.87736297       0.25000000 </v>
    <v>       0.12736297       0.87736297       0.75000000 </v>
    <v>       0.62736297       0.37736297       0.25000000 </v>
    <v>       0.62736297       0.37736297       0.75000000 </v>
    <v>       0.62736297       0.87736297       0.25000000 </v>
    <v>       0.62736297       0.87736297       0.75000000 </v>
    <v>       0.35875242       0.39124758       0.00000000 </v>
    <v>       0.35875242       0.89124758       0.00000000 </v>
    <v>       0.85875242       0.39124758       0.00000000 </v>
    <v>       0.85875242       0.89124758       0.00000000 </v>
    <v>       0.14124758       0.10875242       0.50000000 </v>
    <v>       0.14124758       0.60875242       0.50000000 </v>
    <v>       0.64124758       0.10875242       0.50000000 </v>
    <v>       0.64124758       0.60875242       0.50000000 </v>
    <v>       0.11203725       0.36526713       0.00000000 </v>
    <v>       0.11526713       0.36203725       0.50000000 </v>
    <v>       0.11203725       0.86526713       0.00000000 </v>
    <v>       0.11526713       0.86203725       0.50000000 </v>
    <v>       0.61203725       0.36526713       0.00000000 </v>
    <v>       0.61526713       0.36203725       0.50000000 </v>
    <v>       0.61203725       0.86526713       0.00000000 </v>
    <v>       0.61526713       0.86203725       0.50000000 </v>
    <v>       0.38473287       0.13796275       0.00000000 </v>
    <v>       0.38796275       0.13473287       0.50000000 </v>
    <v>       0.38473287       0.63796275       0.00000000 </v>
    <v>       0.38796275       0.63473287       0.50000000 </v>
    <v>       0.88473287       0.13796275       0.00000000 </v>
    <v>       0.88796275       0.13473287       0.50000000 </v>
    <v>       0.88473287       0.63796275       0.00000000 </v>
    <v>       0.88796275       0.63473287       0.50000000 </v>
    <v>       0.02233825       0.02264752       0.12279943 </v>
    <v>       0.97766175       0.97735248       0.62279943 </v>
    <v>       0.02233825       0.52264752       0.12279943 </v>
    <v>       0.97766175       0.47735248       0.62279943 </v>
    <v>       0.52233825       0.02264752       0.12279943 </v>
    <v>       0.47766175       0.97735248       0.62279943 </v>
    <v>       0.52233825       0.52264752       0.12279943 </v>
    <v>       0.47766175       0.47735248       0.62279943 </v>
    <v>       0.97766175       0.97735248       0.37720057 </v>
    <v>       0.02233825       0.02264752       0.87720057 </v>
    <v>       0.97766175       0.47735248       0.37720057 </v>
    <v>       0.02233825       0.52264752       0.87720057 </v>
    <v>       0.47766175       0.97735248       0.37720057 </v>
    <v>       0.52233825       0.02264752       0.87720057 </v>
    <v>       0.47766175       0.47735248       0.37720057 </v>
    <v>       0.52233825       0.52264752       0.87720057 </v>
    <v>       0.27264752       0.27233825       0.37720057 </v>
    <v>       0.22735248       0.22766175       0.87720057 </v>
    <v>       0.27264752       0.77233825       0.37720057 </v>
    <v>       0.22735248       0.72766175       0.87720057 </v>
    <v>       0.77264752       0.27233825       0.37720057 </v>
    <v>       0.72735248       0.22766175       0.87720057 </v>
    <v>       0.77264752       0.77233825       0.37720057 </v>
    <v>       0.72735248       0.72766175       0.87720057 </v>
    <v>       0.22735248       0.22766175       0.12279943 </v>
    <v>       0.27264752       0.27233825       0.62279943 </v>
    <v>       0.22735248       0.72766175       0.12279943 </v>
    <v>       0.27264752       0.77233825       0.62279943 </v>
    <v>       0.72735248       0.22766175       0.12279943 </v>
    <v>       0.77264752       0.27233825       0.62279943 </v>
    <v>       0.72735248       0.72766175       0.12279943 </v>
    <v>       0.77264752       0.77233825       0.62279943 </v>
   </varray>
  </structure>
  <varray name="forces" >
   <v>      -0.01125548       0.01125548       0.07413714 </v>
   <v>       0.01125548      -0.01125548       0.07413714 </v>
   <v>      -0.01125548       0.01125548       0.07413714 </v>
   <v>       0.01125548      -0.01125548       0.07413714 </v>
   <v>      -0.01125548       0.01125548       0.07413714 </v>
   <v>       0.01125548      -0.01125548       0.07413714 </v>
   <v>      -0.01125548       0.01125548       0.07413714 </v>
   <v>       0.01125548      -0.01125548       0.07413714 </v>
   <v>       0.01125548      -0.01125548      -0.07413714 </v>
   <v>      -0.01125548       0.01125548      -0.07413714 </v>
   <v>       0.01125548      -0.01125548      -0.07413714 </v>
   <v>      -0.01125548       0.01125548      -0.07413714 </v>
   <v>       0.01125548      -0.01125548      -0.07413714 </v>
   <v>      -0.01125548       0.01125548      -0.07413714 </v>
   <v>       0.01125548      -0.01125548      -0.07413714 </v>
   <v>      -0.01125548       0.01125548      -0.07413714 </v>
   <v>      -0.00370142       0.00370142      -0.07185817 </v>
   <v>       0.00370142      -0.00370142      -0.07185817 </v>
   <v>      -0.00370142       0.00370142      -0.07185817 </v>
   <v>       0.00370142      -0.00370142      -0.07185817 </v>
   <v>      -0.00370142       0.00370142      -0.07185817 </v>
   <v>       0.00370142      -0.00370142      -0.07185817 </v>
   <v>      -0.00370142       0.00370142      -0.07185817 </v>
   <v>       0.00370142      -0.00370142      -0.07185817 </v>
   <v>       0.00370142      -0.00370142       0.07185817 </v>
   <v>      -0.00370142       0.00370142       0.07185817 </v>
   <v>       0.00370142      -0.00370142       0.07185817 </v>
   <v>      -0.00370142       0.00370142       0.07185817 </v>
   <v>       0.00370142      -0.00370142       0.07185817 </v>
   <v>      -0.00370142       0.00370142       0.07185817 </v>
   <v>       0.00370142      -0.00370142       0.07185817 </v>
   <v>      -0.00370142       0.00370142       0.07185817 </v>
   <v>       0.00000000      -0.00000000      -0.00000000 </v>
   <v>       0.00000000      -0.00000000      -0.00000000 </v>
   <v>       0.00000000      -0.00000000      -0.00000000 </v>
   <v>       0.00000000      -0.00000000      -0.00000000 </v>
   <v>       0.00000000      -0.00000000      -0.00000000 </v>
   <v>       0.00000000      -0.00000000      -0.00000000 </v>
   <v>       0.00000000      -0.00000000      -0.00000000 </v>
   <v>       0.00000000      -0.00000000      -0.00000000 </v>
   <v>       0.00000000      -0.00000000      -0.00000000 </v>
   <v>       0.00000000      -0.00000000      -0.00000000 </v>
   <v>       0.00000000      -0.00000000      -0.00000000 </v>
   <v>       0.00000000      -0.00000000      -0.00000000 </v>
   <v>       0.00000000      -0.00000000      -0.00000000 </v>
   <v>       0.00000000      -0.00000000      -0.00000000 </v>
   <v>       0.00000000      -0.00000000      -0.00000000 </v>
   <v>       0.00000000      -0.00000000      -0.00000000 </v>
   <v>      -0.00738929      -0.01373234      -0.00000000 </v>
   <v>      -0.00738929      -0.01373234      -0.00000000 </v>
   <v>       0.01373234       0.00738929      -0.00000000 </v>
   <v>       0.01373234       0.00738929      -0.00000000 </v>
   <v>      -0.00738929      -0.01373234      -0.00000000 </v>
   <v>      -0.00738929      -0.01373234      -0.00000000 </v>
   <v>       0.01373234       0.00738929      -0.00000000 </v>
   <v>       0.01373234       0.00738929      -0.00000000 </v>
   <v>       0.00738929       0.01373234      -0.00000000 </v>
   <v>       0.00738929       0.01373234      -0.00000000 </v>
   <v>      -0.01373234      -0.00738929      -0.00000000 </v>
   <v>      -0.01373234      -0.00738929      -0.00000000 </v>
   <v>       0.00738929       0.01373234      -0.00000000 </v>
   <v>       0.00738929       0.01373234      -0.00000000 </v>
   <v>      -0.01373234      -0.00738929      -0.00000000 </v>
   <v>      -0.01373234      -0.00738929      -0.00000000 </v>
   <v>       0.05478739      -0.05478739       0.05317543 </v>
   <v>       0.05478739      -0.05478739      -0.05317543 </v>
   <v>       0.05478739      -0.05478739       0.05317543 </v>
   <v>       0.05478739      -0.05478739      -0.05317543 </v>
   <v>       0.05478739      -0.05478739       0.05317543 </v>
   <v>       0.05478739      -0.05478739      -0.05317543 </v>
   <v>       0.05478739      -0.05478739       0.05317543 </v>
   <v>       0.05478739      -0.05478739      -0.05317543 </v>
   <v>      -0.05478739       0.05478739      -0.05317543 </v>
   <v>      -0.05478739       0.05478739       0.05317543 </v>
   <v>      -0.05478739       0.05478739      -0.05317543 </v>
   <v>      -0.05478739       0.05478739       0.05317543 </v>
   <v>      -0.05478739       0.05478739      -0.05317543 </v>
   <v>      -0.05478739       0.05478739       0.05317543 </v>
   <v>      -0.05478739       0.05478739      -0.05317543 </v>
   <v>      -0.05478739       0.05478739       0.05317543 </v>
   <v>      -0.05289537      -0.05289537      -0.00000000 </v>
   <v>      -0.05289537      -0.05289537      -0.00000000 </v>
   <v>      -0.05289537      -0.05289537      -0.00000000 </v>
   <v>      -0.05289537      -0.05289537      -0.00000000 </v>
   <v>      -0.05289537      -0.05289537      -0.00000000 </v>
   <v>      -0.05289537      -0.05289537      -0.00000000 </v>
   <v>      -0.05289537      -0.05289537      -0.00000000 </v>
   <v>      -0.05289537      -0.05289537      -0.00000000 </v>
   <v>       0.05289537       0.05289537      -0.00000000 </v>
   <v>       0.05289537       0.05289537      -0.00000000 </v>
   <v>       0.05289537       0.05289537      -0.00000000 </v>
   <v>       0.05289537       0.05289537      -0.00000000 </v>
   <v>       0.05289537       0.05289537      -0.00000000 </v>
   <v>       0.05289537       0.05289537      -0.00000000 </v>
   <v>       0.05289537       0.05289537      -0.00000000 </v>
   <v>       0.05289537       0.05289537      -0.00000000 </v>
   <v>       0.03631663      -0.03631663      -0.00000000 </v>
   <v>       0.03631663      -0.03631663      -0.00000000 </v>
   <v>       0.03631663      -0.03631663      -0.00000000 </v>
   <v>       0.03631663      -0.03631663      -0.00000000 </v>
   <v>      -0.03631663       0.03631663      -0.00000000 </v>
   <v>      -0.03631663       0.03631663      -0.00000000 </v>
   <v>      -0.03631663       0.03631663      -0.00000000 </v>
   <v>      -0.03631663       0.03631663      -0.00000000 </v>
   <v>      -0.00843516       0.04536972      -0.00000000 </v>
   <v>       0.04536972      -0.00843516      -0.00000000 </v>
   <v>      -0.00843516       0.04536972      -0.00000000 </v>
   <v>       0.04536972      -0.00843516      -0.00000000 </v>
   <v>      -0.00843516       0.04536972      -0.00000000 </v>
   <v>       0.04536972      -0.00843516      -0.00000000 </v>
   <v>      -0.00843516       0.04536972      -0.00000000 </v>
   <v>       0.04536972      -0.00843516      -0.00000000 </v>
   <v>      -0.04536972       0.00843516      -0.00000000 </v>
   <v>       0.00843516      -0.04536972      -0.00000000 </v>
   <v>      -0.04536972       0.00843516      -0.00000000 </v>
   <v>       0.00843516      -0.04536972      -0.00000000 </v>
   <v>      -0.04536972       0.00843516      -0.00000000 </v>
   <v>       0.00843516      -0.04536972      -0.00000000 </v>
   <v>      -0.04536972       0.00843516      -0.00000000 </v>
   <v>       0.00843516      -0.04536972      -0.00000000 </v>
   <v>       0.06625091       0.00000557       0.04408959 </v>
   <v>      -0.06625091      -0.00000557       0.04408959 </v>
   <v>       0.06625091       0.00000557       0.04408959 </v>
   <v>      -0.06625091      -0.00000557       0.04408959 </v>
   <v>       0.06625091       0.00000557       0.04408959 </v>
   <v>      -0.06625091      -0.00000557       0.04408959 </v>
   <v>       0.06625091       0.00000557       0.04408959 </v>
   <v>      -0.06625091      -0.00000557       0.04408959 </v>
   <v>      -0.06625091      -0.00000557      -0.04408959 </v>
   <v>       0.06625091       0.00000557      -0.04408959 </v>
   <v>      -0.06625091      -0.00000557      -0.04408959 </v>
   <v>       0.06625091       0.00000557      -0.04408959 </v>
   <v>      -0.06625091      -0.00000557      -0.04408959 </v>
   <v>       0.06625091       0.00000557      -0.04408959 </v>
   <v>      -0.06625091      -0.00000557      -0.04408959 </v>
   <v>       0.06625091       0.00000557      -0.04408959 </v>
   <v>       0.00000557       0.06625091      -0.04408959 </v>
   <v>      -0.00000557      -0.06625091      -0.04408959 </v>
   <v>       0.00000557       0.06625091      -0.04408959 </v>
   <v>      -0.00000557      -0.06625091      -0.04408959 </v>
   <v>       0.00000557       0.06625091      -0.04408959 </v>
   <v>      -0.00000557      -0.06625091      -0.04408959 </v>
   <v>       0.00000557       0.06625091      -0.04408959 </v>
   <v>      -0.00000557      -0.06625091      -0.04408959 </v>
   <v>      -0.00000557      -0.06625091       0.04408959 </v>
   <v>       0.00000557       0.06625091       0.04408959 </v>
   <v>      -0.00000557      -0.06625091       0.04408959 </v>
   <v>       0.00000557       0.06625091       0.04408959 </v>
   <v>      -0.00000557      -0.06625091       0.04408959 </v>
   <v>       0.00000557       0.06625091       0.04408959 </v>
   <v>      -0.00000557      -0.06625091       0.04408959 </v>
   <v>       0.00000557       0.06625091       0.04408959 </v>
  </varray>
  <varray name="stress" >
   <v>      -0.02796386       1.26938843       0.00000000 </v>
   <v>       1.26938843      -0.02796386       0.00000000 </v>
   <v>       0.00000000       0.00000000       1.89566840 </v>
  </varray>
  <energy>
   <i name="e_fr_energy">  -1056.09533390 </i>
   <i name="e_wo_entrp">  -1056.09533390 </i>
   <i name="e_0_energy">     -0.00000000 </i>
  </energy>
  <time name="totalsc">  540.39  542.59</time>
 </calculation>
 <calculation>
  <scstep>
   <time name="dav">  140.49  140.53</time>
   <time name="total">  143.28  143.33</time>
   <energy>
    <i name="alphaZ">   5687.54612114 </i>
    <i name="ewald"> -63155.78019376 </i>
    <i name="hartreedc"> -16597.43514580 </i>
    <i name="XCdc">   3187.30455632 </i>
    <i name="pawpsdc"> 116536.00782436 </i>
    <i name="pawaedc">-115739.51664185 </i>
    <i name="eentropy">     -0.00000000 </i>
    <i name="bandstr">  -7024.41400711 </i>
    <i name="atom">  76050.17612637 </i>
    <i name="e_fr_energy">  -1056.11136033 </i>
    <i name="e_wo_entrp">  -1056.11136033 </i>
    <i name="e_0_energy">  -1056.11136033 </i>
   </energy>
  </scstep>
  <scstep>
   <time name="diag">   16.39   16.39</time>
   <time name="diis">   26.05   26.05</time>
   <time name="orth">    9.32    9.32</time>
   <time name="total">   54.56   54.61</time>
   <energy>
    <i name="e_fr_energy">  -1056.12402373 </i>
    <i name="e_wo_entrp">  -1056.12402373 </i>
    <i name="e_0_energy">  -1056.12402373 </i>
   </energy>
  </scstep>
  <scstep>
   <time name="diag">   16.33   16.35</time>
   <time name="diis">   28.05   28.06</time>
   <time name="orth">    9.31    9.31</time>
   <time name="total">   56.49   56.57</time>
   <energy>
    <i name="e_fr_energy">  -1056.12284734 </i>
    <i name="e_wo_entrp">  -1056.12284734 </i>
    <i name="e_0_energy">  -1056.12284734 </i>
   </energy>
  </scstep>
  <scstep>
   <time name="diag">   16.41   16.42</time>
   <time name="diis">   28.94   28.94</time>
   <time name="orth">    9.35    9.35</time>
   <time name="total">   57.48   57.57</time>
   <energy>
    <i name="e_fr_energy">  -1056.12191951 </i>
    <i name="e_wo_entrp">  -1056.12191951 </i>
    <i name="e_0_energy">  -1056.12191951 </i>
   </energy>
  </scstep>
  <scstep>
   <time name="diag">   16.34   16.34</time>
   <time name="diis">   25.90   25.90</time>
   <time name="orth">    9.36    9.36</time>
   <time name="total">   54.39   54.45</time>
   <energy>
    <i name="e_fr_energy">  -1056.12168109 </i>
    <i name="e_wo_entrp">  -1056.12168109 </i>
    <i name="e_0_energy">  -1056.12168109 </i>
   </energy>
  </scstep>
  <scstep>
   <time name="diag">   16.43   16.44</time>
   <time name="diis">   16.81   16.81</time>
   <time name="orth">    9.34    9.35</time>
   <time name="total">   45.35   45.39</time>
   <energy>
    <i name="e_fr_energy">  -1056.12168337 </i>
    <i name="e_wo_entrp">  -1056.12168337 </i>
    <i name="e_0_energy">  -1056.12168337 </i>
   </energy>
  </scstep>
  <scstep>
   <time name="diag">   16.42   16.42</time>
   <time name="diis">   16.16   16.18</time>
   <time name="orth">    9.31    9.31</time>
   <time name="total">   44.68   44.75</time>
   <energy>
    <i name="e_fr_energy">  -1056.12168556 </i>
    <i name="e_wo_entrp">  -1056.12168556 </i>
    <i name="e_0_energy">  -1056.12168556 </i>
   </energy>
  </scstep>
  <scstep>
   <time name="diag">   16.40   16.41</time>
   <time name="diis">   15.86   15.86</time>
   <time name="orth">    9.32    9.33</time>
   <time name="total">   42.17   42.28</time>
   <energy>
    <i name="alphaZ">   5687.54612114 </i>
    <i name="ewald"> -63155.78019376 </i>
    <i name="hartreedc"> -16607.70059327 </i>
    <i name="XCdc">   3188.04683370 </i>
    <i name="pawpsdc"> 116444.85910834 </i>
    <i name="pawaedc">-115648.22872448 </i>
    <i name="eentropy">     -0.00000000 </i>
    <i name="bandstr">  -7015.04035984 </i>
    <i name="atom">  76050.17612637 </i>
    <i name="e_fr_energy">  -1056.12168181 </i>
    <i name="e_wo_entrp">  -1056.12168181 </i>
    <i name="e_0_energy">  -1056.12168181 </i>
   </energy>
  </scstep>
  <structure>
   <crystal>
    <varray name="basis" >
     <v>      11.30739150      -0.07802513       0.00000000 </v>
     <v>      -0.07802513      11.30739150       0.00000000 </v>
     <v>       0.00000000       0.00000000      15.48800824 </v>
    </varray>
    <i name="volume">   1980.15756754 </i>
    <varray name="rec_basis" >
     <v>       0.08844194       0.00061028       0.00000000 </v>
     <v>       0.00061028       0.08844194       0.00000000 </v>
     <v>       0.00000000       0.00000000       0.06456608 </v>
    </varray>
   </crystal>
   <varray name="positions" >
    <v>       0.99931355       0.25068645       0.12393391 </v>
    <v>       0.00068645       0.24931355       0.62393391 </v>
    <v>       0.99931355       0.75068645       0.12393391 </v>
    <v>       0.00068645       0.74931355       0.62393391 </v>
    <v>       0.49931355       0.25068645       0.12393391 </v>
    <v>       0.50068645       0.24931355       0.62393391 </v>
    <v>       0.49931355       0.75068645       0.12393391 </v>
    <v>       0.50068645       0.74931355       0.62393391 </v>
    <v>       0.00068645       0.24931355       0.37606609 </v>
    <v>       0.99931355       0.25068645       0.87606609 </v>
    <v>       0.00068645       0.74931355       0.37606609 </v>
    <v>       0.99931355       0.75068645       0.87606609 </v>
    <v>       0.50068645       0.24931355       0.37606609 </v>
    <v>       0.49931355       0.25068645       0.87606609 </v>
    <v>       0.50068645       0.74931355       0.37606609 </v>
    <v>       0.49931355       0.75068645       0.87606609 </v>
    <v>       0.25030458       0.99969542       0.12705362 </v>
    <v>       0.24969542       0.00030458       0.62705362 </v>
    <v>       0.25030458       0.49969542       0.12705362 </v>
    <v>       0.24969542       0.50030458       0.62705362 </v>
    <v>       0.75030458       0.99969542       0.12705362 </v>
    <v>       0.74969542       0.00030458       0.62705362 </v>
    <v>       0.75030458       0.49969542       0.12705362 </v>
    <v>       0.74969542       0.50030458       0.62705362 </v>
    <v>       0.24969542       0.00030458       0.37294638 </v>
    <v>       0.25030458       0.99969542       0.87294638 </v>
    <v>       0.24969542       0.50030458       0.37294638 </v>
    <v>       0.25030458       0.49969542       0.87294638 </v>
    <v>       0.74969542       0.00030458       0.37294638 </v>
    <v>       0.75030458       0.99969542       0.87294638 </v>
    <v>       0.74969542       0.50030458       0.37294638 </v>
    <v>       0.75030458       0.49969542       0.87294638 </v>
    <v>       0.25000000       0.25000000       0.25000000 </v>
    <v>       0.25000000       0.25000000       0.75000000 </v>
    <v>       0.25000000       0.75000000       0.25000000 </v>
    <v>       0.25000000       0.75000000       0.75000000 </v>
    <v>       0.75000000       0.25000000       0.25000000 </v>
    <v>       0.75000000       0.25000000       0.75000000 </v>
    <v>       0.75000000       0.75000000       0.25000000 </v>
    <v>       0.75000000       0.75000000       0.75000000 </v>
    <v>       0.00000000      -0.00000000       0.25000000 </v>
    <v>       0.00000000      -0.00000000       0.75000000 </v>
    <v>       0.00000000       0.50000000       0.25000000 </v>
    <v>       0.00000000       0.50000000       0.75000000 </v>
    <v>       0.50000000      -0.00000000       0.25000000 </v>
    <v>       0.50000000      -0.00000000       0.75000000 </v>
    <v>       0.50000000       0.50000000       0.25000000 </v>
    <v>       0.50000000       0.50000000       0.75000000 </v>
    <v>       0.99065673       0.99387446      -0.00000000 </v>
    <v>       0.49065673       0.99387446      -0.00000000 </v>
    <v>       0.75612554       0.25934327      -0.00000000 </v>
    <v>       0.25612554       0.25934327      -0.00000000 </v>
    <v>       0.99065673       0.49387446      -0.00000000 </v>
    <v>       0.49065673       0.49387446      -0.00000000 </v>
    <v>       0.75612554       0.75934327      -0.00000000 </v>
    <v>       0.25612554       0.75934327      -0.00000000 </v>
    <v>       0.00934327       0.00612554       0.50000000 </v>
    <v>       0.50934327       0.00612554       0.50000000 </v>
    <v>       0.24387446       0.24065673       0.50000000 </v>
    <v>       0.74387446       0.24065673       0.50000000 </v>
    <v>       0.00934327       0.50612554       0.50000000 </v>
    <v>       0.50934327       0.50612554       0.50000000 </v>
    <v>       0.24387446       0.74065673       0.50000000 </v>
    <v>       0.74387446       0.74065673       0.50000000 </v>
    <v>       0.12313549       0.12686451       0.27064286 </v>
    <v>       0.12313549       0.12686451       0.72935714 </v>
    <v>       0.12313549       0.62686451       0.27064286 </v>
    <v>       0.12313549       0.62686451       0.72935714 </v>
    <v>       0.62313549       0.12686451       0.27064286 </v>
    <v>       0.62313549       0.12686451       0.72935714 </v>
    <v>       0.62313549       0.62686451       0.27064286 </v>
    <v>       0.62313549       0.62686451       0.72935714 </v>
    <v>       0.37686451       0.37313549       0.22935714 </v>
    <v>       0.37686451       0.37313549       0.77064286 </v>
    <v>       0.37686451       0.87313549       0.22935714 </v>
    <v>       0.37686451       0.87313549       0.77064286 </v>
    <v>       0.87686451       0.37313549       0.22935714 </v>
    <v>       0.87686451       0.37313549       0.77064286 </v>
    <v>       0.87686451       0.87313549       0.22935714 </v>
    <v>       0.87686451       0.87313549       0.77064286 </v>
    <v>       0.37240967       0.12240967       0.25000000 </v>
    <v>       0.37240967       0.12240967       0.75000000 </v>
    <v>       0.37240967       0.62240967       0.25000000 </v>
    <v>       0.37240967       0.62240967       0.75000000 </v>
    <v>       0.87240967       0.12240967       0.25000000 </v>
    <v>       0.87240967       0.12240967       0.75000000 </v>
    <v>       0.87240967       0.62240967       0.25000000 </v>
    <v>       0.87240967       0.62240967       0.75000000 </v>
    <v>       0.12759033       0.37759033       0.25000000 </v>
    <v>       0.12759033       0.37759033       0.75000000 </v>
    <v>       0.12759033       0.87759033       0.25000000 </v>
    <v>       0.12759033       0.87759033       0.75000000 </v>
    <v>       0.62759033       0.37759033       0.25000000 </v>
    <v>       0.62759033       0.37759033       0.75000000 </v>
    <v>       0.62759033       0.87759033       0.25000000 </v>
    <v>       0.62759033       0.87759033       0.75000000 </v>
    <v>       0.35890622       0.39109378      -0.00000000 </v>
    <v>       0.35890622       0.89109378      -0.00000000 </v>
    <v>       0.85890622       0.39109378      -0.00000000 </v>
    <v>       0.85890622       0.89109378      -0.00000000 </v>
    <v>       0.14109378       0.10890622       0.50000000 </v>
    <v>       0.14109378       0.60890622       0.50000000 </v>
    <v>       0.64109378       0.10890622       0.50000000 </v>
    <v>       0.64109378       0.60890622       0.50000000 </v>
    <v>       0.11200269       0.36546044      -0.00000000 </v>
    <v>       0.11546044       0.36200269       0.50000000 </v>
    <v>       0.11200269       0.86546044      -0.00000000 </v>
    <v>       0.11546044       0.86200269       0.50000000 </v>
    <v>       0.61200269       0.36546044      -0.00000000 </v>
    <v>       0.61546044       0.36200269       0.50000000 </v>
    <v>       0.61200269       0.86546044      -0.00000000 </v>
    <v>       0.61546044       0.86200269       0.50000000 </v>
    <v>       0.38453956       0.13799731      -0.00000000 </v>
    <v>       0.38799731       0.13453956       0.50000000 </v>
    <v>       0.38453956       0.63799731      -0.00000000 </v>
    <v>       0.38799731       0.63453956       0.50000000 </v>
    <v>       0.88453956       0.13799731      -0.00000000 </v>
    <v>       0.88799731       0.13453956       0.50000000 </v>
    <v>       0.88453956       0.63799731      -0.00000000 </v>
    <v>       0.88799731       0.63453956       0.50000000 </v>
    <v>       0.02262092       0.02264963       0.12293687 </v>
    <v>       0.97737908       0.97735037       0.62293687 </v>
    <v>       0.02262092       0.52264963       0.12293687 </v>
    <v>       0.97737908       0.47735037       0.62293687 </v>
    <v>       0.52262092       0.02264963       0.12293687 </v>
    <v>       0.47737908       0.97735037       0.62293687 </v>
    <v>       0.52262092       0.52264963       0.12293687 </v>
    <v>       0.47737908       0.47735037       0.62293687 </v>
    <v>       0.97737908       0.97735037       0.37706313 </v>
    <v>       0.02262092       0.02264963       0.87706313 </v>
    <v>       0.97737908       0.47735037       0.37706313 </v>
    <v>       0.02262092       0.52264963       0.87706313 </v>
    <v>       0.47737908       0.97735037       0.37706313 </v>
    <v>       0.52262092       0.02264963       0.87706313 </v>
    <v>       0.47737908       0.47735037       0.37706313 </v>
    <v>       0.52262092       0.52264963       0.87706313 </v>
    <v>       0.27264963       0.27262092       0.37706313 </v>
    <v>       0.22735037       0.22737908       0.87706313 </v>
    <v>       0.27264963       0.77262092       0.37706313 </v>
    <v>       0.22735037       0.72737908       0.87706313 </v>
    <v>       0.77264963       0.27262092       0.37706313 </v>
    <v>       0.72735037       0.22737908       0.87706313 </v>
    <v>       0.77264963       0.77262092       0.37706313 </v>
    <v>       0.72735037       0.72737908       0.87706313 </v>
    <v>       0.22735037       0.22737908       0.12293687 </v>
    <v>       0.27264963       0.27262092       0.62293687 </v>
    <v>       0.22735037       0.72737908       0.12293687 </v>
    <v>       0.27264963       0.77262092       0.62293687 </v>
    <v>       0.72735037       0.22737908       0.12293687 </v>
    <v>       0.77264963       0.27262092       0.62293687 </v>
    <v>       0.72735037       0.72737908       0.12293687 </v>
    <v>       0.77264963       0.77262092       0.62293687 </v>
   </varray>
  </structure>
  <varray name="forces" >
   <v>      -0.00628135       0.00628135       0.05030791 </v>
   <v>       0.00628135      -0.00628135       0.05030791 </v>
   <v>      -0.00628135       0.00628135       0.05030791 </v>
   <v>       0.00628135      -0.00628135       0.05030791 </v>
   <v>      -0.00628135       0.00628135       0.05030791 </v>
   <v>       0.00628135      -0.00628135       0.05030791 </v>
   <v>      -0.00628135       0.00628135       0.05030791 </v>
   <v>       0.00628135      -0.00628135       0.05030791 </v>
   <v>       0.00628135      -0.00628135      -0.05030791 </v>
   <v>      -0.00628135       0.00628135      -0.05030791 </v>
   <v>       0.00628135      -0.00628135      -0.05030791 </v>
   <v>      -0.00628135       0.00628135      -0.05030791 </v>
   <v>       0.00628135      -0.00628135      -0.05030791 </v>
   <v>      -0.00628135       0.00628135      -0.05030791 </v>
   <v>       0.00628135      -0.00628135      -0.05030791 </v>
   <v>      -0.00628135       0.00628135      -0.05030791 </v>
   <v>      -0.00393373       0.00393373      -0.04186018 </v>
   <v>       0.00393373      -0.00393373      -0.04186018 </v>
   <v>      -0.00393373       0.00393373      -0.04186018 </v>
   <v>       0.00393373      -0.00393373      -0.04186018 </v>
   <v>      -0.00393373       0.00393373      -0.04186018 </v>
   <v>       0.00393373      -0.00393373      -0.04186018 </v>
   <v>      -0.00393373       0.00393373      -0.04186018 </v>
   <v>       0.00393373      -0.00393373      -0.04186018 </v>
   <v>       0.00393373      -0.00393373       0.04186018 </v>
   <v>      -0.00393373       0.00393373       0.04186018 </v>
   <v>       0.00393373      -0.00393373       0.04186018 </v>
   <v>      -0.00393373       0.00393373       0.04186018 </v>
   <v>       0.00393373      -0.00393373       0.04186018 </v>
   <v>      -0.00393373       0.00393373       0.04186018 </v>
   <v>       0.00393373      -0.00393373       0.04186018 </v>
   <v>      -0.00393373       0.00393373       0.04186018 </v>
   <v>       0.00000000      -0.00000000      -0.00000000 </v>
   <v>       0.00000000      -0.00000000      -0.00000000 </v>
   <v>       0.00000000      -0.00000000      -0.00000000 </v>
   <v>       0.00000000      -0.00000000      -0.00000000 </v>
   <v>       0.00000000      -0.00000000      -0.00000000 </v>
   <v>       0.00000000      -0.00000000      -0.00000000 </v>
   <v>       0.00000000      -0.00000000      -0.00000000 </v>
   <v>       0.00000000      -0.00000000      -0.00000000 </v>
   <v>       0.00000000       0.00000000      -0.00000000 </v>
   <v>       0.00000000       0.00000000      -0.00000000 </v>
   <v>       0.00000000       0.00000000      -0.00000000 </v>
   <v>       0.00000000       0.00000000      -0.00000000 </v>
   <v>       0.00000000       0.00000000      -0.00000000 </v>
   <v>       0.00000000      -0.00000000      -0.00000000 </v>
   <v>       0.00000000       0.00000000      -0.00000000 </v>
   <v>       0.00000000       0.00000000      -0.00000000 </v>
   <v>       0.00890190       0.00432447      -0.00000000 </v>
   <v>       0.00890190       0.00432447      -0.00000000 </v>
   <v>      -0.00432447      -0.00890190      -0.00000000 </v>
   <v>      -0.00432447      -0.00890190      -0.00000000 </v>
   <v>       0.00890190       0.00432447      -0.00000000 </v>
   <v>       0.00890190       0.00432447      -0.00000000 </v>
   <v>      -0.00432447      -0.00890190      -0.00000000 </v>
   <v>      -0.00432447      -0.00890190      -0.00000000 </v>
   <v>      -0.00890190      -0.00432447      -0.00000000 </v>
   <v>      -0.00890190      -0.00432447      -0.00000000 </v>
   <v>       0.00432447       0.00890190      -0.00000000 </v>
   <v>       0.00432447       0.00890190      -0.00000000 </v>
   <v>      -0.00890190      -0.00432447      -0.00000000 </v>
   <v>      -0.00890190      -0.00432447      -0.00000000 </v>
   <v>       0.00432447       0.00890190      -0.00000000 </v>
   <v>       0.00432447       0.00890190      -0.00000000 </v>
   <v>       0.02107428      -0.02107428       0.04461753 </v>
   <v>       0.02107428      -0.02107428      -0.04461753 </v>
   <v>       0.02107428      -0.02107428       0.04461753 </v>
   <v>       0.02107428      -0.02107428      -0.04461753 </v>
   <v>       0.02107428      -0.02107428       0.04461753 </v>
   <v>       0.02107428      -0.02107428      -0.04461753 </v>
   <v>       0.02107428      -0.02107428       0.04461753 </v>
   <v>       0.02107428      -0.02107428      -0.04461753 </v>
   <v>      -0.02107428       0.02107428      -0.04461753 </v>
   <v>      -0.02107428       0.02107428       0.04461753 </v>
   <v>      -0.02107428       0.02107428      -0.04461753 </v>
   <v>      -0.02107428       0.02107428       0.04461753 </v>
   <v>      -0.02107428       0.02107428      -0.04461753 </v>
   <v>      -0.02107428       0.02107428       0.04461753 </v>
   <v>      -0.02107428       0.02107428      -0.04461753 </v>
   <v>      -0.02107428       0.02107428       0.04461753 </v>
   <v>      -0.02305588      -0.02305588      -0.00000000 </v>
   <v>      -0.02305588      -0.02305588      -0.00000000 </v>
   <v>      -0.02305588      -0.02305588      -0.00000000 </v>
   <v>      -0.02305588      -0.02305588      -0.00000000 </v>
   <v>      -0.02305588      -0.02305588      -0.00000000 </v>
   <v>      -0.02305588      -0.02305588      -0.00000000 </v>
   <v>      -0.02305588      -0.02305588      -0.00000000 </v>
   <v>      -0.02305588      -0.02305588      -0.00000000 </v>
   <v>       0.02305588       0.02305588      -0.00000000 </v>
   <v>       0.02305588       0.02305588      -0.00000000 </v>
   <v>       0.02305588       0.02305588      -0.00000000 </v>
[...]
       <r>   -16.7087     0.0000    32.0000 </r>
       <r>   -16.5563     0.0000    32.0000 </r>
       <r>   -16.4039     0.0000    32.0000 </r>
       <r>   -16.2515     0.0000    32.0000 </r>
       <r>   -16.0991     0.0000    32.0000 </r>
       <r>   -15.9466     0.0000    32.0000 </r>
       <r>   -15.7942     0.0000    32.0000 </r>
       <r>   -15.6418     0.0000    32.0000 </r>
       <r>   -15.4894     0.0000    32.0000 </r>
       <r>   -15.3370     0.0000    32.0000 </r>
       <r>   -15.1846     0.0000    32.0000 </r>
       <r>   -15.0322     0.9097    32.1386 </r>
       <r>   -14.8797    30.3024    36.7572 </r>
       <r>   -14.7273    45.7091    43.7238 </r>
       <r>   -14.5749    58.9194    52.7039 </r>
       <r>   -14.4225    25.8929    56.6504 </r>
       <r>   -14.2701    45.0108    63.5106 </r>
       <r>   -14.1177    59.8020    72.6253 </r>
       <r>   -13.9653   101.0761    88.0307 </r>
       <r>   -13.8129    98.2767   103.0094 </r>
       <r>   -13.6604    14.5408   105.2256 </r>
       <r>   -13.5080    39.5876   111.2593 </r>
       <r>   -13.3556    28.2205   115.5605 </r>
       <r>   -13.2032    28.9863   119.9784 </r>
       <r>   -13.0508     0.1419   120.0000 </r>
       <r>   -12.8984     0.0000   120.0000 </r>
       <r>   -12.7460     0.0000   120.0000 </r>
       <r>   -12.5935     0.5345   120.0815 </r>
       <r>   -12.4411    20.4750   123.2021 </r>
       <r>   -12.2887   135.7920   143.8987 </r>
       <r>   -12.1363   157.9394   167.9708 </r>
       <r>   -11.9839   103.9137   183.8087 </r>
       <r>   -11.8315   142.6064   205.5438 </r>
       <r>   -11.6791    66.3734   215.6600 </r>
       <r>   -11.5266     2.2305   216.0000 </r>
       <r>   -11.3742     0.0000   216.0000 </r>
       <r>   -11.2218     0.0000   216.0000 </r>
       <r>   -11.0694     0.0000   216.0000 </r>
       <r>   -10.9170     0.0000   216.0000 </r>
       <r>   -10.7646     0.0000   216.0000 </r>
       <r>   -10.6122     0.0000   216.0000 </r>
       <r>   -10.4598     0.0000   216.0000 </r>
       <r>   -10.3073     0.0000   216.0000 </r>
       <r>   -10.1549     0.0000   216.0000 </r>
       <r>   -10.0025     0.0000   216.0000 </r>
       <r>    -9.8501     0.0000   216.0000 </r>
       <r>    -9.6977     0.0000   216.0000 </r>
       <r>    -9.5453     0.0000   216.0000 </r>
       <r>    -9.3929     0.0000   216.0000 </r>
       <r>    -9.2404     0.0000   216.0000 </r>
       <r>    -9.0880     0.0000   216.0000 </r>
       <r>    -8.9356     0.0000   216.0000 </r>
       <r>    -8.7832     0.0000   216.0000 </r>
       <r>    -8.6308     0.0000   216.0000 </r>
       <r>    -8.4784     0.0000   216.0000 </r>
       <r>    -8.3260     0.0000   216.0000 </r>
       <r>    -8.1735     0.0000   216.0000 </r>
       <r>    -8.0211     0.0000   216.0000 </r>
       <r>    -7.8687     0.0000   216.0000 </r>
       <r>    -7.7163     0.0000   216.0000 </r>
       <r>    -7.5639     0.0000   216.0000 </r>
       <r>    -7.4115     0.0000   216.0000 </r>
       <r>    -7.2591     0.0000   216.0000 </r>
       <r>    -7.1067     0.0000   216.0000 </r>
       <r>    -6.9542     0.0000   216.0000 </r>
       <r>    -6.8018     0.0000   216.0000 </r>
       <r>    -6.6494     0.0000   216.0000 </r>
       <r>    -6.4970     0.0000   216.0000 </r>
       <r>    -6.3446     0.0000   216.0000 </r>
       <r>    -6.1922     0.0000   216.0000 </r>
       <r>    -6.0398     0.0000   216.0000 </r>
       <r>    -5.8873     0.0000   216.0000 </r>
       <r>    -5.7349     0.0000   216.0000 </r>
       <r>    -5.5825     0.0000   216.0000 </r>
       <r>    -5.4301     0.0000   216.0000 </r>
       <r>    -5.2777     0.0000   216.0000 </r>
       <r>    -5.1253     0.0000   216.0000 </r>
       <r>    -4.9729     0.0000   216.0000 </r>
       <r>    -4.8204     0.0000   216.0000 </r>
       <r>    -4.6680     0.0000   216.0000 </r>
       <r>    -4.5156     0.0000   216.0000 </r>
       <r>    -4.3632     0.0000   216.0000 </r>
       <r>    -4.2108     0.0000   216.0000 </r>
       <r>    -4.0584     0.0000   216.0000 </r>
       <r>    -3.9060     0.0000   216.0000 </r>
       <r>    -3.7536     0.0000   216.0000 </r>
       <r>    -3.6011     0.0000   216.0000 </r>
       <r>    -3.4487     0.0000   216.0000 </r>
       <r>    -3.2963     0.0000   216.0000 </r>
       <r>    -3.1439     0.0000   216.0000 </r>
       <r>    -2.9915     0.0000   216.0000 </r>
       <r>    -2.8391     0.0000   216.0000 </r>
       <r>    -2.6867     0.0000   216.0000 </r>
       <r>    -2.5342     0.0000   216.0000 </r>
       <r>    -2.3818     0.1801   216.0274 </r>
       <r>    -2.2294     9.1719   217.4254 </r>
       <r>    -2.0770    25.2499   221.2738 </r>
       <r>    -1.9246    26.7054   225.3441 </r>
       <r>    -1.7722    20.7201   228.5021 </r>
       <r>    -1.6198    49.2128   236.0028 </r>
       <r>    -1.4674    33.6319   241.1288 </r>
       <r>    -1.3149    50.3731   248.8063 </r>
       <r>    -1.1625    56.0840   257.3543 </r>
       <r>    -1.0101    76.6814   269.0416 </r>
       <r>    -0.8577    58.4665   277.9527 </r>
       <r>    -0.7053    71.5714   288.8611 </r>
       <r>    -0.5529   105.1966   304.8945 </r>
       <r>    -0.4005   101.2746   320.3301 </r>
       <r>    -0.2480    66.3080   330.4364 </r>
       <r>    -0.0956    76.0382   342.0256 </r>
       <r>     0.0568    51.1842   349.8268 </r>
       <r>     0.2092    67.9618   360.1851 </r>
       <r>     0.3616    47.0476   367.3558 </r>
       <r>     0.5140    50.4228   375.0409 </r>
       <r>     0.6664    35.5951   380.4661 </r>
       <r>     0.8189    41.6196   386.8095 </r>
       <r>     0.9713    66.7811   396.9878 </r>
       <r>     1.1237    57.6449   405.7737 </r>
       <r>     1.2761    78.7135   417.7707 </r>
       <r>     1.4285    74.4731   429.1215 </r>
       <r>     1.5809    61.5177   438.4976 </r>
       <r>     1.7333    91.8459   452.4962 </r>
       <r>     1.8857    56.6605   461.1320 </r>
       <r>     2.0382    47.3927   468.3553 </r>
       <r>     2.1906    34.4542   473.6066 </r>
       <r>     2.3430    18.1568   476.3739 </r>
       <r>     2.4954    19.8119   479.3935 </r>
       <r>     2.6478     3.9789   480.0000 </r>
       <r>     2.8002     0.0002   480.0000 </r>
       <r>     2.9526     0.0000   480.0000 </r>
       <r>     3.1051     0.0000   480.0000 </r>
       <r>     3.2575     0.0000   480.0000 </r>
       <r>     3.4099     0.0000   480.0000 </r>
       <r>     3.5623     0.0000   480.0000 </r>
       <r>     3.7147     0.0000   480.0000 </r>
       <r>     3.8671     0.0000   480.0000 </r>
       <r>     4.0195     0.0138   480.0021 </r>
       <r>     4.1720     5.9798   480.9135 </r>
       <r>     4.3244    10.5359   482.5193 </r>
       <r>     4.4768    17.3398   485.1621 </r>
       <r>     4.6292    34.2930   490.3889 </r>
       <r>     4.7816    56.9859   499.0743 </r>
       <r>     4.9340    59.0362   508.0722 </r>
       <r>     5.0864    56.4102   516.6699 </r>
       <r>     5.2388    40.2851   522.8099 </r>
       <r>     5.3913    76.8428   534.5218 </r>
       <r>     5.5437    73.3266   545.6978 </r>
       <r>     5.6961    89.1321   559.2827 </r>
       <r>     5.8485    91.1533   573.1757 </r>
       <r>     6.0009    84.7320   586.0900 </r>
       <r>     6.1533    53.2601   594.2076 </r>
       <r>     6.3057    61.7720   603.6225 </r>
       <r>     6.4582    23.1686   607.1537 </r>
       <r>     6.6106    18.8918   610.0331 </r>
       <r>     6.7630    25.8209   613.9685 </r>
       <r>     6.9154    22.9569   617.4675 </r>
       <r>     7.0678     6.7791   618.5007 </r>
       <r>     7.2202    13.0367   620.4877 </r>
       <r>     7.3726     9.9013   621.9968 </r>
       <r>     7.5251     6.9404   623.0546 </r>
       <r>     7.6775    27.3490   627.2229 </r>
       <r>     7.8299    22.1480   630.5986 </r>
       <r>     7.9823     4.5873   631.2978 </r>
       <r>     8.1347    19.3397   634.2454 </r>
       <r>     8.2871    29.2961   638.7105 </r>
       <r>     8.4395    31.8472   643.5645 </r>
       <r>     8.5919    18.4086   646.3702 </r>
       <r>     8.7444    21.7586   649.6865 </r>
       <r>     8.8968    29.3720   654.1632 </r>
       <r>     9.0492    27.1932   658.3078 </r>
       <r>     9.2016    11.2637   660.0245 </r>
       <r>     9.3540    28.4923   664.3672 </r>
       <r>     9.5064    36.3099   669.9013 </r>
       <r>     9.6588    29.3345   674.3723 </r>
       <r>     9.8113    48.2208   681.7218 </r>
       <r>     9.9637    54.5880   690.0417 </r>
       <r>    10.1161    71.9289   701.0047 </r>
       <r>    10.2685    61.6130   710.3953 </r>
       <r>    10.4209    57.1378   719.1039 </r>
       <r>    10.5733    65.7240   729.1211 </r>
       <r>    10.7257    47.7600   736.4004 </r>
       <r>    10.8782    44.1792   743.1339 </r>
       <r>    11.0306    83.2402   755.8209 </r>
       <r>    11.1830    62.8652   765.4024 </r>
       <r>    11.3354    17.0314   767.9982 </r>
       <r>    11.4878     0.0119   768.0000 </r>
       <r>    11.6402     0.0000   768.0000 </r>
       <r>    11.7926     0.0000   768.0000 </r>
       <r>    11.9450     0.0000   768.0000 </r>
       <r>    12.0975     0.0000   768.0000 </r>
       <r>    12.2499     0.0000   768.0000 </r>
       <r>    12.4023     0.0000   768.0000 </r>
       <r>    12.5547     0.0000   768.0000 </r>
       <r>    12.7071     0.0000   768.0000 </r>
       <r>    12.8595     0.0000   768.0000 </r>
       <r>    13.0119     0.0000   768.0000 </r>
       <r>    13.1644     0.0000   768.0000 </r>
       <r>    13.3168     0.0000   768.0000 </r>
      </set>
     </set>
    </array>
   </total>
  </dos>
 </calculation>
 <structure name="finalpos" >
  <crystal>
   <varray name="basis" >
    <v>      11.31411232      -0.11008835       0.00000000 </v>
    <v>      -0.11008835      11.31411232       0.00000000 </v>
    <v>       0.00000000       0.00000000      15.42391414 </v>
   </varray>
   <i name="volume">   1974.21501904 </i>
   <varray name="rec_basis" >
    <v>       0.08839356       0.00086009       0.00000000 </v>
    <v>       0.00086009       0.08839356       0.00000000 </v>
    <v>       0.00000000       0.00000000       0.06483439 </v>
   </varray>
  </crystal>
  <varray name="positions" >
   <v>       0.99876334       0.25123666       0.12413537 </v>
   <v>       0.00123666       0.24876334       0.62413537 </v>
   <v>       0.99876334       0.75123666       0.12413537 </v>
   <v>       0.00123666       0.74876334       0.62413537 </v>
   <v>       0.49876334       0.25123666       0.12413537 </v>
   <v>       0.50123666       0.24876334       0.62413537 </v>
   <v>       0.49876334       0.75123666       0.12413537 </v>
   <v>       0.50123666       0.74876334       0.62413537 </v>
   <v>       0.00123666       0.24876334       0.37586463 </v>
   <v>       0.99876334       0.25123666       0.87586463 </v>
   <v>       0.00123666       0.74876334       0.37586463 </v>
   <v>       0.99876334       0.75123666       0.87586463 </v>
   <v>       0.50123666       0.24876334       0.37586463 </v>
   <v>       0.49876334       0.25123666       0.87586463 </v>
   <v>       0.50123666       0.74876334       0.37586463 </v>
   <v>       0.49876334       0.75123666       0.87586463 </v>
   <v>       0.25114031       0.99885969       0.12466074 </v>
   <v>       0.24885969       0.00114031       0.62466074 </v>
   <v>       0.25114031       0.49885969       0.12466074 </v>
   <v>       0.24885969       0.50114031       0.62466074 </v>
   <v>       0.75114031       0.99885969       0.12466074 </v>
   <v>       0.74885969       0.00114031       0.62466074 </v>
   <v>       0.75114031       0.49885969       0.12466074 </v>
   <v>       0.74885969       0.50114031       0.62466074 </v>
   <v>       0.24885969       0.00114031       0.37533926 </v>
   <v>       0.25114031       0.99885969       0.87533926 </v>
   <v>       0.24885969       0.50114031       0.37533926 </v>
   <v>       0.25114031       0.49885969       0.87533926 </v>
   <v>       0.74885969       0.00114031       0.37533926 </v>
   <v>       0.75114031       0.99885969       0.87533926 </v>
   <v>       0.74885969       0.50114031       0.37533926 </v>
   <v>       0.75114031       0.49885969       0.87533926 </v>
   <v>       0.25000000       0.25000000       0.25000000 </v>
   <v>       0.25000000       0.25000000       0.75000000 </v>
   <v>       0.25000000       0.75000000       0.25000000 </v>
   <v>       0.25000000       0.75000000       0.75000000 </v>
   <v>       0.75000000       0.25000000       0.25000000 </v>
   <v>       0.75000000       0.25000000       0.75000000 </v>
   <v>       0.75000000       0.75000000       0.25000000 </v>
   <v>       0.75000000       0.75000000       0.75000000 </v>
   <v>      -0.00000000       0.00000000       0.25000000 </v>
   <v>      -0.00000000       0.00000000       0.75000000 </v>
   <v>      -0.00000000       0.50000000       0.25000000 </v>
   <v>      -0.00000000       0.50000000       0.75000000 </v>
   <v>       0.50000000       0.00000000       0.25000000 </v>
   <v>       0.50000000       0.00000000       0.75000000 </v>
   <v>       0.50000000       0.50000000       0.25000000 </v>
   <v>       0.50000000       0.50000000       0.75000000 </v>
   <v>       0.99281724       0.99353924      -0.00000000 </v>
   <v>       0.49281724       0.99353924      -0.00000000 </v>
   <v>       0.75646076       0.25718276      -0.00000000 </v>
   <v>       0.25646076       0.25718276      -0.00000000 </v>
   <v>       0.99281724       0.49353924      -0.00000000 </v>
   <v>       0.49281724       0.49353924      -0.00000000 </v>
   <v>       0.75646076       0.75718276      -0.00000000 </v>
   <v>       0.25646076       0.75718276      -0.00000000 </v>
   <v>       0.00718276       0.00646076       0.50000000 </v>
   <v>       0.50718276       0.00646076       0.50000000 </v>
   <v>       0.24353924       0.24281724       0.50000000 </v>
   <v>       0.74353924       0.24281724       0.50000000 </v>
   <v>       0.00718276       0.50646076       0.50000000 </v>
   <v>       0.50718276       0.50646076       0.50000000 </v>
   <v>       0.24353924       0.74281724       0.50000000 </v>
   <v>       0.74353924       0.74281724       0.50000000 </v>
   <v>       0.12446463       0.12553537       0.27282617 </v>
   <v>       0.12446463       0.12553537       0.72717383 </v>
   <v>       0.12446463       0.62553537       0.27282617 </v>
   <v>       0.12446463       0.62553537       0.72717383 </v>
   <v>       0.62446463       0.12553537       0.27282617 </v>
   <v>       0.62446463       0.12553537       0.72717383 </v>
   <v>       0.62446463       0.62553537       0.27282617 </v>
   <v>       0.62446463       0.62553537       0.72717383 </v>
   <v>       0.37553537       0.37446463       0.22717383 </v>
   <v>       0.37553537       0.37446463       0.77282617 </v>
   <v>       0.37553537       0.87446463       0.22717383 </v>
   <v>       0.37553537       0.87446463       0.77282617 </v>
   <v>       0.87553537       0.37446463       0.22717383 </v>
   <v>       0.87553537       0.37446463       0.77282617 </v>
   <v>       0.87553537       0.87446463       0.22717383 </v>
   <v>       0.87553537       0.87446463       0.77282617 </v>
   <v>       0.37429144       0.12429144       0.25000000 </v>
   <v>       0.37429144       0.12429144       0.75000000 </v>
   <v>       0.37429144       0.62429144       0.25000000 </v>
   <v>       0.37429144       0.62429144       0.75000000 </v>
   <v>       0.87429144       0.12429144       0.25000000 </v>
   <v>       0.87429144       0.12429144       0.75000000 </v>
   <v>       0.87429144       0.62429144       0.25000000 </v>
   <v>       0.87429144       0.62429144       0.75000000 </v>
   <v>       0.12570856       0.37570856       0.25000000 </v>
   <v>       0.12570856       0.37570856       0.75000000 </v>
   <v>       0.12570856       0.87570856       0.25000000 </v>
   <v>       0.12570856       0.87570856       0.75000000 </v>
   <v>       0.62570856       0.37570856       0.25000000 </v>
   <v>       0.62570856       0.37570856       0.75000000 </v>
   <v>       0.62570856       0.87570856       0.25000000 </v>
   <v>       0.62570856       0.87570856       0.75000000 </v>
   <v>       0.37141842       0.37858158      -0.00000000 </v>
   <v>       0.37141842       0.87858158      -0.00000000 </v>
   <v>       0.87141842       0.37858158      -0.00000000 </v>
   <v>       0.87141842       0.87858158      -0.00000000 </v>
   <v>       0.12858158       0.12141842       0.50000000 </v>
   <v>       0.12858158       0.62141842       0.50000000 </v>
   <v>       0.62858158       0.12141842       0.50000000 </v>
   <v>       0.62858158       0.62141842       0.50000000 </v>
   <v>       0.12207666       0.37280812      -0.00000000 </v>
   <v>       0.12280812       0.37207666       0.50000000 </v>
   <v>       0.12207666       0.87280812      -0.00000000 </v>
   <v>       0.12280812       0.87207666       0.50000000 </v>
   <v>       0.62207666       0.37280812      -0.00000000 </v>
   <v>       0.62280812       0.37207666       0.50000000 </v>
   <v>       0.62207666       0.87280812      -0.00000000 </v>
   <v>       0.62280812       0.87207666       0.50000000 </v>
   <v>       0.37719188       0.12792334      -0.00000000 </v>
   <v>       0.37792334       0.12719188       0.50000000 </v>
   <v>       0.37719188       0.62792334      -0.00000000 </v>
   <v>       0.37792334       0.62719188       0.50000000 </v>
   <v>       0.87719188       0.12792334      -0.00000000 </v>
   <v>       0.87792334       0.12719188       0.50000000 </v>
   <v>       0.87719188       0.62792334      -0.00000000 </v>
   <v>       0.87792334       0.62719188       0.50000000 </v>
   <v>       0.02456831       0.02436598       0.12281130 </v>
   <v>       0.97543169       0.97563402       0.62281130 </v>
   <v>       0.02456831       0.52436598       0.12281130 </v>
   <v>       0.97543169       0.47563402       0.62281130 </v>
   <v>       0.52456831       0.02436598       0.12281130 </v>
   <v>       0.47543169       0.97563402       0.62281130 </v>
   <v>       0.52456831       0.52436598       0.12281130 </v>
   <v>       0.47543169       0.47563402       0.62281130 </v>
   <v>       0.97543169       0.97563402       0.37718870 </v>
   <v>       0.02456831       0.02436598       0.87718870 </v>
   <v>       0.97543169       0.47563402       0.37718870 </v>
   <v>       0.02456831       0.52436598       0.87718870 </v>
   <v>       0.47543169       0.97563402       0.37718870 </v>
   <v>       0.52456831       0.02436598       0.87718870 </v>
   <v>       0.47543169       0.47563402       0.37718870 </v>
   <v>       0.52456831       0.52436598       0.87718870 </v>
   <v>       0.27436598       0.27456831       0.37718870 </v>
   <v>       0.22563402       0.22543169       0.87718870 </v>
   <v>       0.27436598       0.77456831       0.37718870 </v>
   <v>       0.22563402       0.72543169       0.87718870 </v>
   <v>       0.77436598       0.27456831       0.37718870 </v>
   <v>       0.72563402       0.22543169       0.87718870 </v>
   <v>       0.77436598       0.77456831       0.37718870 </v>
   <v>       0.72563402       0.72543169       0.87718870 </v>
   <v>       0.22563402       0.22543169       0.12281130 </v>
   <v>       0.27436598       0.27456831       0.62281130 </v>
   <v>       0.22563402       0.72543169       0.12281130 </v>
   <v>       0.27436598       0.77456831       0.62281130 </v>
   <v>       0.72563402       0.22543169       0.12281130 </v>
   <v>       0.77436598       0.27456831       0.62281130 </v>
   <v>       0.72563402       0.72543169       0.12281130 </v>
   <v>       0.77436598       0.77456831       0.62281130 </v>
  </varray>
 </structure>
</modeling>
