       N       E                     dE             d eps       ncg     rms          rms(c)
DAV:   1    -0.105371176284E+04   -0.10537E+04   -0.14184E-02 13608   0.281E-01    0.697E-02
RMM:   2    -0.105371176214E+04    0.69832E-06   -0.35196E-05  6868   0.896E-03    0.132E-01
RMM:   3    -0.105371176065E+04    0.14932E-05   -0.12463E-05  6383   0.701E-03    0.348E-02
RMM:   4    -0.105371176055E+04    0.94515E-07   -0.57427E-06  4536   0.278E-03    0.174E-02
RMM:   5    -0.105371176062E+04   -0.65382E-07   -0.17724E-06  3902   0.265E-03    0.707E-03
RMM:   6    -0.105371176075E+04   -0.13622E-06   -0.93809E-07  2950   0.211E-03    0.104E-02
RMM:   7    -0.105371176081E+04   -0.59110E-07   -0.54066E-07  2537   0.201E-03    0.740E-03
RMM:   8    -0.105371176087E+04   -0.56636E-07   -0.37658E-07  2202   0.196E-03
   1 F= -.10537118E+04 E0= -.10537083E+04  d E =-.105371E+04  mag=    78.0000
       N       E                     dE             d eps       ncg     rms          rms(c)
DAV:   1    -0.105371161988E+04    0.14093E-03   -0.33781E-01 12416   0.688E-01    0.290E-01
RMM:   2    -0.105371275413E+04   -0.11343E-02   -0.10342E-02 12402   0.141E-01    0.219E-01
RMM:   3    -0.105371280555E+04   -0.51417E-04   -0.55550E-04 10491   0.435E-02    0.125E-01
RMM:   4    -0.105371275369E+04    0.51860E-04   -0.12457E-04  7460   0.158E-02    0.760E-02
RMM:   5    -0.105371273313E+04    0.20559E-04   -0.82851E-05  7260   0.123E-02    0.322E-02
RMM:   6    -0.105371273398E+04   -0.85041E-06   -0.18021E-05  7084   0.744E-03    0.207E-02
RMM:   7    -0.105371273403E+04   -0.49826E-07   -0.78835E-06  6363   0.403E-03    0.109E-02
RMM:   8    -0.105371273367E+04    0.35555E-06   -0.38103E-06  5628   0.353E-03
   2 F= -.10537127E+04 E0= -.10537093E+04  d E =-.972803E-03  mag=    78.0000
       N       E                     dE             d eps       ncg     rms          rms(c)
DAV:   1    -0.105371273331E+04    0.71853E-06   -0.72281E-04 12320   0.320E-02    0.152E-02
RMM:   2    -0.105371273541E+04   -0.20986E-05   -0.23123E-05  6447   0.749E-03    0.142E-02
RMM:   3    -0.105371273589E+04   -0.48644E-06   -0.38288E-06  5793   0.367E-03    0.823E-03
RMM:   4    -0.105371273577E+04    0.12601E-06   -0.57850E-07  2579   0.195E-03    0.504E-03
RMM:   5    -0.105371273555E+04    0.21448E-06   -0.35021E-07  2259   0.191E-03    0.269E-03
RMM:   6    -0.105371273549E+04    0.59052E-07   -0.12885E-07  1429   0.183E-03    0.998E-04
RMM:   7    -0.105371273549E+04    0.26193E-09   -0.68563E-08  1303   0.181E-03    0.139E-03
RMM:   8    -0.105371273550E+04   -0.14843E-08   -0.26317E-08  1038   0.180E-03
   3 F= -.10537127E+04 E0= -.10537093E+04  d E =-.974627E-03  mag=    78.0000
       N       E                     dE             d eps       ncg     rms          rms(c)
DAV:   1    -0.105371269468E+04    0.40819E-04   -0.29496E-01 12336   0.644E-01    0.196E-01
RMM:   2    -0.105371350756E+04   -0.81288E-03   -0.77151E-03 12464   0.119E-01    0.125E-01
RMM:   3    -0.105371353359E+04   -0.26030E-04   -0.39094E-04  9558   0.381E-02    0.755E-02
RMM:   4    -0.105371350637E+04    0.27218E-04   -0.10792E-04  7292   0.140E-02    0.387E-02
RMM:   5    -0.105371350459E+04    0.17819E-05   -0.36424E-05  7102   0.917E-03    0.191E-02
RMM:   6    -0.105371350607E+04   -0.14855E-05   -0.13345E-05  6858   0.571E-03    0.130E-02
RMM:   7    -0.105371350670E+04   -0.62725E-06   -0.63780E-06  5794   0.405E-03    0.660E-03
RMM:   8    -0.105371350706E+04   -0.35990E-06   -0.36402E-06  4877   0.297E-03
   4 F= -.10537135E+04 E0= -.10537101E+04  d E =-.771565E-03  mag=    78.0000
       N       E                     dE             d eps       ncg     rms          rms(c)
DAV:   1    -0.105371325387E+04    0.25283E-03   -0.15429E-01 12368   0.466E-01    0.142E-01
RMM:   2    -0.105371368153E+04   -0.42767E-03   -0.40600E-03 12417   0.858E-02    0.905E-02
RMM:   3    -0.105371369227E+04   -0.10736E-04   -0.18473E-04  7858   0.281E-02    0.548E-02
RMM:   4    -0.105371367972E+04    0.12550E-04   -0.66925E-05  7169   0.117E-02    0.285E-02
RMM:   5    -0.105371367966E+04    0.60842E-07   -0.24671E-05  6996   0.759E-03    0.217E-02
RMM:   6    -0.105371368067E+04   -0.10098E-05   -0.10305E-05  6585   0.491E-03    0.114E-02
RMM:   7    -0.105371368115E+04   -0.48138E-06   -0.47409E-06  5266   0.357E-03    0.496E-03
RMM:   8    -0.105371368142E+04   -0.26902E-06   -0.27066E-06  4215   0.265E-03
   5 F= -.10537137E+04 E0= -.10537102E+04  d E =-.945923E-03  mag=    78.0000
       N       E                     dE             d eps       ncg     rms          rms(c)
DAV:   1    -0.105371362709E+04    0.54058E-04   -0.23085E-01 12592   0.564E-01    0.153E-01
RMM:   2    -0.105371425551E+04   -0.62842E-03   -0.60954E-03 12406   0.104E-01    0.106E-01
RMM:   3    -0.105371427073E+04   -0.15219E-04   -0.29454E-04  8815   0.334E-02    0.658E-02
RMM:   4    -0.105371425730E+04    0.13435E-04   -0.74979E-05  7146   0.123E-02    0.390E-02
RMM:   5    -0.105371425497E+04    0.23277E-05   -0.34774E-05  7039   0.863E-03    0.239E-02
RMM:   6    -0.105371425656E+04   -0.15897E-05   -0.12887E-05  6776   0.560E-03    0.132E-02
RMM:   7    -0.105371425725E+04   -0.69545E-06   -0.59984E-06  5627   0.387E-03    0.642E-03
RMM:   8    -0.105371425762E+04   -0.36524E-06   -0.31572E-06  4457   0.289E-03
   6 F= -.10537143E+04 E0= -.10537108E+04  d E =-.576199E-03  mag=    78.0000
