<?xml version="1.0" encoding="ISO-8859-1"?>
<modeling>
 <generator>
  <i name="program" type="string">vasp </i>
  <i name="version" type="string">5.4.1  </i>
  <i name="subversion" type="string">05Feb16 (build Jan 25 2017 20:16:33) complex                          parallel </i>
  <i name="platform" type="string">BWXE6 </i>
  <i name="date" type="string">2019 06 27 </i>
  <i name="time" type="string">10:02:47 </i>
 </generator>
 <incar>
  <i type="string" name="SYSTEM"> STF</i>
  <i type="string" name="PREC">normal</i>
  <i type="string" name="ALGO"> Fast</i>
  <i type="int" name="ISPIN">     2</i>
  <i type="int" name="NELM">    40</i>
  <i type="int" name="NELMIN">     8</i>
  <i type="int" name="IBRION">     2</i>
  <i name="EDIFF">      0.00010000</i>
  <i name="EDIFFG">     -0.03000000</i>
  <i type="int" name="NSW">    30</i>
  <i type="int" name="ISIF">     3</i>
  <i name="ENCUT">    520.00000000</i>
  <i type="int" name="NBANDS">   768</i>
  <v name="MAGMOM">      0.60000000      0.60000000      0.60000000      0.60000000      0.60000000      0.60000000      0.60000000      0.60000000      0.60000000      0.60000000      0.60000000      0.60000000      0.60000000      0.60000000      0.60000000      0.60000000      0.60000000      0.60000000      0.60000000      0.60000000
      0.60000000      0.60000000      0.60000000      0.60000000      0.60000000      0.60000000      0.60000000      0.60000000      0.60000000      0.60000000      0.60000000      0.60000000      0.60000000      0.60000000      0.60000000      0.60000000      0.60000000      0.60000000      0.60000000      0.60000000
      0.60000000      0.60000000      0.60000000      0.60000000      0.60000000      0.60000000      0.60000000      0.60000000      5.00000000      5.00000000      5.00000000      5.00000000      5.00000000      5.00000000      5.00000000      5.00000000      5.00000000      5.00000000      5.00000000      5.00000000
      5.00000000      5.00000000      5.00000000      5.00000000      0.60000000      0.60000000      0.60000000      0.60000000      0.60000000      0.60000000      0.60000000      0.60000000      0.60000000      0.60000000      0.60000000      0.60000000      0.60000000      0.60000000      0.60000000      0.60000000
      0.60000000      0.60000000      0.60000000      0.60000000      0.60000000      0.60000000      0.60000000      0.60000000      0.60000000      0.60000000      0.60000000      0.60000000      0.60000000      0.60000000      0.60000000      0.60000000      0.60000000      0.60000000      0.60000000      0.60000000
      0.60000000      0.60000000      0.60000000      0.60000000      0.60000000      0.60000000      0.60000000      0.60000000      0.60000000      0.60000000      0.60000000      0.60000000      0.60000000      0.60000000      0.60000000      0.60000000      0.60000000      0.60000000      0.60000000      0.60000000
      0.60000000      0.60000000      0.60000000      0.60000000      0.60000000      0.60000000      0.60000000      0.60000000      0.60000000      0.60000000      0.60000000      0.60000000      0.60000000      0.60000000      0.60000000      0.60000000      0.60000000      0.60000000      0.60000000      0.60000000
      0.60000000      0.60000000      0.60000000      0.60000000      0.60000000      0.60000000      0.60000000      0.60000000      0.60000000      0.60000000      0.60000000      0.60000000</v>
  <i type="string" name="LREAL"> Auto</i>
  <i type="int" name="ISMEAR">     0</i>
  <i name="SIGMA">      0.05000000</i>
  <i type="int" name="LMAXMIX">     4</i>
  <v type="int" name="KPOINT_BSE">    -1     0     0     0</v>
  <i type="int" name="NELM">    40</i>
  <i type="logical" name="LDAU"> T  </i>
  <v type="int" name="LDAUTYPE">     2</v>
  <v type="int" name="LDAUL">     0     2     2     0</v>
  <v name="LDAUU">      0.00000000      3.00000000      5.00000000      0.00000000</v>
  <v name="LDAUJ">      0.00000000      0.00000000      0.00000000      0.00000000</v>
  <i type="int" name="LDAUPRINT">     1</i>
 </incar>
 <kpoints>
  <generation param="Monkhorst-Pack">
   <v type="int" name="divisions">       2        2        2 </v>
   <v name="usershift">      0.00000000       0.00000000       0.00000000 </v>
   <v name="genvec1">      0.50000000      -0.00000000       0.00000000 </v>
   <v name="genvec2">     -0.00000000       0.50000000      -0.00000000 </v>
   <v name="genvec3">      0.00000000      -0.00000000       0.50000000 </v>
   <v name="shift">      0.50000000       0.50000000       0.50000000 </v>
  </generation>
  <varray name="kpointlist" >
   <v>       0.25000000       0.25000000       0.25000000 </v>
   <v>      -0.25000000       0.25000000       0.25000000 </v>
   <v>       0.25000000      -0.25000000       0.25000000 </v>
   <v>      -0.25000000      -0.25000000       0.25000000 </v>
  </varray>
  <varray name="weights" >
   <v>       0.25000000 </v>
   <v>       0.25000000 </v>
   <v>       0.25000000 </v>
   <v>       0.25000000 </v>
  </varray>
 </kpoints>
 <parameters>
  <separator name="general" >
   <i type="string" name="SYSTEM">STF</i>
   <i type="logical" name="LCOMPAT"> F  </i>
  </separator>
  <separator name="electronic" >
   <i type="string" name="PREC">normal</i>
   <i name="ENMAX">    520.00000000</i>
   <i name="ENAUG">    605.39200000</i>
   <i name="EDIFF">      0.00010000</i>
   <i type="int" name="IALGO">    68</i>
   <i type="int" name="IWAVPR">    11</i>
   <i type="int" name="NBANDS">   768</i>
   <i name="NELECT">   1040.00000000</i>
   <i type="int" name="TURBO">     0</i>
   <i type="int" name="IRESTART">     0</i>
   <i type="int" name="NREBOOT">     0</i>
   <i type="int" name="NMIN">     0</i>
   <i name="EREF">      0.00000000</i>
   <separator name="electronic smearing" >
    <i type="int" name="ISMEAR">     0</i>
    <i name="SIGMA">      0.05000000</i>
    <i name="KSPACING">      0.50000000</i>
    <i type="logical" name="KGAMMA"> T  </i>
   </separator>
   <separator name="electronic projectors" >
    <i type="logical" name="LREAL"> T  </i>
    <v name="ROPT">     -0.00050000     -0.00050000     -0.00050000     -0.00050000</v>
    <i type="int" name="LMAXPAW">  -100</i>
    <i type="int" name="LMAXMIX">     4</i>
    <i type="logical" name="NLSPLINE"> F  </i>
   </separator>
   <separator name="electronic startup" >
    <i type="int" name="ISTART">     1</i>
    <i type="int" name="ICHARG">     0</i>
    <i type="int" name="INIWAV">     1</i>
   </separator>
   <separator name="electronic spin" >
    <i type="int" name="ISPIN">     2</i>
    <i type="logical" name="LNONCOLLINEAR"> F  </i>
    <v name="MAGMOM">      0.60000000      0.60000000      0.60000000      0.60000000      0.60000000      0.60000000      0.60000000      0.60000000      0.60000000      0.60000000      0.60000000      0.60000000      0.60000000      0.60000000      0.60000000      0.60000000      0.60000000      0.60000000      0.60000000      0.60000000
      0.60000000      0.60000000      0.60000000      0.60000000      0.60000000      0.60000000      0.60000000      0.60000000      0.60000000      0.60000000      0.60000000      0.60000000      0.60000000      0.60000000      0.60000000      0.60000000      0.60000000      0.60000000      0.60000000      0.60000000
      0.60000000      0.60000000      0.60000000      0.60000000      0.60000000      0.60000000      0.60000000      0.60000000      5.00000000      5.00000000      5.00000000      5.00000000      5.00000000      5.00000000      5.00000000      5.00000000      5.00000000      5.00000000      5.00000000      5.00000000
      5.00000000      5.00000000      5.00000000      5.00000000      0.60000000      0.60000000      0.60000000      0.60000000      0.60000000      0.60000000      0.60000000      0.60000000      0.60000000      0.60000000      0.60000000      0.60000000      0.60000000      0.60000000      0.60000000      0.60000000
      0.60000000      0.60000000      0.60000000      0.60000000      0.60000000      0.60000000      0.60000000      0.60000000      0.60000000      0.60000000      0.60000000      0.60000000      0.60000000      0.60000000      0.60000000      0.60000000      0.60000000      0.60000000      0.60000000      0.60000000
      0.60000000      0.60000000      0.60000000      0.60000000      0.60000000      0.60000000      0.60000000      0.60000000      0.60000000      0.60000000      0.60000000      0.60000000      0.60000000      0.60000000      0.60000000      0.60000000      0.60000000      0.60000000      0.60000000      0.60000000
      0.60000000      0.60000000      0.60000000      0.60000000      0.60000000      0.60000000      0.60000000      0.60000000      0.60000000      0.60000000      0.60000000      0.60000000      0.60000000      0.60000000      0.60000000      0.60000000      0.60000000      0.60000000      0.60000000      0.60000000
      0.60000000      0.60000000      0.60000000      0.60000000      0.60000000      0.60000000      0.60000000      0.60000000      0.60000000      0.60000000      0.60000000      0.60000000</v>
    <i name="NUPDOWN">     -1.00000000</i>
    <i type="logical" name="LSORBIT"> F  </i>
    <v name="SAXIS">      0.00000000      0.00000000      1.00000000</v>
    <i type="logical" name="LSPIRAL"> F  </i>
    <v name="QSPIRAL">      0.00000000      0.00000000      0.00000000</v>
    <i type="logical" name="LZEROZ"> F  </i>
   </separator>
   <separator name="electronic exchange-correlation" >
    <i type="logical" name="LASPH"> F  </i>
    <i type="logical" name="LMETAGGA"> F  </i>
   </separator>
   <separator name="electronic convergence" >
    <i type="int" name="NELM">    40</i>
    <i type="int" name="NELMDL">     0</i>
    <i type="int" name="NELMIN">     8</i>
    <i name="ENINI">    520.00000000</i>
    <separator name="electronic convergence detail" >
     <i type="logical" name="LDIAG"> T  </i>
     <i type="logical" name="LSUBROT"> F  </i>
     <i name="WEIMIN">      0.00100000</i>
     <i name="EBREAK">      0.00000003</i>
     <i name="DEPER">      0.30000000</i>
     <i type="int" name="NRMM">     4</i>
     <i name="TIME">      0.40000000</i>
    </separator>
   </separator>
   <separator name="electronic mixer" >
    <i name="AMIX">      0.40000000</i>
    <i name="BMIX">      1.00000000</i>
    <i name="AMIN">      0.10000000</i>
    <i name="AMIX_MAG">      1.60000000</i>
    <i name="BMIX_MAG">      1.00000000</i>
    <separator name="electronic mixer details" >
     <i type="int" name="IMIX">     4</i>
     <i type="logical" name="MIXFIRST"> F  </i>
     <i type="int" name="MAXMIX">   -45</i>
     <i name="WC">    100.00000000</i>
     <i type="int" name="INIMIX">     1</i>
     <i type="int" name="MIXPRE">     1</i>
     <i type="int" name="MREMOVE">     5</i>
    </separator>
   </separator>
   <separator name="electronic dipolcorrection" >
    <i type="logical" name="LDIPOL"> F  </i>
    <i type="logical" name="LMONO"> F  </i>
    <i type="int" name="IDIPOL">     0</i>
    <i name="EPSILON">      1.00000000</i>
    <v name="DIPOL">   -100.00000000   -100.00000000   -100.00000000</v>
    <i name="EFIELD">      0.00000000</i>
   </separator>
  </separator>
  <separator name="grids" >
   <i type="int" name="NGX">    64</i>
   <i type="int" name="NGY">    64</i>
   <i type="int" name="NGZ">    90</i>
   <i type="int" name="NGXF">   128</i>
   <i type="int" name="NGYF">   128</i>
   <i type="int" name="NGZF">   180</i>
   <i type="logical" name="ADDGRID"> F  </i>
  </separator>
  <separator name="ionic" >
   <i type="int" name="NSW">    30</i>
   <i type="int" name="IBRION">     2</i>
   <i type="int" name="ISIF">     3</i>
   <i name="PSTRESS">      0.00000000</i>
   <i name="EDIFFG">     -0.03000000</i>
   <i type="int" name="NFREE">     1</i>
   <i name="POTIM">      0.50000000</i>
   <i name="SMASS">     -3.00000000</i>
   <i name="SCALEE">      1.00000000</i>
  </separator>
  <separator name="ionic md" >
   <i name="TEBEG">      0.00010000</i>
   <i name="TEEND">      0.00010000</i>
   <i type="int" name="NBLOCK">     1</i>
   <i type="int" name="KBLOCK">    30</i>
   <i type="int" name="NPACO">   256</i>
   <i name="APACO">     16.00000000</i>
  </separator>
  <separator name="symmetry" >
   <i type="int" name="ISYM">     2</i>
   <i name="SYMPREC">      0.00001000</i>
  </separator>
  <separator name="dos" >
   <i type="logical" name="LORBIT"> F  </i>
   <v name="RWIGS">     -1.00000000     -1.00000000     -1.00000000     -1.00000000</v>
   <i type="int" name="NEDOS">   301</i>
   <i name="EMIN">     10.00000000</i>
   <i name="EMAX">    -10.00000000</i>
   <i name="EFERMI">      0.00000000</i>
  </separator>
  <separator name="writing" >
   <i type="int" name="NWRITE">     2</i>
   <i type="logical" name="LWAVE"> T  </i>
   <i type="logical" name="LCHARG"> T  </i>
   <i type="logical" name="LPARD"> F  </i>
   <i type="logical" name="LVTOT"> F  </i>
   <i type="logical" name="LVHAR"> F  </i>
   <i type="logical" name="LELF"> F  </i>
   <i type="logical" name="LOPTICS"> F  </i>
   <v name="STM">      0.00000000      0.00000000      0.00000000      0.00000000      0.00000000      0.00000000      0.00000000</v>
  </separator>
  <separator name="performance" >
   <i type="int" name="NPAR">     2</i>
   <i type="int" name="NSIM">     4</i>
   <i type="int" name="NBLK">    -1</i>
   <i type="logical" name="LPLANE"> T  </i>
   <i type="logical" name="LSCALAPACK"> T  </i>
   <i type="logical" name="LSCAAWARE"> F  </i>
   <i type="logical" name="LSCALU"> F  </i>
   <i type="logical" name="LASYNC"> F  </i>
   <i type="logical" name="LORBITALREAL"> F  </i>
  </separator>
  <separator name="miscellaneous" >
   <i type="int" name="IDIOT">     3</i>
   <i type="logical" name="LMUSIC"> F  </i>
   <v name="POMASS">     87.62000000     47.88000000     55.84700000     16.00000000</v>
   <v name="DARWINR">      0.00000000      0.00000000      0.00000000      0.00000000</v>
   <v name="DARWINV">      1.00000000      1.00000000      1.00000000      1.00000000</v>
   <i type="logical" name="LCORR"> T  </i>
  </separator>
  <i type="logical" name="GGA_COMPAT"> T  </i>
  <i type="logical" name="LBERRY"> F  </i>
  <i type="int" name="ICORELEVEL">     0</i>
  <i type="logical" name="LDAU"> T  </i>
  <v type="int" name="LDAUTYPE">     2</v>
  <v type="int" name="LDAUL">     0</v>
  <v name="LDAUU">      0.00000000</v>
  <v name="LDAUJ">      0.00000000</v>
  <i type="int" name="LDAUPRINT">     1</i>
  <i type="int" name="I_CONSTRAINED_M">     0</i>
  <separator name="electronic exchange-correlation" >
   <i type="string" name="GGA">--</i>
   <i type="int" name="VOSKOWN">     0</i>
   <i type="logical" name="LHFCALC"> F  </i>
   <i type="string" name="PRECFOCK"></i>
   <i type="logical" name="LSYMGRAD"> F  </i>
   <i type="logical" name="LHFONE"> F  </i>
   <i type="logical" name="LRHFCALC"> F  </i>
   <i type="logical" name="LTHOMAS"> F  </i>
   <i type="logical" name="LMODELHF"> F  </i>
   <i name="ENCUT4O">     -1.00000000</i>
   <i type="int" name="EXXOEP">     0</i>
   <i type="int" name="FOURORBIT">     0</i>
   <i name="AEXX">      0.00000000</i>
   <i name="HFALPHA">      0.00000000</i>
   <i name="MCALPHA">      0.00000000</i>
   <i name="ALDAX">      1.00000000</i>
   <i name="AGGAX">      1.00000000</i>
   <i name="ALDAC">      1.00000000</i>
   <i name="AGGAC">      1.00000000</i>
   <i type="int" name="NKREDX">     1</i>
   <i type="int" name="NKREDY">     1</i>
   <i type="int" name="NKREDZ">     1</i>
   <i type="logical" name="SHIFTRED"> F  </i>
   <i type="logical" name="ODDONLY"> F  </i>
   <i type="logical" name="EVENONLY"> F  </i>
   <i type="int" name="LMAXFOCK">     0</i>
   <i type="int" name="NMAXFOCKAE">     0</i>
   <i type="logical" name="LFOCKAEDFT"> F  </i>
   <i name="HFSCREEN">      0.00000000</i>
   <i name="HFSCREENC">      0.00000000</i>
   <i type="int" name="NBANDSGWLOW">     0</i>
  </separator>
  <separator name="vdW DFT" >
   <i type="logical" name="LUSE_VDW"> F  </i>
   <i name="Zab_VDW">     -0.84910000</i>
   <i name="PARAM1">      0.12340000</i>
   <i name="PARAM2">      1.00000000</i>
   <i name="PARAM3">      0.00000000</i>
  </separator>
  <separator name="model GW" >
   <i type="int" name="MODEL_GW">     0</i>
   <i name="MODEL_EPS0">      7.95089258</i>
   <i name="MODEL_ALPHA">      1.00000000</i>
  </separator>
  <separator name="linear response parameters" >
   <i type="logical" name="LEPSILON"> F  </i>
   <i type="logical" name="LRPA"> F  </i>
   <i type="logical" name="LNABLA"> F  </i>
   <i type="logical" name="LVEL"> F  </i>
   <i type="int" name="KINTER">     0</i>
   <i name="CSHIFT">      0.10000000</i>
   <i name="OMEGAMAX">     -1.00000000</i>
   <i name="DEG_THRESHOLD">      0.00200000</i>
  </separator>
  <separator name="orbital magnetization" >
   <i type="logical" name="NUCIND"> F  </i>
   <v name="MAGPOS">      0.00000000      0.00000000      0.00000000</v>
   <i type="logical" name="LNICSALL"> T  </i>
   <i type="logical" name="ORBITALMAG"> F  </i>
   <i type="logical" name="LMAGBLOCH"> F  </i>
   <i type="logical" name="LCHIMAG"> F  </i>
   <i type="logical" name="LGAUGE"> T  </i>
   <i type="int" name="MAGATOM">     0</i>
   <v name="MAGDIPOL">      0.00000000      0.00000000      0.00000000</v>
   <v name="AVECCONST">      0.00000000      0.00000000      0.00000000</v>
  </separator>
  <separator name="response functions" >
   <i type="logical" name="LADDER"> F  </i>
   <i type="logical" name="LFXC"> F  </i>
   <i type="logical" name="LHARTREE"> T  </i>
   <i type="int" name="IBSE">     0</i>
   <v type="int" name="KPOINT">    -1     0     0     0</v>
   <i type="logical" name="LTCTE"> F  </i>
   <i type="logical" name="LTETE"> F  </i>
   <i type="logical" name="LTRIPLET"> F  </i>
   <i type="logical" name="LFXCEPS"> F  </i>
   <i type="logical" name="LFXHEG"> F  </i>
   <i type="int" name="NATURALO">     0</i>
   <i type="logical" name="L2ORDER"> F  </i>
   <i type="logical" name="LUSEW"> F  </i>
   <i name="ENCUTGW">     -2.00000000</i>
   <i name="ENCUTGWSOFT">     -2.00000000</i>
   <i name="ENCUTLF">     -1.00000000</i>
   <i type="int" name="LMAXMP2">    -1</i>
   <i name="SCISSOR">      0.00000000</i>
   <i type="int" name="NOMEGA">     0</i>
   <i type="int" name="NOMEGAR">     0</i>
   <i type="int" name="NBANDSGW">    -1</i>
   <i type="int" name="NBANDSO">    -1</i>
   <i type="int" name="NBANDSV">    -1</i>
   <i type="int" name="NELM">    40</i>
   <i type="int" name="NELMHF">     1</i>
   <i type="int" name="DIM">     3</i>
   <i type="int" name="ANTIRES">     0</i>
   <i name="OMEGAMAX">    -30.00000000</i>
   <i name="OMEGAMIN">    -30.00000000</i>
   <i name="OMEGATL">   -200.00000000</i>
   <i type="int" name="OMEGAGRID">     0</i>
   <i name="CSHIFT">     -0.10000000</i>
   <i type="logical" name="SELFENERGY"> F  </i>
   <i type="logical" name="LSPECTRAL"> F  </i>
   <i type="logical" name="LSPECTRALGW"> F  </i>
   <i type="logical" name="LSINGLES"> F  </i>
   <i type="logical" name="LFERMIGW"> F  </i>
   <i type="logical" name="ODDONLYGW"> F  </i>
   <i type="logical" name="EVENONLYGW"> F  </i>
   <i type="int" name="NKREDLFX">     1</i>
   <i type="int" name="NKREDLFY">     1</i>
   <i type="int" name="NKREDLFZ">     1</i>
   <i type="int" name="MAXMEM">  1800</i>
   <i type="int" name="TELESCOPE">     0</i>
   <i type="int" name="TAUPAR">     1</i>
   <i type="int" name="OMEGAPAR">    -1</i>
   <i name="LAMBDA">      1.00000000</i>
  </separator>
  <separator name="External order field" >
   <i name="OFIELD_KAPPA">      0.00000000</i>
   <v name="OFIELD_K">      0.00000000      0.00000000      0.00000000</v>
   <i name="OFIELD_Q6_NEAR">      0.00000000</i>
   <i name="OFIELD_Q6_FAR">      0.00000000</i>
   <i name="OFIELD_A">      0.00000000</i>
  </separator>
 </parameters>
 <atominfo>
  <atoms>     152 </atoms>
  <types>       4 </types>
  <array name="atoms" >
   <dimension dim="1">ion</dimension>
   <field type="string">element</field>
   <field type="int">atomtype</field>
   <set>
    <rc><c>Sr</c><c>   1</c></rc>
    <rc><c>Sr</c><c>   1</c></rc>
    <rc><c>Sr</c><c>   1</c></rc>
    <rc><c>Sr</c><c>   1</c></rc>
    <rc><c>Sr</c><c>   1</c></rc>
    <rc><c>Sr</c><c>   1</c></rc>
    <rc><c>Sr</c><c>   1</c></rc>
    <rc><c>Sr</c><c>   1</c></rc>
    <rc><c>Sr</c><c>   1</c></rc>
    <rc><c>Sr</c><c>   1</c></rc>
    <rc><c>Sr</c><c>   1</c></rc>
    <rc><c>Sr</c><c>   1</c></rc>
    <rc><c>Sr</c><c>   1</c></rc>
    <rc><c>Sr</c><c>   1</c></rc>
    <rc><c>Sr</c><c>   1</c></rc>
    <rc><c>Sr</c><c>   1</c></rc>
    <rc><c>Sr</c><c>   1</c></rc>
    <rc><c>Sr</c><c>   1</c></rc>
    <rc><c>Sr</c><c>   1</c></rc>
    <rc><c>Sr</c><c>   1</c></rc>
    <rc><c>Sr</c><c>   1</c></rc>
    <rc><c>Sr</c><c>   1</c></rc>
    <rc><c>Sr</c><c>   1</c></rc>
    <rc><c>Sr</c><c>   1</c></rc>
    <rc><c>Sr</c><c>   1</c></rc>
    <rc><c>Sr</c><c>   1</c></rc>
    <rc><c>Sr</c><c>   1</c></rc>
    <rc><c>Sr</c><c>   1</c></rc>
    <rc><c>Sr</c><c>   1</c></rc>
    <rc><c>Sr</c><c>   1</c></rc>
    <rc><c>Sr</c><c>   1</c></rc>
    <rc><c>Sr</c><c>   1</c></rc>
    <rc><c>Ti</c><c>   2</c></rc>
    <rc><c>Ti</c><c>   2</c></rc>
    <rc><c>Ti</c><c>   2</c></rc>
    <rc><c>Ti</c><c>   2</c></rc>
    <rc><c>Ti</c><c>   2</c></rc>
    <rc><c>Ti</c><c>   2</c></rc>
    <rc><c>Ti</c><c>   2</c></rc>
    <rc><c>Ti</c><c>   2</c></rc>
    <rc><c>Ti</c><c>   2</c></rc>
    <rc><c>Ti</c><c>   2</c></rc>
    <rc><c>Ti</c><c>   2</c></rc>
    <rc><c>Ti</c><c>   2</c></rc>
    <rc><c>Ti</c><c>   2</c></rc>
    <rc><c>Ti</c><c>   2</c></rc>
    <rc><c>Ti</c><c>   2</c></rc>
    <rc><c>Ti</c><c>   2</c></rc>
    <rc><c>Fe</c><c>   3</c></rc>
    <rc><c>Fe</c><c>   3</c></rc>
    <rc><c>Fe</c><c>   3</c></rc>
    <rc><c>Fe</c><c>   3</c></rc>
    <rc><c>Fe</c><c>   3</c></rc>
    <rc><c>Fe</c><c>   3</c></rc>
    <rc><c>Fe</c><c>   3</c></rc>
    <rc><c>Fe</c><c>   3</c></rc>
    <rc><c>Fe</c><c>   3</c></rc>
    <rc><c>Fe</c><c>   3</c></rc>
    <rc><c>Fe</c><c>   3</c></rc>
    <rc><c>Fe</c><c>   3</c></rc>
    <rc><c>Fe</c><c>   3</c></rc>
    <rc><c>Fe</c><c>   3</c></rc>
    <rc><c>Fe</c><c>   3</c></rc>
    <rc><c>Fe</c><c>   3</c></rc>
    <rc><c>O </c><c>   4</c></rc>
    <rc><c>O </c><c>   4</c></rc>
    <rc><c>O </c><c>   4</c></rc>
    <rc><c>O </c><c>   4</c></rc>
    <rc><c>O </c><c>   4</c></rc>
    <rc><c>O </c><c>   4</c></rc>
    <rc><c>O </c><c>   4</c></rc>
    <rc><c>O </c><c>   4</c></rc>
    <rc><c>O </c><c>   4</c></rc>
    <rc><c>O </c><c>   4</c></rc>
    <rc><c>O </c><c>   4</c></rc>
    <rc><c>O </c><c>   4</c></rc>
    <rc><c>O </c><c>   4</c></rc>
    <rc><c>O </c><c>   4</c></rc>
    <rc><c>O </c><c>   4</c></rc>
    <rc><c>O </c><c>   4</c></rc>
    <rc><c>O </c><c>   4</c></rc>
    <rc><c>O </c><c>   4</c></rc>
    <rc><c>O </c><c>   4</c></rc>
    <rc><c>O </c><c>   4</c></rc>
    <rc><c>O </c><c>   4</c></rc>
    <rc><c>O </c><c>   4</c></rc>
    <rc><c>O </c><c>   4</c></rc>
    <rc><c>O </c><c>   4</c></rc>
    <rc><c>O </c><c>   4</c></rc>
    <rc><c>O </c><c>   4</c></rc>
    <rc><c>O </c><c>   4</c></rc>
    <rc><c>O </c><c>   4</c></rc>
    <rc><c>O </c><c>   4</c></rc>
    <rc><c>O </c><c>   4</c></rc>
    <rc><c>O </c><c>   4</c></rc>
    <rc><c>O </c><c>   4</c></rc>
    <rc><c>O </c><c>   4</c></rc>
    <rc><c>O </c><c>   4</c></rc>
    <rc><c>O </c><c>   4</c></rc>
    <rc><c>O </c><c>   4</c></rc>
    <rc><c>O </c><c>   4</c></rc>
    <rc><c>O </c><c>   4</c></rc>
    <rc><c>O </c><c>   4</c></rc>
    <rc><c>O </c><c>   4</c></rc>
    <rc><c>O </c><c>   4</c></rc>
    <rc><c>O </c><c>   4</c></rc>
    <rc><c>O </c><c>   4</c></rc>
    <rc><c>O </c><c>   4</c></rc>
    <rc><c>O </c><c>   4</c></rc>
    <rc><c>O </c><c>   4</c></rc>
    <rc><c>O </c><c>   4</c></rc>
    <rc><c>O </c><c>   4</c></rc>
    <rc><c>O </c><c>   4</c></rc>
    <rc><c>O </c><c>   4</c></rc>
    <rc><c>O </c><c>   4</c></rc>
    <rc><c>O </c><c>   4</c></rc>
    <rc><c>O </c><c>   4</c></rc>
    <rc><c>O </c><c>   4</c></rc>
    <rc><c>O </c><c>   4</c></rc>
    <rc><c>O </c><c>   4</c></rc>
    <rc><c>O </c><c>   4</c></rc>
    <rc><c>O </c><c>   4</c></rc>
    <rc><c>O </c><c>   4</c></rc>
    <rc><c>O </c><c>   4</c></rc>
    <rc><c>O </c><c>   4</c></rc>
    <rc><c>O </c><c>   4</c></rc>
    <rc><c>O </c><c>   4</c></rc>
    <rc><c>O </c><c>   4</c></rc>
    <rc><c>O </c><c>   4</c></rc>
    <rc><c>O </c><c>   4</c></rc>
    <rc><c>O </c><c>   4</c></rc>
    <rc><c>O </c><c>   4</c></rc>
    <rc><c>O </c><c>   4</c></rc>
    <rc><c>O </c><c>   4</c></rc>
    <rc><c>O </c><c>   4</c></rc>
    <rc><c>O </c><c>   4</c></rc>
    <rc><c>O </c><c>   4</c></rc>
    <rc><c>O </c><c>   4</c></rc>
    <rc><c>O </c><c>   4</c></rc>
    <rc><c>O </c><c>   4</c></rc>
    <rc><c>O </c><c>   4</c></rc>
    <rc><c>O </c><c>   4</c></rc>
    <rc><c>O </c><c>   4</c></rc>
    <rc><c>O </c><c>   4</c></rc>
    <rc><c>O </c><c>   4</c></rc>
    <rc><c>O </c><c>   4</c></rc>
    <rc><c>O </c><c>   4</c></rc>
    <rc><c>O </c><c>   4</c></rc>
    <rc><c>O </c><c>   4</c></rc>
    <rc><c>O </c><c>   4</c></rc>
    <rc><c>O </c><c>   4</c></rc>
    <rc><c>O </c><c>   4</c></rc>
   </set>
  </array>
  <array name="atomtypes" >
   <dimension dim="1">type</dimension>
   <field type="int">atomspertype</field>
   <field type="string">element</field>
   <field>mass</field>
   <field>valence</field>
   <field type="string">pseudopotential</field>
   <set>
    <rc><c>  32</c><c>Sr</c><c>     87.62000000</c><c>     10.00000000</c><c>  PAW_PBE Sr_sv 07Sep2000               </c></rc>
    <rc><c>  16</c><c>Ti</c><c>     47.88000000</c><c>      4.00000000</c><c>  PAW_PBE Ti 08Apr2002                  </c></rc>
    <rc><c>  16</c><c>Fe</c><c>     55.84700000</c><c>      8.00000000</c><c>  PAW_PBE Fe 06Sep2000                  </c></rc>
    <rc><c>  88</c><c>O </c><c>     16.00000000</c><c>      6.00000000</c><c>  PAW_PBE O 08Apr2002                   </c></rc>
   </set>
  </array>
 </atominfo>
 <structure name="initialpos" >
  <crystal>
   <varray name="basis" >
    <v>      11.26777099      -0.05824680       0.00219925 </v>
    <v>      -0.05826788      11.26088100      -0.00740629 </v>
    <v>       0.00300658      -0.01047442      15.87485120 </v>
   </varray>
   <i name="volume">   2014.22612007 </i>
   <varray name="rec_basis" >
    <v>       0.08875107       0.00045922      -0.00001651 </v>
    <v>       0.00045905       0.08880541       0.00005851 </v>
    <v>      -0.00001208       0.00004137       0.06299275 </v>
   </varray>
  </crystal>
  <varray name="positions" >
   <v>       0.99135119       0.24322851       0.12538380 </v>
   <v>       0.00259037       0.25430102       0.62478626 </v>
   <v>       0.02473069       0.75024770       0.12758113 </v>
   <v>       0.01150826       0.73687724       0.62761015 </v>
   <v>       0.50477697       0.25124043       0.12281578 </v>
   <v>       0.49164814       0.26712715       0.63089285 </v>
   <v>       0.47372532       0.75354028       0.12722039 </v>
   <v>       0.49510106       0.74169829       0.63106406 </v>
   <v>       0.00627778       0.23890196       0.37533218 </v>
   <v>       0.98845701       0.25764790       0.87014180 </v>
   <v>       0.01431750       0.74613391       0.38263004 </v>
   <v>       0.01842367       0.72563388       0.86553653 </v>
   <v>       0.48904377       0.26897834       0.37760084 </v>
   <v>       0.50724155       0.25426327       0.86807357 </v>
   <v>       0.48293513       0.73738661       0.37541447 </v>
   <v>       0.48709069       0.75245676       0.86280310 </v>
   <v>       0.25909520       0.99882304       0.13145435 </v>
   <v>       0.24597400       0.99538369       0.62313227 </v>
   <v>       0.26357396       0.50351166       0.12472981 </v>
   <v>       0.25752801       0.50092658       0.62759932 </v>
   <v>       0.74471650       0.02807418       0.12160089 </v>
   <v>       0.74928133       0.00574833       0.62917125 </v>
   <v>       0.74580066       0.47524239       0.12286927 </v>
   <v>       0.74706908       0.49790660       0.63739334 </v>
   <v>       0.23580566       0.99727802       0.37957408 </v>
   <v>       0.26069015       0.99443159       0.86740874 </v>
   <v>       0.25932912       0.49886922       0.38162733 </v>
   <v>       0.25274402       0.50245836       0.86481951 </v>
   <v>       0.75930377       0.01703040       0.37335371 </v>
   <v>       0.73074983       0.02237997       0.86667362 </v>
   <v>       0.73883703       0.49394634       0.38285278 </v>
   <v>       0.75099455       0.48467349       0.86567875 </v>
   <v>       0.01336192       0.00935486       0.99847238 </v>
   <v>       0.00708229       0.48938278       0.00129519 </v>
   <v>       0.49507172       0.00775708       0.99546445 </v>
   <v>       0.48719525       0.00739603       0.49700256 </v>
   <v>       0.25271943       0.25056255       0.99941431 </v>
   <v>       0.25082131       0.74829322       0.99786850 </v>
   <v>       0.24880997       0.74928845       0.50119190 </v>
   <v>       0.74246940       0.23975139       0.50234428 </v>
   <v>       0.74802608       0.75116946       0.00890274 </v>
   <v>       0.25591069       0.24736497       0.24895871 </v>
   <v>       0.74865649       0.25466698       0.25186099 </v>
   <v>       0.74588634       0.76840416       0.23553399 </v>
   <v>       0.00254329       0.99690473       0.24957588 </v>
   <v>       0.98405339       0.98200830       0.75777345 </v>
   <v>       0.01246203       0.48952037       0.24689325 </v>
   <v>       0.49807652       0.00152277       0.25447915 </v>
   <v>       0.99590463       0.99697859       0.50316534 </v>
   <v>       0.00810279       0.50418883       0.49889261 </v>
   <v>       0.49286448       0.49477669       0.99945109 </v>
   <v>       0.49821241       0.50609688       0.50239517 </v>
   <v>       0.23904052       0.25164897       0.50285541 </v>
   <v>       0.74521174       0.25209570       0.99595882 </v>
   <v>       0.76690633       0.74014548       0.51232614 </v>
   <v>       0.25921717       0.25923352       0.75064811 </v>
   <v>       0.24992900       0.74917039       0.25248133 </v>
   <v>       0.25255203       0.74957787       0.74691581 </v>
   <v>       0.74946315       0.25235734       0.74718627 </v>
   <v>       0.75290611       0.75059836       0.74479280 </v>
   <v>       0.99947520       0.49395710       0.74518357 </v>
   <v>       0.50042455       0.99819856       0.74478977 </v>
   <v>       0.49825880       0.49801316       0.25043593 </v>
   <v>       0.50588287       0.50655614       0.75256906 </v>
   <v>       0.11424348       0.12987852       0.23730212 </v>
   <v>       0.11078017       0.63148112       0.24928368 </v>
   <v>       0.12585635       0.61954738       0.74239086 </v>
   <v>       0.61566136       0.13741205       0.26017332 </v>
   <v>       0.62123851       0.12830839       0.73886163 </v>
   <v>       0.66992753       0.64488318       0.28593422 </v>
   <v>       0.63131283       0.63279152       0.75344162 </v>
   <v>       0.38501979       0.36603903       0.24661459 </v>
   <v>       0.38015893       0.37665594       0.76020657 </v>
   <v>       0.38782707       0.87014296       0.25328375 </v>
   <v>       0.37974912       0.87246934       0.74949763 </v>
   <v>       0.88200972       0.37064630       0.24103939 </v>
   <v>       0.87410222       0.37495016       0.75628291 </v>
   <v>       0.88809650       0.83448457       0.26999649 </v>
   <v>       0.87237366       0.86778060       0.79233458 </v>
   <v>       0.36833297       0.11219932       0.26546829 </v>
   <v>       0.36160370       0.11789273       0.74639311 </v>
   <v>       0.37570576       0.62261166       0.24901148 </v>
   <v>       0.37633560       0.62358772       0.74961714 </v>
   <v>       0.86427785       0.11222233       0.24810592 </v>
   <v>       0.88190149       0.12175031       0.75200229 </v>
   <v>       0.87597537       0.62613076       0.75466757 </v>
   <v>       0.13447742       0.38069391       0.23474019 </v>
   <v>       0.12015198       0.36147403       0.74908892 </v>
   <v>       0.13185045       0.88530532       0.24664222 </v>
   <v>       0.12697515       0.88508455       0.75094986 </v>
   <v>       0.63597854       0.38533256       0.25049296 </v>
   <v>       0.62502566       0.37844418       0.74845111 </v>
   <v>       0.64121605       0.89042786       0.23238150 </v>
   <v>       0.63439646       0.87649252       0.76030627 </v>
   <v>       0.36008587       0.38637582       0.99511085 </v>
   <v>       0.36541179       0.37978248       0.50271011 </v>
   <v>       0.36291967       0.88828877       0.99954072 </v>
   <v>       0.36587539       0.88526437       0.49353172 </v>
   <v>       0.87269048       0.37841255       0.00070331 </v>
   <v>       0.84300622       0.88276326       0.48002731 </v>
   <v>       0.13232336       0.11615187       0.02456052 </v>
   <v>       0.13428699       0.10723468       0.50225569 </v>
   <v>       0.12827380       0.61825478       0.00699920 </v>
   <v>       0.13382616       0.61422692       0.50205135 </v>
   <v>       0.62735598       0.11697240       0.00210956 </v>
   <v>       0.63588042       0.11290428       0.49887413 </v>
   <v>       0.62149702       0.66432822       0.49196503 </v>
   <v>       0.11701814       0.36585198       0.02143854 </v>
   <v>       0.09598297       0.35793248       0.49364708 </v>
   <v>       0.09800698       0.86017376       0.99394256 </v>
   <v>       0.10880360       0.86010173       0.50142674 </v>
   <v>       0.61977802       0.37545288       0.00459333 </v>
   <v>       0.63926274       0.37993004       0.50006162 </v>
   <v>       0.62583036       0.86000320       0.98925771 </v>
   <v>       0.38307286       0.13682798       0.99457102 </v>
   <v>       0.38606174       0.13353941       0.49322140 </v>
   <v>       0.38346040       0.63962748       0.00286936 </v>
   <v>       0.37604423       0.63297959       0.49964827 </v>
   <v>       0.87434972       0.10940010       0.99579949 </v>
   <v>       0.88499261       0.14113031       0.49969100 </v>
   <v>       0.84715786       0.64895095       0.95505407 </v>
   <v>       0.87355153       0.61625567       0.49101656 </v>
   <v>       0.96908728       0.97204562       0.12140693 </v>
   <v>       0.98481449       0.98439586       0.63240018 </v>
   <v>       0.96897406       0.52871662       0.12649432 </v>
   <v>       0.97866760       0.48692985       0.61881935 </v>
   <v>       0.49586508       0.00684674       0.12742115 </v>
   <v>       0.51822647       0.97385837       0.61318571 </v>
   <v>       0.52118623       0.52754800       0.12395399 </v>
   <v>       0.50572353       0.50537956       0.62445146 </v>
   <v>       0.00215706       0.00394578       0.37058702 </v>
   <v>       0.03283275       0.03088254       0.87302121 </v>
   <v>       0.98347036       0.49988851       0.36681003 </v>
   <v>       0.01705612       0.49311161       0.88150012 </v>
   <v>       0.53400692       0.96798978       0.38011549 </v>
   <v>       0.50048924       0.00659419       0.87500693 </v>
   <v>       0.49998430       0.49907344       0.37571528 </v>
   <v>       0.52131977       0.52390139       0.88305880 </v>
   <v>       0.24089152       0.25495370       0.36989175 </v>
   <v>       0.22746392       0.23770721       0.87902900 </v>
   <v>       0.24433268       0.74898519       0.37563733 </v>
   <v>       0.24834618       0.74588744       0.87540638 </v>
   <v>       0.76909356       0.26352447       0.37852558 </v>
   <v>       0.74197449       0.24741221       0.87406270 </v>
   <v>       0.27409205       0.24085512       0.12617601 </v>
   <v>       0.24069043       0.24187130       0.62835850 </v>
   <v>       0.25017723       0.75770173       0.12418777 </v>
   <v>       0.25161200       0.75541255       0.62316391 </v>
   <v>       0.74793266       0.24573382       0.12673828 </v>
   <v>       0.76587325       0.26280854       0.62044341 </v>
   <v>       0.77132849       0.71648463       0.12291845 </v>
   <v>       0.76875177       0.77002668       0.62796756 </v>
  </varray>
 </structure>
 <calculation>
  <scstep>
   <time name="dav">  601.31  601.35</time>
   <time name="total">  608.56  608.71</time>
   <energy>
    <i name="alphaZ">   5591.34715824 </i>
    <i name="ewald"> -60944.98708835 </i>
    <i name="hartreedc"> -18607.07513587 </i>
    <i name="XCdc">   3183.19474590 </i>
    <i name="pawpsdc"> 115460.40686408 </i>
    <i name="pawaedc">-114661.99868261 </i>
    <i name="eentropy">     -0.00001390 </i>
    <i name="bandstr">  -7122.04391061 </i>
    <i name="atom">  76050.17612637 </i>
    <i name="e_fr_energy">  -1050.97993674 </i>
    <i name="e_wo_entrp">  -1050.97992284 </i>
    <i name="e_0_energy">  -1050.97992979 </i>
   </energy>
  </scstep>
  <scstep>
   <time name="diag">   64.88   64.88</time>
   <time name="diis">   61.67   61.67</time>
   <time name="orth">   33.52   33.52</time>
   <time name="total">  167.31  167.42</time>
   <energy>
    <i name="e_fr_energy">  -1050.97993558 </i>
    <i name="e_wo_entrp">  -1050.97992174 </i>
    <i name="e_0_energy">  -1050.97992866 </i>
   </energy>
  </scstep>
  <scstep>
   <time name="diag">   64.84   64.84</time>
   <time name="diis">   57.96   57.98</time>
   <time name="orth">   33.48   33.48</time>
   <time name="total">  163.54  163.58</time>
   <energy>
    <i name="e_fr_energy">  -1050.97993479 </i>
    <i name="e_wo_entrp">  -1050.97992094 </i>
    <i name="e_0_energy">  -1050.97992787 </i>
   </energy>
  </scstep>
  <scstep>
   <time name="diag">   64.95   64.95</time>
   <time name="diis">   50.94   50.94</time>
   <time name="orth">   33.45   33.45</time>
   <time name="total">  156.59  156.66</time>
   <energy>
    <i name="e_fr_energy">  -1050.97993482 </i>
    <i name="e_wo_entrp">  -1050.97992095 </i>
    <i name="e_0_energy">  -1050.97992788 </i>
   </energy>
  </scstep>
  <scstep>
   <time name="diag">   64.88   64.90</time>
   <time name="diis">   49.78   49.79</time>
   <time name="orth">   33.44   33.44</time>
   <time name="total">  155.37  155.51</time>
   <energy>
    <i name="e_fr_energy">  -1050.97993486 </i>
    <i name="e_wo_entrp">  -1050.97992099 </i>
    <i name="e_0_energy">  -1050.97992792 </i>
   </energy>
  </scstep>
  <scstep>
   <time name="diag">   64.90   64.89</time>
   <time name="diis">   46.03   46.03</time>
   <time name="orth">   33.41   33.41</time>
   <time name="total">  151.60  151.67</time>
   <energy>
    <i name="e_fr_energy">  -1050.97993495 </i>
    <i name="e_wo_entrp">  -1050.97992107 </i>
    <i name="e_0_energy">  -1050.97992801 </i>
   </energy>
  </scstep>
  <scstep>
   <time name="diag">   64.95   64.95</time>
   <time name="diis">   44.90   44.92</time>
   <time name="orth">   33.68   33.68</time>
   <time name="total">  150.79  150.90</time>
   <energy>
    <i name="e_fr_energy">  -1050.97993500 </i>
    <i name="e_wo_entrp">  -1050.97992113 </i>
    <i name="e_0_energy">  -1050.97992806 </i>
   </energy>
  </scstep>
  <scstep>
   <time name="diag">   64.84   64.83</time>
   <time name="diis">   42.87   42.88</time>
   <time name="orth">   33.68   33.68</time>
   <time name="total">  142.44  142.52</time>
   <energy>
    <i name="alphaZ">   5591.34715824 </i>
    <i name="ewald"> -60944.98708835 </i>
    <i name="hartreedc"> -18607.08123527 </i>
    <i name="XCdc">   3183.19420667 </i>
    <i name="pawpsdc"> 115460.10119535 </i>
    <i name="pawaedc">-114661.69722853 </i>
    <i name="eentropy">     -0.00001387 </i>
    <i name="bandstr">  -7122.03305562 </i>
    <i name="atom">  76050.17612637 </i>
    <i name="e_fr_energy">  -1050.97993502 </i>
    <i name="e_wo_entrp">  -1050.97992115 </i>
    <i name="e_0_energy">  -1050.97992809 </i>
   </energy>
  </scstep>
  <structure>
   <crystal>
    <varray name="basis" >
     <v>      11.26777099      -0.05824680       0.00219925 </v>
     <v>      -0.05826788      11.26088100      -0.00740629 </v>
     <v>       0.00300658      -0.01047442      15.87485120 </v>
    </varray>
    <i name="volume">   2014.22612007 </i>
    <varray name="rec_basis" >
     <v>       0.08875107       0.00045922      -0.00001651 </v>
     <v>       0.00045905       0.08880541       0.00005851 </v>
     <v>      -0.00001208       0.00004137       0.06299275 </v>
    </varray>
   </crystal>
   <varray name="positions" >
    <v>       0.99135119       0.24322851       0.12538380 </v>
    <v>       0.00259037       0.25430102       0.62478626 </v>
    <v>       0.02473069       0.75024770       0.12758113 </v>
    <v>       0.01150826       0.73687724       0.62761015 </v>
    <v>       0.50477697       0.25124043       0.12281578 </v>
    <v>       0.49164814       0.26712715       0.63089285 </v>
    <v>       0.47372532       0.75354028       0.12722039 </v>
    <v>       0.49510106       0.74169829       0.63106406 </v>
    <v>       0.00627778       0.23890196       0.37533218 </v>
    <v>       0.98845701       0.25764790       0.87014180 </v>
    <v>       0.01431750       0.74613391       0.38263004 </v>
    <v>       0.01842367       0.72563388       0.86553653 </v>
    <v>       0.48904377       0.26897834       0.37760084 </v>
    <v>       0.50724155       0.25426327       0.86807357 </v>
    <v>       0.48293513       0.73738661       0.37541447 </v>
    <v>       0.48709069       0.75245676       0.86280310 </v>
    <v>       0.25909520       0.99882304       0.13145435 </v>
    <v>       0.24597400       0.99538369       0.62313227 </v>
    <v>       0.26357396       0.50351166       0.12472981 </v>
    <v>       0.25752801       0.50092658       0.62759932 </v>
    <v>       0.74471650       0.02807418       0.12160089 </v>
    <v>       0.74928133       0.00574833       0.62917125 </v>
    <v>       0.74580066       0.47524239       0.12286927 </v>
    <v>       0.74706908       0.49790660       0.63739334 </v>
    <v>       0.23580566       0.99727802       0.37957408 </v>
    <v>       0.26069015       0.99443159       0.86740874 </v>
    <v>       0.25932912       0.49886922       0.38162733 </v>
    <v>       0.25274402       0.50245836       0.86481951 </v>
    <v>       0.75930377       0.01703040       0.37335371 </v>
    <v>       0.73074983       0.02237997       0.86667362 </v>
    <v>       0.73883703       0.49394634       0.38285278 </v>
    <v>       0.75099455       0.48467349       0.86567875 </v>
    <v>       0.01336192       0.00935486       0.99847238 </v>
    <v>       0.00708229       0.48938278       0.00129519 </v>
    <v>       0.49507172       0.00775708       0.99546445 </v>
    <v>       0.48719525       0.00739603       0.49700256 </v>
    <v>       0.25271943       0.25056255       0.99941431 </v>
    <v>       0.25082131       0.74829322       0.99786850 </v>
    <v>       0.24880997       0.74928845       0.50119190 </v>
    <v>       0.74246940       0.23975139       0.50234428 </v>
    <v>       0.74802608       0.75116946       0.00890274 </v>
    <v>       0.25591069       0.24736497       0.24895871 </v>
    <v>       0.74865649       0.25466698       0.25186099 </v>
    <v>       0.74588634       0.76840416       0.23553399 </v>
    <v>       0.00254329       0.99690473       0.24957588 </v>
    <v>       0.98405339       0.98200830       0.75777345 </v>
    <v>       0.01246203       0.48952037       0.24689325 </v>
    <v>       0.49807652       0.00152277       0.25447915 </v>
    <v>       0.99590463       0.99697859       0.50316534 </v>
    <v>       0.00810279       0.50418883       0.49889261 </v>
    <v>       0.49286448       0.49477669       0.99945109 </v>
    <v>       0.49821241       0.50609688       0.50239517 </v>
    <v>       0.23904052       0.25164897       0.50285541 </v>
    <v>       0.74521174       0.25209570       0.99595882 </v>
    <v>       0.76690633       0.74014548       0.51232614 </v>
    <v>       0.25921717       0.25923352       0.75064811 </v>
    <v>       0.24992900       0.74917039       0.25248133 </v>
    <v>       0.25255203       0.74957787       0.74691581 </v>
    <v>       0.74946315       0.25235734       0.74718627 </v>
    <v>       0.75290611       0.75059836       0.74479280 </v>
    <v>       0.99947520       0.49395710       0.74518357 </v>
    <v>       0.50042455       0.99819856       0.74478977 </v>
    <v>       0.49825880       0.49801316       0.25043593 </v>
    <v>       0.50588287       0.50655614       0.75256906 </v>
    <v>       0.11424348       0.12987852       0.23730212 </v>
    <v>       0.11078017       0.63148112       0.24928368 </v>
    <v>       0.12585635       0.61954738       0.74239086 </v>
    <v>       0.61566136       0.13741205       0.26017332 </v>
    <v>       0.62123851       0.12830839       0.73886163 </v>
    <v>       0.66992753       0.64488318       0.28593422 </v>
    <v>       0.63131283       0.63279152       0.75344162 </v>
    <v>       0.38501979       0.36603903       0.24661459 </v>
    <v>       0.38015893       0.37665594       0.76020657 </v>
    <v>       0.38782707       0.87014296       0.25328375 </v>
    <v>       0.37974912       0.87246934       0.74949763 </v>
    <v>       0.88200972       0.37064630       0.24103939 </v>
    <v>       0.87410222       0.37495016       0.75628291 </v>
    <v>       0.88809650       0.83448457       0.26999649 </v>
    <v>       0.87237366       0.86778060       0.79233458 </v>
    <v>       0.36833297       0.11219932       0.26546829 </v>
    <v>       0.36160370       0.11789273       0.74639311 </v>
    <v>       0.37570576       0.62261166       0.24901148 </v>
    <v>       0.37633560       0.62358772       0.74961714 </v>
    <v>       0.86427785       0.11222233       0.24810592 </v>
    <v>       0.88190149       0.12175031       0.75200229 </v>
    <v>       0.87597537       0.62613076       0.75466757 </v>
    <v>       0.13447742       0.38069391       0.23474019 </v>
    <v>       0.12015198       0.36147403       0.74908892 </v>
    <v>       0.13185045       0.88530532       0.24664222 </v>
    <v>       0.12697515       0.88508455       0.75094986 </v>
    <v>       0.63597854       0.38533256       0.25049296 </v>
    <v>       0.62502566       0.37844418       0.74845111 </v>
    <v>       0.64121605       0.89042786       0.23238150 </v>
    <v>       0.63439646       0.87649252       0.76030627 </v>
    <v>       0.36008587       0.38637582       0.99511085 </v>
    <v>       0.36541179       0.37978248       0.50271011 </v>
    <v>       0.36291967       0.88828877       0.99954072 </v>
    <v>       0.36587539       0.88526437       0.49353172 </v>
    <v>       0.87269048       0.37841255       0.00070331 </v>
    <v>       0.84300622       0.88276326       0.48002731 </v>
    <v>       0.13232336       0.11615187       0.02456052 </v>
    <v>       0.13428699       0.10723468       0.50225569 </v>
    <v>       0.12827380       0.61825478       0.00699920 </v>
    <v>       0.13382616       0.61422692       0.50205135 </v>
    <v>       0.62735598       0.11697240       0.00210956 </v>
    <v>       0.63588042       0.11290428       0.49887413 </v>
    <v>       0.62149702       0.66432822       0.49196503 </v>
    <v>       0.11701814       0.36585198       0.02143854 </v>
    <v>       0.09598297       0.35793248       0.49364708 </v>
    <v>       0.09800698       0.86017376       0.99394256 </v>
    <v>       0.10880360       0.86010173       0.50142674 </v>
    <v>       0.61977802       0.37545288       0.00459333 </v>
    <v>       0.63926274       0.37993004       0.50006162 </v>
    <v>       0.62583036       0.86000320       0.98925771 </v>
    <v>       0.38307286       0.13682798       0.99457102 </v>
    <v>       0.38606174       0.13353941       0.49322140 </v>
    <v>       0.38346040       0.63962748       0.00286936 </v>
    <v>       0.37604423       0.63297959       0.49964827 </v>
    <v>       0.87434972       0.10940010       0.99579949 </v>
    <v>       0.88499261       0.14113031       0.49969100 </v>
    <v>       0.84715786       0.64895095       0.95505407 </v>
    <v>       0.87355153       0.61625567       0.49101656 </v>
    <v>       0.96908728       0.97204562       0.12140693 </v>
    <v>       0.98481449       0.98439586       0.63240018 </v>
    <v>       0.96897406       0.52871662       0.12649432 </v>
    <v>       0.97866760       0.48692985       0.61881935 </v>
    <v>       0.49586508       0.00684674       0.12742115 </v>
    <v>       0.51822647       0.97385837       0.61318571 </v>
    <v>       0.52118623       0.52754800       0.12395399 </v>
    <v>       0.50572353       0.50537956       0.62445146 </v>
    <v>       0.00215706       0.00394578       0.37058702 </v>
    <v>       0.03283275       0.03088254       0.87302121 </v>
    <v>       0.98347036       0.49988851       0.36681003 </v>
    <v>       0.01705612       0.49311161       0.88150012 </v>
    <v>       0.53400692       0.96798978       0.38011549 </v>
    <v>       0.50048924       0.00659419       0.87500693 </v>
    <v>       0.49998430       0.49907344       0.37571528 </v>
    <v>       0.52131977       0.52390139       0.88305880 </v>
    <v>       0.24089152       0.25495370       0.36989175 </v>
    <v>       0.22746392       0.23770721       0.87902900 </v>
    <v>       0.24433268       0.74898519       0.37563733 </v>
    <v>       0.24834618       0.74588744       0.87540638 </v>
    <v>       0.76909356       0.26352447       0.37852558 </v>
    <v>       0.74197449       0.24741221       0.87406270 </v>
    <v>       0.27409205       0.24085512       0.12617601 </v>
    <v>       0.24069043       0.24187130       0.62835850 </v>
    <v>       0.25017723       0.75770173       0.12418777 </v>
    <v>       0.25161200       0.75541255       0.62316391 </v>
    <v>       0.74793266       0.24573382       0.12673828 </v>
    <v>       0.76587325       0.26280854       0.62044341 </v>
    <v>       0.77132849       0.71648463       0.12291845 </v>
    <v>       0.76875177       0.77002668       0.62796756 </v>
   </varray>
  </structure>
  <varray name="forces" >
   <v>      -0.00479619       0.00461282      -0.00792383 </v>
   <v>      -0.00539558      -0.00029383       0.00291538 </v>
   <v>      -0.00316090      -0.00879817       0.00187517 </v>
   <v>      -0.00258734       0.01579421       0.00309114 </v>
   <v>       0.02206701      -0.00414464       0.00323523 </v>
   <v>       0.00638058       0.00311060       0.00484957 </v>
   <v>      -0.00444061       0.00256331       0.00524525 </v>
   <v>      -0.00665195      -0.00815099       0.00330415 </v>
   <v>       0.00483065       0.01088987      -0.00301681 </v>
   <v>      -0.01469616      -0.00657904      -0.00109175 </v>
   <v>       0.00214072       0.01238400       0.00191025 </v>
   <v>      -0.00210546      -0.00763656       0.01037762 </v>
   <v>       0.00574026      -0.00343899       0.00374336 </v>
   <v>      -0.00547302       0.00058112      -0.00327484 </v>
   <v>      -0.00590168      -0.00434620      -0.00518078 </v>
   <v>      -0.00443326      -0.00196545       0.00412052 </v>
   <v>       0.00178651       0.00769567       0.00350780 </v>
   <v>      -0.00386481      -0.00563683       0.00536993 </v>
   <v>      -0.01357952       0.01186239      -0.00184874 </v>
   <v>       0.00670344      -0.00712348      -0.01017808 </v>
   <v>       0.00519447       0.00985416      -0.00230361 </v>
   <v>       0.00059347       0.00075920      -0.00031354 </v>
   <v>      -0.00020651      -0.00070923       0.00479397 </v>
   <v>       0.00342289      -0.00884328      -0.00099912 </v>
   <v>       0.00013273      -0.00696985       0.00093522 </v>
   <v>      -0.00392886       0.01266986       0.00918549 </v>
   <v>       0.00468392       0.00223083      -0.00493383 </v>
   <v>      -0.00292128       0.00048145       0.00522441 </v>
   <v>       0.00906166      -0.00909321       0.01078258 </v>
   <v>       0.00909440       0.00994083      -0.00169837 </v>
   <v>      -0.00495405      -0.00824621      -0.00431305 </v>
   <v>      -0.00230498      -0.00216341       0.00758987 </v>
   <v>      -0.01935237      -0.00872513       0.00705726 </v>
   <v>       0.00341902      -0.01464916       0.01948646 </v>
   <v>      -0.02128856      -0.00068356      -0.00292501 </v>
   <v>       0.00772716      -0.00274738      -0.00688387 </v>
   <v>      -0.02000126      -0.00275583       0.01262237 </v>
   <v>      -0.01356490       0.00081008       0.01092958 </v>
   <v>       0.00224792       0.00229247      -0.01906764 </v>
   <v>      -0.01482545       0.00736049      -0.01421436 </v>
   <v>       0.02644438      -0.02366758       0.03752690 </v>
   <v>      -0.00290121       0.01388308      -0.01111630 </v>
   <v>       0.00133733       0.01752808      -0.01407147 </v>
   <v>      -0.01843085      -0.03934657       0.01188251 </v>
   <v>      -0.00489739      -0.01393518      -0.00918755 </v>
   <v>      -0.00196660      -0.00147993       0.01049430 </v>
   <v>       0.00359786      -0.00064313      -0.00899767 </v>
   <v>      -0.00892214      -0.01119717      -0.00804283 </v>
   <v>       0.00755819      -0.01322189      -0.00614736 </v>
   <v>      -0.00950545       0.00532595       0.00454502 </v>
   <v>       0.00468382      -0.00247662      -0.00907567 </v>
   <v>      -0.00400115       0.00715790       0.00143692 </v>
   <v>       0.00467299      -0.00025071      -0.00433427 </v>
   <v>      -0.00207871       0.00152742       0.00858890 </v>
   <v>      -0.00469046       0.00537523       0.00272259 </v>
   <v>      -0.01290134       0.00742939      -0.00250237 </v>
   <v>       0.01322555      -0.00478143      -0.00136438 </v>
   <v>       0.01207243      -0.00241163       0.00642471 </v>
   <v>      -0.01710086       0.00112426       0.00882192 </v>
   <v>      -0.01163003       0.00818580       0.02281649 </v>
   <v>       0.00039484       0.00171541       0.00430649 </v>
   <v>       0.00690816      -0.00755611       0.00371970 </v>
   <v>      -0.00144822       0.01425221       0.00768871 </v>
   <v>      -0.00924136      -0.01357599      -0.00768021 </v>
   <v>       0.01132388      -0.00349833      -0.00490745 </v>
   <v>      -0.00514373       0.00148375       0.00228632 </v>
   <v>       0.00602782       0.00606296       0.00115025 </v>
   <v>      -0.00077245       0.00096404       0.00063468 </v>
   <v>       0.00485058      -0.01144139      -0.00375386 </v>
   <v>       0.00446518       0.00479539       0.01068703 </v>
   <v>      -0.00131516      -0.00179474       0.00234480 </v>
   <v>      -0.01221506      -0.00290224      -0.00985232 </v>
   <v>       0.00407810       0.01201192       0.00304487 </v>
   <v>       0.00734633      -0.00165804       0.00007208 </v>
   <v>      -0.00979397       0.00649434      -0.00983364 </v>
   <v>       0.00913615       0.00555613       0.00683844 </v>
   <v>       0.00088424       0.00219963       0.01299196 </v>
   <v>       0.00988023       0.02991398       0.01701641 </v>
   <v>      -0.00565920       0.00594770      -0.01232791 </v>
   <v>      -0.00683447       0.01122906       0.00800361 </v>
   <v>       0.00836655      -0.00896088      -0.00835395 </v>
   <v>       0.00807308      -0.00793216      -0.01019067 </v>
   <v>       0.00235172      -0.00477872       0.00914088 </v>
   <v>       0.00096737      -0.00365237       0.00213501 </v>
   <v>       0.00585201       0.00669163      -0.00058493 </v>
   <v>       0.00349392       0.00774323       0.00708020 </v>
   <v>       0.00110804       0.00349034      -0.00562192 </v>
   <v>       0.00234943      -0.00302337      -0.01262703 </v>
   <v>       0.00240581       0.00050336      -0.00768914 </v>
   <v>      -0.00505829      -0.00967051      -0.00389275 </v>
   <v>       0.00621160      -0.01149117      -0.00684871 </v>
   <v>      -0.00776618       0.00740807      -0.01184431 </v>
   <v>      -0.01718795       0.01142174       0.00282436 </v>
   <v>      -0.00078099      -0.01110050      -0.00964429 </v>
   <v>       0.01890248       0.01362133      -0.00127266 </v>
   <v>       0.00271810      -0.00086985      -0.00787433 </v>
   <v>      -0.00550233      -0.01514137      -0.00312580 </v>
   <v>      -0.02158719      -0.00495227      -0.00543187 </v>
   <v>      -0.00573258      -0.00302437      -0.01181956 </v>
   <v>       0.00522907       0.00097003       0.01021363 </v>
   <v>      -0.00103868       0.00292944      -0.00760876 </v>
   <v>      -0.00184582       0.00386945       0.00761188 </v>
   <v>       0.01017968       0.00306360       0.00912406 </v>
   <v>      -0.00796284      -0.00212168      -0.00237613 </v>
   <v>       0.00724831      -0.00266698       0.00242736 </v>
   <v>      -0.00725611      -0.00148068       0.00736126 </v>
   <v>       0.00850376       0.00946059       0.00902121 </v>
   <v>       0.01046603       0.00565062      -0.00222659 </v>
   <v>      -0.00218127       0.01398217       0.01065458 </v>
   <v>       0.00226516       0.00079615       0.00372957 </v>
   <v>      -0.00423929       0.01695314       0.00510050 </v>
   <v>       0.00116007      -0.01592253       0.00149099 </v>
   <v>       0.00794642       0.00549525       0.01496016 </v>
   <v>      -0.01916023       0.01172304      -0.00470194 </v>
   <v>       0.00239817      -0.00773097      -0.00768428 </v>
   <v>      -0.00032182      -0.00241803      -0.00615784 </v>
   <v>       0.00097156       0.00165949      -0.00004178 </v>
   <v>       0.00974651       0.00385049       0.00511370 </v>
   <v>       0.00316311      -0.01512143      -0.01055607 </v>
   <v>       0.00374112      -0.00946647      -0.00506057 </v>
   <v>       0.00946784      -0.00181600      -0.00332733 </v>
   <v>      -0.00434960       0.00948822      -0.00725845 </v>
   <v>       0.00365599       0.00833316      -0.00443042 </v>
   <v>      -0.00312256      -0.00190969       0.00351146 </v>
   <v>      -0.00016659       0.00182909       0.00398415 </v>
   <v>      -0.00421927       0.00967161      -0.01386120 </v>
   <v>      -0.00355321       0.00212635      -0.00009480 </v>
   <v>       0.00258295      -0.00369555      -0.00113058 </v>
   <v>       0.00015478       0.00837809      -0.00787883 </v>
   <v>      -0.00488750      -0.00001410       0.00554753 </v>
   <v>       0.00400164       0.01207018       0.00684169 </v>
   <v>      -0.00145614      -0.00861567      -0.01061910 </v>
   <v>       0.00240931      -0.00046361       0.00784450 </v>
   <v>       0.01071672      -0.00334006      -0.02038974 </v>
   <v>       0.01032811      -0.00079801       0.00197452 </v>
   <v>      -0.00180855      -0.01088724      -0.00466628 </v>
   <v>       0.00394334      -0.00178347      -0.00889100 </v>
   <v>       0.00296633      -0.00479729       0.00380702 </v>
   <v>       0.00170665       0.00253230       0.00379175 </v>
   <v>      -0.00244293       0.00358630      -0.01195105 </v>
   <v>       0.00373783       0.00135183      -0.00806638 </v>
   <v>      -0.00166184      -0.00024490       0.00663217 </v>
   <v>      -0.00375670      -0.00035745       0.00879788 </v>
   <v>      -0.00445044      -0.00626470      -0.00724138 </v>
   <v>       0.01062758      -0.00141293      -0.00185167 </v>
   <v>      -0.00266373      -0.00133229      -0.00388385 </v>
   <v>       0.00508337      -0.00160939      -0.00617097 </v>
   <v>      -0.00108609       0.01109840       0.01365952 </v>
   <v>       0.00240270      -0.00213095      -0.00062909 </v>
   <v>       0.00951498      -0.00158213      -0.00068467 </v>
   <v>       0.02449241      -0.00580039      -0.02143612 </v>
   <v>       0.00140469      -0.00788443      -0.00151851 </v>
  </varray>
  <varray name="stress" >
   <v>       0.09998236       0.05150600      -0.04007450 </v>
   <v>       0.05150587       0.01688556       0.03665627 </v>
   <v>      -0.04007439       0.03665610       0.12325419 </v>
  </varray>
  <energy>
   <i name="e_fr_energy">  -1050.97993502 </i>
   <i name="e_wo_entrp">  -1050.97992809 </i>
   <i name="e_0_energy">     -0.00001387 </i>
  </energy>
  <time name="totalsc"> 1960.18 1963.06</time>
 </calculation>
 <calculation>
  <scstep>
   <time name="dav">  568.23  568.31</time>
   <time name="total">  575.44  575.62</time>
   <energy>
    <i name="alphaZ">   5590.81148517 </i>
    <i name="ewald"> -60942.47975446 </i>
    <i name="hartreedc"> -18607.10354667 </i>
    <i name="XCdc">   3183.06660489 </i>
    <i name="pawpsdc"> 115460.09705868 </i>
    <i name="pawaedc">-114661.69305704 </i>
    <i name="eentropy">     -0.00001387 </i>
    <i name="bandstr">  -7123.85459508 </i>
    <i name="atom">  76050.17612637 </i>
    <i name="e_fr_energy">  -1050.97969201 </i>
    <i name="e_wo_entrp">  -1050.97967814 </i>
    <i name="e_0_energy">  -1050.97968507 </i>
   </energy>
  </scstep>
  <scstep>
   <time name="diag">   64.80   64.81</time>
   <time name="diis">  104.29  104.30</time>
   <time name="orth">   33.54   33.54</time>
   <time name="total">  209.89  209.92</time>
   <energy>
    <i name="e_fr_energy">  -1050.98059107 </i>
    <i name="e_wo_entrp">  -1050.98057763 </i>
    <i name="e_0_energy">  -1050.98058435 </i>
   </energy>
  </scstep>
  <scstep>
   <time name="diag">   64.78   64.78</time>
   <time name="diis">   87.56   87.56</time>
   <time name="orth">   33.45   33.45</time>
   <time name="total">  193.04  193.12</time>
   <energy>
    <i name="e_fr_energy">  -1050.98062176 </i>
    <i name="e_wo_entrp">  -1050.98060844 </i>
    <i name="e_0_energy">  -1050.98061510 </i>
   </energy>
  </scstep>
  <scstep>
   <time name="diag">   64.85   64.86</time>
   <time name="diis">   68.66   68.66</time>
   <time name="orth">   33.44   33.44</time>
   <time name="total">  174.22  174.32</time>
   <energy>
    <i name="e_fr_energy">  -1050.98056820 </i>
    <i name="e_wo_entrp">  -1050.98055503 </i>
    <i name="e_0_energy">  -1050.98056161 </i>
   </energy>
  </scstep>
  <scstep>
   <time name="diag">   64.79   64.81</time>
   <time name="diis">   65.45   65.45</time>
   <time name="orth">   33.49   33.49</time>
   <time name="total">  170.98  171.10</time>
   <energy>
    <i name="e_fr_energy">  -1050.98055833 </i>
    <i name="e_wo_entrp">  -1050.98054523 </i>
    <i name="e_0_energy">  -1050.98055178 </i>
   </energy>
  </scstep>
  <scstep>
   <time name="diag">   64.87   64.88</time>
   <time name="diis">   63.54   63.55</time>
   <time name="orth">   33.47   33.47</time>
   <time name="total">  169.14  169.23</time>
   <energy>
    <i name="e_fr_energy">  -1050.98055868 </i>
    <i name="e_wo_entrp">  -1050.98054558 </i>
    <i name="e_0_energy">  -1050.98055213 </i>
   </energy>
  </scstep>
  <scstep>
   <time name="diag">   64.92   64.92</time>
   <time name="diis">   62.60   62.60</time>
   <time name="orth">   33.67   33.67</time>
   <time name="total">  168.45  168.53</time>
   <energy>
    <i name="e_fr_energy">  -1050.98055837 </i>
    <i name="e_wo_entrp">  -1050.98054526 </i>
    <i name="e_0_energy">  -1050.98055182 </i>
   </energy>
  </scstep>
  <scstep>
   <time name="diag">   64.97   64.99</time>
   <time name="diis">   60.87   60.87</time>
   <time name="orth">   33.69   33.70</time>
   <time name="total">  160.60  160.69</time>
   <energy>
    <i name="alphaZ">   5590.81148517 </i>
    <i name="ewald"> -60942.47975446 </i>
    <i name="hartreedc"> -18608.63799584 </i>
    <i name="XCdc">   3183.16025569 </i>
    <i name="pawpsdc"> 115438.09226599 </i>
    <i name="pawaedc">-114639.67251071 </i>
    <i name="eentropy">     -0.00001311 </i>
    <i name="bandstr">  -7122.43041704 </i>
    <i name="atom">  76050.17612637 </i>
    <i name="e_fr_energy">  -1050.98055793 </i>
    <i name="e_wo_entrp">  -1050.98054482 </i>
    <i name="e_0_energy">  -1050.98055138 </i>
   </energy>
  </scstep>
  <structure>
   <crystal>
    <varray name="basis" >
     <v>      11.26821928      -0.05801559       0.00201833 </v>
     <v>      -0.05803866      11.26095557      -0.00724102 </v>
     <v>       0.00275264      -0.01024224      15.87563172 </v>
    </varray>
    <i name="volume">   2014.41910935 </i>
    <varray name="rec_basis" >
     <v>       0.08874752       0.00045739      -0.00001509 </v>
     <v>       0.00045721       0.08880480       0.00005721 </v>
     <v>      -0.00001107       0.00004045       0.06298965 </v>
    </varray>
   </crystal>
   <varray name="positions" >
    <v>       0.99133077       0.24324814       0.12535973 </v>
    <v>       0.00256726       0.25429965       0.62479512 </v>
    <v>       0.02471696       0.75020994       0.12758682 </v>
    <v>       0.01149753       0.73694486       0.62761958 </v>
    <v>       0.50487136       0.25122318       0.12282559 </v>
    <v>       0.49167552       0.26714063       0.63090759 </v>
    <v>       0.47370636       0.75355118       0.12723633 </v>
    <v>       0.49507240       0.74166323       0.63107409 </v>
    <v>       0.00629871       0.23894871       0.37532303 </v>
    <v>       0.98839395       0.25761938       0.87013848 </v>
    <v>       0.01432694       0.74618702       0.38263586 </v>
    <v>       0.01841447       0.72560115       0.86556805 </v>
    <v>       0.48906826       0.26896374       0.37761221 </v>
    <v>       0.50721813       0.25426563       0.86806362 </v>
    <v>       0.48290977       0.73736784       0.37539872 </v>
    <v>       0.48707166       0.75244825       0.86281562 </v>
    <v>       0.25910301       0.99885606       0.13146502 </v>
    <v>       0.24595732       0.99535947       0.62314858 </v>
    <v>       0.26351608       0.50356217       0.12472422 </v>
    <v>       0.25755656       0.50089618       0.62756837 </v>
    <v>       0.74473896       0.02811650       0.12159390 </v>
    <v>       0.74928389       0.00575160       0.62917030 </v>
    <v>       0.74579976       0.47523936       0.12288383 </v>
    <v>       0.74708354       0.49786878       0.63739028 </v>
    <v>       0.23580607       0.99724816       0.37957691 </v>
    <v>       0.26067360       0.99448581       0.86743668 </v>
    <v>       0.25934923       0.49887887       0.38161234 </v>
    <v>       0.25273151       0.50246037       0.86483539 </v>
    <v>       0.75934236       0.01699168       0.37338645 </v>
    <v>       0.73078899       0.02242276       0.86666847 </v>
    <v>       0.73881564       0.49391089       0.38283966 </v>
    <v>       0.75098463       0.48466419       0.86570182 </v>
    <v>       0.01327886       0.00931707       0.99849382 </v>
    <v>       0.00709659       0.48932015       0.00135438 </v>
    <v>       0.49498056       0.00775367       0.99545557 </v>
    <v>       0.48722828       0.00738441       0.49698163 </v>
    <v>       0.25263372       0.25055034       0.99945268 </v>
    <v>       0.25076324       0.74829642       0.99790172 </v>
    <v>       0.24881966       0.74929827       0.50113396 </v>
    <v>       0.74240610       0.23978256       0.50230111 </v>
    <v>       0.74813875       0.75106876       0.00901672 </v>
    <v>       0.25589859       0.24742435       0.24892496 </v>
    <v>       0.74866262       0.25474206       0.25181826 </v>
    <v>       0.74580654       0.76823522       0.23557003 </v>
    <v>       0.00252202       0.99684490       0.24954793 </v>
    <v>       0.98404493       0.98200195       0.75780533 </v>
    <v>       0.01247743       0.48951766       0.24686590 </v>
    <v>       0.49803808       0.00147458       0.25445469 </v>
    <v>       0.99593670       0.99692210       0.50314663 </v>
    <v>       0.00806220       0.50421145       0.49890644 </v>
    <v>       0.49288449       0.49476616       0.99942350 </v>
    <v>       0.49819544       0.50612746       0.50239956 </v>
    <v>       0.23906052       0.25164799       0.50284224 </v>
    <v>       0.74520287       0.25210222       0.99598492 </v>
    <v>       0.76688636       0.74016841       0.51233442 </v>
    <v>       0.25916210       0.25926506       0.75064053 </v>
    <v>       0.24998552       0.74915020       0.25247717 </v>
    <v>       0.25260366       0.74956782       0.74693533 </v>
    <v>       0.74938995       0.25236180       0.74721309 </v>
    <v>       0.75285648       0.75063323       0.74486216 </v>
    <v>       0.99947693       0.49396447       0.74519666 </v>
    <v>       0.50045395       0.99816635       0.74480106 </v>
    <v>       0.49825291       0.49807421       0.25045932 </v>
    <v>       0.50584301       0.50649775       0.75254570 </v>
    <v>       0.11429189       0.12986377       0.23728719 </v>
    <v>       0.11075818       0.63148736       0.24929063 </v>
    <v>       0.12588229       0.61957349       0.74239436 </v>
    <v>       0.61565807       0.13741617       0.26017525 </v>
    <v>       0.62125902       0.12825947       0.73885019 </v>
    <v>       0.66994675       0.64490385       0.28596670 </v>
    <v>       0.63130715       0.63278381       0.75344875 </v>
    <v>       0.38496743       0.36602630       0.24658466 </v>
    <v>       0.38017665       0.37670750       0.76021584 </v>
    <v>       0.38785848       0.87013602       0.25328397 </v>
    <v>       0.37970734       0.87249692       0.74946777 </v>
    <v>       0.88204896       0.37067032       0.24106018 </v>
    <v>       0.87410604       0.37495964       0.75632240 </v>
    <v>       0.88813945       0.83461300       0.27004826 </v>
    <v>       0.87234957       0.86780592       0.79229713 </v>
    <v>       0.36830395       0.11224730       0.26549264 </v>
    <v>       0.36163933       0.11785450       0.74636770 </v>
    <v>       0.37574016       0.62257783       0.24898049 </v>
    <v>       0.37634556       0.62356733       0.74964490 </v>
    <v>       0.86428190       0.11220671       0.24811240 </v>
    <v>       0.88192669       0.12177911       0.75200052 </v>
    <v>       0.87599049       0.62616403       0.75468910 </v>
    <v>       0.13448224       0.38070887       0.23472312 </v>
    <v>       0.12016198       0.36146109       0.74905054 </v>
    <v>       0.13186076       0.88530750       0.24661886 </v>
    <v>       0.12695328       0.88504299       0.75093802 </v>
    <v>       0.63600489       0.38528345       0.25047212 </v>
    <v>       0.62499258       0.37847572       0.74841514 </v>
    <v>       0.64114270       0.89047642       0.23239012 </v>
    <v>       0.63439288       0.87644492       0.76027694 </v>
    <v>       0.36016711       0.38643459       0.99510700 </v>
    <v>       0.36542342       0.37977879       0.50268617 </v>
    <v>       0.36289578       0.88822377       0.99953120 </v>
    <v>       0.36578286       0.88524266       0.49351522 </v>
    <v>       0.87266588       0.37839944       0.00066739 </v>
    <v>       0.84302863       0.88276756       0.48005835 </v>
    <v>       0.13231899       0.11616438       0.02453740 </v>
    <v>       0.13427917       0.10725124       0.50227883 </v>
    <v>       0.12831745       0.61826815       0.00702693 </v>
    <v>       0.13379202       0.61421765       0.50204413 </v>
    <v>       0.62738695       0.11696115       0.00211692 </v>
    <v>       0.63584932       0.11289779       0.49889650 </v>
    <v>       0.62153363       0.66436896       0.49199246 </v>
    <v>       0.11706308       0.36587641       0.02143178 </v>
    <v>       0.09597393       0.35799237       0.49367948 </v>
    <v>       0.09801669       0.86017723       0.99395390 </v>
    <v>       0.10878582       0.86017428       0.50144228 </v>
    <v>       0.61978263       0.37538469       0.00459783 </v>
    <v>       0.63929687       0.37995381       0.50010709 </v>
    <v>       0.62574858       0.86005299       0.98924346 </v>
    <v>       0.38308296       0.13679489       0.99454765 </v>
    <v>       0.38606031       0.13352902       0.49320268 </v>
    <v>       0.38346460       0.63963461       0.00286924 </v>
    <v>       0.37608604       0.63299631       0.49966382 </v>
    <v>       0.87436294       0.10933535       0.99576738 </v>
    <v>       0.88500842       0.14108983       0.49967560 </v>
    <v>       0.84719836       0.64894337       0.95504395 </v>
    <v>       0.87353312       0.61629620       0.49099452 </v>
    <v>       0.96910313       0.97208139       0.12139348 </v>
    <v>       0.98480108       0.98438762       0.63241085 </v>
    <v>       0.96897339       0.52872446       0.12650643 </v>
    <v>       0.97864976       0.48697115       0.61877725 </v>
    <v>       0.49584991       0.00685577       0.12742087 </v>
    <v>       0.51823745       0.97384259       0.61318227 </v>
    <v>       0.52118708       0.52758387       0.12393006 </v>
    <v>       0.50570260       0.50537940       0.62446832 </v>
    <v>       0.00217446       0.00399760       0.37060783 </v>
    <v>       0.03282633       0.03084557       0.87298892 </v>
    <v>       0.98348066       0.49988660       0.36683386 </v>
    <v>       0.01710194       0.49309748       0.88143815 </v>
    <v>       0.53405112       0.96798659       0.38012149 </v>
    <v>       0.50048126       0.00654750       0.87499273 </v>
    <v>       0.50000115       0.49906586       0.37568826 </v>
    <v>       0.52133236       0.52388092       0.88307035 </v>
    <v>       0.24089888       0.25496460       0.36990328 </v>
    <v>       0.22745355       0.23772248       0.87899269 </v>
    <v>       0.24434872       0.74899104       0.37561282 </v>
    <v>       0.24833905       0.74588637       0.87542653 </v>
    <v>       0.76907746       0.26352288       0.37855232 </v>
    <v>       0.74195530       0.24738525       0.87404069 </v>
    <v>       0.27413753       0.24084930       0.12617038 </v>
    <v>       0.24067900       0.24186552       0.62834670 </v>
    <v>       0.25019896       0.75769493       0.12416901 </v>
    <v>       0.25160758       0.75546011       0.62320545 </v>
    <v>       0.74794291       0.24572474       0.12673636 </v>
    <v>       0.76591396       0.26280197       0.62044132 </v>
    <v>       0.77143325       0.71646026       0.12285328 </v>
    <v>       0.76875761       0.76999293       0.62796293 </v>
   </varray>
  </structure>
  <varray name="forces" >
   <v>      -0.00313506      -0.00303954      -0.00192477 </v>
   <v>      -0.00758309      -0.00304663       0.00017972 </v>
   <v>       0.00187170      -0.00277386       0.00325782 </v>
   <v>      -0.00085040       0.01636443       0.00548611 </v>
   <v>       0.01536536      -0.00401964       0.00048048 </v>
   <v>       0.00286735      -0.00196576       0.00510278 </v>
   <v>      -0.00531999       0.00294539      -0.00775625 </v>
   <v>      -0.00292612      -0.00172313       0.00479618 </v>
   <v>       0.00440502       0.00515906       0.00224648 </v>
   <v>      -0.01329930      -0.00485206      -0.00847341 </v>
   <v>       0.00064259       0.00782635       0.00469700 </v>
   <v>       0.00116032      -0.00533710      -0.00025034 </v>
   <v>       0.00038422      -0.00867206       0.00106470 </v>
   <v>      -0.00786280      -0.00068750      -0.00274729 </v>
   <v>      -0.00467062       0.00113374       0.00470994 </v>
   <v>      -0.00423692      -0.00219245       0.00760966 </v>
   <v>      -0.00027093       0.00916699       0.00377652 </v>
   <v>      -0.00430251      -0.00555043       0.00540783 </v>
   <v>      -0.00318496       0.01009521      -0.00759023 </v>
   <v>       0.00121674      -0.00443293      -0.00801118 </v>
   <v>      -0.00310603      -0.00063001       0.00165599 </v>
   <v>       0.00539148       0.00147250      -0.00136510 </v>
   <v>      -0.00485228      -0.00377573      -0.00280465 </v>
   <v>       0.00298373      -0.00145036       0.00198917 </v>
   <v>      -0.00272787       0.00109101       0.00262049 </v>
   <v>      -0.00501229       0.00942931       0.00125260 </v>
   <v>      -0.00179820      -0.00287192       0.00045027 </v>
   <v>      -0.00164231       0.00246402       0.00330860 </v>
   <v>       0.01134322      -0.00467569       0.00758618 </v>
   <v>       0.00414041       0.00468388      -0.00055165 </v>
   <v>       0.00174541      -0.00969669       0.00865683 </v>
   <v>      -0.00332501       0.00038279       0.00207208 </v>
   <v>       0.01628625      -0.00073442      -0.00017607 </v>
   <v>       0.00656694      -0.00106081      -0.03122193 </v>
   <v>       0.01184409      -0.00026924      -0.00809108 </v>
   <v>      -0.00348253      -0.00347081       0.00301803 </v>
   <v>       0.01875170       0.00220190      -0.00615379 </v>
   <v>       0.00712257      -0.00386651      -0.00794629 </v>
   <v>      -0.01100373      -0.00213987       0.02552660 </v>
   <v>       0.00594658      -0.00453141       0.01895063 </v>
   <v>      -0.03489412       0.03280617      -0.03478626 </v>
   <v>       0.00061540      -0.00626676       0.00537430 </v>
   <v>      -0.00833432      -0.02036388       0.01095662 </v>
   <v>       0.03468893       0.07844443      -0.01565614 </v>
   <v>      -0.00458124       0.00208132       0.00944656 </v>
   <v>       0.00274806      -0.00004737      -0.00850978 </v>
   <v>       0.00179044       0.00393054       0.02059151 </v>
   <v>      -0.00380193       0.01358450      -0.00349661 </v>
   <v>      -0.00109746       0.00209410       0.00040736 </v>
   <v>      -0.00763153       0.00513803       0.00290382 </v>
   <v>       0.00131727       0.00399910      -0.00667112 </v>
   <v>      -0.00230907       0.00358450       0.00969867 </v>
   <v>      -0.00509737      -0.00467069      -0.00164839 </v>
   <v>      -0.01429956      -0.00346557      -0.00747774 </v>
   <v>       0.00406864       0.00797207       0.00779593 </v>
   <v>      -0.00121145       0.00321813      -0.00708803 </v>
   <v>       0.00290130      -0.00009832      -0.00613700 </v>
   <v>       0.00251270      -0.00122802       0.00402207 </v>
   <v>      -0.00624792       0.00174546      -0.00284502 </v>
   <v>      -0.00495155      -0.00401394      -0.00284225 </v>
   <v>       0.00094687       0.00685096      -0.00033071 </v>
   <v>      -0.00159267      -0.00675506       0.00153826 </v>
   <v>      -0.00969418      -0.00555267      -0.00433301 </v>
   <v>      -0.00612399      -0.00253045      -0.00237482 </v>
   <v>       0.00382851      -0.00396264      -0.00796860 </v>
   <v>      -0.00066454       0.00253640      -0.00051205 </v>
   <v>       0.00132253       0.00026953       0.00110161 </v>
   <v>       0.00227615       0.00488045      -0.00263190 </v>
   <v>       0.00414469      -0.00792653      -0.00330216 </v>
   <v>      -0.01404317      -0.02689161       0.02158371 </v>
   <v>      -0.00198722      -0.00358035       0.00182872 </v>
   <v>       0.00308457       0.01129023      -0.00819937 </v>
   <v>      -0.00452677       0.00149153       0.00058616 </v>
   <v>      -0.00222506      -0.01167372       0.00077991 </v>
   <v>      -0.00403807       0.00506769      -0.00367800 </v>
   <v>       0.00342578       0.00462738      -0.00103821 </v>
   <v>      -0.00315342       0.00319807       0.01004104 </v>
   <v>      -0.04220123      -0.00230208      -0.00679703 </v>
   <v>      -0.00999433       0.00155730      -0.00604065 </v>
   <v>       0.00521728      -0.00122562       0.00536119 </v>
   <v>       0.00422438       0.00284942      -0.00424735 </v>
   <v>       0.00309773       0.00153728      -0.00431114 </v>
   <v>       0.00381342      -0.00401400       0.00744856 </v>
   <v>       0.00159376       0.00248261      -0.00268887 </v>
   <v>       0.00456189       0.00695703       0.00238644 </v>
   <v>       0.00240956       0.00648461       0.00664701 </v>
   <v>      -0.00083453       0.00520593      -0.00950440 </v>
   <v>      -0.00243091       0.00004873      -0.01119514 </v>
[...]
       <r>   -17.0633     0.0000    32.0000 </r>
       <r>   -16.9099     0.0000    32.0000 </r>
       <r>   -16.7564     0.0000    32.0000 </r>
       <r>   -16.6029     0.0000    32.0000 </r>
       <r>   -16.4495     0.0000    32.0000 </r>
       <r>   -16.2960     0.0000    32.0000 </r>
       <r>   -16.1425     0.0000    32.0000 </r>
       <r>   -15.9891     0.0000    32.0000 </r>
       <r>   -15.8356     0.1688    32.0259 </r>
       <r>   -15.6821     6.2933    32.9917 </r>
       <r>   -15.5287     0.0540    33.0000 </r>
       <r>   -15.3752     0.0045    33.0007 </r>
       <r>   -15.2217     6.9062    34.0606 </r>
       <r>   -15.0683    24.4207    37.8083 </r>
       <r>   -14.9148    33.7928    42.9944 </r>
       <r>   -14.7613    44.2248    49.7815 </r>
       <r>   -14.6079    48.7332    57.2604 </r>
       <r>   -14.4544    43.0808    63.8719 </r>
       <r>   -14.3009    42.7076    70.4262 </r>
       <r>   -14.1475    60.1502    79.6573 </r>
       <r>   -13.9940    76.8320    91.4485 </r>
       <r>   -13.8405    68.4929   101.9599 </r>
       <r>   -13.6871    48.5782   109.4151 </r>
       <r>   -13.5336    33.1956   114.5095 </r>
       <r>   -13.3801    23.7966   118.1615 </r>
       <r>   -13.2267    11.9355   119.9932 </r>
       <r>   -13.0732     0.0442   120.0000 </r>
       <r>   -12.9197     0.0002   120.0000 </r>
       <r>   -12.7663     7.4049   121.1364 </r>
       <r>   -12.6128    70.0843   131.8921 </r>
       <r>   -12.4593   118.5960   150.0927 </r>
       <r>   -12.3059   111.7625   167.2446 </r>
       <r>   -12.1524   100.9876   182.7429 </r>
       <r>   -11.9989    93.8391   197.1442 </r>
       <r>   -11.8455    76.2557   208.8469 </r>
       <r>   -11.6920    38.9560   214.8254 </r>
       <r>   -11.5385     7.6512   215.9996 </r>
       <r>   -11.3850     0.0026   216.0000 </r>
       <r>   -11.2316     0.0000   216.0000 </r>
       <r>   -11.0781     0.0000   216.0000 </r>
       <r>   -10.9246     0.0000   216.0000 </r>
       <r>   -10.7712     0.0000   216.0000 </r>
       <r>   -10.6177     0.0000   216.0000 </r>
       <r>   -10.4642     0.0000   216.0000 </r>
       <r>   -10.3108     0.0000   216.0000 </r>
       <r>   -10.1573     0.0000   216.0000 </r>
       <r>   -10.0038     0.0000   216.0000 </r>
       <r>    -9.8504     0.0000   216.0000 </r>
       <r>    -9.6969     0.0000   216.0000 </r>
       <r>    -9.5434     0.0000   216.0000 </r>
       <r>    -9.3900     0.0000   216.0000 </r>
       <r>    -9.2365     0.0000   216.0000 </r>
       <r>    -9.0830     0.0000   216.0000 </r>
       <r>    -8.9296     0.0000   216.0000 </r>
       <r>    -8.7761     0.0000   216.0000 </r>
       <r>    -8.6226     0.0000   216.0000 </r>
       <r>    -8.4692     0.0000   216.0000 </r>
       <r>    -8.3157     0.0000   216.0000 </r>
       <r>    -8.1622     0.0000   216.0000 </r>
       <r>    -8.0088     0.0000   216.0000 </r>
       <r>    -7.8553     0.0000   216.0000 </r>
       <r>    -7.7018     0.0000   216.0000 </r>
       <r>    -7.5484     0.0000   216.0000 </r>
       <r>    -7.3949     0.0000   216.0000 </r>
       <r>    -7.2414     0.0000   216.0000 </r>
       <r>    -7.0880     0.0000   216.0000 </r>
       <r>    -6.9345     0.0000   216.0000 </r>
       <r>    -6.7810     0.0000   216.0000 </r>
       <r>    -6.6276     0.0000   216.0000 </r>
       <r>    -6.4741     0.0000   216.0000 </r>
       <r>    -6.3206     0.0000   216.0000 </r>
       <r>    -6.1672     0.0000   216.0000 </r>
       <r>    -6.0137     0.0000   216.0000 </r>
       <r>    -5.8602     0.0000   216.0000 </r>
       <r>    -5.7068     0.0000   216.0000 </r>
       <r>    -5.5533     0.0000   216.0000 </r>
       <r>    -5.3998     0.0000   216.0000 </r>
       <r>    -5.2464     0.0000   216.0000 </r>
       <r>    -5.0929     0.0000   216.0000 </r>
       <r>    -4.9394     0.0000   216.0000 </r>
       <r>    -4.7860     0.0000   216.0000 </r>
       <r>    -4.6325     0.0000   216.0000 </r>
       <r>    -4.4790     0.0807   216.0124 </r>
       <r>    -4.3255     7.0828   217.0994 </r>
       <r>    -4.1721     5.8790   218.0016 </r>
       <r>    -4.0186     7.3691   219.1325 </r>
       <r>    -3.8651    12.1187   220.9923 </r>
       <r>    -3.7117     0.0500   221.0000 </r>
       <r>    -3.5582     0.0000   221.0000 </r>
       <r>    -3.4047     0.0000   221.0000 </r>
       <r>    -3.2513     0.0000   221.0000 </r>
       <r>    -3.0978     0.0000   221.0000 </r>
       <r>    -2.9443     0.0000   221.0000 </r>
       <r>    -2.7909     0.0000   221.0000 </r>
       <r>    -2.6374     0.1326   221.0204 </r>
       <r>    -2.4839     6.3456   221.9942 </r>
       <r>    -2.3305    13.6686   224.0919 </r>
       <r>    -2.1770    21.0732   227.3259 </r>
       <r>    -2.0235    25.9399   231.3069 </r>
       <r>    -1.8701    34.3090   236.5722 </r>
       <r>    -1.7166    36.2138   242.1298 </r>
       <r>    -1.5631    40.3944   248.3290 </r>
       <r>    -1.4097    49.1389   255.8702 </r>
       <r>    -1.2562    49.8794   263.5251 </r>
       <r>    -1.1027    58.7134   272.5357 </r>
       <r>    -0.9493    69.1178   283.1430 </r>
       <r>    -0.7958    78.3503   295.1672 </r>
       <r>    -0.6423    89.3621   308.8814 </r>
       <r>    -0.4889   105.4576   325.0657 </r>
       <r>    -0.3354    84.5977   338.0487 </r>
       <r>    -0.1819    61.6580   347.5112 </r>
       <r>    -0.0285    49.3580   355.0860 </r>
       <r>     0.1250    53.4047   363.2819 </r>
       <r>     0.2785    55.7107   371.8317 </r>
       <r>     0.4319    55.5253   380.3530 </r>
       <r>     0.5854    52.2563   388.3727 </r>
       <r>     0.7389    54.7056   396.7682 </r>
       <r>     0.8923    52.0594   404.7576 </r>
       <r>     1.0458    59.2822   413.8555 </r>
       <r>     1.1993    63.4792   423.5975 </r>
       <r>     1.3527    64.9860   433.5707 </r>
       <r>     1.5062    67.3824   443.9117 </r>
       <r>     1.6597    68.4686   454.4194 </r>
       <r>     1.8131    68.6365   464.9529 </r>
       <r>     1.9666    55.5243   473.4741 </r>
       <r>     2.1201    29.5991   478.0166 </r>
       <r>     2.2736    24.9912   481.8519 </r>
       <r>     2.4270    18.2876   484.6585 </r>
       <r>     2.5805     2.2255   485.0000 </r>
       <r>     2.7340     0.0000   485.0000 </r>
       <r>     2.8874     0.0000   485.0000 </r>
       <r>     3.0409     0.0000   485.0000 </r>
       <r>     3.1944     0.0000   485.0000 </r>
       <r>     3.3478     0.0000   485.0000 </r>
       <r>     3.5013     0.0000   485.0000 </r>
       <r>     3.6548     0.0000   485.0000 </r>
       <r>     3.8082     0.0000   485.0000 </r>
       <r>     3.9617     0.0001   485.0000 </r>
       <r>     4.1152     3.1215   485.4791 </r>
       <r>     4.2686     3.3943   486.0000 </r>
       <r>     4.4221     2.0819   486.3195 </r>
       <r>     4.5756    36.8343   491.9723 </r>
       <r>     4.7290    43.5952   498.6628 </r>
       <r>     4.8825    50.1992   506.3667 </r>
       <r>     5.0360    64.0586   516.1976 </r>
       <r>     5.1894    67.5831   526.5694 </r>
       <r>     5.3429    74.7855   538.0466 </r>
       <r>     5.4964    89.1334   551.7257 </r>
       <r>     5.6498    87.2572   565.1168 </r>
       <r>     5.8033    72.0289   576.1709 </r>
       <r>     5.9568    57.0041   584.9192 </r>
       <r>     6.1102    59.1585   593.9981 </r>
       <r>     6.2637    60.6820   603.3108 </r>
       <r>     6.4172    38.9572   609.2895 </r>
       <r>     6.5706    20.4921   612.4343 </r>
       <r>     6.7241    20.9216   615.6451 </r>
       <r>     6.8776    15.5992   618.0391 </r>
       <r>     7.0310    15.6084   620.4345 </r>
       <r>     7.1845    15.1658   622.7619 </r>
       <r>     7.3380    14.5692   624.9978 </r>
       <r>     7.4914    17.7461   627.7213 </r>
       <r>     7.6449    14.1733   629.8964 </r>
       <r>     7.7984    13.8540   632.0225 </r>
       <r>     7.9518    18.8457   634.9147 </r>
       <r>     8.1053    19.7138   637.9402 </r>
       <r>     8.2588    22.1665   641.3420 </r>
       <r>     8.4122    26.5324   645.4139 </r>
       <r>     8.5657    24.0261   649.1011 </r>
       <r>     8.7192    27.2740   653.2868 </r>
       <r>     8.8727    31.4893   658.1193 </r>
       <r>     9.0261    33.1965   663.2139 </r>
       <r>     9.1796    37.0065   668.8932 </r>
       <r>     9.3331    39.8238   675.0049 </r>
       <r>     9.4865    42.1809   681.4783 </r>
       <r>     9.6400    50.1978   689.1820 </r>
       <r>     9.7935    53.1516   697.3390 </r>
       <r>     9.9469    55.7854   705.9002 </r>
       <r>    10.1004    55.9939   714.4935 </r>
       <r>    10.2539    51.1862   722.3489 </r>
       <r>    10.4073    49.9941   730.0214 </r>
       <r>    10.5608    56.0580   738.6244 </r>
       <r>    10.7143    57.5247   747.4526 </r>
       <r>    10.8677    53.4783   755.6598 </r>
       <r>    11.0212    57.7546   764.5232 </r>
       <r>    11.1747    22.6413   767.9979 </r>
       <r>    11.3281     0.0134   768.0000 </r>
       <r>    11.4816     0.0000   768.0000 </r>
       <r>    11.6351     0.0000   768.0000 </r>
       <r>    11.7885     0.0000   768.0000 </r>
       <r>    11.9420     0.0000   768.0000 </r>
       <r>    12.0955     0.0000   768.0000 </r>
       <r>    12.2489     0.0000   768.0000 </r>
       <r>    12.4024     0.0000   768.0000 </r>
       <r>    12.5559     0.0000   768.0000 </r>
       <r>    12.7093     0.0000   768.0000 </r>
       <r>    12.8628     0.0000   768.0000 </r>
       <r>    13.0163     0.0000   768.0000 </r>
       <r>    13.1697     0.0000   768.0000 </r>
      </set>
     </set>
    </array>
   </total>
  </dos>
 </calculation>
 <structure name="finalpos" >
  <crystal>
   <varray name="basis" >
    <v>      11.26807515      -0.05751536       0.00181816 </v>
    <v>      -0.05754060      11.26042574      -0.00728118 </v>
    <v>       0.00246987      -0.01029983      15.87545585 </v>
   </varray>
   <i name="volume">   2014.27716683 </i>
   <varray name="rec_basis" >
    <v>       0.08874862       0.00045350      -0.00001351 </v>
    <v>       0.00045330       0.08880894       0.00005755 </v>
    <v>      -0.00000996       0.00004068       0.06299035 </v>
   </varray>
  </crystal>
  <varray name="positions" >
   <v>       0.99127756       0.24325742       0.12532176 </v>
   <v>       0.00248112       0.25427620       0.62480508 </v>
   <v>       0.02470755       0.75012473       0.12760862 </v>
   <v>       0.01147911       0.73715713       0.62766408 </v>
   <v>       0.50509880       0.25117859       0.12285276 </v>
   <v>       0.49172638       0.26713675       0.63094720 </v>
   <v>       0.47364956       0.75357413       0.12722112 </v>
   <v>       0.49501419       0.74160574       0.63110783 </v>
   <v>       0.00635143       0.23904887       0.37531959 </v>
   <v>       0.98821226       0.25754263       0.87008803 </v>
   <v>       0.01434650       0.74629818       0.38266242 </v>
   <v>       0.01841170       0.72552218       0.86560526 </v>
   <v>       0.48909767       0.26890100       0.37763683 </v>
   <v>       0.50712447       0.25425933       0.86803881 </v>
   <v>       0.48286601       0.73734681       0.37539907 </v>
   <v>       0.48701467       0.75241576       0.86286824 </v>
   <v>       0.25909485       0.99896546       0.13149491 </v>
   <v>       0.24590662       0.99529037       0.62319658 </v>
   <v>       0.26341683       0.50370762       0.12468169 </v>
   <v>       0.25759173       0.50081956       0.62747970 </v>
   <v>       0.74474949       0.02816389       0.12159704 </v>
   <v>       0.74932689       0.00576480       0.62916123 </v>
   <v>       0.74577555       0.47522636       0.12289561 </v>
   <v>       0.74712267       0.49781406       0.63739257 </v>
   <v>       0.23579051       0.99721594       0.37959312 </v>
   <v>       0.26060825       0.99463191       0.86748938 </v>
   <v>       0.25936341       0.49887313       0.38159392 </v>
   <v>       0.25270456       0.50247593       0.86487499 </v>
   <v>       0.75947070       0.01691297       0.37346796 </v>
   <v>       0.73087428       0.02250828       0.86665706 </v>
   <v>       0.73879607       0.49381674       0.38285716 </v>
   <v>       0.75094887       0.48465576       0.86574671 </v>
   <v>       0.01329438       0.00926130       0.99851688 </v>
   <v>       0.00714194       0.48923888       0.00129655 </v>
   <v>       0.49494383       0.00775817       0.99542070 </v>
   <v>       0.48723510       0.00731801       0.49696354 </v>
   <v>       0.25266466       0.25057103       0.99946446 </v>
   <v>       0.25073199       0.74826796       0.99791477 </v>
   <v>       0.24877268       0.74929646       0.50117783 </v>
   <v>       0.74237029       0.23978368       0.50231343 </v>
   <v>       0.74811203       0.75109015       0.00904016 </v>
   <v>       0.25589310       0.24746701       0.24890073 </v>
   <v>       0.74862580       0.25470904       0.25182863 </v>
   <v>       0.74584695       0.76833949       0.23559699 </v>
   <v>       0.00247407       0.99680901       0.24955331 </v>
   <v>       0.98404784       0.98199218       0.75780694 </v>
   <v>       0.01247790       0.48953570       0.24691681 </v>
   <v>       0.49798916       0.00151123       0.25442116 </v>
   <v>       0.99596357       0.99687994       0.50312936 </v>
   <v>       0.00796021       0.50429220       0.49893138 </v>
   <v>       0.49291896       0.49477704       0.99937579 </v>
   <v>       0.49816781       0.50618908       0.50243197 </v>
   <v>       0.23905489       0.25161748       0.50281525 </v>
   <v>       0.74510146       0.25208545       0.99599018 </v>
   <v>       0.76686982       0.74023713       0.51238605 </v>
   <v>       0.25908748       0.25932480       0.75059233 </v>
   <v>       0.25007054       0.74911834       0.25244254 </v>
   <v>       0.25267052       0.74954090       0.74698108 </v>
   <v>       0.74926259       0.25238569       0.74723106 </v>
   <v>       0.75276127       0.75063849       0.74492751 </v>
   <v>       0.99947995       0.49402804       0.74520897 </v>
   <v>       0.50047142       0.99807443       0.74481164 </v>
   <v>       0.49819807       0.49812001       0.25046540 </v>
   <v>       0.50575104       0.50640614       0.75250529 </v>
   <v>       0.11437110       0.12980571       0.23722351 </v>
   <v>       0.11073282       0.63152229       0.24929891 </v>
   <v>       0.12593853       0.61961071       0.74240851 </v>
   <v>       0.61566347       0.13744340       0.26015814 </v>
   <v>       0.62131568       0.12813820       0.73881972 </v>
   <v>       0.66994500       0.64486663       0.28606952 </v>
   <v>       0.63127938       0.63273726       0.75346720 </v>
   <v>       0.38492104       0.36608016       0.24650434 </v>
   <v>       0.38015551       0.37677683       0.76023035 </v>
   <v>       0.38789588       0.87005494       0.25328790 </v>
   <v>       0.37962859       0.87255521       0.74941717 </v>
   <v>       0.88210494       0.37070978       0.24108978 </v>
   <v>       0.87407804       0.37500707       0.75642433 </v>
   <v>       0.88797489       0.83482102       0.27010292 </v>
   <v>       0.87224378       0.86785619       0.79221864 </v>
   <v>       0.36831914       0.11228660       0.26555378 </v>
   <v>       0.36171782       0.11783955       0.74631589 </v>
   <v>       0.37579061       0.62255720       0.24891857 </v>
   <v>       0.37638382       0.62351678       0.74972048 </v>
   <v>       0.86430026       0.11219883       0.24810465 </v>
   <v>       0.88199125       0.12187382       0.75201270 </v>
   <v>       0.87603886       0.62625970       0.75475943 </v>
   <v>       0.13450440       0.38074303       0.23465020 </v>
   <v>       0.12014822       0.36145266       0.74893946 </v>
   <v>       0.13190102       0.88528760       0.24655500 </v>
   <v>       0.12688726       0.88495915       0.75092545 </v>
   <v>       0.63602732       0.38526116       0.25041051 </v>
   <v>       0.62492214       0.37850872       0.74832675 </v>
   <v>       0.64111597       0.89034239       0.23239095 </v>
   <v>       0.63435778       0.87633677       0.76021334 </v>
   <v>       0.36023192       0.38641200       0.99509865 </v>
   <v>       0.36550197       0.37981122       0.50261939 </v>
   <v>       0.36287784       0.88814889       0.99953026 </v>
   <v>       0.36563373       0.88525802       0.49345148 </v>
   <v>       0.87266667       0.37837381       0.00059162 </v>
   <v>       0.84310805       0.88278461       0.48013872 </v>
   <v>       0.13224735       0.11618125       0.02446160 </v>
   <v>       0.13427865       0.10731052       0.50232409 </v>
   <v>       0.12830636       0.61819672       0.00710767 </v>
   <v>       0.13379265       0.61428650       0.50199913 </v>
   <v>       0.62742333       0.11689877       0.00214386 </v>
   <v>       0.63576483       0.11292356       0.49894964 </v>
   <v>       0.62153725       0.66443969       0.49203244 </v>
   <v>       0.11717135       0.36591724       0.02145559 </v>
   <v>       0.09600536       0.35812389       0.49375977 </v>
   <v>       0.09799578       0.86016759       0.99400742 </v>
   <v>       0.10881150       0.86027342       0.50146383 </v>
   <v>       0.61982108       0.37520073       0.00463001 </v>
   <v>       0.63934818       0.38008018       0.50021805 </v>
   <v>       0.62579445       0.85992510       0.98928171 </v>
   <v>       0.38302194       0.13675592       0.99447642 </v>
   <v>       0.38608659       0.13346546       0.49314538 </v>
   <v>       0.38345382       0.63966066       0.00287874 </v>
   <v>       0.37616786       0.63305707       0.49967589 </v>
   <v>       0.87434014       0.10919644       0.99567667 </v>
   <v>       0.88495685       0.14102407       0.49961931 </v>
   <v>       0.84726245       0.64892811       0.95507218 </v>
   <v>       0.87347482       0.61640005       0.49090847 </v>
   <v>       0.96913250       0.97216354       0.12135658 </v>
   <v>       0.98476352       0.98436062       0.63244788 </v>
   <v>       0.96897347       0.52869940       0.12649480 </v>
   <v>       0.97856219       0.48709526       0.61873600 </v>
   <v>       0.49577144       0.00688416       0.12743189 </v>
   <v>       0.51824700       0.97377200       0.61312672 </v>
   <v>       0.52124253       0.52768260       0.12391293 </v>
   <v>       0.50562216       0.50537773       0.62445962 </v>
   <v>       0.00225039       0.00409677       0.37059429 </v>
   <v>       0.03280432       0.03073881       0.87298938 </v>
   <v>       0.98351434       0.49987453       0.36682051 </v>
   <v>       0.01724399       0.49304202       0.88143704 </v>
   <v>       0.53415905       0.96793978       0.38012383 </v>
   <v>       0.50045740       0.00641776       0.87498027 </v>
   <v>       0.50004401       0.49904281       0.37562508 </v>
   <v>       0.52138244       0.52382655       0.88309878 </v>
   <v>       0.24089476       0.25502655       0.36988374 </v>
   <v>       0.22742582       0.23777702       0.87897551 </v>
   <v>       0.24438573       0.74898093       0.37553964 </v>
   <v>       0.24831630       0.74588924       0.87548051 </v>
   <v>       0.76901423       0.26354792       0.37855629 </v>
   <v>       0.74188901       0.24733624       0.87403292 </v>
   <v>       0.27426526       0.24082511       0.12609627 </v>
   <v>       0.24068027       0.24186980       0.62832430 </v>
   <v>       0.25024308       0.75766614       0.12419123 </v>
   <v>       0.25161279       0.75556317       0.62318775 </v>
   <v>       0.74801666       0.24574026       0.12671973 </v>
   <v>       0.76600791       0.26277920       0.62041389 </v>
   <v>       0.77177123       0.71633687       0.12301185 </v>
   <v>       0.76875735       0.76988375       0.62802969 </v>
  </varray>
 </structure>
</modeling>
