<?xml version="1.0" encoding="ISO-8859-1"?>
<modeling>
 <generator>
  <i name="program" type="string">vasp </i>
  <i name="version" type="string">5.4.1  </i>
  <i name="subversion" type="string">05Feb16 (build Jan 25 2017 20:16:33) complex                          parallel </i>
  <i name="platform" type="string">BWXE6 </i>
  <i name="date" type="string">2019 06 22 </i>
  <i name="time" type="string">01:09:02 </i>
 </generator>
 <incar>
  <i type="string" name="SYSTEM"> STF</i>
  <i type="string" name="PREC">normal</i>
  <i type="string" name="ALGO"> Fast</i>
  <i type="int" name="ISPIN">     2</i>
  <i type="int" name="NELM">    40</i>
  <i type="int" name="NELMIN">     8</i>
  <i type="int" name="IBRION">     2</i>
  <i name="EDIFF">      0.00010000</i>
  <i name="EDIFFG">     -0.03000000</i>
  <i type="int" name="NSW">    30</i>
  <i type="int" name="ISIF">     3</i>
  <i name="ENCUT">    520.00000000</i>
  <i type="int" name="NBANDS">   768</i>
  <v name="MAGMOM">      0.60000000      0.60000000      0.60000000      0.60000000      0.60000000      0.60000000      0.60000000      0.60000000      0.60000000      0.60000000      0.60000000      0.60000000      0.60000000      0.60000000      0.60000000      0.60000000      0.60000000      0.60000000      0.60000000      0.60000000
      0.60000000      0.60000000      0.60000000      0.60000000      0.60000000      0.60000000      0.60000000      0.60000000      0.60000000      0.60000000      0.60000000      0.60000000      0.60000000      0.60000000      0.60000000      0.60000000      0.60000000      0.60000000      0.60000000      0.60000000
      0.60000000      0.60000000      0.60000000      0.60000000      0.60000000      0.60000000      0.60000000      0.60000000      0.60000000      0.60000000      0.60000000      0.60000000      0.60000000      0.60000000      0.60000000      0.60000000      5.00000000      5.00000000      5.00000000      5.00000000
      5.00000000      5.00000000      5.00000000      5.00000000      0.60000000      0.60000000      0.60000000      0.60000000      0.60000000      0.60000000      0.60000000      0.60000000      0.60000000      0.60000000      0.60000000      0.60000000      0.60000000      0.60000000      0.60000000      0.60000000
      0.60000000      0.60000000      0.60000000      0.60000000      0.60000000      0.60000000      0.60000000      0.60000000      0.60000000      0.60000000      0.60000000      0.60000000      0.60000000      0.60000000      0.60000000      0.60000000      0.60000000      0.60000000      0.60000000      0.60000000
      0.60000000      0.60000000      0.60000000      0.60000000      0.60000000      0.60000000      0.60000000      0.60000000      0.60000000      0.60000000      0.60000000      0.60000000      0.60000000      0.60000000      0.60000000      0.60000000      0.60000000      0.60000000      0.60000000      0.60000000
      0.60000000      0.60000000      0.60000000      0.60000000      0.60000000      0.60000000      0.60000000      0.60000000      0.60000000      0.60000000      0.60000000      0.60000000      0.60000000      0.60000000      0.60000000      0.60000000      0.60000000      0.60000000      0.60000000      0.60000000
      0.60000000      0.60000000      0.60000000      0.60000000      0.60000000      0.60000000      0.60000000      0.60000000      0.60000000      0.60000000      0.60000000      0.60000000      0.60000000      0.60000000      0.60000000      0.60000000</v>
  <i type="string" name="LREAL"> Auto</i>
  <i type="int" name="ISMEAR">     0</i>
  <i name="SIGMA">      0.05000000</i>
  <i type="int" name="LMAXMIX">     4</i>
  <v type="int" name="KPOINT_BSE">    -1     0     0     0</v>
  <i type="int" name="NELM">    40</i>
  <i type="logical" name="LDAU"> T  </i>
  <v type="int" name="LDAUTYPE">     2</v>
  <v type="int" name="LDAUL">     0     2     2     0</v>
  <v name="LDAUU">      0.00000000      3.00000000      5.00000000      0.00000000</v>
  <v name="LDAUJ">      0.00000000      0.00000000      0.00000000      0.00000000</v>
  <i type="int" name="LDAUPRINT">     1</i>
 </incar>
 <kpoints>
  <generation param="Monkhorst-Pack">
   <v type="int" name="divisions">       2        2        2 </v>
   <v name="usershift">      0.00000000       0.00000000       0.00000000 </v>
   <v name="genvec1">      0.50000000      -0.00000000      -0.00000000 </v>
   <v name="genvec2">      0.00000000       0.50000000       0.00000000 </v>
   <v name="genvec3">     -0.00000000      -0.00000000       0.50000000 </v>
   <v name="shift">      0.50000000       0.50000000       0.50000000 </v>
  </generation>
  <varray name="kpointlist" >
   <v>       0.25000000       0.25000000       0.25000000 </v>
   <v>      -0.25000000       0.25000000       0.25000000 </v>
   <v>       0.25000000      -0.25000000       0.25000000 </v>
   <v>      -0.25000000      -0.25000000       0.25000000 </v>
  </varray>
  <varray name="weights" >
   <v>       0.25000000 </v>
   <v>       0.25000000 </v>
   <v>       0.25000000 </v>
   <v>       0.25000000 </v>
  </varray>
 </kpoints>
 <parameters>
  <separator name="general" >
   <i type="string" name="SYSTEM">STF</i>
   <i type="logical" name="LCOMPAT"> F  </i>
  </separator>
  <separator name="electronic" >
   <i type="string" name="PREC">normal</i>
   <i name="ENMAX">    520.00000000</i>
   <i name="ENAUG">    605.39200000</i>
   <i name="EDIFF">      0.00010000</i>
   <i type="int" name="IALGO">    68</i>
   <i type="int" name="IWAVPR">    11</i>
   <i type="int" name="NBANDS">   768</i>
   <i name="NELECT">   1032.00000000</i>
   <i type="int" name="TURBO">     0</i>
   <i type="int" name="IRESTART">     0</i>
   <i type="int" name="NREBOOT">     0</i>
   <i type="int" name="NMIN">     0</i>
   <i name="EREF">      0.00000000</i>
   <separator name="electronic smearing" >
    <i type="int" name="ISMEAR">     0</i>
    <i name="SIGMA">      0.05000000</i>
    <i name="KSPACING">      0.50000000</i>
    <i type="logical" name="KGAMMA"> T  </i>
   </separator>
   <separator name="electronic projectors" >
    <i type="logical" name="LREAL"> T  </i>
    <v name="ROPT">     -0.00050000     -0.00050000     -0.00050000     -0.00050000</v>
    <i type="int" name="LMAXPAW">  -100</i>
    <i type="int" name="LMAXMIX">     4</i>
    <i type="logical" name="NLSPLINE"> F  </i>
   </separator>
   <separator name="electronic startup" >
    <i type="int" name="ISTART">     1</i>
    <i type="int" name="ICHARG">     0</i>
    <i type="int" name="INIWAV">     1</i>
   </separator>
   <separator name="electronic spin" >
    <i type="int" name="ISPIN">     2</i>
    <i type="logical" name="LNONCOLLINEAR"> F  </i>
    <v name="MAGMOM">      0.60000000      0.60000000      0.60000000      0.60000000      0.60000000      0.60000000      0.60000000      0.60000000      0.60000000      0.60000000      0.60000000      0.60000000      0.60000000      0.60000000      0.60000000      0.60000000      0.60000000      0.60000000      0.60000000      0.60000000
      0.60000000      0.60000000      0.60000000      0.60000000      0.60000000      0.60000000      0.60000000      0.60000000      0.60000000      0.60000000      0.60000000      0.60000000      0.60000000      0.60000000      0.60000000      0.60000000      0.60000000      0.60000000      0.60000000      0.60000000
      0.60000000      0.60000000      0.60000000      0.60000000      0.60000000      0.60000000      0.60000000      0.60000000      0.60000000      0.60000000      0.60000000      0.60000000      0.60000000      0.60000000      0.60000000      0.60000000      5.00000000      5.00000000      5.00000000      5.00000000
      5.00000000      5.00000000      5.00000000      5.00000000      0.60000000      0.60000000      0.60000000      0.60000000      0.60000000      0.60000000      0.60000000      0.60000000      0.60000000      0.60000000      0.60000000      0.60000000      0.60000000      0.60000000      0.60000000      0.60000000
      0.60000000      0.60000000      0.60000000      0.60000000      0.60000000      0.60000000      0.60000000      0.60000000      0.60000000      0.60000000      0.60000000      0.60000000      0.60000000      0.60000000      0.60000000      0.60000000      0.60000000      0.60000000      0.60000000      0.60000000
      0.60000000      0.60000000      0.60000000      0.60000000      0.60000000      0.60000000      0.60000000      0.60000000      0.60000000      0.60000000      0.60000000      0.60000000      0.60000000      0.60000000      0.60000000      0.60000000      0.60000000      0.60000000      0.60000000      0.60000000
      0.60000000      0.60000000      0.60000000      0.60000000      0.60000000      0.60000000      0.60000000      0.60000000      0.60000000      0.60000000      0.60000000      0.60000000      0.60000000      0.60000000      0.60000000      0.60000000      0.60000000      0.60000000      0.60000000      0.60000000
      0.60000000      0.60000000      0.60000000      0.60000000      0.60000000      0.60000000      0.60000000      0.60000000      0.60000000      0.60000000      0.60000000      0.60000000      0.60000000      0.60000000      0.60000000      0.60000000</v>
    <i name="NUPDOWN">     -1.00000000</i>
    <i type="logical" name="LSORBIT"> F  </i>
    <v name="SAXIS">      0.00000000      0.00000000      1.00000000</v>
    <i type="logical" name="LSPIRAL"> F  </i>
    <v name="QSPIRAL">      0.00000000      0.00000000      0.00000000</v>
    <i type="logical" name="LZEROZ"> F  </i>
   </separator>
   <separator name="electronic exchange-correlation" >
    <i type="logical" name="LASPH"> F  </i>
    <i type="logical" name="LMETAGGA"> F  </i>
   </separator>
   <separator name="electronic convergence" >
    <i type="int" name="NELM">    40</i>
    <i type="int" name="NELMDL">     0</i>
    <i type="int" name="NELMIN">     8</i>
    <i name="ENINI">    520.00000000</i>
    <separator name="electronic convergence detail" >
     <i type="logical" name="LDIAG"> T  </i>
     <i type="logical" name="LSUBROT"> F  </i>
     <i name="WEIMIN">      0.00100000</i>
     <i name="EBREAK">      0.00000003</i>
     <i name="DEPER">      0.30000000</i>
     <i type="int" name="NRMM">     4</i>
     <i name="TIME">      0.40000000</i>
    </separator>
   </separator>
   <separator name="electronic mixer" >
    <i name="AMIX">      0.40000000</i>
    <i name="BMIX">      1.00000000</i>
    <i name="AMIN">      0.10000000</i>
    <i name="AMIX_MAG">      1.60000000</i>
    <i name="BMIX_MAG">      1.00000000</i>
    <separator name="electronic mixer details" >
     <i type="int" name="IMIX">     4</i>
     <i type="logical" name="MIXFIRST"> F  </i>
     <i type="int" name="MAXMIX">   -45</i>
     <i name="WC">    100.00000000</i>
     <i type="int" name="INIMIX">     1</i>
     <i type="int" name="MIXPRE">     1</i>
     <i type="int" name="MREMOVE">     5</i>
    </separator>
   </separator>
   <separator name="electronic dipolcorrection" >
    <i type="logical" name="LDIPOL"> F  </i>
    <i type="logical" name="LMONO"> F  </i>
    <i type="int" name="IDIPOL">     0</i>
    <i name="EPSILON">      1.00000000</i>
    <v name="DIPOL">   -100.00000000   -100.00000000   -100.00000000</v>
    <i name="EFIELD">      0.00000000</i>
   </separator>
  </separator>
  <separator name="grids" >
   <i type="int" name="NGX">    64</i>
   <i type="int" name="NGY">    64</i>
   <i type="int" name="NGZ">    90</i>
   <i type="int" name="NGXF">   128</i>
   <i type="int" name="NGYF">   128</i>
   <i type="int" name="NGZF">   180</i>
   <i type="logical" name="ADDGRID"> F  </i>
  </separator>
  <separator name="ionic" >
   <i type="int" name="NSW">    30</i>
   <i type="int" name="IBRION">     2</i>
   <i type="int" name="ISIF">     3</i>
   <i name="PSTRESS">      0.00000000</i>
   <i name="EDIFFG">     -0.03000000</i>
   <i type="int" name="NFREE">     1</i>
   <i name="POTIM">      0.50000000</i>
   <i name="SMASS">     -3.00000000</i>
   <i name="SCALEE">      1.00000000</i>
  </separator>
  <separator name="ionic md" >
   <i name="TEBEG">      0.00010000</i>
   <i name="TEEND">      0.00010000</i>
   <i type="int" name="NBLOCK">     1</i>
   <i type="int" name="KBLOCK">    30</i>
   <i type="int" name="NPACO">   256</i>
   <i name="APACO">     16.00000000</i>
  </separator>
  <separator name="symmetry" >
   <i type="int" name="ISYM">     2</i>
   <i name="SYMPREC">      0.00001000</i>
  </separator>
  <separator name="dos" >
   <i type="logical" name="LORBIT"> F  </i>
   <v name="RWIGS">     -1.00000000     -1.00000000     -1.00000000     -1.00000000</v>
   <i type="int" name="NEDOS">   301</i>
   <i name="EMIN">     10.00000000</i>
   <i name="EMAX">    -10.00000000</i>
   <i name="EFERMI">      0.00000000</i>
  </separator>
  <separator name="writing" >
   <i type="int" name="NWRITE">     2</i>
   <i type="logical" name="LWAVE"> T  </i>
   <i type="logical" name="LCHARG"> T  </i>
   <i type="logical" name="LPARD"> F  </i>
   <i type="logical" name="LVTOT"> F  </i>
   <i type="logical" name="LVHAR"> F  </i>
   <i type="logical" name="LELF"> F  </i>
   <i type="logical" name="LOPTICS"> F  </i>
   <v name="STM">      0.00000000      0.00000000      0.00000000      0.00000000      0.00000000      0.00000000      0.00000000</v>
  </separator>
  <separator name="performance" >
   <i type="int" name="NPAR">     2</i>
   <i type="int" name="NSIM">     4</i>
   <i type="int" name="NBLK">    -1</i>
   <i type="logical" name="LPLANE"> T  </i>
   <i type="logical" name="LSCALAPACK"> T  </i>
   <i type="logical" name="LSCAAWARE"> F  </i>
   <i type="logical" name="LSCALU"> F  </i>
   <i type="logical" name="LASYNC"> F  </i>
   <i type="logical" name="LORBITALREAL"> F  </i>
  </separator>
  <separator name="miscellaneous" >
   <i type="int" name="IDIOT">     3</i>
   <i type="logical" name="LMUSIC"> F  </i>
   <v name="POMASS">     87.62000000     47.88000000     55.84700000     16.00000000</v>
   <v name="DARWINR">      0.00000000      0.00000000      0.00000000      0.00000000</v>
   <v name="DARWINV">      1.00000000      1.00000000      1.00000000      1.00000000</v>
   <i type="logical" name="LCORR"> T  </i>
  </separator>
  <i type="logical" name="GGA_COMPAT"> T  </i>
  <i type="logical" name="LBERRY"> F  </i>
  <i type="int" name="ICORELEVEL">     0</i>
  <i type="logical" name="LDAU"> T  </i>
  <v type="int" name="LDAUTYPE">     2</v>
  <v type="int" name="LDAUL">     0</v>
  <v name="LDAUU">      0.00000000</v>
  <v name="LDAUJ">      0.00000000</v>
  <i type="int" name="LDAUPRINT">     1</i>
  <i type="int" name="I_CONSTRAINED_M">     0</i>
  <separator name="electronic exchange-correlation" >
   <i type="string" name="GGA">--</i>
   <i type="int" name="VOSKOWN">     0</i>
   <i type="logical" name="LHFCALC"> F  </i>
   <i type="string" name="PRECFOCK"></i>
   <i type="logical" name="LSYMGRAD"> F  </i>
   <i type="logical" name="LHFONE"> F  </i>
   <i type="logical" name="LRHFCALC"> F  </i>
   <i type="logical" name="LTHOMAS"> F  </i>
   <i type="logical" name="LMODELHF"> F  </i>
   <i name="ENCUT4O">     -1.00000000</i>
   <i type="int" name="EXXOEP">     0</i>
   <i type="int" name="FOURORBIT">     0</i>
   <i name="AEXX">      0.00000000</i>
   <i name="HFALPHA">      0.00000000</i>
   <i name="MCALPHA">      0.00000000</i>
   <i name="ALDAX">      1.00000000</i>
   <i name="AGGAX">      1.00000000</i>
   <i name="ALDAC">      1.00000000</i>
   <i name="AGGAC">      1.00000000</i>
   <i type="int" name="NKREDX">     1</i>
   <i type="int" name="NKREDY">     1</i>
   <i type="int" name="NKREDZ">     1</i>
   <i type="logical" name="SHIFTRED"> F  </i>
   <i type="logical" name="ODDONLY"> F  </i>
   <i type="logical" name="EVENONLY"> F  </i>
   <i type="int" name="LMAXFOCK">     0</i>
   <i type="int" name="NMAXFOCKAE">     0</i>
   <i type="logical" name="LFOCKAEDFT"> F  </i>
   <i name="HFSCREEN">      0.00000000</i>
   <i name="HFSCREENC">      0.00000000</i>
   <i type="int" name="NBANDSGWLOW">     0</i>
  </separator>
  <separator name="vdW DFT" >
   <i type="logical" name="LUSE_VDW"> F  </i>
   <i name="Zab_VDW">     -0.84910000</i>
   <i name="PARAM1">      0.12340000</i>
   <i name="PARAM2">      1.00000000</i>
   <i name="PARAM3">      0.00000000</i>
  </separator>
  <separator name="model GW" >
   <i type="int" name="MODEL_GW">     0</i>
   <i name="MODEL_EPS0">      7.73759641</i>
   <i name="MODEL_ALPHA">      1.00000000</i>
  </separator>
  <separator name="linear response parameters" >
   <i type="logical" name="LEPSILON"> F  </i>
   <i type="logical" name="LRPA"> F  </i>
   <i type="logical" name="LNABLA"> F  </i>
   <i type="logical" name="LVEL"> F  </i>
   <i type="int" name="KINTER">     0</i>
   <i name="CSHIFT">      0.10000000</i>
   <i name="OMEGAMAX">     -1.00000000</i>
   <i name="DEG_THRESHOLD">      0.00200000</i>
  </separator>
  <separator name="orbital magnetization" >
   <i type="logical" name="NUCIND"> F  </i>
   <v name="MAGPOS">      0.00000000      0.00000000      0.00000000</v>
   <i type="logical" name="LNICSALL"> T  </i>
   <i type="logical" name="ORBITALMAG"> F  </i>
   <i type="logical" name="LMAGBLOCH"> F  </i>
   <i type="logical" name="LCHIMAG"> F  </i>
   <i type="logical" name="LGAUGE"> T  </i>
   <i type="int" name="MAGATOM">     0</i>
   <v name="MAGDIPOL">      0.00000000      0.00000000      0.00000000</v>
   <v name="AVECCONST">      0.00000000      0.00000000      0.00000000</v>
  </separator>
  <separator name="response functions" >
   <i type="logical" name="LADDER"> F  </i>
   <i type="logical" name="LFXC"> F  </i>
   <i type="logical" name="LHARTREE"> T  </i>
   <i type="int" name="IBSE">     0</i>
   <v type="int" name="KPOINT">    -1     0     0     0</v>
   <i type="logical" name="LTCTE"> F  </i>
   <i type="logical" name="LTETE"> F  </i>
   <i type="logical" name="LTRIPLET"> F  </i>
   <i type="logical" name="LFXCEPS"> F  </i>
   <i type="logical" name="LFXHEG"> F  </i>
   <i type="int" name="NATURALO">     0</i>
   <i type="logical" name="L2ORDER"> F  </i>
   <i type="logical" name="LUSEW"> F  </i>
   <i name="ENCUTGW">     -2.00000000</i>
   <i name="ENCUTGWSOFT">     -2.00000000</i>
   <i name="ENCUTLF">     -1.00000000</i>
   <i type="int" name="LMAXMP2">    -1</i>
   <i name="SCISSOR">      0.00000000</i>
   <i type="int" name="NOMEGA">     0</i>
   <i type="int" name="NOMEGAR">     0</i>
   <i type="int" name="NBANDSGW">    -1</i>
   <i type="int" name="NBANDSO">    -1</i>
   <i type="int" name="NBANDSV">    -1</i>
   <i type="int" name="NELM">    40</i>
   <i type="int" name="NELMHF">     1</i>
   <i type="int" name="DIM">     3</i>
   <i type="int" name="ANTIRES">     0</i>
   <i name="OMEGAMAX">    -30.00000000</i>
   <i name="OMEGAMIN">    -30.00000000</i>
   <i name="OMEGATL">   -200.00000000</i>
   <i type="int" name="OMEGAGRID">     0</i>
   <i name="CSHIFT">     -0.10000000</i>
   <i type="logical" name="SELFENERGY"> F  </i>
   <i type="logical" name="LSPECTRAL"> F  </i>
   <i type="logical" name="LSPECTRALGW"> F  </i>
   <i type="logical" name="LSINGLES"> F  </i>
   <i type="logical" name="LFERMIGW"> F  </i>
   <i type="logical" name="ODDONLYGW"> F  </i>
   <i type="logical" name="EVENONLYGW"> F  </i>
   <i type="int" name="NKREDLFX">     1</i>
   <i type="int" name="NKREDLFY">     1</i>
   <i type="int" name="NKREDLFZ">     1</i>
   <i type="int" name="MAXMEM">  1800</i>
   <i type="int" name="TELESCOPE">     0</i>
   <i type="int" name="TAUPAR">     1</i>
   <i type="int" name="OMEGAPAR">    -1</i>
   <i name="LAMBDA">      1.00000000</i>
  </separator>
  <separator name="External order field" >
   <i name="OFIELD_KAPPA">      0.00000000</i>
   <v name="OFIELD_K">      0.00000000      0.00000000      0.00000000</v>
   <i name="OFIELD_Q6_NEAR">      0.00000000</i>
   <i name="OFIELD_Q6_FAR">      0.00000000</i>
   <i name="OFIELD_A">      0.00000000</i>
  </separator>
 </parameters>
 <atominfo>
  <atoms>     156 </atoms>
  <types>       4 </types>
  <array name="atoms" >
   <dimension dim="1">ion</dimension>
   <field type="string">element</field>
   <field type="int">atomtype</field>
   <set>
    <rc><c>Sr</c><c>   1</c></rc>
    <rc><c>Sr</c><c>   1</c></rc>
    <rc><c>Sr</c><c>   1</c></rc>
    <rc><c>Sr</c><c>   1</c></rc>
    <rc><c>Sr</c><c>   1</c></rc>
    <rc><c>Sr</c><c>   1</c></rc>
    <rc><c>Sr</c><c>   1</c></rc>
    <rc><c>Sr</c><c>   1</c></rc>
    <rc><c>Sr</c><c>   1</c></rc>
    <rc><c>Sr</c><c>   1</c></rc>
    <rc><c>Sr</c><c>   1</c></rc>
    <rc><c>Sr</c><c>   1</c></rc>
    <rc><c>Sr</c><c>   1</c></rc>
    <rc><c>Sr</c><c>   1</c></rc>
    <rc><c>Sr</c><c>   1</c></rc>
    <rc><c>Sr</c><c>   1</c></rc>
    <rc><c>Sr</c><c>   1</c></rc>
    <rc><c>Sr</c><c>   1</c></rc>
    <rc><c>Sr</c><c>   1</c></rc>
    <rc><c>Sr</c><c>   1</c></rc>
    <rc><c>Sr</c><c>   1</c></rc>
    <rc><c>Sr</c><c>   1</c></rc>
    <rc><c>Sr</c><c>   1</c></rc>
    <rc><c>Sr</c><c>   1</c></rc>
    <rc><c>Sr</c><c>   1</c></rc>
    <rc><c>Sr</c><c>   1</c></rc>
    <rc><c>Sr</c><c>   1</c></rc>
    <rc><c>Sr</c><c>   1</c></rc>
    <rc><c>Sr</c><c>   1</c></rc>
    <rc><c>Sr</c><c>   1</c></rc>
    <rc><c>Sr</c><c>   1</c></rc>
    <rc><c>Sr</c><c>   1</c></rc>
    <rc><c>Ti</c><c>   2</c></rc>
    <rc><c>Ti</c><c>   2</c></rc>
    <rc><c>Ti</c><c>   2</c></rc>
    <rc><c>Ti</c><c>   2</c></rc>
    <rc><c>Ti</c><c>   2</c></rc>
    <rc><c>Ti</c><c>   2</c></rc>
    <rc><c>Ti</c><c>   2</c></rc>
    <rc><c>Ti</c><c>   2</c></rc>
    <rc><c>Ti</c><c>   2</c></rc>
    <rc><c>Ti</c><c>   2</c></rc>
    <rc><c>Ti</c><c>   2</c></rc>
    <rc><c>Ti</c><c>   2</c></rc>
    <rc><c>Ti</c><c>   2</c></rc>
    <rc><c>Ti</c><c>   2</c></rc>
    <rc><c>Ti</c><c>   2</c></rc>
    <rc><c>Ti</c><c>   2</c></rc>
    <rc><c>Ti</c><c>   2</c></rc>
    <rc><c>Ti</c><c>   2</c></rc>
    <rc><c>Ti</c><c>   2</c></rc>
    <rc><c>Ti</c><c>   2</c></rc>
    <rc><c>Ti</c><c>   2</c></rc>
    <rc><c>Ti</c><c>   2</c></rc>
    <rc><c>Ti</c><c>   2</c></rc>
    <rc><c>Ti</c><c>   2</c></rc>
    <rc><c>Fe</c><c>   3</c></rc>
    <rc><c>Fe</c><c>   3</c></rc>
    <rc><c>Fe</c><c>   3</c></rc>
    <rc><c>Fe</c><c>   3</c></rc>
    <rc><c>Fe</c><c>   3</c></rc>
    <rc><c>Fe</c><c>   3</c></rc>
    <rc><c>Fe</c><c>   3</c></rc>
    <rc><c>Fe</c><c>   3</c></rc>
    <rc><c>O </c><c>   4</c></rc>
    <rc><c>O </c><c>   4</c></rc>
    <rc><c>O </c><c>   4</c></rc>
    <rc><c>O </c><c>   4</c></rc>
    <rc><c>O </c><c>   4</c></rc>
    <rc><c>O </c><c>   4</c></rc>
    <rc><c>O </c><c>   4</c></rc>
    <rc><c>O </c><c>   4</c></rc>
    <rc><c>O </c><c>   4</c></rc>
    <rc><c>O </c><c>   4</c></rc>
    <rc><c>O </c><c>   4</c></rc>
    <rc><c>O </c><c>   4</c></rc>
    <rc><c>O </c><c>   4</c></rc>
    <rc><c>O </c><c>   4</c></rc>
    <rc><c>O </c><c>   4</c></rc>
    <rc><c>O </c><c>   4</c></rc>
    <rc><c>O </c><c>   4</c></rc>
    <rc><c>O </c><c>   4</c></rc>
    <rc><c>O </c><c>   4</c></rc>
    <rc><c>O </c><c>   4</c></rc>
    <rc><c>O </c><c>   4</c></rc>
    <rc><c>O </c><c>   4</c></rc>
    <rc><c>O </c><c>   4</c></rc>
    <rc><c>O </c><c>   4</c></rc>
    <rc><c>O </c><c>   4</c></rc>
    <rc><c>O </c><c>   4</c></rc>
    <rc><c>O </c><c>   4</c></rc>
    <rc><c>O </c><c>   4</c></rc>
    <rc><c>O </c><c>   4</c></rc>
    <rc><c>O </c><c>   4</c></rc>
    <rc><c>O </c><c>   4</c></rc>
    <rc><c>O </c><c>   4</c></rc>
    <rc><c>O </c><c>   4</c></rc>
    <rc><c>O </c><c>   4</c></rc>
    <rc><c>O </c><c>   4</c></rc>
    <rc><c>O </c><c>   4</c></rc>
    <rc><c>O </c><c>   4</c></rc>
    <rc><c>O </c><c>   4</c></rc>
    <rc><c>O </c><c>   4</c></rc>
    <rc><c>O </c><c>   4</c></rc>
    <rc><c>O </c><c>   4</c></rc>
    <rc><c>O </c><c>   4</c></rc>
    <rc><c>O </c><c>   4</c></rc>
    <rc><c>O </c><c>   4</c></rc>
    <rc><c>O </c><c>   4</c></rc>
    <rc><c>O </c><c>   4</c></rc>
    <rc><c>O </c><c>   4</c></rc>
    <rc><c>O </c><c>   4</c></rc>
    <rc><c>O </c><c>   4</c></rc>
    <rc><c>O </c><c>   4</c></rc>
    <rc><c>O </c><c>   4</c></rc>
    <rc><c>O </c><c>   4</c></rc>
    <rc><c>O </c><c>   4</c></rc>
    <rc><c>O </c><c>   4</c></rc>
    <rc><c>O </c><c>   4</c></rc>
    <rc><c>O </c><c>   4</c></rc>
    <rc><c>O </c><c>   4</c></rc>
    <rc><c>O </c><c>   4</c></rc>
    <rc><c>O </c><c>   4</c></rc>
    <rc><c>O </c><c>   4</c></rc>
    <rc><c>O </c><c>   4</c></rc>
    <rc><c>O </c><c>   4</c></rc>
    <rc><c>O </c><c>   4</c></rc>
    <rc><c>O </c><c>   4</c></rc>
    <rc><c>O </c><c>   4</c></rc>
    <rc><c>O </c><c>   4</c></rc>
    <rc><c>O </c><c>   4</c></rc>
    <rc><c>O </c><c>   4</c></rc>
    <rc><c>O </c><c>   4</c></rc>
    <rc><c>O </c><c>   4</c></rc>
    <rc><c>O </c><c>   4</c></rc>
    <rc><c>O </c><c>   4</c></rc>
    <rc><c>O </c><c>   4</c></rc>
    <rc><c>O </c><c>   4</c></rc>
    <rc><c>O </c><c>   4</c></rc>
    <rc><c>O </c><c>   4</c></rc>
    <rc><c>O </c><c>   4</c></rc>
    <rc><c>O </c><c>   4</c></rc>
    <rc><c>O </c><c>   4</c></rc>
    <rc><c>O </c><c>   4</c></rc>
    <rc><c>O </c><c>   4</c></rc>
    <rc><c>O </c><c>   4</c></rc>
    <rc><c>O </c><c>   4</c></rc>
    <rc><c>O </c><c>   4</c></rc>
    <rc><c>O </c><c>   4</c></rc>
    <rc><c>O </c><c>   4</c></rc>
    <rc><c>O </c><c>   4</c></rc>
    <rc><c>O </c><c>   4</c></rc>
    <rc><c>O </c><c>   4</c></rc>
    <rc><c>O </c><c>   4</c></rc>
    <rc><c>O </c><c>   4</c></rc>
    <rc><c>O </c><c>   4</c></rc>
   </set>
  </array>
  <array name="atomtypes" >
   <dimension dim="1">type</dimension>
   <field type="int">atomspertype</field>
   <field type="string">element</field>
   <field>mass</field>
   <field>valence</field>
   <field type="string">pseudopotential</field>
   <set>
    <rc><c>  32</c><c>Sr</c><c>     87.62000000</c><c>     10.00000000</c><c>  PAW_PBE Sr_sv 07Sep2000               </c></rc>
    <rc><c>  24</c><c>Ti</c><c>     47.88000000</c><c>      4.00000000</c><c>  PAW_PBE Ti 08Apr2002                  </c></rc>
    <rc><c>   8</c><c>Fe</c><c>     55.84700000</c><c>      8.00000000</c><c>  PAW_PBE Fe 06Sep2000                  </c></rc>
    <rc><c>  92</c><c>O </c><c>     16.00000000</c><c>      6.00000000</c><c>  PAW_PBE O 08Apr2002                   </c></rc>
   </set>
  </array>
 </atominfo>
 <structure name="initialpos" >
  <crystal>
   <varray name="basis" >
    <v>      11.24380133       0.01023952       0.00367850 </v>
    <v>       0.01037200      11.22097573       0.00007577 </v>
    <v>       0.00527711       0.00010679      15.94542310 </v>
   </varray>
   <i name="volume">   2011.77506627 </i>
   <varray name="rec_basis" >
    <v>       0.08893798      -0.00008221      -0.00002943 </v>
    <v>      -0.00008116       0.08911888      -0.00000057 </v>
    <v>      -0.00002052      -0.00000040       0.06271393 </v>
   </varray>
  </crystal>
  <varray name="positions" >
   <v>       0.00495179       0.25061748       0.12747750 </v>
   <v>       0.99787971       0.25265565       0.62371293 </v>
   <v>       0.00661792       0.75079630       0.12644754 </v>
   <v>       0.99635722       0.74577993       0.62694409 </v>
   <v>       0.49745082       0.24450278       0.12858767 </v>
   <v>       0.50422110       0.24208305       0.62848349 </v>
   <v>       0.49152694       0.75515781       0.12642418 </v>
   <v>       0.49969726       0.75852931       0.62857299 </v>
   <v>       0.00732207       0.24775542       0.37235159 </v>
   <v>       0.99449808       0.25616611       0.87825690 </v>
   <v>       0.99870983       0.75320113       0.36845552 </v>
   <v>       0.00286288       0.74420109       0.87840693 </v>
   <v>       0.49568477       0.24330219       0.36950984 </v>
   <v>       0.50227161       0.24281387       0.87310652 </v>
   <v>       0.49911006       0.75857507       0.36724596 </v>
   <v>       0.49415157       0.75534266       0.87762769 </v>
   <v>       0.25022126       0.99270953       0.12927566 </v>
   <v>       0.25323682       0.00204389       0.62159700 </v>
   <v>       0.24412714       0.50634336       0.12722573 </v>
   <v>       0.23586056       0.49807508       0.63441825 </v>
   <v>       0.75123366       0.00086896       0.12651606 </v>
   <v>       0.74764803       0.00557352       0.62741471 </v>
   <v>       0.75627074       0.49941591       0.12896912 </v>
   <v>       0.76539502       0.49832441       0.62836243 </v>
   <v>       0.25242711       0.00232139       0.36842770 </v>
   <v>       0.25272454       0.99548740       0.88058682 </v>
   <v>       0.24004191       0.49979309       0.36429539 </v>
   <v>       0.24045214       0.50430999       0.87595266 </v>
   <v>       0.75342983       0.00156595       0.37269657 </v>
   <v>       0.74437670       0.00633280       0.87323544 </v>
   <v>       0.76599376       0.50080499       0.37057397 </v>
   <v>       0.75555404       0.49628663       0.87201853 </v>
   <v>       0.00248598       0.00026025       0.00086015 </v>
   <v>       0.00104503       0.50085101       0.00091741 </v>
   <v>       0.00444575       0.49876878       0.49914508 </v>
   <v>       0.49884589       0.00075108       0.00071336 </v>
   <v>       0.50126698       0.00144375       0.49939696 </v>
   <v>       0.51525392       0.50654535       0.00110982 </v>
   <v>       0.52820628       0.49673530       0.49914274 </v>
   <v>       0.23542690       0.75805692       0.49944932 </v>
   <v>       0.74865441       0.24971903       0.99976296 </v>
   <v>       0.75729216       0.24455042       0.50001322 </v>
   <v>       0.75348555       0.75621309       0.99926483 </v>
   <v>       0.75689216       0.75773618       0.50031345 </v>
   <v>       0.25112424       0.75044546       0.75173164 </v>
   <v>       0.74989284       0.25127905       0.25091642 </v>
   <v>       0.74988533       0.75146572       0.24913906 </v>
   <v>       0.74287143       0.74607279       0.75058559 </v>
   <v>       0.00194410       0.00049548       0.25125894 </v>
   <v>       0.99170738       0.98921003       0.75035525 </v>
   <v>       0.00222678       0.49979394       0.24891296 </v>
   <v>       0.99809182       0.49649607       0.75133968 </v>
   <v>       0.49854525       0.00098974       0.24942607 </v>
   <v>       0.49794758       0.00133884       0.75039638 </v>
   <v>       0.49547426       0.50055323       0.24754335 </v>
   <v>       0.49708818       0.49866596       0.75457173 </v>
   <v>       0.99806042       0.00309710       0.49981325 </v>
   <v>       0.24174345       0.23735746       0.00077262 </v>
   <v>       0.23789625       0.23240541       0.49953414 </v>
   <v>       0.24647265       0.74992643       0.00147804 </v>
   <v>       0.25321216       0.25318647       0.24837927 </v>
   <v>       0.26379782       0.25825277       0.75085176 </v>
   <v>       0.25046451       0.74970741       0.24942502 </v>
   <v>       0.74927035       0.25213524       0.74886257 </v>
   <v>       0.11553563       0.13526436       0.24743635 </v>
   <v>       0.11261816       0.63427069       0.25119878 </v>
   <v>       0.11284862       0.63593859       0.74925120 </v>
   <v>       0.61412564       0.13804258       0.25071693 </v>
   <v>       0.61075678       0.13662170       0.74972025 </v>
   <v>       0.61127909       0.63707861       0.25357393 </v>
   <v>       0.60391380       0.63913678       0.74702628 </v>
   <v>       0.39117662       0.36667961       0.25448137 </v>
   <v>       0.39453483       0.36145694       0.74352544 </v>
   <v>       0.38818709       0.86605675       0.25019203 </v>
   <v>       0.39315224       0.85672519       0.75051370 </v>
   <v>       0.88504188       0.36562232       0.25086165 </v>
   <v>       0.88371270       0.36767124       0.74949517 </v>
   <v>       0.88441283       0.86282952       0.24713911 </v>
   <v>       0.88922088       0.85996329       0.75247175 </v>
   <v>       0.36597615       0.11438334       0.24857636 </v>
   <v>       0.35430997       0.10468250       0.75131252 </v>
   <v>       0.36488499       0.61304960       0.24490517 </v>
   <v>       0.35868599       0.60723833       0.75525090 </v>
   <v>       0.86301445       0.11600569       0.24656041 </v>
   <v>       0.87420783       0.11746093       0.75251802 </v>
   <v>       0.86271292       0.61410798       0.24981655 </v>
   <v>       0.86069073       0.61336306       0.75059444 </v>
   <v>       0.13336041       0.38622973       0.24737575 </v>
   <v>       0.12870897       0.37581985       0.75201880 </v>
   <v>       0.13456561       0.88569405       0.25430063 </v>
   <v>       0.14353785       0.89326887       0.74695840 </v>
   <v>       0.63533044       0.39199106       0.26173152 </v>
   <v>       0.63367798       0.39576512       0.73762047 </v>
   <v>       0.63711733       0.88757119       0.25188666 </v>
   <v>       0.64098248       0.88856080       0.74796745 </v>
   <v>       0.36554412       0.88593996       0.99915340 </v>
   <v>       0.36441899       0.88023748       0.50151250 </v>
   <v>       0.85649575       0.39215137       0.99895389 </v>
   <v>       0.85884872       0.39326860       0.50070073 </v>
   <v>       0.85822426       0.89404194       0.99079479 </v>
   <v>       0.85713976       0.89513037       0.50818280 </v>
   <v>       0.13971796       0.10633349       0.00891582 </v>
   <v>       0.14421929       0.09570043       0.49202135 </v>
   <v>       0.13281992       0.61267663       0.99866142 </v>
   <v>       0.15585557       0.60084006       0.50129017 </v>
   <v>       0.64370608       0.10698107       0.00042641 </v>
   <v>       0.64580250       0.10314536       0.50000888 </v>
   <v>       0.64326019       0.60666313       0.99912602 </v>
   <v>       0.65141163       0.60369920       0.50080447 </v>
   <v>       0.11467847       0.36643064       0.99796816 </v>
   <v>       0.11231612       0.36068064       0.50227511 </v>
   <v>       0.10560069       0.86238084       0.99628809 </v>
   <v>       0.10212018       0.85271203       0.50155602 </v>
   <v>       0.59491484       0.35252801       0.00002807 </v>
   <v>       0.59949271       0.34815117       0.49919671 </v>
   <v>       0.60956675       0.85679089       0.99997940 </v>
   <v>       0.60860649       0.85301013       0.49994003 </v>
   <v>       0.39447052       0.14152847       0.99788169 </v>
   <v>       0.39568413       0.14166573       0.50297817 </v>
   <v>       0.38128256       0.61380274       0.99847720 </v>
   <v>       0.88988981       0.14365081       0.00031620 </v>
   <v>       0.89530102       0.14528140       0.50014967 </v>
   <v>       0.88794231       0.64280798       0.00013333 </v>
   <v>       0.89899110       0.64460838       0.49927801 </v>
   <v>       0.99555761       0.99437743       0.12359015 </v>
   <v>       0.01504244       0.01677563       0.63168781 </v>
   <v>       0.99712900       0.50046827       0.12466192 </v>
   <v>       0.99936023       0.50325718       0.62521686 </v>
   <v>       0.50216604       0.99920032       0.12497004 </v>
   <v>       0.50154483       0.99839598       0.62525853 </v>
   <v>       0.49966730       0.49088702       0.12395585 </v>
   <v>       0.45530166       0.51325823       0.60349678 </v>
   <v>       0.99062120       0.99769584       0.37339875 </v>
   <v>       0.02026476       0.01908574       0.87027077 </v>
   <v>       0.00037985       0.49982937       0.37553922 </v>
   <v>       0.99737111       0.50223952       0.87478769 </v>
   <v>       0.49918605       0.00046422       0.37576884 </v>
   <v>       0.50404891       0.99789605       0.87449217 </v>
   <v>       0.46081160       0.51572816       0.39306330 </v>
   <v>       0.49710096       0.48623362       0.87587479 </v>
   <v>       0.25924583       0.26114506       0.37952618 </v>
   <v>       0.25352518       0.25347293       0.87588566 </v>
   <v>       0.26110135       0.74156720       0.38004898 </v>
   <v>       0.24884175       0.75112860       0.87373459 </v>
   <v>       0.75361471       0.24829658       0.37608530 </v>
   <v>       0.74459292       0.25580082       0.87551085 </v>
   <v>       0.75528337       0.75261979       0.37611177 </v>
   <v>       0.74325412       0.74528582       0.87372803 </v>
   <v>       0.26691249       0.27207448       0.11859852 </v>
   <v>       0.24286289       0.24308553       0.62688604 </v>
   <v>       0.24812305       0.75332118       0.12407773 </v>
   <v>       0.26025861       0.74126182       0.62277820 </v>
   <v>       0.74447969       0.25892779       0.12584910 </v>
   <v>       0.75144084       0.24770356       0.62275550 </v>
   <v>       0.74731710       0.75129852       0.12374978 </v>
   <v>       0.75166456       0.74558602       0.62608335 </v>
  </varray>
 </structure>
 <calculation>
  <scstep>
   <time name="dav">  601.01  600.98</time>
   <time name="total">  608.18  608.20</time>
   <energy>
    <i name="alphaZ">   5609.65116182 </i>
    <i name="ewald"> -61119.94741415 </i>
    <i name="hartreedc"> -16373.94370167 </i>
    <i name="XCdc">   2962.55482207 </i>
    <i name="pawpsdc"> 113014.90057740 </i>
    <i name="pawaedc">-111914.10456843 </i>
    <i name="eentropy">     -0.00000000 </i>
    <i name="bandstr">  -7081.79340923 </i>
    <i name="atom">  73783.44779670 </i>
    <i name="e_fr_energy">  -1119.23473549 </i>
    <i name="e_wo_entrp">  -1119.23473549 </i>
    <i name="e_0_energy">  -1119.23473549 </i>
   </energy>
  </scstep>
  <scstep>
   <time name="diag">   65.08   65.08</time>
   <time name="diis">   63.48   63.48</time>
   <time name="orth">   33.42   33.42</time>
   <time name="total">  169.30  169.30</time>
   <energy>
    <i name="e_fr_energy">  -1119.23473704 </i>
    <i name="e_wo_entrp">  -1119.23473704 </i>
    <i name="e_0_energy">  -1119.23473704 </i>
   </energy>
  </scstep>
  <scstep>
   <time name="diag">   65.24   65.24</time>
   <time name="diis">   62.27   62.27</time>
   <time name="orth">   33.47   33.46</time>
   <time name="total">  168.26  168.37</time>
   <energy>
    <i name="e_fr_energy">  -1119.23473767 </i>
    <i name="e_wo_entrp">  -1119.23473767 </i>
    <i name="e_0_energy">  -1119.23473767 </i>
   </energy>
  </scstep>
  <scstep>
   <time name="diag">   65.11   65.11</time>
   <time name="diis">   55.24   55.24</time>
   <time name="orth">   33.42   33.42</time>
   <time name="total">  161.07  161.17</time>
   <energy>
    <i name="e_fr_energy">  -1119.23473906 </i>
    <i name="e_wo_entrp">  -1119.23473906 </i>
    <i name="e_0_energy">  -1119.23473906 </i>
   </energy>
  </scstep>
  <scstep>
   <time name="diag">   65.20   65.19</time>
   <time name="diis">   54.98   54.97</time>
   <time name="orth">   33.47   33.47</time>
   <time name="total">  160.92  160.97</time>
   <energy>
    <i name="e_fr_energy">  -1119.23474022 </i>
    <i name="e_wo_entrp">  -1119.23474022 </i>
    <i name="e_0_energy">  -1119.23474022 </i>
   </energy>
  </scstep>
  <scstep>
   <time name="diag">   65.21   65.20</time>
   <time name="diis">   51.36   51.35</time>
   <time name="orth">   33.43   33.43</time>
   <time name="total">  157.27  157.36</time>
   <energy>
    <i name="e_fr_energy">  -1119.23474075 </i>
    <i name="e_wo_entrp">  -1119.23474075 </i>
    <i name="e_0_energy">  -1119.23474075 </i>
   </energy>
  </scstep>
  <scstep>
   <time name="diag">   64.91   64.91</time>
   <time name="diis">   48.28   48.28</time>
   <time name="orth">   33.48   33.48</time>
   <time name="total">  153.86  154.00</time>
   <energy>
    <i name="e_fr_energy">  -1119.23474092 </i>
    <i name="e_wo_entrp">  -1119.23474092 </i>
    <i name="e_0_energy">  -1119.23474092 </i>
   </energy>
  </scstep>
  <scstep>
   <time name="diag">   64.93   64.93</time>
   <time name="diis">   46.01   46.01</time>
   <time name="orth">   33.49   33.49</time>
   <time name="total">  145.48  145.60</time>
   <energy>
    <i name="alphaZ">   5609.65116182 </i>
    <i name="ewald"> -61119.94741415 </i>
    <i name="hartreedc"> -16373.96037243 </i>
    <i name="XCdc">   2962.55381684 </i>
    <i name="pawpsdc"> 113011.96946613 </i>
    <i name="pawaedc">-111911.15499318 </i>
    <i name="eentropy">     -0.00000000 </i>
    <i name="bandstr">  -7081.79420279 </i>
    <i name="atom">  73783.44779670 </i>
    <i name="e_fr_energy">  -1119.23474106 </i>
    <i name="e_wo_entrp">  -1119.23474106 </i>
    <i name="e_0_energy">  -1119.23474106 </i>
   </energy>
  </scstep>
  <structure>
   <crystal>
    <varray name="basis" >
     <v>      11.24380133       0.01023952       0.00367850 </v>
     <v>       0.01037200      11.22097573       0.00007577 </v>
     <v>       0.00527711       0.00010679      15.94542310 </v>
    </varray>
    <i name="volume">   2011.77506627 </i>
    <varray name="rec_basis" >
     <v>       0.08893798      -0.00008221      -0.00002943 </v>
     <v>      -0.00008116       0.08911888      -0.00000057 </v>
     <v>      -0.00002052      -0.00000040       0.06271393 </v>
    </varray>
   </crystal>
   <varray name="positions" >
    <v>       0.00495179       0.25061748       0.12747750 </v>
    <v>       0.99787971       0.25265565       0.62371293 </v>
    <v>       0.00661792       0.75079630       0.12644754 </v>
    <v>       0.99635722       0.74577993       0.62694409 </v>
    <v>       0.49745082       0.24450278       0.12858767 </v>
    <v>       0.50422110       0.24208305       0.62848349 </v>
    <v>       0.49152694       0.75515781       0.12642418 </v>
    <v>       0.49969726       0.75852931       0.62857299 </v>
    <v>       0.00732207       0.24775542       0.37235159 </v>
    <v>       0.99449808       0.25616611       0.87825690 </v>
    <v>       0.99870983       0.75320113       0.36845552 </v>
    <v>       0.00286288       0.74420109       0.87840693 </v>
    <v>       0.49568477       0.24330219       0.36950984 </v>
    <v>       0.50227161       0.24281387       0.87310652 </v>
    <v>       0.49911006       0.75857507       0.36724596 </v>
    <v>       0.49415157       0.75534266       0.87762769 </v>
    <v>       0.25022126       0.99270953       0.12927566 </v>
    <v>       0.25323682       0.00204389       0.62159700 </v>
    <v>       0.24412714       0.50634336       0.12722573 </v>
    <v>       0.23586056       0.49807508       0.63441825 </v>
    <v>       0.75123366       0.00086896       0.12651606 </v>
    <v>       0.74764803       0.00557352       0.62741471 </v>
    <v>       0.75627074       0.49941591       0.12896912 </v>
    <v>       0.76539502       0.49832441       0.62836243 </v>
    <v>       0.25242711       0.00232139       0.36842770 </v>
    <v>       0.25272454       0.99548740       0.88058682 </v>
    <v>       0.24004191       0.49979309       0.36429539 </v>
    <v>       0.24045214       0.50430999       0.87595266 </v>
    <v>       0.75342983       0.00156595       0.37269657 </v>
    <v>       0.74437670       0.00633280       0.87323544 </v>
    <v>       0.76599376       0.50080499       0.37057397 </v>
    <v>       0.75555404       0.49628663       0.87201853 </v>
    <v>       0.00248598       0.00026025       0.00086015 </v>
    <v>       0.00104503       0.50085101       0.00091741 </v>
    <v>       0.00444575       0.49876878       0.49914508 </v>
    <v>       0.49884589       0.00075108       0.00071336 </v>
    <v>       0.50126698       0.00144375       0.49939696 </v>
    <v>       0.51525392       0.50654535       0.00110982 </v>
    <v>       0.52820628       0.49673530       0.49914274 </v>
    <v>       0.23542690       0.75805692       0.49944932 </v>
    <v>       0.74865441       0.24971903       0.99976296 </v>
    <v>       0.75729216       0.24455042       0.50001322 </v>
    <v>       0.75348555       0.75621309       0.99926483 </v>
    <v>       0.75689216       0.75773618       0.50031345 </v>
    <v>       0.25112424       0.75044546       0.75173164 </v>
    <v>       0.74989284       0.25127905       0.25091642 </v>
    <v>       0.74988533       0.75146572       0.24913906 </v>
    <v>       0.74287143       0.74607279       0.75058559 </v>
    <v>       0.00194410       0.00049548       0.25125894 </v>
    <v>       0.99170738       0.98921003       0.75035525 </v>
    <v>       0.00222678       0.49979394       0.24891296 </v>
    <v>       0.99809182       0.49649607       0.75133968 </v>
    <v>       0.49854525       0.00098974       0.24942607 </v>
    <v>       0.49794758       0.00133884       0.75039638 </v>
    <v>       0.49547426       0.50055323       0.24754335 </v>
    <v>       0.49708818       0.49866596       0.75457173 </v>
    <v>       0.99806042       0.00309710       0.49981325 </v>
    <v>       0.24174345       0.23735746       0.00077262 </v>
    <v>       0.23789625       0.23240541       0.49953414 </v>
    <v>       0.24647265       0.74992643       0.00147804 </v>
    <v>       0.25321216       0.25318647       0.24837927 </v>
    <v>       0.26379782       0.25825277       0.75085176 </v>
    <v>       0.25046451       0.74970741       0.24942502 </v>
    <v>       0.74927035       0.25213524       0.74886257 </v>
    <v>       0.11553563       0.13526436       0.24743635 </v>
    <v>       0.11261816       0.63427069       0.25119878 </v>
    <v>       0.11284862       0.63593859       0.74925120 </v>
    <v>       0.61412564       0.13804258       0.25071693 </v>
    <v>       0.61075678       0.13662170       0.74972025 </v>
    <v>       0.61127909       0.63707861       0.25357393 </v>
    <v>       0.60391380       0.63913678       0.74702628 </v>
    <v>       0.39117662       0.36667961       0.25448137 </v>
    <v>       0.39453483       0.36145694       0.74352544 </v>
    <v>       0.38818709       0.86605675       0.25019203 </v>
    <v>       0.39315224       0.85672519       0.75051370 </v>
    <v>       0.88504188       0.36562232       0.25086165 </v>
    <v>       0.88371270       0.36767124       0.74949517 </v>
    <v>       0.88441283       0.86282952       0.24713911 </v>
    <v>       0.88922088       0.85996329       0.75247175 </v>
    <v>       0.36597615       0.11438334       0.24857636 </v>
    <v>       0.35430997       0.10468250       0.75131252 </v>
    <v>       0.36488499       0.61304960       0.24490517 </v>
    <v>       0.35868599       0.60723833       0.75525090 </v>
    <v>       0.86301445       0.11600569       0.24656041 </v>
    <v>       0.87420783       0.11746093       0.75251802 </v>
    <v>       0.86271292       0.61410798       0.24981655 </v>
    <v>       0.86069073       0.61336306       0.75059444 </v>
    <v>       0.13336041       0.38622973       0.24737575 </v>
    <v>       0.12870897       0.37581985       0.75201880 </v>
    <v>       0.13456561       0.88569405       0.25430063 </v>
    <v>       0.14353785       0.89326887       0.74695840 </v>
    <v>       0.63533044       0.39199106       0.26173152 </v>
    <v>       0.63367798       0.39576512       0.73762047 </v>
    <v>       0.63711733       0.88757119       0.25188666 </v>
    <v>       0.64098248       0.88856080       0.74796745 </v>
    <v>       0.36554412       0.88593996       0.99915340 </v>
    <v>       0.36441899       0.88023748       0.50151250 </v>
    <v>       0.85649575       0.39215137       0.99895389 </v>
    <v>       0.85884872       0.39326860       0.50070073 </v>
    <v>       0.85822426       0.89404194       0.99079479 </v>
    <v>       0.85713976       0.89513037       0.50818280 </v>
    <v>       0.13971796       0.10633349       0.00891582 </v>
    <v>       0.14421929       0.09570043       0.49202135 </v>
    <v>       0.13281992       0.61267663       0.99866142 </v>
    <v>       0.15585557       0.60084006       0.50129017 </v>
    <v>       0.64370608       0.10698107       0.00042641 </v>
    <v>       0.64580250       0.10314536       0.50000888 </v>
    <v>       0.64326019       0.60666313       0.99912602 </v>
    <v>       0.65141163       0.60369920       0.50080447 </v>
    <v>       0.11467847       0.36643064       0.99796816 </v>
    <v>       0.11231612       0.36068064       0.50227511 </v>
    <v>       0.10560069       0.86238084       0.99628809 </v>
    <v>       0.10212018       0.85271203       0.50155602 </v>
    <v>       0.59491484       0.35252801       0.00002807 </v>
    <v>       0.59949271       0.34815117       0.49919671 </v>
    <v>       0.60956675       0.85679089       0.99997940 </v>
    <v>       0.60860649       0.85301013       0.49994003 </v>
    <v>       0.39447052       0.14152847       0.99788169 </v>
    <v>       0.39568413       0.14166573       0.50297817 </v>
    <v>       0.38128256       0.61380274       0.99847720 </v>
    <v>       0.88988981       0.14365081       0.00031620 </v>
    <v>       0.89530102       0.14528140       0.50014967 </v>
    <v>       0.88794231       0.64280798       0.00013333 </v>
    <v>       0.89899110       0.64460838       0.49927801 </v>
    <v>       0.99555761       0.99437743       0.12359015 </v>
    <v>       0.01504244       0.01677563       0.63168781 </v>
    <v>       0.99712900       0.50046827       0.12466192 </v>
    <v>       0.99936023       0.50325718       0.62521686 </v>
    <v>       0.50216604       0.99920032       0.12497004 </v>
    <v>       0.50154483       0.99839598       0.62525853 </v>
    <v>       0.49966730       0.49088702       0.12395585 </v>
    <v>       0.45530166       0.51325823       0.60349678 </v>
    <v>       0.99062120       0.99769584       0.37339875 </v>
    <v>       0.02026476       0.01908574       0.87027077 </v>
    <v>       0.00037985       0.49982937       0.37553922 </v>
    <v>       0.99737111       0.50223952       0.87478769 </v>
    <v>       0.49918605       0.00046422       0.37576884 </v>
    <v>       0.50404891       0.99789605       0.87449217 </v>
    <v>       0.46081160       0.51572816       0.39306330 </v>
    <v>       0.49710096       0.48623362       0.87587479 </v>
    <v>       0.25924583       0.26114506       0.37952618 </v>
    <v>       0.25352518       0.25347293       0.87588566 </v>
    <v>       0.26110135       0.74156720       0.38004898 </v>
    <v>       0.24884175       0.75112860       0.87373459 </v>
    <v>       0.75361471       0.24829658       0.37608530 </v>
    <v>       0.74459292       0.25580082       0.87551085 </v>
    <v>       0.75528337       0.75261979       0.37611177 </v>
    <v>       0.74325412       0.74528582       0.87372803 </v>
    <v>       0.26691249       0.27207448       0.11859852 </v>
    <v>       0.24286289       0.24308553       0.62688604 </v>
    <v>       0.24812305       0.75332118       0.12407773 </v>
    <v>       0.26025861       0.74126182       0.62277820 </v>
    <v>       0.74447969       0.25892779       0.12584910 </v>
    <v>       0.75144084       0.24770356       0.62275550 </v>
    <v>       0.74731710       0.75129852       0.12374978 </v>
    <v>       0.75166456       0.74558602       0.62608335 </v>
   </varray>
  </structure>
  <varray name="forces" >
   <v>      -0.00404886      -0.00462124      -0.02481387 </v>
   <v>      -0.02136511       0.02203895      -0.00598759 </v>
   <v>       0.01996841       0.00971486      -0.02004814 </v>
   <v>      -0.00701623      -0.00314389       0.00285059 </v>
   <v>      -0.01964816       0.03644553      -0.01652462 </v>
   <v>       0.00324317      -0.00530572      -0.02074220 </v>
   <v>      -0.00631065      -0.03341145      -0.01005063 </v>
   <v>       0.01540156      -0.00130057      -0.00484060 </v>
   <v>       0.00597716      -0.00123925       0.01357807 </v>
   <v>      -0.01987412       0.00145404       0.01855270 </v>
   <v>       0.00613182      -0.00293784       0.00854554 </v>
   <v>       0.01478338      -0.00228891       0.00239967 </v>
   <v>      -0.02588160      -0.01729499       0.04579176 </v>
   <v>      -0.00915478       0.01183431      -0.00421922 </v>
   <v>       0.01363090       0.01291927       0.02343762 </v>
   <v>      -0.01703574      -0.04096607       0.00963479 </v>
   <v>       0.00524545       0.00833038      -0.01823956 </v>
   <v>      -0.02970671      -0.01804888       0.00605938 </v>
   <v>       0.01400495       0.02125933       0.01079277 </v>
   <v>       0.07607045       0.03074806      -0.02448556 </v>
   <v>       0.01044503       0.00003127      -0.00940972 </v>
   <v>       0.00802881       0.01197195      -0.00641368 </v>
   <v>      -0.02683554       0.02022180      -0.01653316 </v>
   <v>      -0.01527269       0.01108571       0.00741272 </v>
   <v>      -0.02849134      -0.00811946       0.02783054 </v>
   <v>       0.00011703      -0.00899989      -0.00681090 </v>
   <v>       0.05061712       0.02213939       0.03516800 </v>
   <v>       0.00413209       0.00161296      -0.01557779 </v>
   <v>       0.00169462      -0.00819309       0.00619641 </v>
   <v>       0.01102936       0.01036632       0.00458519 </v>
   <v>      -0.00717967       0.01386209       0.02364183 </v>
   <v>      -0.03478526      -0.00929609      -0.00994221 </v>
   <v>      -0.01048442      -0.00827154      -0.03787788 </v>
   <v>       0.00676022      -0.01307728       0.01626760 </v>
   <v>       0.01537360      -0.00189511       0.00728159 </v>
   <v>      -0.02251331      -0.00925908      -0.00238053 </v>
   <v>      -0.01160077      -0.02250422       0.02281447 </v>
   <v>       0.00308052       0.01597797       0.00040135 </v>
   <v>       0.05391294      -0.03157193      -0.00946302 </v>
   <v>      -0.00364055      -0.00892020       0.00394621 </v>
   <v>      -0.01178558       0.01010246      -0.00773784 </v>
   <v>      -0.03017265       0.03482705       0.05479657 </v>
   <v>      -0.00889344       0.00737090       0.01730159 </v>
   <v>       0.00377695      -0.01963710       0.01819457 </v>
   <v>      -0.00731868       0.01066215      -0.00255956 </v>
   <v>      -0.01865776       0.00281491      -0.00018263 </v>
   <v>       0.00602191      -0.01262530       0.01915143 </v>
   <v>       0.02006107      -0.02046869      -0.03477201 </v>
   <v>       0.03172071      -0.01576888       0.00420327 </v>
   <v>       0.00373564      -0.03199174       0.01055649 </v>
   <v>       0.03924810       0.06820866       0.00726389 </v>
   <v>      -0.01675459       0.00052630      -0.01724751 </v>
   <v>      -0.01255386      -0.03100682      -0.00886301 </v>
   <v>      -0.02615470       0.00182251       0.00521433 </v>
   <v>       0.00621803       0.01669450       0.02063463 </v>
   <v>       0.05193697       0.04589986      -0.00267058 </v>
   <v>       0.01946301      -0.02811340       0.01693006 </v>
   <v>       0.00936326       0.01512244      -0.00977593 </v>
   <v>       0.01525871       0.01253592       0.01687844 </v>
   <v>       0.01828679      -0.01733873      -0.00587040 </v>
   <v>       0.01324453       0.01365311      -0.01197179 </v>
   <v>       0.01140299       0.01296367      -0.00681855 </v>
   <v>      -0.00817368       0.00592972      -0.00550783 </v>
   <v>      -0.00493526      -0.00502227      -0.01732202 </v>
   <v>       0.00603057       0.01475977      -0.01041521 </v>
   <v>       0.00882575      -0.02184473      -0.01605404 </v>
   <v>       0.02265322      -0.01544174       0.01338229 </v>
   <v>       0.02419847      -0.01121127      -0.01526081 </v>
   <v>       0.01881094      -0.02867712       0.01175782 </v>
   <v>       0.02640961       0.02360938       0.00331193 </v>
   <v>       0.02539009       0.00347975      -0.00292431 </v>
   <v>      -0.01654180      -0.00682318       0.00437160 </v>
   <v>      -0.03915488      -0.00528740      -0.02136665 </v>
   <v>      -0.00158772       0.00766223      -0.00963846 </v>
   <v>      -0.04019066       0.01719556       0.01568413 </v>
   <v>      -0.02220264      -0.02612258       0.00247444 </v>
   <v>      -0.03420934       0.02332358       0.00141785 </v>
   <v>       0.01806652       0.00910822       0.00483994 </v>
   <v>      -0.01533827      -0.02515300       0.02546050 </v>
   <v>      -0.00040176       0.02840094      -0.00809337 </v>
   <v>      -0.01135538       0.00450115       0.01834513 </v>
   <v>       0.03593035      -0.00094705       0.01054036 </v>
   <v>      -0.00898304       0.03191923      -0.01846429 </v>
   <v>      -0.00765224       0.01400287      -0.00523474 </v>
   <v>       0.00794997       0.02697198      -0.00106696 </v>
   <v>      -0.00898006       0.00203309      -0.02588788 </v>
   <v>       0.00214136       0.01689437       0.02902123 </v>
   <v>      -0.00422711      -0.03267025       0.00353646 </v>
   <v>      -0.01053266      -0.01822461       0.01431163 </v>
   <v>      -0.03251910       0.03846705      -0.02441513 </v>
   <v>      -0.01011249      -0.01022347       0.03768295 </v>
   <v>       0.02744357      -0.04843544      -0.01683354 </v>
   <v>      -0.01119631      -0.01855596       0.02251458 </v>
   <v>      -0.00684301      -0.02364488      -0.00297344 </v>
   <v>      -0.03535988      -0.01055918       0.00241393 </v>
   <v>       0.02237105      -0.02486594       0.01918545 </v>
   <v>       0.02673650      -0.02319192      -0.01494734 </v>
   <v>      -0.00179953      -0.01619895       0.00314858 </v>
   <v>       0.03367278      -0.01623554      -0.00628894 </v>
   <v>       0.00205356      -0.01077779      -0.01807999 </v>
   <v>       0.02300910       0.01717123      -0.00272622 </v>
   <v>      -0.03466911      -0.03367293       0.03193895 </v>
   <v>      -0.00325582      -0.00288904      -0.01552785 </v>
   <v>      -0.02717882       0.00458068       0.00685323 </v>
   <v>       0.00681859       0.00135974      -0.01743119 </v>
   <v>      -0.02041222       0.00852183       0.00782087 </v>
   <v>      -0.01977594       0.00247682      -0.02059952 </v>
   <v>       0.04259239       0.03601911       0.00265771 </v>
   <v>       0.04031754       0.04267812      -0.01860792 </v>
   <v>      -0.02583493       0.02015180       0.00387841 </v>
   <v>       0.00683476      -0.00397111      -0.01051224 </v>
   <v>       0.01343013      -0.00310783      -0.00671079 </v>
   <v>      -0.05871303      -0.00791665       0.00476310 </v>
   <v>      -0.06611752      -0.02276184       0.00533706 </v>
   <v>      -0.01863333       0.00950366      -0.01558069 </v>
   <v>       0.04293435       0.00090598      -0.00378585 </v>
   <v>       0.01391234       0.02461441       0.00008931 </v>
   <v>      -0.00397799      -0.02001828       0.02097079 </v>
   <v>       0.00652452      -0.00646905      -0.01226808 </v>
   <v>      -0.02115939      -0.05673115       0.00957450 </v>
   <v>      -0.01261771      -0.02349845       0.00421379 </v>
   <v>       0.04022954      -0.01568548       0.00583899 </v>
   <v>      -0.02476478       0.00870999       0.00182950 </v>
   <v>       0.00618574       0.01829607       0.00473831 </v>
   <v>      -0.02059088      -0.00120945      -0.01794180 </v>
   <v>      -0.01429931      -0.00182433      -0.01634782 </v>
   <v>      -0.04201165      -0.00662094      -0.00089422 </v>
   <v>       0.00116422      -0.00406710       0.02166731 </v>
   <v>       0.03137758      -0.00585841       0.00234332 </v>
   <v>      -0.01154816       0.00337638       0.01135447 </v>
   <v>       0.02031243       0.00548654       0.00058646 </v>
   <v>      -0.00609748       0.02415216       0.01110978 </v>
   <v>       0.00792430       0.01992864      -0.03337616 </v>
   <v>      -0.01017008       0.04367793      -0.00251607 </v>
   <v>      -0.01402105      -0.01338026      -0.02426090 </v>
   <v>      -0.02618218       0.00566209      -0.00090810 </v>
   <v>       0.00074458       0.00621867      -0.01328293 </v>
   <v>      -0.00417214      -0.00260316       0.00091107 </v>
   <v>       0.04476268       0.00381971      -0.04577949 </v>
   <v>      -0.01225092      -0.00050000      -0.00318164 </v>
   <v>       0.00888274       0.01198007       0.00184974 </v>
   <v>       0.02094716       0.02179919       0.00402256 </v>
   <v>      -0.01429044       0.00202942      -0.00465140 </v>
   <v>       0.02188305      -0.02979698      -0.01995351 </v>
   <v>      -0.00010493      -0.00784305      -0.03588519 </v>
   <v>      -0.00986246      -0.02133151       0.03637020 </v>
   <v>      -0.00199001       0.00224398      -0.00530733 </v>
   <v>       0.00745693       0.00755127       0.02890954 </v>
   <v>       0.02955309       0.01814242       0.00524034 </v>
   <v>      -0.02543617      -0.01231679       0.00431880 </v>
   <v>       0.00960338      -0.01344417       0.00140290 </v>
   <v>      -0.00021079      -0.01664097       0.00673045 </v>
   <v>      -0.00133125      -0.01314706       0.01308964 </v>
   <v>      -0.03358740       0.00350559      -0.02106095 </v>
   <v>       0.03379612      -0.00493946      -0.01889949 </v>
   <v>      -0.00856736       0.03193614       0.00947699 </v>
  </varray>
  <varray name="stress" >
   <v>       0.15626697       0.13432106       0.09376363 </v>
   <v>       0.13432062       0.08048880       0.02199340 </v>
   <v>       0.09376420       0.02199382       0.05931852 </v>
  </varray>
  <energy>
   <i name="e_fr_energy">  -1119.23474106 </i>
   <i name="e_wo_entrp">  -1119.23474106 </i>
   <i name="e_0_energy">     -0.00000000 </i>
  </energy>
  <time name="totalsc"> 1989.50 1991.92</time>
 </calculation>
 <calculation>
  <scstep>
   <time name="dav">  586.15  586.16</time>
   <time name="total">  593.30  593.35</time>
   <energy>
    <i name="alphaZ">   5609.00630744 </i>
    <i name="ewald"> -61119.96180936 </i>
    <i name="hartreedc"> -16371.19946178 </i>
    <i name="XCdc">   2962.39361476 </i>
    <i name="pawpsdc"> 113011.96357411 </i>
    <i name="pawaedc">-111911.14840832 </i>
    <i name="eentropy">     -0.00000000 </i>
    <i name="bandstr">  -7083.73804740 </i>
    <i name="atom">  73783.44779670 </i>
    <i name="e_fr_energy">  -1119.23643386 </i>
    <i name="e_wo_entrp">  -1119.23643386 </i>
    <i name="e_0_energy">  -1119.23643386 </i>
   </energy>
  </scstep>
  <scstep>
   <time name="diag">   65.17   65.17</time>
   <time name="diis">  104.79  104.80</time>
   <time name="orth">   33.43   33.43</time>
   <time name="total">  210.68  210.69</time>
   <energy>
    <i name="e_fr_energy">  -1119.24003238 </i>
    <i name="e_wo_entrp">  -1119.24003238 </i>
    <i name="e_0_energy">  -1119.24003238 </i>
   </energy>
  </scstep>
  <scstep>
   <time name="diag">   65.15   65.15</time>
   <time name="diis">  108.77  108.78</time>
   <time name="orth">   33.49   33.49</time>
   <time name="total">  214.69  214.73</time>
   <energy>
    <i name="e_fr_energy">  -1119.23995857 </i>
    <i name="e_wo_entrp">  -1119.23995857 </i>
    <i name="e_0_energy">  -1119.23995857 </i>
   </energy>
  </scstep>
  <scstep>
   <time name="diag">   65.11   65.12</time>
   <time name="diis">   97.89   97.90</time>
   <time name="orth">   33.44   33.44</time>
   <time name="total">  203.73  203.85</time>
   <energy>
    <i name="e_fr_energy">  -1119.23968355 </i>
    <i name="e_wo_entrp">  -1119.23968355 </i>
    <i name="e_0_energy">  -1119.23968355 </i>
   </energy>
  </scstep>
  <scstep>
   <time name="diag">   65.16   65.16</time>
   <time name="diis">   86.93   86.94</time>
   <time name="orth">   33.43   33.44</time>
   <time name="total">  192.82  193.01</time>
   <energy>
    <i name="e_fr_energy">  -1119.23960314 </i>
    <i name="e_wo_entrp">  -1119.23960314 </i>
    <i name="e_0_energy">  -1119.23960314 </i>
   </energy>
  </scstep>
  <scstep>
   <time name="diag">   65.14   65.14</time>
   <time name="diis">   64.71   64.71</time>
   <time name="orth">   33.46   33.46</time>
   <time name="total">  170.59  170.75</time>
   <energy>
    <i name="e_fr_energy">  -1119.23960299 </i>
    <i name="e_wo_entrp">  -1119.23960299 </i>
    <i name="e_0_energy">  -1119.23960299 </i>
   </energy>
  </scstep>
  <scstep>
   <time name="diag">   65.01   65.01</time>
   <time name="diis">   63.92   63.92</time>
   <time name="orth">   33.40   33.40</time>
   <time name="total">  169.53  169.57</time>
   <energy>
    <i name="e_fr_energy">  -1119.23960337 </i>
    <i name="e_wo_entrp">  -1119.23960337 </i>
    <i name="e_0_energy">  -1119.23960337 </i>
   </energy>
  </scstep>
  <scstep>
   <time name="diag">   65.04   65.04</time>
   <time name="diis">   62.60   62.61</time>
   <time name="orth">   33.41   33.41</time>
   <time name="total">  162.11  162.16</time>
   <energy>
    <i name="alphaZ">   5609.00630744 </i>
    <i name="ewald"> -61119.96180936 </i>
    <i name="hartreedc"> -16372.88316520 </i>
    <i name="XCdc">   2962.49744545 </i>
    <i name="pawpsdc"> 112961.13540680 </i>
    <i name="pawaedc">-111860.30393795 </i>
    <i name="eentropy">     -0.00000000 </i>
    <i name="bandstr">  -7082.17764706 </i>
    <i name="atom">  73783.44779670 </i>
    <i name="e_fr_energy">  -1119.23960318 </i>
    <i name="e_wo_entrp">  -1119.23960318 </i>
    <i name="e_0_energy">  -1119.23960318 </i>
   </energy>
  </scstep>
  <structure>
   <crystal>
    <varray name="basis" >
     <v>      11.24448427       0.01082632       0.00408805 </v>
     <v>       0.01095789      11.22132698       0.00017198 </v>
     <v>       0.00585800       0.00024324      15.94579058 </v>
    </varray>
    <i name="volume">   2012.00635536 </i>
    <varray name="rec_basis" >
     <v>       0.08893259      -0.00008684      -0.00003267 </v>
     <v>      -0.00008580       0.08911610      -0.00000133 </v>
     <v>      -0.00002280      -0.00000094       0.06271248 </v>
    </varray>
   </crystal>
   <varray name="positions" >
    <v>       0.00493447       0.25059762       0.12740243 </v>
    <v>       0.99778796       0.25275049       0.62369484 </v>
    <v>       0.00670358       0.75083799       0.12638686 </v>
    <v>       0.99632713       0.74576644       0.62695272 </v>
    <v>       0.49736639       0.24465955       0.12853770 </v>
    <v>       0.50423506       0.24206023       0.62842073 </v>
    <v>       0.49150001       0.75501419       0.12639378 </v>
    <v>       0.49976335       0.75852366       0.62855833 </v>
    <v>       0.00734770       0.24775007       0.37239267 </v>
    <v>       0.99441277       0.25617244       0.87831305 </v>
    <v>       0.99873613       0.75318847       0.36848137 </v>
    <v>       0.00292631       0.74419119       0.87841418 </v>
    <v>       0.49557372       0.24322793       0.36964840 </v>
    <v>       0.50223229       0.24286479       0.87309377 </v>
    <v>       0.49916846       0.75863056       0.36731686 </v>
    <v>       0.49407862       0.75516660       0.87765686 </v>
    <v>       0.25024376       0.99274533       0.12922047 </v>
    <v>       0.25310942       0.00196641       0.62161536 </v>
    <v>       0.24418713       0.50643470       0.12725837 </v>
    <v>       0.23618686       0.49820697       0.63434409 </v>
    <v>       0.75127849       0.00086905       0.12648758 </v>
    <v>       0.74768244       0.00562496       0.62739530 </v>
    <v>       0.75615554       0.49950296       0.12891912 </v>
    <v>       0.76532944       0.49837213       0.62838487 </v>
    <v>       0.25230486       0.00228659       0.36851193 </v>
    <v>       0.25272508       0.99544870       0.88056621 </v>
    <v>       0.24025895       0.49988808       0.36440174 </v>
    <v>       0.24046988       0.50431691       0.87590552 </v>
    <v>       0.75343712       0.00153072       0.37271532 </v>
    <v>       0.74442397       0.00637732       0.87324930 </v>
    <v>       0.76596286       0.50086462       0.37064551 </v>
    <v>       0.75540484       0.49624679       0.87198848 </v>
    <v>       0.00244108       0.00022473       0.00074557 </v>
    <v>       0.00107406       0.50079476       0.00096662 </v>
    <v>       0.00451171       0.49876058       0.49916709 </v>
    <v>       0.49874934       0.00071136       0.00070618 </v>
    <v>       0.50121726       0.00134705       0.49946600 </v>
    <v>       0.51526708       0.50661403       0.00111103 </v>
    <v>       0.52843774       0.49659935       0.49911406 </v>
    <v>       0.23541131       0.75801858       0.49946127 </v>
    <v>       0.74860381       0.24976251       0.99973956 </v>
    <v>       0.75716249       0.24470027       0.50017904 </v>
    <v>       0.75344734       0.75624481       0.99931719 </v>
    <v>       0.75690842       0.75765174       0.50036850 </v>
    <v>       0.25109280       0.75049133       0.75172391 </v>
    <v>       0.74981278       0.25129122       0.25091588 </v>
    <v>       0.74991119       0.75141141       0.24919700 </v>
    <v>       0.74295763       0.74598471       0.75048037 </v>
    <v>       0.00208026       0.00042756       0.25127163 </v>
    <v>       0.99172352       0.98907247       0.75038719 </v>
    <v>       0.00239490       0.50008704       0.24893490 </v>
    <v>       0.99801995       0.49649840       0.75128751 </v>
    <v>       0.49849152       0.00085648       0.24939927 </v>
    <v>       0.49783535       0.00134678       0.75041218 </v>
    <v>       0.49550084       0.50062498       0.24760577 </v>
    <v>       0.49731085       0.49886309       0.75456359 </v>
    <v>       0.99814402       0.00297616       0.49986445 </v>
    <v>       0.24178358       0.23742244       0.00074303 </v>
    <v>       0.23796164       0.23245925       0.49958519 </v>
    <v>       0.24655119       0.74985181       0.00146026 </v>
    <v>       0.25326895       0.25324512       0.24834304 </v>
    <v>       0.26384671       0.25830846       0.75083112 </v>
    <v>       0.25042942       0.74973293       0.24940836 </v>
    <v>       0.74924922       0.25211367       0.74881017 </v>
    <v>       0.11556146       0.13532780       0.24740483 </v>
    <v>       0.11265614       0.63417674       0.25115020 </v>
    <v>       0.11294586       0.63587212       0.74929166 </v>
    <v>       0.61422953       0.13799428       0.25067074 </v>
    <v>       0.61083758       0.13649834       0.74975581 </v>
    <v>       0.61139231       0.63718001       0.25358392 </v>
    <v>       0.60402273       0.63915164       0.74701741 </v>
    <v>       0.39110567       0.36665034       0.25449461 </v>
    <v>       0.39436688       0.36143436       0.74346083 </v>
    <v>       0.38818026       0.86608970       0.25016287 </v>
    <v>       0.39297971       0.85679928       0.75056119 </v>
    <v>       0.88494672       0.36551010       0.25086916 </v>
    <v>       0.88356583       0.36777165       0.74949949 </v>
    <v>       0.88449030       0.86286861       0.24715374 </v>
    <v>       0.88915513       0.85985521       0.75254880 </v>
    <v>       0.36597432       0.11450545       0.24855187 </v>
    <v>       0.35426121       0.10470190       0.75136804 </v>
    <v>       0.36503914       0.61304538       0.24493703 </v>
    <v>       0.35864735       0.60737560       0.75519505 </v>
    <v>       0.86298156       0.11606592       0.24654458 </v>
    <v>       0.87424184       0.11757686       0.75251479 </v>
    <v>       0.86267441       0.61411675       0.24973823 </v>
    <v>       0.86069981       0.61343569       0.75068224 </v>
    <v>       0.13334240       0.38608929       0.24738645 </v>
    <v>       0.12866383       0.37574153       0.75206211 </v>
    <v>       0.13442597       0.88585956       0.25422679 </v>
    <v>       0.14349445       0.89322495       0.74707242 </v>
    <v>       0.63544840       0.39178272       0.26168056 </v>
    <v>       0.63362999       0.39568538       0.73768860 </v>
    <v>       0.63708807       0.88746956       0.25187767 </v>
    <v>       0.64083080       0.88851554       0.74797479 </v>
    <v>       0.36564018       0.88583296       0.99921142 </v>
    <v>       0.36453382       0.88013767       0.50146725 </v>
    <v>       0.85648809       0.39208173       0.99896342 </v>
    <v>       0.85899327       0.39319867       0.50068167 </v>
    <v>       0.85823314       0.89399559       0.99074009 </v>
    <v>       0.85723842       0.89520410       0.50817453 </v>
    <v>       0.13956930       0.10618885       0.00901249 </v>
    <v>       0.14420535       0.09568802       0.49197437 </v>
    <v>       0.13270328       0.61269643       0.99868218 </v>
    <v>       0.15588485       0.60084588       0.50123742 </v>
    <v>       0.64361845       0.10701778       0.00045009 </v>
    <v>       0.64571766       0.10315609       0.49994658 </v>
    <v>       0.64344280       0.60681782       0.99913402 </v>
    <v>       0.65158447       0.60388253       0.50074813 </v>
    <v>       0.11456754       0.36651738       0.99797991 </v>
    <v>       0.11234548       0.36066354       0.50224330 </v>
    <v>       0.10565834       0.86236742       0.99626778 </v>
    <v>       0.10186829       0.85267823       0.50157049 </v>
    <v>       0.59463124       0.35243040       0.00004428 </v>
    <v>       0.59941275       0.34819210       0.49914959 </v>
    <v>       0.60975097       0.85679462       0.99996790 </v>
    <v>       0.60866608       0.85311590       0.49994028 </v>
    <v>       0.39445350       0.14144242       0.99794514 </v>
    <v>       0.39571217       0.14163789       0.50294105 </v>
    <v>       0.38119199       0.61355892       0.99850619 </v>
    <v>       0.88983576       0.14354983       0.00032897 </v>
    <v>       0.89547368       0.14521381       0.50016729 </v>
    <v>       0.88783602       0.64284553       0.00013889 </v>
    <v>       0.89901756       0.64468702       0.49929234 </v>
    <v>       0.99546930       0.99437231       0.12353589 </v>
    <v>       0.01498111       0.01676784       0.63163836 </v>
    <v>       0.99694877       0.50043997       0.12465925 </v>
    <v>       0.99936521       0.50323969       0.62528242 </v>
    <v>       0.50230068       0.99917501       0.12497710 </v>
    <v>       0.50149525       0.99841054       0.62529289 </v>
    <v>       0.49975443       0.49091052       0.12395760 </v>
    <v>       0.45527539       0.51336209       0.60353040 </v>
    <v>       0.99065516       0.99778149       0.37329776 </v>
    <v>       0.02022096       0.01927357       0.87026317 </v>
    <v>       0.00031977       0.49977190       0.37546583 </v>
    <v>       0.99725875       0.50226396       0.87478496 </v>
    <v>       0.49918924       0.00049095       0.37572865 </v>
    <v>       0.50403102       0.99788488       0.87449493 </v>
    <v>       0.46100371       0.51574441       0.39292476 </v>
    <v>       0.49704841       0.48623152       0.87586518 </v>
    <v>       0.25928389       0.26119653       0.37953177 </v>
    <v>       0.25361496       0.25356657       0.87589781 </v>
    <v>       0.26104004       0.74157599       0.38003492 </v>
    <v>       0.24893579       0.75100040       0.87367420 </v>
    <v>       0.75361434       0.24826286       0.37597673 </v>
    <v>       0.74455063       0.25570914       0.87562090 </v>
    <v>       0.75527484       0.75262944       0.37609571 </v>
    <v>       0.74328604       0.74531826       0.87381548 </v>
    <v>       0.26703921       0.27215237       0.11861434 </v>
    <v>       0.24275380       0.24303268       0.62689914 </v>
    <v>       0.24816430       0.75326334       0.12408196 </v>
    <v>       0.26025776       0.74119028       0.62279856 </v>
    <v>       0.74447401       0.25887128       0.12588870 </v>
    <v>       0.75129674       0.24771877       0.62269181 </v>
    <v>       0.74746215       0.75127715       0.12369257 </v>
    <v>       0.75162766       0.74572335       0.62611203 </v>
   </varray>
  </structure>
  <varray name="forces" >
   <v>      -0.01784609      -0.00825435      -0.00205096 </v>
   <v>      -0.00903421       0.01027647      -0.00458027 </v>
   <v>      -0.00105037       0.01798850      -0.02958528 </v>
   <v>      -0.00345006      -0.00203498       0.00276122 </v>
   <v>      -0.00385029       0.01894263      -0.00011722 </v>
   <v>      -0.01201837      -0.01600760      -0.00307053 </v>
   <v>       0.00633723      -0.01876226      -0.00330372 </v>
   <v>       0.00896326       0.01043549       0.00222661 </v>
   <v>      -0.00779854      -0.00515758      -0.00939351 </v>
   <v>      -0.02164345       0.00540921       0.01601991 </v>
   <v>      -0.00562029       0.00940576       0.00423272 </v>
   <v>       0.00088706      -0.01383693       0.01779899 </v>
   <v>      -0.01386317      -0.03244426       0.00338165 </v>
   <v>      -0.00816895       0.00607405      -0.00016224 </v>
   <v>       0.01970616       0.02081699       0.00992506 </v>
   <v>      -0.00318932      -0.01890800       0.00975952 </v>
   <v>      -0.00002620       0.01751027      -0.01331134 </v>
   <v>      -0.02774336      -0.00907933       0.00700577 </v>
   <v>       0.01168357       0.00519445       0.00918540 </v>
   <v>       0.05492435       0.01867034      -0.00143849 </v>
   <v>       0.01342935       0.01056381      -0.00173219 </v>
   <v>       0.00686669       0.00701427      -0.00736636 </v>
   <v>      -0.01046908       0.00889526      -0.00588222 </v>
   <v>      -0.00053504       0.00752569       0.01235065 </v>
   <v>      -0.02162179       0.00654818       0.01278755 </v>
   <v>      -0.00057127      -0.00642469       0.00117069 </v>
   <v>       0.03752680      -0.00225104       0.01628868 </v>
   <v>      -0.00272629      -0.00360540      -0.01843848 </v>
   <v>       0.00722941       0.00794525      -0.00754989 </v>
   <v>       0.00062543       0.00314925       0.01300712 </v>
   <v>       0.00529385      -0.00126735      -0.01189730 </v>
   <v>      -0.01227233       0.00014640       0.00984231 </v>
   <v>      -0.03101070      -0.00890938       0.00807470 </v>
   <v>      -0.03222952       0.00984641       0.01210255 </v>
   <v>       0.01134538      -0.01029699      -0.01806263 </v>
   <v>       0.03952482       0.00754824       0.01909269 </v>
   <v>       0.00119420       0.00108075      -0.01535483 </v>
   <v>       0.05004845       0.00034638       0.01425927 </v>
   <v>      -0.00291480       0.07722793      -0.01154106 </v>
   <v>      -0.03062311       0.01872578       0.00551729 </v>
   <v>      -0.01027936      -0.01981692       0.04265299 </v>
   <v>       0.04389416      -0.04686968      -0.06267817 </v>
   <v>       0.01629861       0.00722935       0.00260014 </v>
   <v>       0.02757173       0.03005097      -0.01627061 </v>
   <v>       0.00133171      -0.01429859       0.00989107 </v>
   <v>       0.01649574      -0.01095308      -0.00817036 </v>
   <v>       0.02148726       0.01702641      -0.01377012 </v>
   <v>       0.00920712       0.04242192       0.06371923 </v>
   <v>      -0.03398666       0.05092796      -0.02739769 </v>
   <v>      -0.02335936       0.00035729       0.00372871 </v>
   <v>      -0.02941455      -0.05632825      -0.01352752 </v>
   <v>       0.02591760      -0.01365172       0.02683544 </v>
   <v>       0.01577058       0.02404542      -0.01294018 </v>
   <v>      -0.00524475      -0.00859161       0.02374602 </v>
   <v>       0.03696145      -0.03530418       0.01864897 </v>
   <v>      -0.02199508      -0.00526399       0.00202584 </v>
   <v>       0.00119086      -0.00064258      -0.00216101 </v>
   <v>      -0.01584201      -0.01434353       0.00635122 </v>
   <v>       0.00178450      -0.01069665      -0.00072808 </v>
   <v>      -0.00562386      -0.01081644      -0.00778965 </v>
   <v>      -0.00437018       0.00156676      -0.00900265 </v>
   <v>      -0.01097360       0.00949191      -0.00021106 </v>
   <v>       0.00416874       0.02169135      -0.00684582 </v>
   <v>       0.00012570      -0.01839300       0.01862523 </v>
   <v>       0.01330532       0.00726531      -0.01172054 </v>
   <v>       0.03839585       0.01677061      -0.00938135 </v>
   <v>       0.01002729      -0.01195782       0.00375328 </v>
   <v>      -0.01303956      -0.03735427      -0.01083459 </v>
[...]
       <r>   -16.2716     0.0000    32.0000 </r>
       <r>   -16.1193     0.0000    32.0000 </r>
       <r>   -15.9670     0.0000    32.0000 </r>
       <r>   -15.8148     0.0000    32.0000 </r>
       <r>   -15.6625     0.0000    32.0000 </r>
       <r>   -15.5102     0.0000    32.0000 </r>
       <r>   -15.3580     0.0000    32.0000 </r>
       <r>   -15.2057     1.0778    32.1641 </r>
       <r>   -15.0534    23.5995    35.7576 </r>
       <r>   -14.9012    47.1266    42.9335 </r>
       <r>   -14.7489    44.7423    49.7464 </r>
       <r>   -14.5966    35.0218    55.0791 </r>
       <r>   -14.4444    39.9002    61.1547 </r>
       <r>   -14.2921    42.7628    67.6661 </r>
       <r>   -14.1398    77.1133    79.4081 </r>
       <r>   -13.9875   106.5748    95.6361 </r>
       <r>   -13.8353   105.0243   111.6281 </r>
       <r>   -13.6830    45.4712   118.5519 </r>
       <r>   -13.5307    16.3467   121.0410 </r>
       <r>   -13.3785    14.4479   123.2410 </r>
       <r>   -13.2262     4.9838   123.9999 </r>
       <r>   -13.0739     0.0009   124.0000 </r>
       <r>   -12.9217     0.0000   124.0000 </r>
       <r>   -12.7694     0.4968   124.0756 </r>
       <r>   -12.6171    34.3748   129.3099 </r>
       <r>   -12.4649   131.3201   149.3058 </r>
       <r>   -12.3126   150.2288   172.1810 </r>
       <r>   -12.1603   129.5142   191.9020 </r>
       <r>   -12.0081   110.9233   208.7922 </r>
       <r>   -11.8558    58.9387   217.7667 </r>
       <r>   -11.7035    14.5212   219.9779 </r>
       <r>   -11.5512     0.1453   220.0000 </r>
       <r>   -11.3990     0.0000   220.0000 </r>
       <r>   -11.2467     0.0000   220.0000 </r>
       <r>   -11.0944     0.0000   220.0000 </r>
       <r>   -10.9422     0.0000   220.0000 </r>
       <r>   -10.7899     0.0000   220.0000 </r>
       <r>   -10.6376     0.0000   220.0000 </r>
       <r>   -10.4854     0.0000   220.0000 </r>
       <r>   -10.3331     0.0000   220.0000 </r>
       <r>   -10.1808     0.0000   220.0000 </r>
       <r>   -10.0286     0.0000   220.0000 </r>
       <r>    -9.8763     0.0000   220.0000 </r>
       <r>    -9.7240     0.0000   220.0000 </r>
       <r>    -9.5717     0.0000   220.0000 </r>
       <r>    -9.4195     0.0000   220.0000 </r>
       <r>    -9.2672     0.0000   220.0000 </r>
       <r>    -9.1149     0.0000   220.0000 </r>
       <r>    -8.9627     0.0000   220.0000 </r>
       <r>    -8.8104     0.0000   220.0000 </r>
       <r>    -8.6581     0.0000   220.0000 </r>
       <r>    -8.5059     0.0000   220.0000 </r>
       <r>    -8.3536     0.0000   220.0000 </r>
       <r>    -8.2013     0.0000   220.0000 </r>
       <r>    -8.0491     0.0000   220.0000 </r>
       <r>    -7.8968     0.0000   220.0000 </r>
       <r>    -7.7445     0.0000   220.0000 </r>
       <r>    -7.5923     0.0000   220.0000 </r>
       <r>    -7.4400     0.0000   220.0000 </r>
       <r>    -7.2877     0.0000   220.0000 </r>
       <r>    -7.1354     0.0000   220.0000 </r>
       <r>    -6.9832     0.0000   220.0000 </r>
       <r>    -6.8309     0.0000   220.0000 </r>
       <r>    -6.6786     0.0000   220.0000 </r>
       <r>    -6.5264     0.0000   220.0000 </r>
       <r>    -6.3741     0.0000   220.0000 </r>
       <r>    -6.2218     0.0000   220.0000 </r>
       <r>    -6.0696     0.0000   220.0000 </r>
       <r>    -5.9173     0.0000   220.0000 </r>
       <r>    -5.7650     0.0000   220.0000 </r>
       <r>    -5.6128     0.0000   220.0000 </r>
       <r>    -5.4605     0.0000   220.0000 </r>
       <r>    -5.3082     0.0000   220.0000 </r>
       <r>    -5.1559     0.0000   220.0000 </r>
       <r>    -5.0037     0.0000   220.0000 </r>
       <r>    -4.8514     0.0000   220.0000 </r>
       <r>    -4.6991     0.0000   220.0000 </r>
       <r>    -4.5469     0.0000   220.0000 </r>
       <r>    -4.3946     0.0000   220.0000 </r>
       <r>    -4.2423     0.0000   220.0000 </r>
       <r>    -4.0901     0.0000   220.0000 </r>
       <r>    -3.9378     0.0000   220.0000 </r>
       <r>    -3.7855     0.0000   220.0000 </r>
       <r>    -3.6333     0.0000   220.0000 </r>
       <r>    -3.4810     0.0000   220.0000 </r>
       <r>    -3.3287     0.0000   220.0000 </r>
       <r>    -3.1765     0.0000   220.0000 </r>
       <r>    -3.0242     0.0000   220.0000 </r>
       <r>    -2.8719     0.0000   220.0000 </r>
       <r>    -2.7196     0.0000   220.0000 </r>
       <r>    -2.5674     0.0000   220.0000 </r>
       <r>    -2.4151     0.2230   220.0339 </r>
       <r>    -2.2628    15.6504   222.4170 </r>
       <r>    -2.1106    18.5324   225.2389 </r>
       <r>    -1.9583    26.8538   229.3279 </r>
       <r>    -1.8060    35.8961   234.7938 </r>
       <r>    -1.6538    53.2526   242.9025 </r>
       <r>    -1.5015    54.3098   251.1722 </r>
       <r>    -1.3492    60.7714   260.4258 </r>
       <r>    -1.1970    71.0184   271.2397 </r>
       <r>    -1.0447    66.3135   281.3372 </r>
       <r>    -0.8924    78.4297   293.2796 </r>
       <r>    -0.7401    84.2578   306.1095 </r>
       <r>    -0.5879    98.0155   321.0342 </r>
       <r>    -0.4356   109.0619   337.6410 </r>
       <r>    -0.2833    80.8629   349.9539 </r>
       <r>    -0.1311    54.1344   358.1969 </r>
       <r>     0.0212    47.5671   365.4399 </r>
       <r>     0.1735    51.1015   373.2210 </r>
       <r>     0.3257    47.5905   380.4676 </r>
       <r>     0.4780    50.7917   388.2016 </r>
       <r>     0.6303    57.2948   396.9258 </r>
       <r>     0.7825    53.4543   405.0653 </r>
       <r>     0.9348    48.9447   412.5180 </r>
       <r>     1.0871    64.0311   422.2680 </r>
       <r>     1.2394    78.1410   434.1664 </r>
       <r>     1.3916    83.6075   446.8972 </r>
       <r>     1.5439    87.6679   460.2463 </r>
       <r>     1.6962    71.9673   471.2047 </r>
       <r>     1.8484    64.3483   481.0030 </r>
       <r>     2.0007    45.9604   488.0013 </r>
       <r>     2.1530    29.5888   492.5068 </r>
       <r>     2.3052    17.5770   495.1832 </r>
       <r>     2.4575     5.3545   495.9985 </r>
       <r>     2.6098     0.0097   496.0000 </r>
       <r>     2.7620     0.0000   496.0000 </r>
       <r>     2.9143     0.0000   496.0000 </r>
       <r>     3.0666     0.0000   496.0000 </r>
       <r>     3.2188     0.0000   496.0000 </r>
       <r>     3.3711     0.0000   496.0000 </r>
       <r>     3.5234     0.0000   496.0000 </r>
       <r>     3.6757     0.0000   496.0000 </r>
       <r>     3.8279     0.0000   496.0000 </r>
       <r>     3.9802     0.0000   496.0000 </r>
       <r>     4.1325     0.0000   496.0000 </r>
       <r>     4.2847     0.0168   496.0026 </r>
       <r>     4.4370     5.6952   496.8698 </r>
       <r>     4.5893    20.1440   499.9371 </r>
       <r>     4.7415    42.4527   506.4013 </r>
       <r>     4.8938    31.9738   511.2699 </r>
       <r>     5.0461    37.5365   516.9856 </r>
       <r>     5.1983    53.7959   525.1770 </r>
       <r>     5.3506    64.0253   534.9261 </r>
       <r>     5.5029    64.8614   544.8025 </r>
       <r>     5.6552    63.5256   554.4754 </r>
       <r>     5.8074    74.7678   565.8603 </r>
       <r>     5.9597    86.6448   579.0536 </r>
       <r>     6.1120    89.5772   592.6934 </r>
       <r>     6.2642    73.9164   603.9486 </r>
       <r>     6.4165    49.9762   611.5584 </r>
       <r>     6.5688    21.6177   614.8501 </r>
       <r>     6.7210    19.0761   617.7548 </r>
       <r>     6.8733    22.8572   621.2352 </r>
       <r>     7.0256    20.0730   624.2917 </r>
       <r>     7.1778    17.6263   626.9757 </r>
       <r>     7.3301    18.6772   629.8196 </r>
       <r>     7.4824    13.4766   631.8717 </r>
       <r>     7.6346    15.6153   634.2494 </r>
       <r>     7.7869    17.3690   636.8942 </r>
       <r>     7.9392    17.1486   639.5054 </r>
       <r>     8.0915    24.4356   643.2262 </r>
       <r>     8.2437    27.9114   647.4762 </r>
       <r>     8.3960    26.0373   651.4409 </r>
       <r>     8.5483    20.5835   654.5751 </r>
       <r>     8.7005    25.5454   658.4649 </r>
       <r>     8.8528    28.4248   662.7931 </r>
       <r>     9.0051    30.3392   667.4129 </r>
       <r>     9.1573    41.1031   673.6716 </r>
       <r>     9.3096    37.3105   679.3528 </r>
       <r>     9.4619    41.0128   685.5978 </r>
       <r>     9.6141    45.9862   692.6001 </r>
       <r>     9.7664    51.6170   700.4597 </r>
       <r>     9.9187    62.2847   709.9438 </r>
       <r>    10.0710    69.6484   720.5491 </r>
       <r>    10.2232    62.5451   730.0727 </r>
       <r>    10.3755    58.2442   738.9415 </r>
       <r>    10.5278    58.0897   747.7868 </r>
       <r>    10.6800    57.7367   756.5783 </r>
       <r>    10.8323    54.3682   764.8569 </r>
       <r>    10.9846    20.6273   767.9978 </r>
       <r>    11.1368     0.0146   768.0000 </r>
       <r>    11.2891     0.0000   768.0000 </r>
       <r>    11.4414     0.0000   768.0000 </r>
       <r>    11.5936     0.0000   768.0000 </r>
       <r>    11.7459     0.0000   768.0000 </r>
       <r>    11.8982     0.0000   768.0000 </r>
       <r>    12.0504     0.0000   768.0000 </r>
       <r>    12.2027     0.0000   768.0000 </r>
       <r>    12.3550     0.0000   768.0000 </r>
       <r>    12.5073     0.0000   768.0000 </r>
       <r>    12.6595     0.0000   768.0000 </r>
       <r>    12.8118     0.0000   768.0000 </r>
       <r>    12.9641     0.0000   768.0000 </r>
      </set>
     </set>
    </array>
   </total>
  </dos>
 </calculation>
 <structure name="finalpos" >
  <crystal>
   <varray name="basis" >
    <v>      11.25008877       0.01070444       0.00632835 </v>
    <v>       0.01083955      11.22317956       0.00111371 </v>
    <v>       0.00903978       0.00157809      15.93777552 </v>
   </varray>
   <i name="volume">   2012.32917762 </i>
   <varray name="rec_basis" >
    <v>       0.08888830      -0.00008584      -0.00005041 </v>
    <v>      -0.00008477       0.08910139      -0.00000877 </v>
    <v>      -0.00003529      -0.00000619       0.06274403 </v>
   </varray>
  </crystal>
  <varray name="positions" >
   <v>       0.00370335       0.25071152       0.12671278 </v>
   <v>       0.99759939       0.25305107       0.62414652 </v>
   <v>       0.00691574       0.75092787       0.12589939 </v>
   <v>       0.99705521       0.74592680       0.62844413 </v>
   <v>       0.49703385       0.24491922       0.12892562 </v>
   <v>       0.50457714       0.24166197       0.62771074 </v>
   <v>       0.49229321       0.75399490       0.12687994 </v>
   <v>       0.49945593       0.75878502       0.62865825 </v>
   <v>       0.00789283       0.24762090       0.37198677 </v>
   <v>       0.99047874       0.25689431       0.87834545 </v>
   <v>       0.99989184       0.75298567       0.36808615 </v>
   <v>       0.00248571       0.74302011       0.87878608 </v>
   <v>       0.49567284       0.24190165       0.36997814 </v>
   <v>       0.49988892       0.24238040       0.87339782 </v>
   <v>       0.50016832       0.75998123       0.36717645 </v>
   <v>       0.49410496       0.75439699       0.87762853 </v>
   <v>       0.25091839       0.99264927       0.12830973 </v>
   <v>       0.25225692       0.00126549       0.62241719 </v>
   <v>       0.24488306       0.50769434       0.12783481 </v>
   <v>       0.23760210       0.49848806       0.63489187 </v>
   <v>       0.75137541       0.00077771       0.12593351 </v>
   <v>       0.74690991       0.00524248       0.62707307 </v>
   <v>       0.75579510       0.50036240       0.12938751 </v>
   <v>       0.76556071       0.49865033       0.62908494 </v>
   <v>       0.25203999       0.00230319       0.36800939 </v>
   <v>       0.25251946       0.99346278       0.88168270 </v>
   <v>       0.24208155       0.49979729       0.36432187 </v>
   <v>       0.24018488       0.50384261       0.87617149 </v>
   <v>       0.75425962       0.00178519       0.37257499 </v>
   <v>       0.74253645       0.00607845       0.87319239 </v>
   <v>       0.76724724       0.50106582       0.37030598 </v>
   <v>       0.75440622       0.49689905       0.87168905 </v>
   <v>       0.00217689       0.00074966       0.00018925 </v>
   <v>      -0.00013209       0.50009045       0.00112342 </v>
   <v>       0.00576952       0.49848833       0.49927435 </v>
   <v>       0.49863097      -0.00029810       0.00107021 </v>
   <v>       0.50121884       0.00086056       0.49956018 </v>
   <v>       0.51448086       0.50573920       0.00212790 </v>
   <v>       0.53042064       0.49838263       0.49756620 </v>
   <v>       0.23513506       0.75742493       0.49951497 </v>
   <v>       0.74668085       0.24956859       0.99975527 </v>
   <v>       0.75759380       0.24487740       0.50006506 </v>
   <v>       0.75353113       0.75597067       0.99906093 </v>
   <v>       0.75928530       0.75821370       0.50039348 </v>
   <v>       0.25083693       0.75019212       0.75217174 </v>
   <v>       0.75002809       0.25119265       0.25094768 </v>
   <v>       0.75107586       0.75175665       0.24938919 </v>
   <v>       0.74326306       0.74656799       0.75061498 </v>
   <v>       0.00239411       0.00077029       0.25042038 </v>
   <v>       0.99110000       0.99035592       0.75106300 </v>
   <v>       0.00306101       0.49970291       0.24888951 </v>
   <v>       0.99784989       0.49594941       0.75159228 </v>
   <v>       0.49881094       0.00081854       0.24915214 </v>
   <v>       0.49663261       0.00148205       0.75081790 </v>
   <v>       0.49697109       0.50086487       0.24918422 </v>
   <v>       0.49750228       0.49909852       0.75485945 </v>
   <v>       0.99865002       0.00300579       0.49980695 </v>
   <v>       0.24141825       0.23873538       0.00081446 </v>
   <v>       0.23779699       0.23151434       0.49983552 </v>
   <v>       0.24639005       0.74852527       0.00148215 </v>
   <v>       0.25374881       0.25379543       0.24773338 </v>
   <v>       0.26354788       0.25892738       0.75101728 </v>
   <v>       0.25090360       0.75006537       0.24920438 </v>
   <v>       0.74780234       0.25195032       0.74869924 </v>
   <v>       0.11679876       0.13507162       0.24504518 </v>
   <v>       0.11457043       0.63293061       0.25016672 </v>
   <v>       0.11458781       0.63316033       0.75053531 </v>
   <v>       0.61535740       0.13657408       0.25099419 </v>
   <v>       0.61014822       0.13548254       0.74998590 </v>
   <v>       0.61448318       0.63614720       0.25415871 </v>
   <v>       0.60645927       0.63725223       0.74498068 </v>
   <v>       0.39090662       0.36813756       0.25525964 </v>
   <v>       0.39207344       0.36438471       0.74012804 </v>
   <v>       0.38743911       0.86686003       0.25001910 </v>
   <v>       0.39067513       0.85827641       0.75077730 </v>
   <v>       0.88459306       0.36602061       0.25123883 </v>
   <v>       0.88065029       0.36960287       0.74920942 </v>
   <v>       0.88477562       0.86369634       0.24779630 </v>
   <v>       0.88760030       0.86195648       0.75518976 </v>
   <v>       0.36706744       0.11562714       0.24736515 </v>
   <v>       0.35277858       0.10554665       0.75291398 </v>
   <v>       0.36756750       0.61486570       0.24470013 </v>
   <v>       0.36074459       0.60924468       0.75437824 </v>
   <v>       0.86391434       0.11661767       0.24543977 </v>
   <v>       0.87371607       0.11887498       0.75192789 </v>
   <v>       0.86467743       0.61513077       0.24959758 </v>
   <v>       0.86254076       0.61525930       0.75035049 </v>
   <v>       0.13320790       0.38528440       0.24811705 </v>
   <v>       0.12598671       0.37220038       0.75310950 </v>
   <v>       0.13431366       0.88563372       0.25296781 </v>
   <v>       0.14125328       0.89127698       0.74920131 </v>
   <v>       0.63542226       0.39042262       0.26256994 </v>
   <v>       0.63157229       0.39368307       0.73716932 </v>
   <v>       0.63646084       0.88601570       0.25248288 </v>
   <v>       0.63825721       0.88705760       0.74840867 </v>
   <v>       0.36809302       0.88125700       0.99952362 </v>
   <v>       0.36552645       0.87785802       0.50179371 </v>
   <v>       0.85397114       0.39177133       0.99873140 </v>
   <v>       0.85959182       0.39354439       0.50102478 </v>
   <v>       0.85995347       0.89252851       0.98797091 </v>
   <v>       0.85779738       0.89675476       0.50740900 </v>
   <v>       0.13807142       0.10849559       0.01059203 </v>
   <v>       0.14500722       0.09423788       0.49193062 </v>
   <v>       0.12977234       0.61359342       0.99889147 </v>
   <v>       0.15865613       0.59896646       0.50092542 </v>
   <v>       0.64170797       0.10733411       0.00041844 </v>
   <v>       0.64493423       0.10378555       0.49978589 </v>
   <v>       0.64101811       0.60791225       0.99951871 </v>
   <v>       0.65453949       0.60438535       0.50083903 </v>
   <v>       0.11168912       0.36592483       0.99761198 </v>
   <v>       0.11205136       0.35962940       0.50179831 </v>
   <v>       0.10762049       0.86426545       0.99467488 </v>
   <v>       0.10107966       0.85121487       0.50165710 </v>
   <v>       0.59058971       0.35066450      -0.00048166 </v>
   <v>       0.59959736       0.34881308       0.49871934 </v>
   <v>       0.61149172       0.85773344       0.99962895 </v>
   <v>       0.60987265       0.85408734       0.50020492 </v>
   <v>       0.39151171       0.13707559       0.99942794 </v>
   <v>       0.39539010       0.14106302       0.50308784 </v>
   <v>       0.37679580       0.60716333       0.99969432 </v>
   <v>       0.88728230       0.14252713       0.00059627 </v>
   <v>       0.89591376       0.14549578       0.50090555 </v>
   <v>       0.88610105       0.64159846       0.00029585 </v>
   <v>       0.90152535       0.64595213       0.50001999 </v>
   <v>       0.99364862       0.99239720       0.12254054 </v>
   <v>       0.01542833       0.01564521       0.63226518 </v>
   <v>       0.99593928       0.49902721       0.12479611 </v>
   <v>       0.00082933       0.50292852       0.62550060 </v>
   <v>       0.50376865       0.99747301       0.12523504 </v>
   <v>       0.50008776       0.99878106       0.62561416 </v>
   <v>       0.50341136       0.49172947       0.12499399 </v>
   <v>       0.45383685       0.51769039       0.59985336 </v>
   <v>       0.99229196       0.99960605       0.37265816 </v>
   <v>       0.02219716       0.02505241       0.86988755 </v>
   <v>       0.00094486       0.50064348       0.37557222 </v>
   <v>       0.99513701       0.50193325       0.87486461 </v>
   <v>       0.49813213       0.00037866       0.37576567 </v>
   <v>       0.50286801       0.99747292       0.87474511 </v>
   <v>       0.46481341       0.51760235       0.39065604 </v>
   <v>       0.49782749       0.48778199       0.87527786 </v>
   <v>       0.25991077       0.26061248       0.37963187 </v>
   <v>       0.26059261       0.26054530       0.87767280 </v>
   <v>       0.25954127       0.74242636       0.37964709 </v>
   <v>       0.25070468       0.74879945       0.87427781 </v>
   <v>       0.75489044       0.24710626       0.37613215 </v>
   <v>       0.74340458       0.25513382       0.87556415 </v>
   <v>       0.75708206       0.75295746       0.37641051 </v>
   <v>       0.74162672       0.74313739       0.87357140 </v>
   <v>       0.26919920       0.27668309       0.11770435 </v>
   <v>       0.24061999       0.24115618       0.62717750 </v>
   <v>       0.24808077       0.75263229       0.12381790 </v>
   <v>       0.25749174       0.74181767       0.62341719 </v>
   <v>       0.74301386       0.25925217       0.12576288 </v>
   <v>       0.74969719       0.24771728       0.62261129 </v>
   <v>       0.74912687       0.75239437       0.12370179 </v>
   <v>       0.75373261       0.74869396       0.62625137 </v>
  </varray>
 </structure>
</modeling>
