<?xml version="1.0" encoding="ISO-8859-1"?>
<modeling>
 <generator>
  <i name="program" type="string">vasp </i>
  <i name="version" type="string">5.4.1  </i>
  <i name="subversion" type="string">05Feb16 (build Jan 25 2017 20:16:33) complex                          parallel </i>
  <i name="platform" type="string">BWXE6 </i>
  <i name="date" type="string">2019 07 04 </i>
  <i name="time" type="string">07:19:22 </i>
 </generator>
 <incar>
  <i type="string" name="SYSTEM"> STF</i>
  <i type="string" name="PREC">normal</i>
  <i type="string" name="ALGO"> Fast</i>
  <i type="int" name="ISPIN">     2</i>
  <i type="int" name="NELM">    40</i>
  <i type="int" name="NELMIN">     8</i>
  <i type="int" name="IBRION">     2</i>
  <i name="EDIFF">      0.00010000</i>
  <i name="EDIFFG">     -0.03000000</i>
  <i type="int" name="NSW">    30</i>
  <i type="int" name="ISIF">     3</i>
  <i name="ENCUT">    520.00000000</i>
  <i type="int" name="NBANDS">   768</i>
  <v name="MAGMOM">      0.60000000      0.60000000      0.60000000      0.60000000      0.60000000      0.60000000      0.60000000      0.60000000      0.60000000      0.60000000      0.60000000      0.60000000      0.60000000      0.60000000      0.60000000      0.60000000      0.60000000      0.60000000      0.60000000      0.60000000
      0.60000000      0.60000000      0.60000000      0.60000000      0.60000000      0.60000000      0.60000000      0.60000000      0.60000000      0.60000000      0.60000000      0.60000000      0.60000000      0.60000000      0.60000000      0.60000000      0.60000000      0.60000000      0.60000000      0.60000000
      5.00000000      5.00000000      5.00000000      5.00000000      5.00000000      5.00000000      5.00000000      5.00000000      5.00000000      5.00000000      5.00000000      5.00000000      5.00000000      5.00000000      5.00000000      5.00000000      5.00000000      5.00000000      5.00000000      5.00000000
      5.00000000      5.00000000      5.00000000      5.00000000      0.60000000      0.60000000      0.60000000      0.60000000      0.60000000      0.60000000      0.60000000      0.60000000      0.60000000      0.60000000      0.60000000      0.60000000      0.60000000      0.60000000      0.60000000      0.60000000
      0.60000000      0.60000000      0.60000000      0.60000000      0.60000000      0.60000000      0.60000000      0.60000000      0.60000000      0.60000000      0.60000000      0.60000000      0.60000000      0.60000000      0.60000000      0.60000000      0.60000000      0.60000000      0.60000000      0.60000000
      0.60000000      0.60000000      0.60000000      0.60000000      0.60000000      0.60000000      0.60000000      0.60000000      0.60000000      0.60000000      0.60000000      0.60000000      0.60000000      0.60000000      0.60000000      0.60000000      0.60000000      0.60000000      0.60000000      0.60000000
      0.60000000      0.60000000      0.60000000      0.60000000      0.60000000      0.60000000      0.60000000      0.60000000      0.60000000      0.60000000      0.60000000      0.60000000      0.60000000      0.60000000      0.60000000      0.60000000      0.60000000      0.60000000      0.60000000      0.60000000
      0.60000000      0.60000000      0.60000000      0.60000000      0.60000000      0.60000000      0.60000000      0.60000000</v>
  <i type="string" name="LREAL"> Auto</i>
  <i type="int" name="ISMEAR">     0</i>
  <i name="SIGMA">      0.05000000</i>
  <i type="int" name="LMAXMIX">     4</i>
  <v type="int" name="KPOINT_BSE">    -1     0     0     0</v>
  <i type="int" name="NELM">    40</i>
  <i type="logical" name="LDAU"> T  </i>
  <v type="int" name="LDAUTYPE">     2</v>
  <v type="int" name="LDAUL">     0     2     2     0</v>
  <v name="LDAUU">      0.00000000      3.00000000      5.00000000      0.00000000</v>
  <v name="LDAUJ">      0.00000000      0.00000000      0.00000000      0.00000000</v>
  <i type="int" name="LDAUPRINT">     1</i>
 </incar>
 <kpoints>
  <generation param="Monkhorst-Pack">
   <v type="int" name="divisions">       2        2        2 </v>
   <v name="usershift">      0.00000000       0.00000000       0.00000000 </v>
   <v name="genvec1">      0.50000000      -0.00000000      -0.00000000 </v>
   <v name="genvec2">     -0.00000000       0.50000000       0.00000000 </v>
   <v name="genvec3">     -0.00000000      -0.00000000       0.50000000 </v>
   <v name="shift">      0.50000000       0.50000000       0.50000000 </v>
  </generation>
  <varray name="kpointlist" >
   <v>       0.25000000       0.25000000       0.25000000 </v>
   <v>      -0.25000000       0.25000000       0.25000000 </v>
   <v>       0.25000000      -0.25000000       0.25000000 </v>
   <v>      -0.25000000      -0.25000000       0.25000000 </v>
  </varray>
  <varray name="weights" >
   <v>       0.25000000 </v>
   <v>       0.25000000 </v>
   <v>       0.25000000 </v>
   <v>       0.25000000 </v>
  </varray>
 </kpoints>
 <parameters>
  <separator name="general" >
   <i type="string" name="SYSTEM">STF</i>
   <i type="logical" name="LCOMPAT"> F  </i>
  </separator>
  <separator name="electronic" >
   <i type="string" name="PREC">normal</i>
   <i name="ENMAX">    520.00000000</i>
   <i name="ENAUG">    605.39200000</i>
   <i name="EDIFF">      0.00010000</i>
   <i type="int" name="IALGO">    68</i>
   <i type="int" name="IWAVPR">    11</i>
   <i type="int" name="NBANDS">   768</i>
   <i name="NELECT">   1048.00000000</i>
   <i type="int" name="TURBO">     0</i>
   <i type="int" name="IRESTART">     0</i>
   <i type="int" name="NREBOOT">     0</i>
   <i type="int" name="NMIN">     0</i>
   <i name="EREF">      0.00000000</i>
   <separator name="electronic smearing" >
    <i type="int" name="ISMEAR">     0</i>
    <i name="SIGMA">      0.05000000</i>
    <i name="KSPACING">      0.50000000</i>
    <i type="logical" name="KGAMMA"> T  </i>
   </separator>
   <separator name="electronic projectors" >
    <i type="logical" name="LREAL"> T  </i>
    <v name="ROPT">     -0.00050000     -0.00050000     -0.00050000     -0.00050000</v>
    <i type="int" name="LMAXPAW">  -100</i>
    <i type="int" name="LMAXMIX">     4</i>
    <i type="logical" name="NLSPLINE"> F  </i>
   </separator>
   <separator name="electronic startup" >
    <i type="int" name="ISTART">     1</i>
    <i type="int" name="ICHARG">     0</i>
    <i type="int" name="INIWAV">     1</i>
   </separator>
   <separator name="electronic spin" >
    <i type="int" name="ISPIN">     2</i>
    <i type="logical" name="LNONCOLLINEAR"> F  </i>
    <v name="MAGMOM">      0.60000000      0.60000000      0.60000000      0.60000000      0.60000000      0.60000000      0.60000000      0.60000000      0.60000000      0.60000000      0.60000000      0.60000000      0.60000000      0.60000000      0.60000000      0.60000000      0.60000000      0.60000000      0.60000000      0.60000000
      0.60000000      0.60000000      0.60000000      0.60000000      0.60000000      0.60000000      0.60000000      0.60000000      0.60000000      0.60000000      0.60000000      0.60000000      0.60000000      0.60000000      0.60000000      0.60000000      0.60000000      0.60000000      0.60000000      0.60000000
      5.00000000      5.00000000      5.00000000      5.00000000      5.00000000      5.00000000      5.00000000      5.00000000      5.00000000      5.00000000      5.00000000      5.00000000      5.00000000      5.00000000      5.00000000      5.00000000      5.00000000      5.00000000      5.00000000      5.00000000
      5.00000000      5.00000000      5.00000000      5.00000000      0.60000000      0.60000000      0.60000000      0.60000000      0.60000000      0.60000000      0.60000000      0.60000000      0.60000000      0.60000000      0.60000000      0.60000000      0.60000000      0.60000000      0.60000000      0.60000000
      0.60000000      0.60000000      0.60000000      0.60000000      0.60000000      0.60000000      0.60000000      0.60000000      0.60000000      0.60000000      0.60000000      0.60000000      0.60000000      0.60000000      0.60000000      0.60000000      0.60000000      0.60000000      0.60000000      0.60000000
      0.60000000      0.60000000      0.60000000      0.60000000      0.60000000      0.60000000      0.60000000      0.60000000      0.60000000      0.60000000      0.60000000      0.60000000      0.60000000      0.60000000      0.60000000      0.60000000      0.60000000      0.60000000      0.60000000      0.60000000
      0.60000000      0.60000000      0.60000000      0.60000000      0.60000000      0.60000000      0.60000000      0.60000000      0.60000000      0.60000000      0.60000000      0.60000000      0.60000000      0.60000000      0.60000000      0.60000000      0.60000000      0.60000000      0.60000000      0.60000000
      0.60000000      0.60000000      0.60000000      0.60000000      0.60000000      0.60000000      0.60000000      0.60000000</v>
    <i name="NUPDOWN">     -1.00000000</i>
    <i type="logical" name="LSORBIT"> F  </i>
    <v name="SAXIS">      0.00000000      0.00000000      1.00000000</v>
    <i type="logical" name="LSPIRAL"> F  </i>
    <v name="QSPIRAL">      0.00000000      0.00000000      0.00000000</v>
    <i type="logical" name="LZEROZ"> F  </i>
   </separator>
   <separator name="electronic exchange-correlation" >
    <i type="logical" name="LASPH"> F  </i>
    <i type="logical" name="LMETAGGA"> F  </i>
   </separator>
   <separator name="electronic convergence" >
    <i type="int" name="NELM">    40</i>
    <i type="int" name="NELMDL">     0</i>
    <i type="int" name="NELMIN">     8</i>
    <i name="ENINI">    520.00000000</i>
    <separator name="electronic convergence detail" >
     <i type="logical" name="LDIAG"> T  </i>
     <i type="logical" name="LSUBROT"> F  </i>
     <i name="WEIMIN">      0.00100000</i>
     <i name="EBREAK">      0.00000003</i>
     <i name="DEPER">      0.30000000</i>
     <i type="int" name="NRMM">     4</i>
     <i name="TIME">      0.40000000</i>
    </separator>
   </separator>
   <separator name="electronic mixer" >
    <i name="AMIX">      0.40000000</i>
    <i name="BMIX">      1.00000000</i>
    <i name="AMIN">      0.10000000</i>
    <i name="AMIX_MAG">      1.60000000</i>
    <i name="BMIX_MAG">      1.00000000</i>
    <separator name="electronic mixer details" >
     <i type="int" name="IMIX">     4</i>
     <i type="logical" name="MIXFIRST"> F  </i>
     <i type="int" name="MAXMIX">   -45</i>
     <i name="WC">    100.00000000</i>
     <i type="int" name="INIMIX">     1</i>
     <i type="int" name="MIXPRE">     1</i>
     <i type="int" name="MREMOVE">     5</i>
    </separator>
   </separator>
   <separator name="electronic dipolcorrection" >
    <i type="logical" name="LDIPOL"> F  </i>
    <i type="logical" name="LMONO"> F  </i>
    <i type="int" name="IDIPOL">     0</i>
    <i name="EPSILON">      1.00000000</i>
    <v name="DIPOL">   -100.00000000   -100.00000000   -100.00000000</v>
    <i name="EFIELD">      0.00000000</i>
   </separator>
  </separator>
  <separator name="grids" >
   <i type="int" name="NGX">    64</i>
   <i type="int" name="NGY">    64</i>
   <i type="int" name="NGZ">    90</i>
   <i type="int" name="NGXF">   128</i>
   <i type="int" name="NGYF">   128</i>
   <i type="int" name="NGZF">   180</i>
   <i type="logical" name="ADDGRID"> F  </i>
  </separator>
  <separator name="ionic" >
   <i type="int" name="NSW">    30</i>
   <i type="int" name="IBRION">     2</i>
   <i type="int" name="ISIF">     3</i>
   <i name="PSTRESS">      0.00000000</i>
   <i name="EDIFFG">     -0.03000000</i>
   <i type="int" name="NFREE">     1</i>
   <i name="POTIM">      0.50000000</i>
   <i name="SMASS">     -3.00000000</i>
   <i name="SCALEE">      1.00000000</i>
  </separator>
  <separator name="ionic md" >
   <i name="TEBEG">      0.00010000</i>
   <i name="TEEND">      0.00010000</i>
   <i type="int" name="NBLOCK">     1</i>
   <i type="int" name="KBLOCK">    30</i>
   <i type="int" name="NPACO">   256</i>
   <i name="APACO">     16.00000000</i>
  </separator>
  <separator name="symmetry" >
   <i type="int" name="ISYM">     2</i>
   <i name="SYMPREC">      0.00001000</i>
  </separator>
  <separator name="dos" >
   <i type="logical" name="LORBIT"> F  </i>
   <v name="RWIGS">     -1.00000000     -1.00000000     -1.00000000     -1.00000000</v>
   <i type="int" name="NEDOS">   301</i>
   <i name="EMIN">     10.00000000</i>
   <i name="EMAX">    -10.00000000</i>
   <i name="EFERMI">      0.00000000</i>
  </separator>
  <separator name="writing" >
   <i type="int" name="NWRITE">     2</i>
   <i type="logical" name="LWAVE"> T  </i>
   <i type="logical" name="LCHARG"> T  </i>
   <i type="logical" name="LPARD"> F  </i>
   <i type="logical" name="LVTOT"> F  </i>
   <i type="logical" name="LVHAR"> F  </i>
   <i type="logical" name="LELF"> F  </i>
   <i type="logical" name="LOPTICS"> F  </i>
   <v name="STM">      0.00000000      0.00000000      0.00000000      0.00000000      0.00000000      0.00000000      0.00000000</v>
  </separator>
  <separator name="performance" >
   <i type="int" name="NPAR">     2</i>
   <i type="int" name="NSIM">     4</i>
   <i type="int" name="NBLK">    -1</i>
   <i type="logical" name="LPLANE"> T  </i>
   <i type="logical" name="LSCALAPACK"> T  </i>
   <i type="logical" name="LSCAAWARE"> F  </i>
   <i type="logical" name="LSCALU"> F  </i>
   <i type="logical" name="LASYNC"> F  </i>
   <i type="logical" name="LORBITALREAL"> F  </i>
  </separator>
  <separator name="miscellaneous" >
   <i type="int" name="IDIOT">     3</i>
   <i type="logical" name="LMUSIC"> F  </i>
   <v name="POMASS">     87.62000000     47.88000000     55.84700000     16.00000000</v>
   <v name="DARWINR">      0.00000000      0.00000000      0.00000000      0.00000000</v>
   <v name="DARWINV">      1.00000000      1.00000000      1.00000000      1.00000000</v>
   <i type="logical" name="LCORR"> T  </i>
  </separator>
  <i type="logical" name="GGA_COMPAT"> T  </i>
  <i type="logical" name="LBERRY"> F  </i>
  <i type="int" name="ICORELEVEL">     0</i>
  <i type="logical" name="LDAU"> T  </i>
  <v type="int" name="LDAUTYPE">     2</v>
  <v type="int" name="LDAUL">     0</v>
  <v name="LDAUU">      0.00000000</v>
  <v name="LDAUJ">      0.00000000</v>
  <i type="int" name="LDAUPRINT">     1</i>
  <i type="int" name="I_CONSTRAINED_M">     0</i>
  <separator name="electronic exchange-correlation" >
   <i type="string" name="GGA">--</i>
   <i type="int" name="VOSKOWN">     0</i>
   <i type="logical" name="LHFCALC"> F  </i>
   <i type="string" name="PRECFOCK"></i>
   <i type="logical" name="LSYMGRAD"> F  </i>
   <i type="logical" name="LHFONE"> F  </i>
   <i type="logical" name="LRHFCALC"> F  </i>
   <i type="logical" name="LTHOMAS"> F  </i>
   <i type="logical" name="LMODELHF"> F  </i>
   <i name="ENCUT4O">     -1.00000000</i>
   <i type="int" name="EXXOEP">     0</i>
   <i type="int" name="FOURORBIT">     0</i>
   <i name="AEXX">      0.00000000</i>
   <i name="HFALPHA">      0.00000000</i>
   <i name="MCALPHA">      0.00000000</i>
   <i name="ALDAX">      1.00000000</i>
   <i name="AGGAX">      1.00000000</i>
   <i name="ALDAC">      1.00000000</i>
   <i name="AGGAC">      1.00000000</i>
   <i type="int" name="NKREDX">     1</i>
   <i type="int" name="NKREDY">     1</i>
   <i type="int" name="NKREDZ">     1</i>
   <i type="logical" name="SHIFTRED"> F  </i>
   <i type="logical" name="ODDONLY"> F  </i>
   <i type="logical" name="EVENONLY"> F  </i>
   <i type="int" name="LMAXFOCK">     0</i>
   <i type="int" name="NMAXFOCKAE">     0</i>
   <i type="logical" name="LFOCKAEDFT"> F  </i>
   <i name="HFSCREEN">      0.00000000</i>
   <i name="HFSCREENC">      0.00000000</i>
   <i type="int" name="NBANDSGWLOW">     0</i>
  </separator>
  <separator name="vdW DFT" >
   <i type="logical" name="LUSE_VDW"> F  </i>
   <i name="Zab_VDW">     -0.84910000</i>
   <i name="PARAM1">      0.12340000</i>
   <i name="PARAM2">      1.00000000</i>
   <i name="PARAM3">      0.00000000</i>
  </separator>
  <separator name="model GW" >
   <i type="int" name="MODEL_GW">     0</i>
   <i name="MODEL_EPS0">      8.15992205</i>
   <i name="MODEL_ALPHA">      1.00000000</i>
  </separator>
  <separator name="linear response parameters" >
   <i type="logical" name="LEPSILON"> F  </i>
   <i type="logical" name="LRPA"> F  </i>
   <i type="logical" name="LNABLA"> F  </i>
   <i type="logical" name="LVEL"> F  </i>
   <i type="int" name="KINTER">     0</i>
   <i name="CSHIFT">      0.10000000</i>
   <i name="OMEGAMAX">     -1.00000000</i>
   <i name="DEG_THRESHOLD">      0.00200000</i>
  </separator>
  <separator name="orbital magnetization" >
   <i type="logical" name="NUCIND"> F  </i>
   <v name="MAGPOS">      0.00000000      0.00000000      0.00000000</v>
   <i type="logical" name="LNICSALL"> T  </i>
   <i type="logical" name="ORBITALMAG"> F  </i>
   <i type="logical" name="LMAGBLOCH"> F  </i>
   <i type="logical" name="LCHIMAG"> F  </i>
   <i type="logical" name="LGAUGE"> T  </i>
   <i type="int" name="MAGATOM">     0</i>
   <v name="MAGDIPOL">      0.00000000      0.00000000      0.00000000</v>
   <v name="AVECCONST">      0.00000000      0.00000000      0.00000000</v>
  </separator>
  <separator name="response functions" >
   <i type="logical" name="LADDER"> F  </i>
   <i type="logical" name="LFXC"> F  </i>
   <i type="logical" name="LHARTREE"> T  </i>
   <i type="int" name="IBSE">     0</i>
   <v type="int" name="KPOINT">    -1     0     0     0</v>
   <i type="logical" name="LTCTE"> F  </i>
   <i type="logical" name="LTETE"> F  </i>
   <i type="logical" name="LTRIPLET"> F  </i>
   <i type="logical" name="LFXCEPS"> F  </i>
   <i type="logical" name="LFXHEG"> F  </i>
   <i type="int" name="NATURALO">     0</i>
   <i type="logical" name="L2ORDER"> F  </i>
   <i type="logical" name="LUSEW"> F  </i>
   <i name="ENCUTGW">     -2.00000000</i>
   <i name="ENCUTGWSOFT">     -2.00000000</i>
   <i name="ENCUTLF">     -1.00000000</i>
   <i type="int" name="LMAXMP2">    -1</i>
   <i name="SCISSOR">      0.00000000</i>
   <i type="int" name="NOMEGA">     0</i>
   <i type="int" name="NOMEGAR">     0</i>
   <i type="int" name="NBANDSGW">    -1</i>
   <i type="int" name="NBANDSO">    -1</i>
   <i type="int" name="NBANDSV">    -1</i>
   <i type="int" name="NELM">    40</i>
   <i type="int" name="NELMHF">     1</i>
   <i type="int" name="DIM">     3</i>
   <i type="int" name="ANTIRES">     0</i>
   <i name="OMEGAMAX">    -30.00000000</i>
   <i name="OMEGAMIN">    -30.00000000</i>
   <i name="OMEGATL">   -200.00000000</i>
   <i type="int" name="OMEGAGRID">     0</i>
   <i name="CSHIFT">     -0.10000000</i>
   <i type="logical" name="SELFENERGY"> F  </i>
   <i type="logical" name="LSPECTRAL"> F  </i>
   <i type="logical" name="LSPECTRALGW"> F  </i>
   <i type="logical" name="LSINGLES"> F  </i>
   <i type="logical" name="LFERMIGW"> F  </i>
   <i type="logical" name="ODDONLYGW"> F  </i>
   <i type="logical" name="EVENONLYGW"> F  </i>
   <i type="int" name="NKREDLFX">     1</i>
   <i type="int" name="NKREDLFY">     1</i>
   <i type="int" name="NKREDLFZ">     1</i>
   <i type="int" name="MAXMEM">  1800</i>
   <i type="int" name="TELESCOPE">     0</i>
   <i type="int" name="TAUPAR">     1</i>
   <i type="int" name="OMEGAPAR">    -1</i>
   <i name="LAMBDA">      1.00000000</i>
  </separator>
  <separator name="External order field" >
   <i name="OFIELD_KAPPA">      0.00000000</i>
   <v name="OFIELD_K">      0.00000000      0.00000000      0.00000000</v>
   <i name="OFIELD_Q6_NEAR">      0.00000000</i>
   <i name="OFIELD_Q6_FAR">      0.00000000</i>
   <i name="OFIELD_A">      0.00000000</i>
  </separator>
 </parameters>
 <atominfo>
  <atoms>     148 </atoms>
  <types>       4 </types>
  <array name="atoms" >
   <dimension dim="1">ion</dimension>
   <field type="string">element</field>
   <field type="int">atomtype</field>
   <set>
    <rc><c>Sr</c><c>   1</c></rc>
    <rc><c>Sr</c><c>   1</c></rc>
    <rc><c>Sr</c><c>   1</c></rc>
    <rc><c>Sr</c><c>   1</c></rc>
    <rc><c>Sr</c><c>   1</c></rc>
    <rc><c>Sr</c><c>   1</c></rc>
    <rc><c>Sr</c><c>   1</c></rc>
    <rc><c>Sr</c><c>   1</c></rc>
    <rc><c>Sr</c><c>   1</c></rc>
    <rc><c>Sr</c><c>   1</c></rc>
    <rc><c>Sr</c><c>   1</c></rc>
    <rc><c>Sr</c><c>   1</c></rc>
    <rc><c>Sr</c><c>   1</c></rc>
    <rc><c>Sr</c><c>   1</c></rc>
    <rc><c>Sr</c><c>   1</c></rc>
    <rc><c>Sr</c><c>   1</c></rc>
    <rc><c>Sr</c><c>   1</c></rc>
    <rc><c>Sr</c><c>   1</c></rc>
    <rc><c>Sr</c><c>   1</c></rc>
    <rc><c>Sr</c><c>   1</c></rc>
    <rc><c>Sr</c><c>   1</c></rc>
    <rc><c>Sr</c><c>   1</c></rc>
    <rc><c>Sr</c><c>   1</c></rc>
    <rc><c>Sr</c><c>   1</c></rc>
    <rc><c>Sr</c><c>   1</c></rc>
    <rc><c>Sr</c><c>   1</c></rc>
    <rc><c>Sr</c><c>   1</c></rc>
    <rc><c>Sr</c><c>   1</c></rc>
    <rc><c>Sr</c><c>   1</c></rc>
    <rc><c>Sr</c><c>   1</c></rc>
    <rc><c>Sr</c><c>   1</c></rc>
    <rc><c>Sr</c><c>   1</c></rc>
    <rc><c>Ti</c><c>   2</c></rc>
    <rc><c>Ti</c><c>   2</c></rc>
    <rc><c>Ti</c><c>   2</c></rc>
    <rc><c>Ti</c><c>   2</c></rc>
    <rc><c>Ti</c><c>   2</c></rc>
    <rc><c>Ti</c><c>   2</c></rc>
    <rc><c>Ti</c><c>   2</c></rc>
    <rc><c>Ti</c><c>   2</c></rc>
    <rc><c>Fe</c><c>   3</c></rc>
    <rc><c>Fe</c><c>   3</c></rc>
    <rc><c>Fe</c><c>   3</c></rc>
    <rc><c>Fe</c><c>   3</c></rc>
    <rc><c>Fe</c><c>   3</c></rc>
    <rc><c>Fe</c><c>   3</c></rc>
    <rc><c>Fe</c><c>   3</c></rc>
    <rc><c>Fe</c><c>   3</c></rc>
    <rc><c>Fe</c><c>   3</c></rc>
    <rc><c>Fe</c><c>   3</c></rc>
    <rc><c>Fe</c><c>   3</c></rc>
    <rc><c>Fe</c><c>   3</c></rc>
    <rc><c>Fe</c><c>   3</c></rc>
    <rc><c>Fe</c><c>   3</c></rc>
    <rc><c>Fe</c><c>   3</c></rc>
    <rc><c>Fe</c><c>   3</c></rc>
    <rc><c>Fe</c><c>   3</c></rc>
    <rc><c>Fe</c><c>   3</c></rc>
    <rc><c>Fe</c><c>   3</c></rc>
    <rc><c>Fe</c><c>   3</c></rc>
    <rc><c>Fe</c><c>   3</c></rc>
    <rc><c>Fe</c><c>   3</c></rc>
    <rc><c>Fe</c><c>   3</c></rc>
    <rc><c>Fe</c><c>   3</c></rc>
    <rc><c>O </c><c>   4</c></rc>
    <rc><c>O </c><c>   4</c></rc>
    <rc><c>O </c><c>   4</c></rc>
    <rc><c>O </c><c>   4</c></rc>
    <rc><c>O </c><c>   4</c></rc>
    <rc><c>O </c><c>   4</c></rc>
    <rc><c>O </c><c>   4</c></rc>
    <rc><c>O </c><c>   4</c></rc>
    <rc><c>O </c><c>   4</c></rc>
    <rc><c>O </c><c>   4</c></rc>
    <rc><c>O </c><c>   4</c></rc>
    <rc><c>O </c><c>   4</c></rc>
    <rc><c>O </c><c>   4</c></rc>
    <rc><c>O </c><c>   4</c></rc>
    <rc><c>O </c><c>   4</c></rc>
    <rc><c>O </c><c>   4</c></rc>
    <rc><c>O </c><c>   4</c></rc>
    <rc><c>O </c><c>   4</c></rc>
    <rc><c>O </c><c>   4</c></rc>
    <rc><c>O </c><c>   4</c></rc>
    <rc><c>O </c><c>   4</c></rc>
    <rc><c>O </c><c>   4</c></rc>
    <rc><c>O </c><c>   4</c></rc>
    <rc><c>O </c><c>   4</c></rc>
    <rc><c>O </c><c>   4</c></rc>
    <rc><c>O </c><c>   4</c></rc>
    <rc><c>O </c><c>   4</c></rc>
    <rc><c>O </c><c>   4</c></rc>
    <rc><c>O </c><c>   4</c></rc>
    <rc><c>O </c><c>   4</c></rc>
    <rc><c>O </c><c>   4</c></rc>
    <rc><c>O </c><c>   4</c></rc>
    <rc><c>O </c><c>   4</c></rc>
    <rc><c>O </c><c>   4</c></rc>
    <rc><c>O </c><c>   4</c></rc>
    <rc><c>O </c><c>   4</c></rc>
    <rc><c>O </c><c>   4</c></rc>
    <rc><c>O </c><c>   4</c></rc>
    <rc><c>O </c><c>   4</c></rc>
    <rc><c>O </c><c>   4</c></rc>
    <rc><c>O </c><c>   4</c></rc>
    <rc><c>O </c><c>   4</c></rc>
    <rc><c>O </c><c>   4</c></rc>
    <rc><c>O </c><c>   4</c></rc>
    <rc><c>O </c><c>   4</c></rc>
    <rc><c>O </c><c>   4</c></rc>
    <rc><c>O </c><c>   4</c></rc>
    <rc><c>O </c><c>   4</c></rc>
    <rc><c>O </c><c>   4</c></rc>
    <rc><c>O </c><c>   4</c></rc>
    <rc><c>O </c><c>   4</c></rc>
    <rc><c>O </c><c>   4</c></rc>
    <rc><c>O </c><c>   4</c></rc>
    <rc><c>O </c><c>   4</c></rc>
    <rc><c>O </c><c>   4</c></rc>
    <rc><c>O </c><c>   4</c></rc>
    <rc><c>O </c><c>   4</c></rc>
    <rc><c>O </c><c>   4</c></rc>
    <rc><c>O </c><c>   4</c></rc>
    <rc><c>O </c><c>   4</c></rc>
    <rc><c>O </c><c>   4</c></rc>
    <rc><c>O </c><c>   4</c></rc>
    <rc><c>O </c><c>   4</c></rc>
    <rc><c>O </c><c>   4</c></rc>
    <rc><c>O </c><c>   4</c></rc>
    <rc><c>O </c><c>   4</c></rc>
    <rc><c>O </c><c>   4</c></rc>
    <rc><c>O </c><c>   4</c></rc>
    <rc><c>O </c><c>   4</c></rc>
    <rc><c>O </c><c>   4</c></rc>
    <rc><c>O </c><c>   4</c></rc>
    <rc><c>O </c><c>   4</c></rc>
    <rc><c>O </c><c>   4</c></rc>
    <rc><c>O </c><c>   4</c></rc>
    <rc><c>O </c><c>   4</c></rc>
    <rc><c>O </c><c>   4</c></rc>
    <rc><c>O </c><c>   4</c></rc>
    <rc><c>O </c><c>   4</c></rc>
    <rc><c>O </c><c>   4</c></rc>
    <rc><c>O </c><c>   4</c></rc>
    <rc><c>O </c><c>   4</c></rc>
    <rc><c>O </c><c>   4</c></rc>
    <rc><c>O </c><c>   4</c></rc>
    <rc><c>O </c><c>   4</c></rc>
   </set>
  </array>
  <array name="atomtypes" >
   <dimension dim="1">type</dimension>
   <field type="int">atomspertype</field>
   <field type="string">element</field>
   <field>mass</field>
   <field>valence</field>
   <field type="string">pseudopotential</field>
   <set>
    <rc><c>  32</c><c>Sr</c><c>     87.62000000</c><c>     10.00000000</c><c>  PAW_PBE Sr_sv 07Sep2000               </c></rc>
    <rc><c>   8</c><c>Ti</c><c>     47.88000000</c><c>      4.00000000</c><c>  PAW_PBE Ti 08Apr2002                  </c></rc>
    <rc><c>  24</c><c>Fe</c><c>     55.84700000</c><c>      8.00000000</c><c>  PAW_PBE Fe 06Sep2000                  </c></rc>
    <rc><c>  84</c><c>O </c><c>     16.00000000</c><c>      6.00000000</c><c>  PAW_PBE O 08Apr2002                   </c></rc>
   </set>
  </array>
 </atominfo>
 <structure name="initialpos" >
  <crystal>
   <varray name="basis" >
    <v>      11.26263384      -0.00278196       0.02052115 </v>
    <v>      -0.00229270      11.25722108       0.00767145 </v>
    <v>       0.02932432       0.01089920      15.87548499 </v>
   </varray>
   <i name="volume">   2012.78077313 </i>
   <varray name="rec_basis" >
    <v>       0.08878948       0.00001820      -0.00016402 </v>
    <v>       0.00002205       0.08883192      -0.00006103 </v>
    <v>      -0.00011478      -0.00004295       0.06299044 </v>
   </varray>
  </crystal>
  <varray name="positions" >
   <v>       0.00383724       0.24126495       0.11970405 </v>
   <v>       0.99926999       0.26587220       0.63719698 </v>
   <v>       0.98830749       0.75988498       0.12666568 </v>
   <v>       0.00867579       0.73972455       0.62662246 </v>
   <v>       0.49029319       0.26137711       0.11930617 </v>
   <v>       0.48529507       0.25316155       0.62793404 </v>
   <v>       0.49834166       0.71897224       0.13286615 </v>
   <v>       0.49470485       0.74425696       0.60907969 </v>
   <v>       0.00378128       0.23550310       0.37383408 </v>
   <v>       0.00444692       0.24546032       0.88268321 </v>
   <v>       0.99674811       0.74702537       0.37427730 </v>
   <v>       0.01870903       0.75286259       0.88174511 </v>
   <v>       0.47506875       0.27445738       0.37595661 </v>
   <v>       0.49535626       0.24822750       0.87409586 </v>
   <v>       0.49844498       0.72292668       0.37481366 </v>
   <v>       0.49083197       0.74668672       0.88447170 </v>
   <v>       0.21690860       0.99812331       0.12949363 </v>
   <v>       0.24964396       0.00395847       0.61286337 </v>
   <v>       0.26305994       0.48732204       0.12177501 </v>
   <v>       0.24268882       0.50503861       0.62295887 </v>
   <v>       0.75910339       0.99706168       0.12628572 </v>
   <v>       0.75379441       0.99042859       0.62694857 </v>
   <v>       0.74063451       0.50278282       0.12397321 </v>
   <v>       0.75618455       0.52044709       0.62834542 </v>
   <v>       0.22383324       0.98371852       0.36822157 </v>
   <v>       0.23876978       0.00421439       0.88761705 </v>
   <v>       0.25490816       0.50630731       0.37504524 </v>
   <v>       0.24217686       0.49540635       0.88076852 </v>
   <v>       0.76089139       0.97663917       0.37963812 </v>
   <v>       0.77646848       0.00395677       0.87071424 </v>
   <v>       0.74497440       0.50898357       0.37368979 </v>
   <v>       0.75125762       0.49072696       0.87462047 </v>
   <v>       0.00342180       0.98963912       0.50281301 </v>
   <v>       0.00034265       0.50806177       0.50009654 </v>
   <v>       0.50646867       0.00947963       0.99175503 </v>
   <v>       0.75287759       0.25247555       0.99346790 </v>
   <v>       0.75436981       0.26276913       0.51629190 </v>
   <v>       0.25121498       0.77321927       0.74962230 </v>
   <v>       0.75143698       0.25057158       0.23742768 </v>
   <v>       0.74163091       0.74896394       0.24976050 </v>
   <v>       0.99904630       0.99731207       0.99988854 </v>
   <v>       0.00799989       0.48782066       0.00263130 </v>
   <v>       0.50035656       0.97834758       0.49390338 </v>
   <v>       0.50311467       0.49602174       0.99709038 </v>
   <v>       0.49624659       0.49833826       0.50243933 </v>
   <v>       0.24538340       0.24621888       0.00173133 </v>
   <v>       0.22614708       0.26028232       0.50140409 </v>
   <v>       0.24018798       0.73938158       0.01021151 </v>
   <v>       0.25094086       0.74731599       0.49509007 </v>
   <v>       0.72413893       0.76541728       0.99926789 </v>
   <v>       0.74709719       0.74399175       0.50062148 </v>
   <v>       0.26145576       0.22425352       0.25059684 </v>
   <v>       0.25161798       0.26047466       0.75276522 </v>
   <v>       0.23404478       0.72702792       0.24494060 </v>
   <v>       0.75412961       0.24295280       0.75317431 </v>
   <v>       0.76926790       0.75589816       0.75559225 </v>
   <v>       0.98870535       0.99651251       0.25132563 </v>
   <v>       0.99632374       0.00080071       0.74778555 </v>
   <v>       0.98089033       0.50636879       0.24719626 </v>
   <v>       0.99348373       0.49644988       0.75719762 </v>
   <v>       0.51888083       0.02142227       0.27399108 </v>
   <v>       0.48828103       0.00601978       0.74525800 </v>
   <v>       0.49680193       0.49170583       0.25212964 </v>
   <v>       0.50090788       0.47111848       0.74928475 </v>
   <v>       0.10976506       0.13355206       0.25105213 </v>
   <v>       0.13471648       0.58639958       0.23811837 </v>
   <v>       0.14507433       0.63729241       0.75628906 </v>
   <v>       0.61718354       0.12790713       0.21807386 </v>
   <v>       0.64298258       0.06314004       0.75190042 </v>
   <v>       0.62760930       0.61688190       0.25158924 </v>
   <v>       0.37578338       0.36178674       0.24692978 </v>
   <v>       0.34910156       0.40005508       0.75095045 </v>
   <v>       0.58783046       0.86942582       0.25657053 </v>
   <v>       0.41899136       0.84250825       0.74383618 </v>
   <v>       0.88325071       0.36104293       0.26681611 </v>
   <v>       0.85447720       0.38376896       0.74866138 </v>
   <v>       0.85416010       0.87948247       0.25058559 </v>
   <v>       0.88312709       0.87827361       0.74207893 </v>
   <v>       0.36126330       0.07519913       0.25168332 </v>
   <v>       0.37326434       0.12721947       0.74586892 </v>
   <v>       0.37827681       0.62533971       0.25006036 </v>
   <v>       0.85318465       0.12086600       0.26657606 </v>
   <v>       0.89882328       0.13983910       0.75737920 </v>
   <v>       0.87293169       0.63354713       0.24655442 </v>
   <v>       0.86596517       0.62332213       0.75169734 </v>
   <v>       0.10631974       0.35911313       0.76343809 </v>
   <v>       0.11344267       0.86120581       0.24590701 </v>
   <v>       0.15359575       0.90887909       0.74381541 </v>
   <v>       0.63466258       0.36328470       0.27226437 </v>
   <v>       0.60230245       0.33911052       0.75023932 </v>
   <v>       0.38098096       0.36404052       0.98886766 </v>
   <v>       0.36480474       0.36664905       0.51396961 </v>
   <v>       0.35675560       0.89649490       0.48520442 </v>
   <v>       0.87131330       0.37470559       0.98379937 </v>
   <v>       0.85334339       0.39286641       0.50714951 </v>
   <v>       0.87174747       0.85263802       0.99059268 </v>
   <v>       0.86570500       0.88272291       0.51253472 </v>
   <v>       0.11804887       0.12649614       0.00604070 </v>
   <v>       0.13806711       0.10852284       0.48930734 </v>
   <v>       0.11011288       0.63247059       0.01515863 </v>
   <v>       0.13406475       0.61479867       0.50011563 </v>
   <v>       0.62079567       0.12069429       0.01394515 </v>
   <v>       0.84248681       0.13559282       0.47293101 </v>
   <v>       0.65511919       0.61198217       0.99696360 </v>
   <v>       0.63695476       0.60487646       0.49973825 </v>
   <v>       0.13120690       0.37715160       0.99465406 </v>
   <v>       0.09621934       0.36258709       0.50122572 </v>
   <v>       0.13443115       0.87758708       0.00331347 </v>
   <v>       0.11269017       0.86185792       0.50909404 </v>
   <v>       0.62262039       0.36757185       0.99066048 </v>
   <v>       0.60598209       0.33044233       0.49397911 </v>
   <v>       0.57498875       0.86179177       0.02103469 </v>
   <v>       0.61776767       0.86305828       0.49583723 </v>
   <v>       0.37834973       0.62612006       0.00206953 </v>
   <v>       0.37984397       0.62933340       0.49898288 </v>
   <v>       0.86625019       0.11905638       0.99852625 </v>
   <v>       0.88366201       0.63796902       0.51353500 </v>
   <v>       0.98239154       0.99735423       0.12609178 </v>
   <v>       0.00408392       0.02870122       0.62360087 </v>
   <v>       0.97192125       0.48202291       0.12345404 </v>
   <v>       0.00842272       0.50398109       0.62969723 </v>
   <v>       0.36788344       0.08384617       0.02764730 </v>
   <v>       0.49377094       0.03458344       0.60499076 </v>
   <v>       0.50872315       0.48779179       0.12389056 </v>
   <v>       0.50968989       0.52230378       0.63708667 </v>
   <v>       0.99570487       0.98505977       0.37861067 </v>
   <v>       0.01351100       0.00126952       0.87111506 </v>
   <v>       0.99579490       0.50800240       0.37652712 </v>
   <v>       0.98929588       0.52838060       0.88266598 </v>
   <v>       0.54025460       0.06290015       0.39213973 </v>
   <v>       0.48076655       0.99611724       0.87802398 </v>
   <v>       0.49143505       0.49560377       0.37885671 </v>
   <v>       0.51301649       0.53256393       0.85786264 </v>
   <v>       0.24613701       0.25828047       0.37348046 </v>
   <v>       0.24771027       0.22522882       0.87410656 </v>
   <v>       0.24672276       0.75114429       0.36808570 </v>
   <v>       0.26527728       0.76480612       0.87640030 </v>
   <v>       0.73442729       0.23089951       0.87436884 </v>
   <v>       0.75237961       0.74515172       0.37543971 </v>
   <v>       0.70677745       0.77941829       0.86503891 </v>
   <v>       0.24186110       0.25845333       0.12980904 </v>
   <v>       0.22847056       0.23179245       0.62983019 </v>
   <v>       0.28336510       0.77975142       0.12806851 </v>
   <v>       0.26274618       0.74729650       0.62850621 </v>
   <v>       0.76433319       0.26914381       0.12179959 </v>
   <v>       0.74304127       0.22310117       0.62798879 </v>
   <v>       0.74396167       0.75463297       0.12444102 </v>
   <v>       0.70610019       0.75348282       0.64624494 </v>
  </varray>
 </structure>
 <calculation>
  <scstep>
   <time name="dav">  577.22  577.24</time>
   <time name="total">  584.50  584.54</time>
   <energy>
    <i name="alphaZ">   5583.03081210 </i>
    <i name="ewald"> -62656.44048720 </i>
    <i name="hartreedc"> -18957.93486983 </i>
    <i name="XCdc">   3407.17180752 </i>
    <i name="pawpsdc"> 117626.49560630 </i>
    <i name="pawaedc">-117132.54551292 </i>
    <i name="eentropy">     -0.00000000 </i>
    <i name="bandstr">  -7176.66333328 </i>
    <i name="atom">  78316.90445604 </i>
    <i name="e_fr_energy">   -989.98152127 </i>
    <i name="e_wo_entrp">   -989.98152127 </i>
    <i name="e_0_energy">   -989.98152127 </i>
   </energy>
  </scstep>
  <scstep>
   <time name="diag">   64.71   64.71</time>
   <time name="diis">   48.67   48.68</time>
   <time name="orth">   33.44   33.44</time>
   <time name="total">  154.09  154.17</time>
   <energy>
    <i name="e_fr_energy">   -989.98152142 </i>
    <i name="e_wo_entrp">   -989.98152142 </i>
    <i name="e_0_energy">   -989.98152142 </i>
   </energy>
  </scstep>
  <scstep>
   <time name="diag">   64.68   64.68</time>
   <time name="diis">   43.91   43.93</time>
   <time name="orth">   33.44   33.44</time>
   <time name="total">  149.30  149.45</time>
   <energy>
    <i name="e_fr_energy">   -989.98152145 </i>
    <i name="e_wo_entrp">   -989.98152145 </i>
    <i name="e_0_energy">   -989.98152145 </i>
   </energy>
  </scstep>
  <scstep>
   <time name="diag">   64.78   64.79</time>
   <time name="diis">   40.67   40.68</time>
   <time name="orth">   33.46   33.46</time>
   <time name="total">  146.19  146.23</time>
   <energy>
    <i name="e_fr_energy">   -989.98152147 </i>
    <i name="e_wo_entrp">   -989.98152147 </i>
    <i name="e_0_energy">   -989.98152147 </i>
   </energy>
  </scstep>
  <scstep>
   <time name="diag">   64.74   64.74</time>
   <time name="diis">   39.84   39.84</time>
   <time name="orth">   33.44   33.44</time>
   <time name="total">  145.30  145.35</time>
   <energy>
    <i name="e_fr_energy">   -989.98152147 </i>
    <i name="e_wo_entrp">   -989.98152147 </i>
    <i name="e_0_energy">   -989.98152147 </i>
   </energy>
  </scstep>
  <scstep>
   <time name="diag">   64.77   64.78</time>
   <time name="diis">   39.56   39.56</time>
   <time name="orth">   33.47   33.47</time>
   <time name="total">  145.06  145.15</time>
   <energy>
    <i name="e_fr_energy">   -989.98152147 </i>
    <i name="e_wo_entrp">   -989.98152147 </i>
    <i name="e_0_energy">   -989.98152147 </i>
   </energy>
  </scstep>
  <scstep>
   <time name="diag">   64.87   64.87</time>
   <time name="diis">   39.53   39.54</time>
   <time name="orth">   33.44   33.47</time>
   <time name="total">  145.10  145.17</time>
   <energy>
    <i name="e_fr_energy">   -989.98152147 </i>
    <i name="e_wo_entrp">   -989.98152147 </i>
    <i name="e_0_energy">   -989.98152147 </i>
   </energy>
  </scstep>
  <scstep>
   <time name="diag">   64.91   64.97</time>
   <time name="diis">   39.35   39.36</time>
   <time name="orth">   33.48   33.48</time>
   <time name="total">  138.77  138.93</time>
   <energy>
    <i name="alphaZ">   5583.03081210 </i>
    <i name="ewald"> -62656.44048720 </i>
    <i name="hartreedc"> -18957.93045752 </i>
    <i name="XCdc">   3407.17143228 </i>
    <i name="pawpsdc"> 117626.03383349 </i>
    <i name="pawaedc">-117132.08305579 </i>
    <i name="eentropy">     -0.00000000 </i>
    <i name="bandstr">  -7176.66805487 </i>
    <i name="atom">  78316.90445604 </i>
    <i name="e_fr_energy">   -989.98152147 </i>
    <i name="e_wo_entrp">   -989.98152147 </i>
    <i name="e_0_energy">   -989.98152147 </i>
   </energy>
  </scstep>
  <structure>
   <crystal>
    <varray name="basis" >
     <v>      11.26263384      -0.00278196       0.02052115 </v>
     <v>      -0.00229270      11.25722108       0.00767145 </v>
     <v>       0.02932432       0.01089920      15.87548499 </v>
    </varray>
    <i name="volume">   2012.78077313 </i>
    <varray name="rec_basis" >
     <v>       0.08878948       0.00001820      -0.00016402 </v>
     <v>       0.00002205       0.08883192      -0.00006103 </v>
     <v>      -0.00011478      -0.00004295       0.06299044 </v>
    </varray>
   </crystal>
   <varray name="positions" >
    <v>       0.00383724       0.24126495       0.11970405 </v>
    <v>       0.99926999       0.26587220       0.63719698 </v>
    <v>       0.98830749       0.75988498       0.12666568 </v>
    <v>       0.00867579       0.73972455       0.62662246 </v>
    <v>       0.49029319       0.26137711       0.11930617 </v>
    <v>       0.48529507       0.25316155       0.62793404 </v>
    <v>       0.49834166       0.71897224       0.13286615 </v>
    <v>       0.49470485       0.74425696       0.60907969 </v>
    <v>       0.00378128       0.23550310       0.37383408 </v>
    <v>       0.00444692       0.24546032       0.88268321 </v>
    <v>       0.99674811       0.74702537       0.37427730 </v>
    <v>       0.01870903       0.75286259       0.88174511 </v>
    <v>       0.47506875       0.27445738       0.37595661 </v>
    <v>       0.49535626       0.24822750       0.87409586 </v>
    <v>       0.49844498       0.72292668       0.37481366 </v>
    <v>       0.49083197       0.74668672       0.88447170 </v>
    <v>       0.21690860       0.99812331       0.12949363 </v>
    <v>       0.24964396       0.00395847       0.61286337 </v>
    <v>       0.26305994       0.48732204       0.12177501 </v>
    <v>       0.24268882       0.50503861       0.62295887 </v>
    <v>       0.75910339       0.99706168       0.12628572 </v>
    <v>       0.75379441       0.99042859       0.62694857 </v>
    <v>       0.74063451       0.50278282       0.12397321 </v>
    <v>       0.75618455       0.52044709       0.62834542 </v>
    <v>       0.22383324       0.98371852       0.36822157 </v>
    <v>       0.23876978       0.00421439       0.88761705 </v>
    <v>       0.25490816       0.50630731       0.37504524 </v>
    <v>       0.24217686       0.49540635       0.88076852 </v>
    <v>       0.76089139       0.97663917       0.37963812 </v>
    <v>       0.77646848       0.00395677       0.87071424 </v>
    <v>       0.74497440       0.50898357       0.37368979 </v>
    <v>       0.75125762       0.49072696       0.87462047 </v>
    <v>       0.00342180       0.98963912       0.50281301 </v>
    <v>       0.00034265       0.50806177       0.50009654 </v>
    <v>       0.50646867       0.00947963       0.99175503 </v>
    <v>       0.75287759       0.25247555       0.99346790 </v>
    <v>       0.75436981       0.26276913       0.51629190 </v>
    <v>       0.25121498       0.77321927       0.74962230 </v>
    <v>       0.75143698       0.25057158       0.23742768 </v>
    <v>       0.74163091       0.74896394       0.24976050 </v>
    <v>       0.99904630       0.99731207       0.99988854 </v>
    <v>       0.00799989       0.48782066       0.00263130 </v>
    <v>       0.50035656       0.97834758       0.49390338 </v>
    <v>       0.50311467       0.49602174       0.99709038 </v>
    <v>       0.49624659       0.49833826       0.50243933 </v>
    <v>       0.24538340       0.24621888       0.00173133 </v>
    <v>       0.22614708       0.26028232       0.50140409 </v>
    <v>       0.24018798       0.73938158       0.01021151 </v>
    <v>       0.25094086       0.74731599       0.49509007 </v>
    <v>       0.72413893       0.76541728       0.99926789 </v>
    <v>       0.74709719       0.74399175       0.50062148 </v>
    <v>       0.26145576       0.22425352       0.25059684 </v>
    <v>       0.25161798       0.26047466       0.75276522 </v>
    <v>       0.23404478       0.72702792       0.24494060 </v>
    <v>       0.75412961       0.24295280       0.75317431 </v>
    <v>       0.76926790       0.75589816       0.75559225 </v>
    <v>       0.98870535       0.99651251       0.25132563 </v>
    <v>       0.99632374       0.00080071       0.74778555 </v>
    <v>       0.98089033       0.50636879       0.24719626 </v>
    <v>       0.99348373       0.49644988       0.75719762 </v>
    <v>       0.51888083       0.02142227       0.27399108 </v>
    <v>       0.48828103       0.00601978       0.74525800 </v>
    <v>       0.49680193       0.49170583       0.25212964 </v>
    <v>       0.50090788       0.47111848       0.74928475 </v>
    <v>       0.10976506       0.13355206       0.25105213 </v>
    <v>       0.13471648       0.58639958       0.23811837 </v>
    <v>       0.14507433       0.63729241       0.75628906 </v>
    <v>       0.61718354       0.12790713       0.21807386 </v>
    <v>       0.64298258       0.06314004       0.75190042 </v>
    <v>       0.62760930       0.61688190       0.25158924 </v>
    <v>       0.37578338       0.36178674       0.24692978 </v>
    <v>       0.34910156       0.40005508       0.75095045 </v>
    <v>       0.58783046       0.86942582       0.25657053 </v>
    <v>       0.41899136       0.84250825       0.74383618 </v>
    <v>       0.88325071       0.36104293       0.26681611 </v>
    <v>       0.85447720       0.38376896       0.74866138 </v>
    <v>       0.85416010       0.87948247       0.25058559 </v>
    <v>       0.88312709       0.87827361       0.74207893 </v>
    <v>       0.36126330       0.07519913       0.25168332 </v>
    <v>       0.37326434       0.12721947       0.74586892 </v>
    <v>       0.37827681       0.62533971       0.25006036 </v>
    <v>       0.85318465       0.12086600       0.26657606 </v>
    <v>       0.89882328       0.13983910       0.75737920 </v>
    <v>       0.87293169       0.63354713       0.24655442 </v>
    <v>       0.86596517       0.62332213       0.75169734 </v>
    <v>       0.10631974       0.35911313       0.76343809 </v>
    <v>       0.11344267       0.86120581       0.24590701 </v>
    <v>       0.15359575       0.90887909       0.74381541 </v>
    <v>       0.63466258       0.36328470       0.27226437 </v>
    <v>       0.60230245       0.33911052       0.75023932 </v>
    <v>       0.38098096       0.36404052       0.98886766 </v>
    <v>       0.36480474       0.36664905       0.51396961 </v>
    <v>       0.35675560       0.89649490       0.48520442 </v>
    <v>       0.87131330       0.37470559       0.98379937 </v>
    <v>       0.85334339       0.39286641       0.50714951 </v>
    <v>       0.87174747       0.85263802       0.99059268 </v>
    <v>       0.86570500       0.88272291       0.51253472 </v>
    <v>       0.11804887       0.12649614       0.00604070 </v>
    <v>       0.13806711       0.10852284       0.48930734 </v>
    <v>       0.11011288       0.63247059       0.01515863 </v>
    <v>       0.13406475       0.61479867       0.50011563 </v>
    <v>       0.62079567       0.12069429       0.01394515 </v>
    <v>       0.84248681       0.13559282       0.47293101 </v>
    <v>       0.65511919       0.61198217       0.99696360 </v>
    <v>       0.63695476       0.60487646       0.49973825 </v>
    <v>       0.13120690       0.37715160       0.99465406 </v>
    <v>       0.09621934       0.36258709       0.50122572 </v>
    <v>       0.13443115       0.87758708       0.00331347 </v>
    <v>       0.11269017       0.86185792       0.50909404 </v>
    <v>       0.62262039       0.36757185       0.99066048 </v>
    <v>       0.60598209       0.33044233       0.49397911 </v>
    <v>       0.57498875       0.86179177       0.02103469 </v>
    <v>       0.61776767       0.86305828       0.49583723 </v>
    <v>       0.37834973       0.62612006       0.00206953 </v>
    <v>       0.37984397       0.62933340       0.49898288 </v>
    <v>       0.86625019       0.11905638       0.99852625 </v>
    <v>       0.88366201       0.63796902       0.51353500 </v>
    <v>       0.98239154       0.99735423       0.12609178 </v>
    <v>       0.00408392       0.02870122       0.62360087 </v>
    <v>       0.97192125       0.48202291       0.12345404 </v>
    <v>       0.00842272       0.50398109       0.62969723 </v>
    <v>       0.36788344       0.08384617       0.02764730 </v>
    <v>       0.49377094       0.03458344       0.60499076 </v>
    <v>       0.50872315       0.48779179       0.12389056 </v>
    <v>       0.50968989       0.52230378       0.63708667 </v>
    <v>       0.99570487       0.98505977       0.37861067 </v>
    <v>       0.01351100       0.00126952       0.87111506 </v>
    <v>       0.99579490       0.50800240       0.37652712 </v>
    <v>       0.98929588       0.52838060       0.88266598 </v>
    <v>       0.54025460       0.06290015       0.39213973 </v>
    <v>       0.48076655       0.99611724       0.87802398 </v>
    <v>       0.49143505       0.49560377       0.37885671 </v>
    <v>       0.51301649       0.53256393       0.85786264 </v>
    <v>       0.24613701       0.25828047       0.37348046 </v>
    <v>       0.24771027       0.22522882       0.87410656 </v>
    <v>       0.24672276       0.75114429       0.36808570 </v>
    <v>       0.26527728       0.76480612       0.87640030 </v>
    <v>       0.73442729       0.23089951       0.87436884 </v>
    <v>       0.75237961       0.74515172       0.37543971 </v>
    <v>       0.70677745       0.77941829       0.86503891 </v>
    <v>       0.24186110       0.25845333       0.12980904 </v>
    <v>       0.22847056       0.23179245       0.62983019 </v>
    <v>       0.28336510       0.77975142       0.12806851 </v>
    <v>       0.26274618       0.74729650       0.62850621 </v>
    <v>       0.76433319       0.26914381       0.12179959 </v>
    <v>       0.74304127       0.22310117       0.62798879 </v>
    <v>       0.74396167       0.75463297       0.12444102 </v>
    <v>       0.70610019       0.75348282       0.64624494 </v>
   </varray>
  </structure>
  <varray name="forces" >
   <v>      -0.00054441      -0.01206502       0.00733315 </v>
   <v>      -0.00345488      -0.00010833       0.00349869 </v>
   <v>       0.00469473       0.00612748      -0.00707413 </v>
   <v>      -0.00409247       0.00769850      -0.02038096 </v>
   <v>       0.00476178      -0.00478680       0.00867776 </v>
   <v>       0.00835446      -0.01617480      -0.00782508 </v>
   <v>       0.00020124      -0.00205651      -0.00553437 </v>
   <v>      -0.01003589      -0.00449115      -0.00513009 </v>
   <v>       0.01245082       0.00704304      -0.00419088 </v>
   <v>       0.00400314       0.00085418      -0.01239575 </v>
   <v>       0.01562989      -0.00342909      -0.00489220 </v>
   <v>      -0.00178107       0.00511992      -0.00315016 </v>
   <v>      -0.00180344      -0.00777004      -0.00683476 </v>
   <v>       0.01554886       0.00385834      -0.00943038 </v>
   <v>       0.00128129      -0.01055987       0.01953613 </v>
   <v>       0.00720801       0.00186681      -0.00236875 </v>
   <v>      -0.00888581       0.00775917       0.00828947 </v>
   <v>      -0.00818642       0.00021272       0.00544561 </v>
   <v>       0.00713799       0.00511515      -0.00517179 </v>
   <v>       0.00707453       0.02209472       0.00955827 </v>
   <v>       0.01052545       0.01256662       0.00495398 </v>
   <v>       0.00294356      -0.01545414      -0.00216827 </v>
   <v>      -0.00444284       0.00743172      -0.00937638 </v>
   <v>       0.00287395       0.00675673       0.00028950 </v>
   <v>      -0.00646897      -0.00125427       0.00513147 </v>
   <v>      -0.01767048      -0.01259804      -0.00130275 </v>
   <v>      -0.02028373       0.01683572      -0.00016779 </v>
   <v>       0.00032659       0.00150480      -0.00723473 </v>
   <v>      -0.01499502       0.01236074       0.00441798 </v>
   <v>      -0.01951240      -0.00471628      -0.00462851 </v>
   <v>      -0.00877333       0.00232749       0.01047187 </v>
   <v>      -0.00307738       0.00412235      -0.00652078 </v>
   <v>      -0.02600479      -0.01137254       0.00177029 </v>
   <v>      -0.00959691       0.01193868      -0.00792617 </v>
   <v>      -0.06431525      -0.01085309      -0.07375729 </v>
   <v>      -0.00292457       0.02734461      -0.03684215 </v>
   <v>       0.03768128       0.01728456      -0.00039006 </v>
   <v>       0.04360121      -0.02962398      -0.02330452 </v>
   <v>       0.03354783       0.00934206       0.03714200 </v>
   <v>      -0.01213903      -0.01175383       0.00013776 </v>
   <v>       0.01918601       0.00451053       0.00784344 </v>
   <v>      -0.00102537      -0.02447296       0.03535247 </v>
   <v>      -0.00005671      -0.02612759       0.02243664 </v>
   <v>      -0.00064326      -0.01866462       0.00829198 </v>
   <v>      -0.02168946       0.02141713       0.01247251 </v>
   <v>      -0.01857966      -0.00196817       0.00001388 </v>
   <v>      -0.00287269      -0.00399795       0.01295275 </v>
   <v>      -0.00609838       0.00946200      -0.00399809 </v>
   <v>       0.01218520       0.00754205       0.02237269 </v>
   <v>       0.00241841      -0.00537499      -0.00373730 </v>
   <v>       0.02331987       0.00741422       0.00539688 </v>
   <v>      -0.00716692      -0.00092826      -0.00188156 </v>
   <v>      -0.00606540       0.01099596       0.00348993 </v>
   <v>      -0.00574307       0.00373895       0.00625400 </v>
   <v>       0.00149237       0.00246356       0.01443958 </v>
   <v>       0.02118839       0.00670712      -0.02551897 </v>
   <v>       0.00504049      -0.01615347      -0.01327157 </v>
   <v>       0.00891486       0.00859847      -0.01562201 </v>
   <v>      -0.00899693      -0.01630985       0.00191293 </v>
   <v>      -0.00913710      -0.00168380      -0.02088689 </v>
   <v>      -0.01575305       0.01618255       0.01124094 </v>
   <v>      -0.00229140      -0.02651837      -0.00110760 </v>
   <v>       0.00385037       0.01387443      -0.00625773 </v>
   <v>      -0.01105578      -0.02089264      -0.00797622 </v>
   <v>       0.00417290      -0.00250135      -0.00116027 </v>
   <v>       0.01119185       0.00748267      -0.00874534 </v>
   <v>      -0.00675545      -0.02049168       0.00639056 </v>
   <v>       0.00699535      -0.01357853       0.01572373 </v>
   <v>      -0.00980964      -0.00475642       0.00099646 </v>
   <v>       0.00543732       0.01700281       0.01084755 </v>
   <v>      -0.01687171       0.00232562      -0.00283755 </v>
   <v>       0.01182352       0.00211958      -0.00703828 </v>
   <v>      -0.02097193       0.00001493       0.00105700 </v>
   <v>      -0.00516005       0.00532780       0.00541119 </v>
   <v>      -0.01551769      -0.00289096      -0.01104045 </v>
   <v>      -0.00210088       0.00305042       0.00215033 </v>
   <v>       0.02406357       0.01354919       0.00204533 </v>
   <v>      -0.03134753      -0.03499640       0.00471713 </v>
   <v>      -0.00208960       0.00431658      -0.02839198 </v>
   <v>      -0.01159520       0.02603543       0.01224945 </v>
   <v>       0.00348034      -0.00593490      -0.00412962 </v>
   <v>       0.01622706       0.01234143       0.00859997 </v>
   <v>       0.00490067       0.00228187      -0.01633400 </v>
   <v>       0.01091381       0.00247192       0.00369905 </v>
   <v>       0.00053572       0.01279290       0.00739940 </v>
   <v>       0.00135320       0.00378255      -0.00289483 </v>
   <v>      -0.02087989       0.00800763      -0.00240584 </v>
   <v>      -0.01991547       0.03881229       0.01048354 </v>
   <v>      -0.00458316      -0.00803984      -0.01597817 </v>
   <v>      -0.01324224       0.02153038      -0.00497718 </v>
   <v>      -0.01303415      -0.00805738       0.00278546 </v>
   <v>       0.00477847      -0.00870647       0.00214770 </v>
   <v>       0.01251411      -0.00990857       0.00087053 </v>
   <v>      -0.02145935      -0.01439158       0.00146462 </v>
   <v>      -0.01176596      -0.02982020      -0.00083560 </v>
   <v>      -0.01553484       0.00045415      -0.00118180 </v>
   <v>       0.01072416      -0.00921034       0.00488835 </v>
   <v>       0.01455736       0.01669204      -0.01268265 </v>
   <v>       0.01059702       0.01396391      -0.00083627 </v>
   <v>      -0.00497027       0.00076709      -0.00712932 </v>
   <v>      -0.02389128       0.00562227      -0.00775322 </v>
   <v>       0.04329320       0.04148371       0.00241417 </v>
   <v>       0.02526337      -0.02270003       0.01940627 </v>
   <v>       0.00022237       0.01437634      -0.00605635 </v>
   <v>      -0.01128576      -0.00438603      -0.00206624 </v>
   <v>      -0.00151573       0.01197813       0.01355310 </v>
   <v>       0.03320361      -0.00040723       0.00554367 </v>
   <v>       0.02118305      -0.01224330      -0.00573367 </v>
   <v>       0.00143178       0.00028327      -0.00164506 </v>
   <v>       0.00937481      -0.00815570      -0.00904183 </v>
   <v>       0.01489810      -0.01397379      -0.02318533 </v>
   <v>       0.01995847      -0.02115870       0.01495448 </v>
   <v>      -0.00803779       0.02829485      -0.00364358 </v>
   <v>      -0.01482551       0.00010001      -0.00104941 </v>
   <v>      -0.00219541      -0.01439406       0.00478623 </v>
   <v>      -0.01020908       0.00900987      -0.00652516 </v>
   <v>      -0.01271232      -0.00926803      -0.00492459 </v>
   <v>      -0.00339694       0.00835506       0.03231854 </v>
   <v>       0.02077263      -0.00721896       0.01374009 </v>
   <v>      -0.00724623       0.01081053      -0.00687213 </v>
   <v>      -0.00171185       0.00629841       0.00372738 </v>
   <v>       0.04598241      -0.01983652       0.00386150 </v>
   <v>       0.00451838      -0.00652974       0.00400608 </v>
   <v>      -0.00533076       0.00737356       0.00896905 </v>
   <v>      -0.00020333      -0.00438433       0.00418391 </v>
   <v>       0.01356670      -0.00221562      -0.02707617 </v>
   <v>       0.00264971      -0.00922052       0.01147452 </v>
   <v>       0.00328850       0.00369320       0.00583067 </v>
   <v>      -0.00027613       0.00739812      -0.00100930 </v>
   <v>      -0.00371094      -0.01325898      -0.01699670 </v>
   <v>      -0.00406353       0.00662261       0.06940992 </v>
   <v>       0.00100227      -0.00730527      -0.00782685 </v>
   <v>      -0.01188399       0.01035817       0.00110528 </v>
   <v>      -0.00294454       0.00853591      -0.02197636 </v>
   <v>      -0.00724909      -0.00777188       0.00591261 </v>
   <v>       0.00295612       0.00550662      -0.00059487 </v>
   <v>       0.00777436       0.01124301       0.01036588 </v>
   <v>       0.00066195      -0.01767132       0.03148905 </v>
   <v>       0.00357261       0.00088283      -0.01651800 </v>
   <v>      -0.00767471      -0.00763959       0.01282508 </v>
   <v>      -0.00124895      -0.01027904       0.01172081 </v>
   <v>       0.01372436       0.00251273      -0.01035319 </v>
   <v>       0.01617641       0.00616559      -0.01248220 </v>
   <v>      -0.00479916       0.01239698       0.00026816 </v>
   <v>      -0.01005554      -0.00435429      -0.00535205 </v>
   <v>      -0.01106373      -0.01253040      -0.01688809 </v>
   <v>      -0.00629730      -0.01657506       0.00832960 </v>
   <v>       0.01041474       0.00402547       0.01717818 </v>
  </varray>
  <varray name="stress" >
   <v>      -0.08110849      -0.13810022      -0.03689416 </v>
   <v>      -0.13810049      -0.14990619      -0.06347332 </v>
   <v>      -0.03689432      -0.06347334      -0.14063771 </v>
  </varray>
  <energy>
   <i name="e_fr_energy">   -989.98152147 </i>
   <i name="e_wo_entrp">   -989.98152147 </i>
   <i name="e_0_energy">     -0.00000000 </i>
  </energy>
  <time name="totalsc"> 1869.96 1872.34</time>
 </calculation>
 <calculation>
  <scstep>
   <time name="dav">  569.97  569.99</time>
   <time name="total">  577.22  577.30</time>
   <energy>
    <i name="alphaZ">   5583.88061609 </i>
    <i name="ewald"> -62659.04959245 </i>
    <i name="hartreedc"> -18959.30654805 </i>
    <i name="XCdc">   3407.38837626 </i>
    <i name="pawpsdc"> 117626.03299100 </i>
    <i name="pawaedc">-117132.08221353 </i>
    <i name="eentropy">     -0.00000000 </i>
    <i name="bandstr">  -7173.74727099 </i>
    <i name="atom">  78316.90445604 </i>
    <i name="e_fr_energy">   -989.97918564 </i>
    <i name="e_wo_entrp">   -989.97918564 </i>
    <i name="e_0_energy">   -989.97918564 </i>
   </energy>
  </scstep>
  <scstep>
   <time name="diag">   64.84   64.85</time>
   <time name="diis">  104.05  104.06</time>
   <time name="orth">   33.48   33.48</time>
   <time name="total">  209.64  209.71</time>
   <energy>
    <i name="e_fr_energy">   -989.98251793 </i>
    <i name="e_wo_entrp">   -989.98251793 </i>
    <i name="e_0_energy">   -989.98251793 </i>
   </energy>
  </scstep>
  <scstep>
   <time name="diag">   64.80   64.81</time>
   <time name="diis">  104.79  104.80</time>
   <time name="orth">   33.47   33.47</time>
   <time name="total">  210.33  210.41</time>
   <energy>
    <i name="e_fr_energy">   -989.98275726 </i>
    <i name="e_wo_entrp">   -989.98275726 </i>
    <i name="e_0_energy">   -989.98275726 </i>
   </energy>
  </scstep>
  <scstep>
   <time name="diag">   64.82   64.85</time>
   <time name="diis">   79.81   79.81</time>
   <time name="orth">   33.47   33.47</time>
   <time name="total">  185.38  185.47</time>
   <energy>
    <i name="e_fr_energy">   -989.98260762 </i>
    <i name="e_wo_entrp">   -989.98260762 </i>
    <i name="e_0_energy">   -989.98260762 </i>
   </energy>
  </scstep>
  <scstep>
   <time name="diag">   64.82   64.82</time>
   <time name="diis">   73.74   73.76</time>
   <time name="orth">   33.47   33.47</time>
   <time name="total">  179.28  179.43</time>
   <energy>
    <i name="e_fr_energy">   -989.98257006 </i>
    <i name="e_wo_entrp">   -989.98257006 </i>
    <i name="e_0_energy">   -989.98257006 </i>
   </energy>
  </scstep>
  <scstep>
   <time name="diag">   64.81   64.82</time>
   <time name="diis">   64.69   64.69</time>
   <time name="orth">   33.45   33.45</time>
   <time name="total">  170.21  170.26</time>
   <energy>
    <i name="e_fr_energy">   -989.98257204 </i>
    <i name="e_wo_entrp">   -989.98257204 </i>
    <i name="e_0_energy">   -989.98257204 </i>
   </energy>
  </scstep>
  <scstep>
   <time name="diag">   64.90   64.91</time>
   <time name="diis">   63.08   63.10</time>
   <time name="orth">   33.40   33.40</time>
   <time name="total">  168.65  168.75</time>
   <energy>
    <i name="e_fr_energy">   -989.98257247 </i>
    <i name="e_wo_entrp">   -989.98257247 </i>
    <i name="e_0_energy">   -989.98257247 </i>
   </energy>
  </scstep>
  <scstep>
   <time name="diag">   64.91   64.91</time>
   <time name="diis">   61.74   61.74</time>
   <time name="orth">   33.37   33.37</time>
   <time name="total">  161.06  161.10</time>
   <energy>
    <i name="alphaZ">   5583.88061609 </i>
    <i name="ewald"> -62659.04959245 </i>
    <i name="hartreedc"> -18956.97142097 </i>
    <i name="XCdc">   3407.23439207 </i>
    <i name="pawpsdc"> 117657.31418012 </i>
    <i name="pawaedc">-117163.39534013 </i>
    <i name="eentropy">     -0.00000000 </i>
    <i name="bandstr">  -7175.89986468 </i>
    <i name="atom">  78316.90445604 </i>
    <i name="e_fr_energy">   -989.98257391 </i>
    <i name="e_wo_entrp">   -989.98257391 </i>
    <i name="e_0_energy">   -989.98257391 </i>
   </energy>
  </scstep>
  <structure>
   <crystal>
    <varray name="basis" >
     <v>      11.26225961      -0.00341925       0.02034988 </v>
     <v>      -0.00292936      11.25652997       0.00737844 </v>
     <v>       0.02908288       0.01048423      15.87456997 </v>
    </varray>
    <i name="volume">   2012.47445047 </i>
    <varray name="rec_basis" >
     <v>       0.08879243       0.00002321      -0.00016269 </v>
     <v>       0.00002708       0.08883737      -0.00005872 </v>
     <v>      -0.00011384      -0.00004132       0.06299407 </v>
    </varray>
   </crystal>
   <varray name="positions" >
    <v>       0.00383484       0.24121322       0.11972637 </v>
    <v>       0.99925517       0.26587172       0.63720763 </v>
    <v>       0.98832766       0.75991126       0.12664414 </v>
    <v>       0.00865843       0.73975760       0.62656053 </v>
    <v>       0.49031351       0.26135657       0.11933252 </v>
    <v>       0.48533090       0.25309226       0.62791025 </v>
    <v>       0.49834256       0.71896344       0.13284934 </v>
    <v>       0.49466190       0.74423772       0.60906417 </v>
    <v>       0.00383466       0.23553331       0.37382126 </v>
    <v>       0.00446417       0.24546403       0.88264552 </v>
    <v>       0.99681510       0.74701070       0.37426236 </v>
    <v>       0.01870144       0.75288454       0.88173554 </v>
    <v>       0.47506107       0.27442410       0.37593586 </v>
    <v>       0.49542294       0.24824408       0.87406711 </v>
    <v>       0.49845031       0.72288137       0.37487304 </v>
    <v>       0.49086287       0.74669473       0.88446446 </v>
    <v>       0.21687048       0.99815652       0.12951885 </v>
    <v>       0.24960885       0.00395936       0.61287996 </v>
    <v>       0.26309056       0.48734398       0.12175924 </v>
    <v>       0.24271907       0.50513328       0.62298783 </v>
    <v>       0.75914845       0.99711553       0.12630069 </v>
    <v>       0.75380703       0.99036237       0.62694200 </v>
    <v>       0.74061556       0.50281469       0.12394473 </v>
    <v>       0.75619687       0.52047605       0.62834627 </v>
    <v>       0.22380548       0.98371312       0.36823720 </v>
    <v>       0.23869409       0.00416038       0.88761321 </v>
    <v>       0.25482129       0.50637944       0.37504481 </v>
    <v>       0.24217832       0.49541282       0.88074653 </v>
    <v>       0.76082713       0.97669211       0.37965160 </v>
    <v>       0.77638494       0.00393655       0.87070029 </v>
    <v>       0.74493674       0.50899350       0.37372166 </v>
    <v>       0.75124450       0.49074464       0.87460066 </v>
    <v>       0.00331039       0.98959035       0.50281856 </v>
    <v>       0.00030162       0.50811295       0.50007249 </v>
    <v>       0.50619375       0.00943326       0.99153128 </v>
    <v>       0.75286538       0.25259284       0.99335590 </v>
    <v>       0.75453123       0.26284324       0.51629047 </v>
    <v>       0.25140190       0.77309243       0.74955130 </v>
    <v>       0.75158040       0.25061154       0.23754034 </v>
    <v>       0.74157890       0.74891355       0.24976101 </v>
    <v>       0.99912843       0.99733140       0.99991226 </v>
    <v>       0.00799519       0.48771568       0.00273878 </v>
    <v>       0.50035611       0.97823554       0.49397161 </v>
    <v>       0.50311183       0.49594173       0.99711562 </v>
    <v>       0.49615361       0.49842998       0.50247731 </v>
    <v>       0.24530382       0.24621043       0.00173148 </v>
    <v>       0.22613467       0.26026514       0.50144348 </v>
    <v>       0.24016189       0.73942214       0.01019938 </v>
    <v>       0.25099288       0.74734826       0.49515798 </v>
    <v>       0.72414932       0.76539426       0.99925653 </v>
    <v>       0.74719704       0.74402353       0.50063773 </v>
    <v>       0.26142507       0.22424954       0.25059117 </v>
    <v>       0.25159198       0.26052176       0.75277584 </v>
    <v>       0.23402013       0.72704391       0.24495963 </v>
    <v>       0.75413589       0.24296332       0.75321817 </v>
    <v>       0.76935886       0.75592700       0.75551458 </v>
    <v>       0.98872704       0.99644333       0.25128531 </v>
    <v>       0.99636205       0.00083761       0.74773801 </v>
    <v>       0.98085176       0.50629888       0.24720216 </v>
    <v>       0.99344476       0.49644272       0.75713420 </v>
    <v>       0.51881328       0.02149157       0.27402529 </v>
    <v>       0.48827120       0.00590613       0.74525470 </v>
    <v>       0.49681849       0.49176531       0.25211058 </v>
    <v>       0.50086057       0.47102895       0.74926062 </v>
    <v>       0.10978294       0.13354135       0.25104858 </v>
    <v>       0.13476450       0.58643169       0.23809171 </v>
    <v>       0.14504533       0.63720457       0.75630856 </v>
    <v>       0.61721336       0.12784890       0.21812163 </v>
    <v>       0.64294055       0.06311964       0.75190351 </v>
    <v>       0.62763252       0.61695474       0.25162213 </v>
    <v>       0.37571114       0.36179670       0.24692124 </v>
    <v>       0.34915226       0.40006419       0.75092899 </v>
    <v>       0.58774062       0.86942586       0.25657386 </v>
    <v>       0.41896922       0.84253106       0.74385265 </v>
    <v>       0.88318433       0.36103055       0.26678266 </v>
    <v>       0.85446819       0.38378202       0.74866792 </v>
    <v>       0.85426317       0.87954056       0.25059164 </v>
    <v>       0.88299275       0.87812358       0.74209351 </v>
    <v>       0.36125458       0.07521771       0.25159705 </v>
    <v>       0.37321460       0.12733100       0.74590615 </v>
    <v>       0.37829174       0.62531429       0.25004781 </v>
    <v>       0.85325410       0.12091888       0.26660208 </v>
    <v>       0.89884441       0.13984893       0.75732953 </v>
    <v>       0.87297841       0.63355772       0.24656559 </v>
    <v>       0.86596742       0.62337693       0.75171980 </v>
    <v>       0.10632556       0.35912935       0.76342928 </v>
    <v>       0.11335325       0.86124011       0.24589980 </v>
    <v>       0.15351040       0.90904537       0.74384730 </v>
    <v>       0.63464307       0.36325029       0.27221586 </v>
    <v>       0.60224579       0.33920279       0.75022423 </v>
    <v>       0.38092510       0.36400597       0.98887621 </v>
    <v>       0.36482518       0.36661174       0.51397613 </v>
    <v>       0.35680919       0.89645245       0.48520702 </v>
    <v>       0.87122136       0.37464389       0.98380397 </v>
    <v>       0.85329297       0.39273860       0.50714710 </v>
    <v>       0.87168094       0.85263996       0.99058917 </v>
    <v>       0.86575089       0.88268344       0.51254953 </v>
    <v>       0.11811134       0.12656772       0.00600204 </v>
    <v>       0.13811252       0.10858269       0.48930472 </v>
    <v>       0.11009164       0.63247390       0.01513699 </v>
    <v>       0.13396248       0.61482276       0.50009219 </v>
    <v>       0.62098113       0.12087211       0.01395216 </v>
    <v>       0.84259485       0.13549551       0.47298989 </v>
    <v>       0.65512021       0.61204380       0.99694516 </v>
    <v>       0.63690643       0.60485766       0.49973205 </v>
    <v>       0.13120031       0.37720289       0.99469523 </v>
    <v>       0.09636152       0.36258537       0.50124238 </v>
    <v>       0.13452192       0.87753465       0.00329595 </v>
    <v>       0.11269632       0.86185914       0.50908904 </v>
    <v>       0.62266062       0.36753694       0.99063297 </v>
    <v>       0.60604608       0.33038253       0.49390861 </v>
    <v>       0.57507410       0.86170107       0.02108007 </v>
    <v>       0.61773329       0.86317954       0.49582614 </v>
    <v>       0.37828623       0.62612048       0.00206643 </v>
    <v>       0.37983452       0.62927169       0.49899747 </v>
    <v>       0.86620652       0.11909500       0.99850646 </v>
    <v>       0.88360759       0.63792931       0.51352013 </v>
    <v>       0.98237674       0.99738994       0.12619000 </v>
    <v>       0.00417279       0.02867026       0.62364253 </v>
    <v>       0.97189027       0.48206925       0.12343317 </v>
    <v>       0.00841536       0.50400807       0.62970855 </v>
    <v>       0.36808036       0.08376119       0.02765882 </v>
    <v>       0.49379025       0.03455545       0.60500293 </v>
    <v>       0.50870025       0.48782336       0.12391783 </v>
    <v>       0.50968898       0.52228497       0.63709940 </v>
    <v>       0.99576319       0.98505036       0.37852832 </v>
    <v>       0.01352225       0.00122997       0.87114994 </v>
    <v>       0.99580895       0.50801821       0.37654481 </v>
    <v>       0.98929472       0.52841231       0.88266289 </v>
    <v>       0.54023883       0.06284337       0.39208813 </v>
    <v>       0.48074860       0.99614541       0.87823492 </v>
    <v>       0.49143940       0.49557249       0.37883293 </v>
    <v>       0.51296559       0.53260831       0.85786604 </v>
    <v>       0.24612457       0.25831712       0.37341368 </v>
    <v>       0.24767917       0.22519549       0.87412459 </v>
    <v>       0.24673544       0.75116789       0.36808386 </v>
    <v>       0.26531051       0.76485428       0.87643174 </v>
    <v>       0.73442986       0.23082369       0.87446456 </v>
    <v>       0.75239505       0.74515555       0.37538949 </v>
    <v>       0.70674446       0.77938551       0.86507794 </v>
    <v>       0.24185565       0.25840924       0.12984469 </v>
    <v>       0.22852943       0.23180326       0.62979865 </v>
    <v>       0.28343450       0.77977790       0.12803048 </v>
    <v>       0.26272563       0.74734962       0.62850703 </v>
    <v>       0.76429016       0.26912515       0.12178339 </v>
    <v>       0.74299400       0.22304751       0.62793756 </v>
    <v>       0.74393462       0.75456191       0.12446640 </v>
    <v>       0.70614467       0.75350003       0.64629708 </v>
   </varray>
  </structure>
  <varray name="forces" >
   <v>      -0.01122113      -0.01175201       0.00665980 </v>
   <v>       0.00184556      -0.00107741       0.00013396 </v>
   <v>      -0.00202542       0.00231352      -0.00363224 </v>
   <v>      -0.00287427       0.00639117      -0.00812653 </v>
   <v>       0.01687958      -0.01738506       0.00915297 </v>
   <v>       0.00892652      -0.01254952      -0.01227600 </v>
   <v>       0.00070034       0.00883622      -0.00774199 </v>
   <v>       0.00607649      -0.00589898      -0.00435703 </v>
   <v>       0.01866511      -0.00233023      -0.00552567 </v>
   <v>       0.00138715       0.00150883      -0.00334288 </v>
   <v>       0.01342283       0.00383037      -0.01644629 </v>
   <v>      -0.00471472       0.00200937      -0.00272712 </v>
   <v>      -0.00218890      -0.00336221      -0.00818861 </v>
   <v>       0.01253453       0.00746420       0.00075136 </v>
   <v>       0.00317061      -0.00414812       0.00367359 </v>
   <v>       0.01392959      -0.01178205       0.01179398 </v>
   <v>       0.00253592       0.00626795       0.01140253 </v>
   <v>      -0.01231268       0.01009055       0.00389897 </v>
   <v>       0.00928644       0.00396460      -0.00469022 </v>
   <v>       0.00303925       0.00635937       0.00344367 </v>
   <v>      -0.00810295       0.01995522      -0.00464110 </v>
   <v>      -0.00199135      -0.00525590       0.00104832 </v>
   <v>      -0.00627135       0.00155636      -0.00971160 </v>
   <v>      -0.00338881       0.00399922       0.00443965 </v>
   <v>      -0.00479884       0.00531869       0.00010759 </v>
   <v>      -0.02459466      -0.01000584      -0.00625938 </v>
   <v>      -0.01439337       0.00642342      -0.00535990 </v>
   <v>      -0.00240238       0.00455875       0.00097785 </v>
   <v>      -0.01524140       0.01057905      -0.01315046 </v>
   <v>      -0.01128489      -0.00893799       0.01582219 </v>
   <v>      -0.01772707      -0.00144413       0.00477217 </v>
   <v>      -0.00174948       0.01533037      -0.00163103 </v>
   <v>       0.00874861       0.02750750      -0.02917667 </v>
   <v>       0.01063774      -0.02290240      -0.00412884 </v>
   <v>       0.14600823       0.01307275       0.16748180 </v>
   <v>      -0.01340413      -0.03534735       0.03983094 </v>
   <v>      -0.03510320      -0.06082313      -0.01430748 </v>
   <v>      -0.03831939       0.02809130       0.01311308 </v>
   <v>      -0.00518512      -0.00249393      -0.02579646 </v>
   <v>       0.00127944       0.02185105      -0.01009318 </v>
   <v>      -0.00977075       0.01057690       0.00650736 </v>
   <v>      -0.01058155      -0.00162419       0.00262320 </v>
   <v>      -0.00102517       0.01742019      -0.01290034 </v>
   <v>      -0.00172499      -0.00613261       0.00445141 </v>
   <v>      -0.01410861      -0.00892864      -0.00007235 </v>
   <v>      -0.00597338       0.00959032       0.00544427 </v>
   <v>       0.01316904      -0.00639707       0.00211084 </v>
   <v>       0.00469140      -0.00482559       0.00074668 </v>
   <v>       0.00147754       0.00883419      -0.00596821 </v>
   <v>      -0.00521568       0.00694654      -0.00281276 </v>
   <v>      -0.00438795       0.00638643      -0.00904603 </v>
   <v>       0.00022388      -0.00027204      -0.00090789 </v>
   <v>      -0.00504759       0.00598740       0.00128703 </v>
   <v>       0.00522013       0.00587658      -0.00866181 </v>
   <v>      -0.00179107       0.00477460       0.00371706 </v>
   <v>      -0.00983068      -0.00646059       0.02924567 </v>
   <v>      -0.00052948      -0.00968231       0.00040122 </v>
   <v>      -0.00485690      -0.01844555       0.00417074 </v>
   <v>      -0.00328458       0.00569980      -0.00727636 </v>
   <v>      -0.00514645       0.00993345       0.00576269 </v>
   <v>      -0.00725066      -0.00037222      -0.00625425 </v>
   <v>      -0.01320867       0.01382919      -0.01281962 </v>
   <v>      -0.00513440      -0.00380871      -0.00091516 </v>
   <v>      -0.00420785       0.01132370       0.00999257 </v>
   <v>       0.00085828      -0.00149161      -0.00074540 </v>
   <v>      -0.00349333      -0.00110062      -0.00444563 </v>
   <v>       0.01745536      -0.00148201      -0.00583098 </v>
   <v>       0.01402969      -0.00531952       0.02180949 </v>
   <v>      -0.01921896      -0.00729025       0.00473228 </v>
   <v>      -0.00074336       0.00214558       0.01168394 </v>
   <v>      -0.00710002       0.01038986      -0.00339883 </v>
   <v>      -0.00988285      -0.00383137      -0.00561353 </v>
   <v>      -0.01362344      -0.00375005       0.00643016 </v>
   <v>       0.00201110       0.00238468       0.00268257 </v>
   <v>       0.01007255       0.01741651       0.00221181 </v>
   <v>      -0.00730579      -0.00339679      -0.00241100 </v>
   <v>       0.00170431      -0.00642342       0.00169164 </v>
   <v>       0.01761777       0.02583359       0.00145786 </v>
   <v>      -0.01079083       0.00537563      -0.02503540 </v>
   <v>       0.01670550      -0.00525966       0.01442304 </v>
   <v>      -0.00262392       0.00068962       0.00162371 </v>
   <v>       0.02147681       0.00836226       0.01704167 </v>
   <v>      -0.00115839       0.00387528      -0.01231848 </v>
   <v>       0.01570835      -0.00624283       0.00686400 </v>
   <v>       0.00959161      -0.00921371      -0.00239609 </v>
   <v>       0.00181057       0.00347372      -0.00488380 </v>
   <v>      -0.00013305      -0.00702484      -0.00115264 </v>
   <v>       0.02930419      -0.02320691       0.00529325 </v>
   <v>      -0.00613949       0.00185401      -0.00824458 </v>
   <v>       0.01315289      -0.00996455      -0.00208044 </v>
   <v>      -0.00825036      -0.00750945       0.00133765 </v>
   <v>       0.00765623      -0.00143751       0.00503452 </v>
   <v>      -0.00607435      -0.02338344       0.00813777 </v>
   <v>       0.01504511       0.02052907      -0.00761837 </v>
   <v>       0.04384147       0.03619101      -0.00539991 </v>
   <v>       0.00405780       0.00670017       0.00092672 </v>
   <v>       0.00217754      -0.01868822       0.00849795 </v>
   <v>       0.00359975      -0.00016825      -0.00631513 </v>
   <v>      -0.00382545      -0.00468068       0.00150760 </v>
   <v>      -0.00676294       0.00075533      -0.00547411 </v>
   <v>      -0.01323197       0.01795928      -0.00223116 </v>
   <v>      -0.05374040      -0.04453096      -0.02862415 </v>
   <v>       0.02931444      -0.01862242       0.02216863 </v>
   <v>      -0.00521838      -0.00919611      -0.00299298 </v>
   <v>      -0.00053145       0.01102369       0.00262388 </v>
   <v>       0.00766313      -0.00089410       0.01263968 </v>
   <v>      -0.00224700       0.03220906       0.00580574 </v>
   <v>       0.00153332       0.00637765      -0.00337173 </v>
   <v>       0.00121015       0.00000507       0.00023439 </v>
[...]
       <r>   -17.7761     0.0000    32.0000 </r>
       <r>   -17.6218     0.0000    32.0000 </r>
       <r>   -17.4675     0.0000    32.0000 </r>
       <r>   -17.3133     0.0000    32.0000 </r>
       <r>   -17.1590     0.0000    32.0000 </r>
       <r>   -17.0047     0.0000    32.0000 </r>
       <r>   -16.8504     0.0000    32.0000 </r>
       <r>   -16.6962     0.0000    32.0000 </r>
       <r>   -16.5419     0.0000    32.0000 </r>
       <r>   -16.3876     0.0000    32.0000 </r>
       <r>   -16.2333     0.0000    32.0000 </r>
       <r>   -16.0791     0.0000    32.0000 </r>
       <r>   -15.9248     0.0000    32.0000 </r>
       <r>   -15.7705     0.0000    32.0000 </r>
       <r>   -15.6162     0.0000    32.0000 </r>
       <r>   -15.4619     0.0000    32.0000 </r>
       <r>   -15.3077     0.0197    32.0030 </r>
       <r>   -15.1534     8.2226    33.2716 </r>
       <r>   -14.9991    22.9013    36.8048 </r>
       <r>   -14.8448    35.2141    42.2375 </r>
       <r>   -14.6906    46.5922    49.4256 </r>
       <r>   -14.5363    46.0786    56.5345 </r>
       <r>   -14.3820    43.5155    63.2479 </r>
       <r>   -14.2277    45.1817    70.2185 </r>
       <r>   -14.0734    66.4013    80.4627 </r>
       <r>   -13.9192    68.6051    91.0469 </r>
       <r>   -13.7649    56.4252    99.7520 </r>
       <r>   -13.6106    53.5751   108.0174 </r>
       <r>   -13.4563    38.0259   113.8839 </r>
       <r>   -13.3021    13.6799   115.9944 </r>
       <r>   -13.1478     0.0361   116.0000 </r>
       <r>   -12.9935     0.0006   116.0001 </r>
       <r>   -12.8392     5.0700   116.7823 </r>
       <r>   -12.6850    50.5865   124.5866 </r>
       <r>   -12.5307   117.2894   142.6817 </r>
       <r>   -12.3764   114.1709   160.2957 </r>
       <r>   -12.2221   101.8961   176.0159 </r>
       <r>   -12.0678    78.3102   188.0974 </r>
       <r>   -11.9136    63.8261   197.9444 </r>
       <r>   -11.7593    45.1617   204.9118 </r>
       <r>   -11.6050    43.7255   211.6576 </r>
       <r>   -11.4507     2.2192   212.0000 </r>
       <r>   -11.2965     0.0000   212.0000 </r>
       <r>   -11.1422     0.0000   212.0000 </r>
       <r>   -10.9879     0.0000   212.0000 </r>
       <r>   -10.8336     0.0000   212.0000 </r>
       <r>   -10.6793     0.0000   212.0000 </r>
       <r>   -10.5251     0.0000   212.0000 </r>
       <r>   -10.3708     0.0000   212.0000 </r>
       <r>   -10.2165     0.0000   212.0000 </r>
       <r>   -10.0622     0.0000   212.0000 </r>
       <r>    -9.9080     0.0000   212.0000 </r>
       <r>    -9.7537     0.0000   212.0000 </r>
       <r>    -9.5994     0.0000   212.0000 </r>
       <r>    -9.4451     0.0000   212.0000 </r>
       <r>    -9.2909     0.0000   212.0000 </r>
       <r>    -9.1366     0.0000   212.0000 </r>
       <r>    -8.9823     0.0000   212.0000 </r>
       <r>    -8.8280     0.0000   212.0000 </r>
       <r>    -8.6737     0.0000   212.0000 </r>
       <r>    -8.5195     0.0000   212.0000 </r>
       <r>    -8.3652     0.0000   212.0000 </r>
       <r>    -8.2109     0.0000   212.0000 </r>
       <r>    -8.0566     0.0000   212.0000 </r>
       <r>    -7.9024     0.0000   212.0000 </r>
       <r>    -7.7481     0.0000   212.0000 </r>
       <r>    -7.5938     0.0000   212.0000 </r>
       <r>    -7.4395     0.0000   212.0000 </r>
       <r>    -7.2852     0.0000   212.0000 </r>
       <r>    -7.1310     0.0000   212.0000 </r>
       <r>    -6.9767     0.0000   212.0000 </r>
       <r>    -6.8224     0.0000   212.0000 </r>
       <r>    -6.6681     0.0000   212.0000 </r>
       <r>    -6.5139     0.0000   212.0000 </r>
       <r>    -6.3596     0.0000   212.0000 </r>
       <r>    -6.2053     0.0000   212.0000 </r>
       <r>    -6.0510     0.0000   212.0000 </r>
       <r>    -5.8968     0.0000   212.0000 </r>
       <r>    -5.7425     0.0000   212.0000 </r>
       <r>    -5.5882     0.0000   212.0000 </r>
       <r>    -5.4339     0.0000   212.0000 </r>
       <r>    -5.2796     0.0000   212.0000 </r>
       <r>    -5.1254     0.0000   212.0000 </r>
       <r>    -4.9711     0.0000   212.0000 </r>
       <r>    -4.8168     0.0000   212.0000 </r>
       <r>    -4.6625     0.0000   212.0000 </r>
       <r>    -4.5083     0.0000   212.0000 </r>
       <r>    -4.3540     0.0000   212.0000 </r>
       <r>    -4.1997     0.0000   212.0000 </r>
       <r>    -4.0454     0.0000   212.0000 </r>
       <r>    -3.8911     0.0000   212.0000 </r>
       <r>    -3.7369     0.0000   212.0000 </r>
       <r>    -3.5826     0.0000   212.0000 </r>
       <r>    -3.4283     0.0000   212.0000 </r>
       <r>    -3.2740     0.0000   212.0000 </r>
       <r>    -3.1198     0.0000   212.0000 </r>
       <r>    -2.9655     0.0000   212.0000 </r>
       <r>    -2.8112     0.0000   212.0000 </r>
       <r>    -2.6569     0.0004   212.0001 </r>
       <r>    -2.5027     4.4337   212.6841 </r>
       <r>    -2.3484    10.6927   214.3337 </r>
       <r>    -2.1941    18.7119   217.2205 </r>
       <r>    -2.0398    24.1504   220.9464 </r>
       <r>    -1.8855    24.5762   224.7379 </r>
       <r>    -1.7313    28.4140   229.1216 </r>
       <r>    -1.5770    30.0625   233.7595 </r>
       <r>    -1.4227    38.2856   239.6661 </r>
       <r>    -1.2684    47.9153   247.0583 </r>
       <r>    -1.1142    55.1118   255.5608 </r>
       <r>    -0.9599    68.5383   266.1347 </r>
       <r>    -0.8056    74.8904   277.6886 </r>
       <r>    -0.6513    86.9823   291.1080 </r>
       <r>    -0.4970   100.8043   306.6598 </r>
       <r>    -0.3428    90.5577   320.6308 </r>
       <r>    -0.1885    63.5247   330.4312 </r>
       <r>    -0.0342    58.4130   339.4430 </r>
       <r>     0.1201    54.0938   347.7885 </r>
       <r>     0.2743    57.4301   356.6487 </r>
       <r>     0.4286    59.3088   365.7987 </r>
       <r>     0.5829    59.0044   374.9017 </r>
       <r>     0.7372    55.1570   383.4112 </r>
       <r>     0.8914    53.8468   391.7185 </r>
       <r>     1.0457    53.2993   399.9414 </r>
       <r>     1.2000    59.9926   409.1969 </r>
       <r>     1.3543    62.7449   418.8770 </r>
       <r>     1.5086    64.0065   428.7517 </r>
       <r>     1.6628    66.5558   439.0198 </r>
       <r>     1.8171    53.8437   447.3266 </r>
       <r>     1.9714    52.2550   455.3884 </r>
       <r>     2.1257    31.4310   460.2375 </r>
       <r>     2.2799    13.0471   462.2504 </r>
       <r>     2.4342    11.1752   463.9744 </r>
       <r>     2.5885     0.1657   464.0000 </r>
       <r>     2.7428     0.0000   464.0000 </r>
       <r>     2.8971     0.0000   464.0000 </r>
       <r>     3.0513     0.0000   464.0000 </r>
       <r>     3.2056     0.0000   464.0000 </r>
       <r>     3.3599     0.0000   464.0000 </r>
       <r>     3.5142     0.0000   464.0000 </r>
       <r>     3.6684     0.0000   464.0000 </r>
       <r>     3.8227     0.0000   464.0000 </r>
       <r>     3.9770     0.0000   464.0000 </r>
       <r>     4.1313     0.1731   464.0267 </r>
       <r>     4.2855    12.2158   465.9113 </r>
       <r>     4.4398    37.9857   471.7717 </r>
       <r>     4.5941    78.9323   483.9491 </r>
       <r>     4.7484    76.3587   495.7295 </r>
       <r>     4.9027    64.3827   505.6623 </r>
       <r>     5.0569    74.6686   517.1820 </r>
       <r>     5.2112    80.9517   529.6710 </r>
       <r>     5.3655    87.6520   543.1937 </r>
       <r>     5.5198    77.2710   555.1149 </r>
       <r>     5.6740    69.9409   565.9051 </r>
       <r>     5.8283    58.1543   574.8770 </r>
       <r>     5.9826    66.0265   585.0634 </r>
       <r>     6.1369    52.2719   593.1278 </r>
       <r>     6.2912    44.5717   600.0042 </r>
       <r>     6.4454    30.0177   604.6352 </r>
       <r>     6.5997    23.9037   608.3230 </r>
       <r>     6.7540    16.8377   610.9207 </r>
       <r>     6.9083    15.2036   613.2663 </r>
       <r>     7.0625    10.9484   614.9554 </r>
       <r>     7.2168    10.6040   616.5913 </r>
       <r>     7.3711    10.1528   618.1577 </r>
       <r>     7.5254     9.6419   619.6452 </r>
       <r>     7.6796    15.4943   622.0356 </r>
       <r>     7.8339    16.0933   624.5185 </r>
       <r>     7.9882    19.3804   627.5084 </r>
       <r>     8.1425    23.4127   631.1205 </r>
       <r>     8.2968    24.9563   634.9707 </r>
       <r>     8.4510    23.6092   638.6130 </r>
       <r>     8.6053    23.5221   642.2419 </r>
       <r>     8.7596    29.8108   646.8411 </r>
       <r>     8.9139    30.1883   651.4984 </r>
       <r>     9.0681    33.2003   656.6205 </r>
       <r>     9.2224    39.3858   662.6968 </r>
       <r>     9.3767    43.8309   669.4589 </r>
       <r>     9.5310    45.6148   676.4962 </r>
       <r>     9.6853    50.8127   684.3355 </r>
       <r>     9.8395    50.7883   692.1710 </r>
       <r>     9.9938    50.0715   699.8959 </r>
       <r>    10.1481    48.8654   707.4347 </r>
       <r>    10.3024    54.3953   715.8266 </r>
       <r>    10.4566    53.7817   724.1239 </r>
       <r>    10.6109    52.5586   732.2325 </r>
       <r>    10.7652    50.4935   740.0225 </r>
       <r>    10.9195    54.4535   748.4235 </r>
       <r>    11.0737    54.3134   756.8028 </r>
       <r>    11.2280    53.7859   765.1007 </r>
       <r>    11.3823    18.7802   767.9981 </r>
       <r>    11.5366     0.0124   768.0000 </r>
       <r>    11.6909     0.0000   768.0000 </r>
       <r>    11.8451     0.0000   768.0000 </r>
       <r>    11.9994     0.0000   768.0000 </r>
       <r>    12.1537     0.0000   768.0000 </r>
       <r>    12.3080     0.0000   768.0000 </r>
       <r>    12.4622     0.0000   768.0000 </r>
       <r>    12.6165     0.0000   768.0000 </r>
       <r>    12.7708     0.0000   768.0000 </r>
       <r>    12.9251     0.0000   768.0000 </r>
       <r>    13.0794     0.0000   768.0000 </r>
       <r>    13.2336     0.0000   768.0000 </r>
       <r>    13.3879     0.0000   768.0000 </r>
      </set>
     </set>
    </array>
   </total>
  </dos>
 </calculation>
 <structure name="finalpos" >
  <crystal>
   <varray name="basis" >
    <v>      11.26326384      -0.00320807       0.01938227 </v>
    <v>      -0.00271705      11.25843432       0.00654330 </v>
    <v>       0.02772578       0.00930956      15.87199276 </v>
   </varray>
   <i name="volume">   2012.66840596 </i>
   <varray name="rec_basis" >
    <v>       0.08878448       0.00002152      -0.00015510 </v>
    <v>       0.00002539       0.08882233      -0.00005214 </v>
    <v>      -0.00010843      -0.00003664       0.06300427 </v>
   </varray>
  </crystal>
  <varray name="positions" >
   <v>       0.00368473       0.24072668       0.11994242 </v>
   <v>       0.99939097       0.26585477       0.63715121 </v>
   <v>       0.98829200       0.75991413       0.12647757 </v>
   <v>       0.00839380       0.74021548       0.62592177 </v>
   <v>       0.49061823       0.26077572       0.11978390 </v>
   <v>       0.48591436       0.25242484       0.62770466 </v>
   <v>       0.49841356       0.71916080       0.13285072 </v>
   <v>       0.49474088       0.74425228       0.60902311 </v>
   <v>       0.00475571       0.23563510       0.37363614 </v>
   <v>       0.00442472       0.24556022       0.88240774 </v>
   <v>       0.99734303       0.74696271       0.37393152 </v>
   <v>       0.01853848       0.75291202       0.88168702 </v>
   <v>       0.47486958       0.27436986       0.37566987 </v>
   <v>       0.49577958       0.24812874       0.87392874 </v>
   <v>       0.49844911       0.72267208       0.37507988 </v>
   <v>       0.49094959       0.74648357       0.88459162 </v>
   <v>       0.21710484       0.99829076       0.12959147 </v>
   <v>       0.24893871       0.00406040       0.61295902 </v>
   <v>       0.26346154       0.48738541       0.12161649 </v>
   <v>       0.24268078       0.50568496       0.62306514 </v>
   <v>       0.75934002       0.99771581       0.12632843 </v>
   <v>       0.75358150       0.98990877       0.62706096 </v>
   <v>       0.74039607       0.50298719       0.12378028 </v>
   <v>       0.75608443       0.52062164       0.62821327 </v>
   <v>       0.22383751       0.98370789       0.36837534 </v>
   <v>       0.23836168       0.00385166       0.88762714 </v>
   <v>       0.25390689       0.50680747       0.37493784 </v>
   <v>       0.24196121       0.49562738       0.88069676 </v>
   <v>       0.76042088       0.97700519       0.37946018 </v>
   <v>       0.77585156       0.00367600       0.87078396 </v>
   <v>       0.74417130       0.50893593       0.37412993 </v>
   <v>       0.75120414       0.49127820       0.87451969 </v>
   <v>       0.00302728       0.99003445       0.50274710 </v>
   <v>       0.00026803       0.50811046       0.50007494 </v>
   <v>       0.50662751       0.00939303       0.99173740 </v>
   <v>       0.75283868       0.25256626       0.99324761 </v>
   <v>       0.75522645       0.26199701       0.51613675 </v>
   <v>       0.25148833       0.77327063       0.74960175 </v>
   <v>       0.75185666       0.25088041       0.23767452 </v>
   <v>       0.74174595       0.74880937       0.24980774 </v>
   <v>       0.99912254       0.99758534       0.99986810 </v>
   <v>       0.00771383       0.48781424       0.00282566 </v>
   <v>       0.50028493       0.97807678       0.49417900 </v>
   <v>       0.50274527       0.49557202       0.99718193 </v>
   <v>       0.49544400       0.49841376       0.50254711 </v>
   <v>       0.24507235       0.24645946       0.00174166 </v>
   <v>       0.22653268       0.26041097       0.50155258 </v>
   <v>       0.24009085       0.73950004       0.01016162 </v>
   <v>       0.25068910       0.74773615       0.49529998 </v>
   <v>       0.72422779       0.76527012       0.99939709 </v>
   <v>       0.74732568       0.74417962       0.50047735 </v>
   <v>       0.26127331       0.22439705       0.25041387 </v>
   <v>       0.25164941       0.26058589       0.75278504 </v>
   <v>       0.23429594       0.72717996       0.24478410 </v>
   <v>       0.75413918       0.24295966       0.75309710 </v>
   <v>       0.76934648       0.75587405       0.75552647 </v>
   <v>       0.98891677       0.99620573       0.25142599 </v>
   <v>       0.99634893       0.00072910       0.74782555 </v>
   <v>       0.98082054       0.50660201       0.24716455 </v>
   <v>       0.99345082       0.49662114       0.75708615 </v>
   <v>       0.51839718       0.02118958       0.27399062 </v>
   <v>       0.48784799       0.00589535       0.74520445 </v>
   <v>       0.49658558       0.49188393       0.25217849 </v>
   <v>       0.50064853       0.47094378       0.74915986 </v>
   <v>       0.10994569       0.13330792       0.25107172 </v>
   <v>       0.13481236       0.58655699       0.23783415 </v>
   <v>       0.14571084       0.63691191       0.75628350 </v>
   <v>       0.61798466       0.12738763       0.21896584 </v>
   <v>       0.64253814       0.06282280       0.75202435 </v>
   <v>       0.62750375       0.61709478       0.25204973 </v>
   <v>       0.37535704       0.36218072       0.24670632 </v>
   <v>       0.34885885       0.40021750       0.75080382 </v>
   <v>       0.58706836       0.86927673       0.25670793 </v>
   <v>       0.41892730       0.84235524       0.74382185 </v>
   <v>       0.88318505       0.36149370       0.26677326 </v>
   <v>       0.85431816       0.38380611       0.74857450 </v>
   <v>       0.85411808       0.87974193       0.25053890 </v>
   <v>       0.88289927       0.87820868       0.74211492 </v>
   <v>       0.36126432       0.07550682       0.25087711 </v>
   <v>       0.37346553       0.12783559       0.74627521 </v>
   <v>       0.37824120       0.62538569       0.25003651 </v>
   <v>       0.85412195       0.12160168       0.26709042 </v>
   <v>       0.89896029       0.13985080       0.75691929 </v>
   <v>       0.87321030       0.63399951       0.24683991 </v>
   <v>       0.86617003       0.62346432       0.75177795 </v>
   <v>       0.10624203       0.35927863       0.76320437 </v>
   <v>       0.11329140       0.86092185       0.24575543 </v>
   <v>       0.15379272       0.90916225       0.74416646 </v>
   <v>       0.63426889       0.36327183       0.27174915 </v>
   <v>       0.60240722       0.33932730       0.75011383 </v>
   <v>       0.38087482       0.36370984       0.98901716 </v>
   <v>       0.36563182       0.36626131       0.51407359 </v>
   <v>       0.35713264       0.89571868       0.48543249 </v>
   <v>       0.87100927       0.37480127       0.98370126 </v>
   <v>       0.85399304       0.39213865       0.50711908 </v>
   <v>       0.87145858       0.85283266       0.99076136 </v>
   <v>       0.86629338       0.88205134       0.51287733 </v>
   <v>       0.11817673       0.12658584       0.00588727 </v>
   <v>       0.13827117       0.10888433       0.48923711 </v>
   <v>       0.10980150       0.63279971       0.01494907 </v>
   <v>       0.13309708       0.61590316       0.50004871 </v>
   <v>       0.62113884       0.12087833       0.01366912 </v>
   <v>       0.84438460       0.13420690       0.47406147 </v>
   <v>       0.65484973       0.61204710       0.99675754 </v>
   <v>       0.63628561       0.60525406       0.49969620 </v>
   <v>       0.13118611       0.37754606       0.99518486 </v>
   <v>       0.09733618       0.36349947       0.50142925 </v>
   <v>       0.13453537       0.87770029       0.00328949 </v>
   <v>       0.11286327       0.86235441       0.50887010 </v>
   <v>       0.62260377       0.36760387       0.99030550 </v>
   <v>       0.60716118       0.32915813       0.49287853 </v>
   <v>       0.57558690       0.86180273       0.02114996 </v>
   <v>       0.61846592       0.86377206       0.49590569 </v>
   <v>       0.37778627       0.62573501       0.00194443 </v>
   <v>       0.37894294       0.62876114       0.49929405 </v>
   <v>       0.86641986       0.11932488       0.99848808 </v>
   <v>       0.88296837       0.63726848       0.51342966 </v>
   <v>       0.98244860       0.99787213       0.12617347 </v>
   <v>       0.00526037       0.02821816       0.62376395 </v>
   <v>       0.97117561       0.48250626       0.12344332 </v>
   <v>       0.00809172       0.50433531       0.62965752 </v>
   <v>       0.36864887       0.08338854       0.02844294 </v>
   <v>       0.49368271       0.03387529       0.60540002 </v>
   <v>       0.50861567       0.48798551       0.12386296 </v>
   <v>       0.50960016       0.52235129       0.63699930 </v>
   <v>       0.99624843       0.98477963       0.37849088 </v>
   <v>       0.01314661       0.00093806       0.87116883 </v>
   <v>       0.99606794       0.50784068       0.37644680 </v>
   <v>       0.98917413       0.52828071       0.88269253 </v>
   <v>       0.53943128       0.06242427       0.39219624 </v>
   <v>       0.48026209       0.99587285       0.87824488 </v>
   <v>       0.49135631       0.49537006       0.37890994 </v>
   <v>       0.51230691       0.53270769       0.85767999 </v>
   <v>       0.24579345       0.25881331       0.37324825 </v>
   <v>       0.24705039       0.22517788       0.87414615 </v>
   <v>       0.24681749       0.75134390       0.36798779 </v>
   <v>       0.26550464       0.76518809       0.87640789 </v>
   <v>       0.73440620       0.23027335       0.87425777 </v>
   <v>       0.75257776       0.74551721       0.37550100 </v>
   <v>       0.70679809       0.77896184       0.86500481 </v>
   <v>       0.24162043       0.25800740       0.12976245 </v>
   <v>       0.22912596       0.23167673       0.62971267 </v>
   <v>       0.28386305       0.78014689       0.12796975 </v>
   <v>       0.26252520       0.74783376       0.62842341 </v>
   <v>       0.76408573       0.26875745       0.12189760 </v>
   <v>       0.74236109       0.22277243       0.62786172 </v>
   <v>       0.74398093       0.75386537       0.12460380 </v>
   <v>       0.70614384       0.75360836       0.64627057 </v>
  </varray>
 </structure>
</modeling>
