       N       E                     dE             d eps       ncg     rms          rms(c)
DAV:   1    -0.105732645475E+04   -0.10573E+04   -0.23504E-01  6824   0.112E+00    0.369E-02
RMM:   2    -0.105732646245E+04   -0.76923E-05   -0.85923E-05  3716   0.164E-02    0.281E-02
RMM:   3    -0.105732646542E+04   -0.29766E-05   -0.29913E-05  3623   0.979E-03    0.172E-02
RMM:   4    -0.105732647188E+04   -0.64519E-05   -0.20288E-05  3490   0.628E-03    0.155E-02
RMM:   5    -0.105732647422E+04   -0.23422E-05   -0.11757E-05  3341   0.533E-03    0.887E-03
RMM:   6    -0.105732647518E+04   -0.96021E-06   -0.84463E-06  2636   0.340E-03    0.287E-03
RMM:   7    -0.105732647572E+04   -0.54520E-06   -0.52108E-06  2198   0.326E-03    0.332E-03
RMM:   8    -0.105732647605E+04   -0.32221E-06   -0.32059E-06  1758   0.259E-03
   1 F= -.10573265E+04 E0= -.10573265E+04  d E =-.105733E+04  mag=    80.0000
       N       E                     dE             d eps       ncg     rms          rms(c)
DAV:   1    -0.105733279399E+04   -0.63183E-02   -0.12530E+01  6288   0.421E+00    0.198E+00
RMM:   2    -0.105735302301E+04   -0.20229E-01   -0.45217E-01  6247   0.959E-01    0.186E+00
RMM:   3    -0.105734917773E+04    0.38453E-02   -0.27289E-02  6821   0.266E-01    0.103E+00
RMM:   4    -0.105734414799E+04    0.50297E-02   -0.81244E-03  6546   0.112E-01    0.604E-01
RMM:   5    -0.105734236291E+04    0.17851E-02   -0.60399E-03  6611   0.854E-02    0.217E-01
RMM:   6    -0.105734230405E+04    0.58859E-04   -0.64245E-04  5694   0.317E-02    0.142E-01
RMM:   7    -0.105734228633E+04    0.17724E-04   -0.14543E-04  4113   0.134E-02    0.840E-02
RMM:   8    -0.105734227784E+04    0.84861E-05   -0.78595E-05  3894   0.113E-02
   2 F= -.10573423E+04 E0= -.10573423E+04  d E =-.158018E-01  mag=    80.0000
       N       E                     dE             d eps       ncg     rms          rms(c)
DAV:   1    -0.105735038187E+04   -0.80955E-02   -0.17827E+00  6512   0.159E+00    0.737E-01
RMM:   2    -0.105735335428E+04   -0.29724E-02   -0.64530E-02  6233   0.362E-01    0.688E-01
RMM:   3    -0.105735275880E+04    0.59548E-03   -0.38057E-03  6643   0.100E-01    0.386E-01
RMM:   4    -0.105735205580E+04    0.70300E-03   -0.10882E-03  6012   0.421E-02    0.224E-01
RMM:   5    -0.105735181512E+04    0.24068E-03   -0.81536E-04  5620   0.340E-02    0.827E-02
RMM:   6    -0.105735181111E+04    0.40082E-05   -0.80995E-05  3844   0.146E-02    0.585E-02
RMM:   7    -0.105735181388E+04   -0.27758E-05   -0.32339E-05  3680   0.825E-03    0.360E-02
RMM:   8    -0.105735181725E+04   -0.33702E-05   -0.20904E-05  3564   0.634E-03
   3 F= -.10573518E+04 E0= -.10573518E+04  d E =-.253412E-01  mag=    80.0000
       N       E                     dE             d eps       ncg     rms          rms(c)
DAV:   1    -0.105735882246E+04   -0.70086E-02   -0.49725E+00  6352   0.270E+00    0.926E-01
RMM:   2    -0.105737156360E+04   -0.12741E-01   -0.14617E-01  6264   0.523E-01    0.623E-01
RMM:   3    -0.105737184531E+04   -0.28171E-03   -0.87887E-03  6760   0.160E-01    0.381E-01
RMM:   4    -0.105737146441E+04    0.38090E-03   -0.20539E-03  7331   0.508E-02    0.207E-01
RMM:   5    -0.105737139275E+04    0.71663E-04   -0.70930E-04  6034   0.274E-02    0.743E-02
RMM:   6    -0.105737140844E+04   -0.15695E-04   -0.11367E-04  3844   0.139E-02    0.562E-02
RMM:   7    -0.105737141816E+04   -0.97184E-05   -0.56122E-05  3683   0.940E-03    0.260E-02
RMM:   8    -0.105737142737E+04   -0.92097E-05   -0.33917E-05  3584   0.792E-03
   4 F= -.10573714E+04 E0= -.10573714E+04  d E =-.196101E-01  mag=    80.0000
       N       E                     dE             d eps       ncg     rms          rms(c)
DAV:   1    -0.105734098952E+04    0.30429E-01   -0.17327E+01  6368   0.504E+00    0.174E+00
RMM:   2    -0.105738561777E+04   -0.44628E-01   -0.51271E-01  6261   0.977E-01    0.115E+00
RMM:   3    -0.105738660608E+04   -0.98830E-03   -0.31353E-02  6836   0.300E-01    0.712E-01
RMM:   4    -0.105738530665E+04    0.12994E-02   -0.74514E-03  7745   0.952E-02    0.382E-01
RMM:   5    -0.105738508015E+04    0.22650E-03   -0.23622E-03  7329   0.490E-02    0.134E-01
RMM:   6    -0.105738513481E+04   -0.54663E-04   -0.44358E-04  5089   0.229E-02    0.976E-02
RMM:   7    -0.105738516166E+04   -0.26849E-04   -0.19276E-04  4172   0.148E-02    0.460E-02
RMM:   8    -0.105738518430E+04   -0.22638E-04   -0.12772E-04  3909   0.124E-02
   5 F= -.10573852E+04 E0= -.10573852E+04  d E =-.333670E-01  mag=    80.0000
       N       E                     dE             d eps       ncg     rms          rms(c)
DAV:   1    -0.105738890039E+04   -0.37387E-02   -0.46352E+00  6432   0.262E+00    0.975E-01
RMM:   2    -0.105739921497E+04   -0.10315E-01   -0.13899E-01  6201   0.511E-01    0.620E-01
RMM:   3    -0.105739931531E+04   -0.10034E-03   -0.89899E-03  6561   0.171E-01    0.346E-01
RMM:   4    -0.105739892676E+04    0.38855E-03   -0.25834E-03  7558   0.567E-02    0.230E-01
RMM:   5    -0.105739878087E+04    0.14589E-03   -0.65081E-04  5949   0.272E-02    0.141E-01
RMM:   6    -0.105739878018E+04    0.69110E-06   -0.12614E-04  3805   0.147E-02    0.611E-02
RMM:   7    -0.105739878222E+04   -0.20424E-05   -0.68859E-05  3656   0.111E-02    0.346E-02
RMM:   8    -0.105739878058E+04    0.16444E-05   -0.40511E-05  3600   0.867E-03
   6 F= -.10573988E+04 E0= -.10573988E+04  d E =-.135963E-01  mag=    80.0000
       N       E                     dE             d eps       ncg     rms          rms(c)
DAV:   1    -0.105738968138E+04    0.91008E-02   -0.68905E+00  6240   0.320E+00    0.118E+00
RMM:   2    -0.105740527659E+04   -0.15595E-01   -0.20639E-01  6195   0.623E-01    0.759E-01
RMM:   3    -0.105740549791E+04   -0.22131E-03   -0.13185E-02  6520   0.209E-01    0.420E-01
RMM:   4    -0.105740491324E+04    0.58466E-03   -0.35166E-03  7438   0.677E-02    0.282E-01
RMM:   5    -0.105740467703E+04    0.23622E-03   -0.95144E-04  6477   0.322E-02    0.169E-01
RMM:   6    -0.105740467579E+04    0.12383E-05   -0.16305E-04  4035   0.164E-02    0.710E-02
RMM:   7    -0.105740467887E+04   -0.30798E-05   -0.87088E-05  3709   0.128E-02    0.403E-02
RMM:   8    -0.105740467702E+04    0.18510E-05   -0.53996E-05  3619   0.995E-03
   7 F= -.10574047E+04 E0= -.10574047E+04  d E =-.194927E-01  mag=    80.0000
       N       E                     dE             d eps       ncg     rms          rms(c)
DAV:   1    -0.105740194065E+04    0.27382E-02   -0.28329E+00  6248   0.202E+00    0.760E-01
RMM:   2    -0.105741207339E+04   -0.10133E-01   -0.73806E-02  6374   0.369E-01    0.441E-01
RMM:   3    -0.105741301321E+04   -0.93982E-03   -0.40658E-03  6615   0.111E-01    0.219E-01
RMM:   4    -0.105741277810E+04    0.23511E-03   -0.87985E-04  6380   0.363E-02    0.121E-01
RMM:   5    -0.105741271177E+04    0.66335E-04   -0.33734E-04  4623   0.212E-02    0.470E-02
RMM:   6    -0.105741271446E+04   -0.26941E-05   -0.60050E-05  3654   0.127E-02    0.357E-02
RMM:   7    -0.105741271638E+04   -0.19221E-05   -0.29762E-05  3579   0.791E-03    0.225E-02
RMM:   8    -0.105741271701E+04   -0.62842E-06   -0.18386E-05  3519   0.670E-03
   8 F= -.10574127E+04 E0= -.10574127E+04  d E =-.804000E-02  mag=    80.0000
       N       E                     dE             d eps       ncg     rms          rms(c)
DAV:   1    -0.105739867412E+04    0.14042E-01   -0.49074E+00  6192   0.266E+00    0.998E-01
RMM:   2    -0.105741618132E+04   -0.17507E-01   -0.12762E-01  6359   0.486E-01    0.581E-01
RMM:   3    -0.105741781409E+04   -0.16328E-02   -0.70776E-03  6656   0.147E-01    0.290E-01
RMM:   4    -0.105741741151E+04    0.40258E-03   -0.16042E-03  7049   0.476E-02    0.161E-01
RMM:   5    -0.105741729619E+04    0.11531E-03   -0.60430E-04  5720   0.253E-02    0.572E-02
RMM:   6    -0.105741729653E+04   -0.33902E-06   -0.74819E-05  3704   0.130E-02    0.373E-02
RMM:   7    -0.105741729832E+04   -0.17904E-05   -0.35439E-05  3628   0.858E-03    0.275E-02
RMM:   8    -0.105741729937E+04   -0.10451E-05   -0.23848E-05  3560   0.709E-03
   9 F= -.10574173E+04 E0= -.10574173E+04  d E =-.126223E-01  mag=    80.0000
       N       E                     dE             d eps       ncg     rms          rms(c)
DAV:   1    -0.105741187309E+04    0.54252E-02   -0.47567E+00  6288   0.261E+00    0.825E-01
RMM:   2    -0.105742524259E+04   -0.13370E-01   -0.12814E-01  6227   0.492E-01    0.581E-01
RMM:   3    -0.105742601236E+04   -0.76976E-03   -0.76061E-03  6660   0.149E-01    0.299E-01
RMM:   4    -0.105742561619E+04    0.39616E-03   -0.14557E-03  7121   0.446E-02    0.188E-01
RMM:   5    -0.105742543920E+04    0.17699E-03   -0.84458E-04  5836   0.291E-02    0.689E-02
RMM:   6    -0.105742544415E+04   -0.49522E-05   -0.87764E-05  3723   0.154E-02    0.417E-02
RMM:   7    -0.105742544846E+04   -0.43092E-05   -0.41540E-05  3636   0.865E-03    0.263E-02
RMM:   8    -0.105742545186E+04   -0.33983E-05   -0.25974E-05  3593   0.822E-03
  10 F= -.10574255E+04 E0= -.10574255E+04  d E =-.815250E-02  mag=    80.0000
       N       E                     dE             d eps       ncg     rms          rms(c)
DAV:   1    -0.105742132867E+04    0.41198E-02   -0.19072E+00  6288   0.165E+00    0.523E-01
RMM:   2    -0.105742671097E+04   -0.53823E-02   -0.51529E-02  6222   0.312E-01    0.371E-01
RMM:   3    -0.105742702529E+04   -0.31432E-03   -0.31029E-03  6538   0.953E-02    0.191E-01
RMM:   4    -0.105742686383E+04    0.16146E-03   -0.54548E-04  5524   0.288E-02    0.120E-01
RMM:   5    -0.105742679353E+04    0.70304E-04   -0.34686E-04  4646   0.209E-02    0.498E-02
RMM:   6    -0.105742679828E+04   -0.47528E-05   -0.51092E-05  3641   0.125E-02    0.310E-02
RMM:   7    -0.105742680161E+04   -0.33252E-05   -0.26459E-05  3574   0.672E-03    0.167E-02
RMM:   8    -0.105742680403E+04   -0.24227E-05   -0.14990E-05  3524   0.664E-03
  11 F= -.10574268E+04 E0= -.10574268E+04  d E =-.950466E-02  mag=    80.0000
       N       E                     dE             d eps       ncg     rms          rms(c)
DAV:   1    -0.105741957569E+04    0.72259E-02   -0.45161E+00  6168   0.252E+00    0.696E-01
RMM:   2    -0.105743176811E+04   -0.12192E-01   -0.12057E-01  6236   0.476E-01    0.472E-01
RMM:   3    -0.105743231515E+04   -0.54704E-03   -0.72141E-03  6644   0.143E-01    0.268E-01
RMM:   4    -0.105743199259E+04    0.32256E-03   -0.11045E-03  6851   0.395E-02    0.171E-01
RMM:   5    -0.105743177823E+04    0.21437E-03   -0.82668E-04  5761   0.291E-02    0.571E-02
RMM:   6    -0.105743177852E+04   -0.29338E-06   -0.95745E-05  3719   0.162E-02    0.442E-02
RMM:   7    -0.105743178190E+04   -0.33760E-05   -0.40155E-05  3598   0.850E-03    0.198E-02
RMM:   8    -0.105743178175E+04    0.14922E-06   -0.23892E-05  3518   0.806E-03
  12 F= -.10574318E+04 E0= -.10574318E+04  d E =-.497772E-02  mag=    80.0000
       N       E                     dE             d eps       ncg     rms          rms(c)
DAV:   1    -0.105743066015E+04    0.11217E-02   -0.57174E-01  6304   0.896E-01    0.248E-01
RMM:   2    -0.105743221977E+04   -0.15596E-02   -0.15426E-02  6228   0.170E-01    0.168E-01
RMM:   3    -0.105743228627E+04   -0.66497E-04   -0.90736E-04  5753   0.518E-02    0.972E-02
RMM:   4    -0.105743224667E+04    0.39596E-04   -0.12021E-04  3696   0.155E-02    0.619E-02
RMM:   5    -0.105743221963E+04    0.27040E-04   -0.96785E-05  3596   0.124E-02    0.207E-02
RMM:   6    -0.105743222214E+04   -0.25131E-05   -0.26649E-05  3547   0.826E-03    0.177E-02
RMM:   7    -0.105743222329E+04   -0.11461E-05   -0.12932E-05  3305   0.489E-03    0.712E-03
RMM:   8    -0.105743222358E+04   -0.29069E-06   -0.73424E-06  3105   0.454E-03
  13 F= -.10574322E+04 E0= -.10574322E+04  d E =-.541955E-02  mag=    80.0000
       N       E                     dE             d eps       ncg     rms          rms(c)
DAV:   1    -0.105743168373E+04    0.53956E-03   -0.12840E+00  6208   0.131E+00    0.399E-01
RMM:   2    -0.105743541952E+04   -0.37358E-02   -0.33731E-02  6213   0.247E-01    0.260E-01
RMM:   3    -0.105743561797E+04   -0.19845E-03   -0.19856E-03  6275   0.755E-02    0.148E-01
RMM:   4    -0.105743552681E+04    0.91160E-04   -0.32821E-04  4602   0.223E-02    0.896E-02
RMM:   5    -0.105743549810E+04    0.28715E-04   -0.16149E-04  3737   0.159E-02    0.398E-02
RMM:   6    -0.105743550141E+04   -0.33118E-05   -0.32326E-05  3557   0.993E-03    0.290E-02
RMM:   7    -0.105743550243E+04   -0.10171E-05   -0.16189E-05  3436   0.522E-03    0.117E-02
RMM:   8    -0.105743550205E+04    0.37691E-06   -0.87764E-06  3270   0.505E-03
  14 F= -.10574355E+04 E0= -.10574355E+04  d E =-.327847E-02  mag=    80.0000
       N       E                     dE             d eps       ncg     rms          rms(c)
DAV:   1    -0.105742980505E+04    0.56974E-02   -0.24212E+00  6160   0.180E+00    0.548E-01
RMM:   2    -0.105743686483E+04   -0.70598E-02   -0.63733E-02  6222   0.339E-01    0.358E-01
RMM:   3    -0.105743723826E+04   -0.37342E-03   -0.37553E-03  6529   0.103E-01    0.204E-01
RMM:   4    -0.105743706711E+04    0.17114E-03   -0.63570E-04  5816   0.301E-02    0.122E-01
RMM:   5    -0.105743701501E+04    0.52100E-04   -0.34808E-04  4638   0.204E-02    0.446E-02
RMM:   6    -0.105743701789E+04   -0.28777E-05   -0.40819E-05  3634   0.107E-02    0.277E-02
RMM:   7    -0.105743701883E+04   -0.94292E-06   -0.20965E-05  3461   0.592E-03    0.143E-02
RMM:   8    -0.105743701797E+04    0.86091E-06   -0.12735E-05  3446   0.564E-03
  15 F= -.10574370E+04 E0= -.10574370E+04  d E =-.479439E-02  mag=    80.0000
       N       E                     dE             d eps       ncg     rms          rms(c)
DAV:   1    -0.105743594612E+04    0.10727E-02   -0.14509E+00  6192   0.139E+00    0.383E-01
RMM:   2    -0.105743944794E+04   -0.35018E-02   -0.38834E-02  6395   0.256E-01    0.256E-01
RMM:   3    -0.105743941610E+04    0.31846E-04   -0.20265E-03  6256   0.725E-02    0.157E-01
RMM:   4    -0.105743930094E+04    0.11516E-03   -0.37165E-04  4731   0.233E-02    0.885E-02
RMM:   5    -0.105743927161E+04    0.29327E-04   -0.14326E-04  3721   0.156E-02    0.405E-02
RMM:   6    -0.105743927745E+04   -0.58367E-05   -0.36712E-05  3571   0.101E-02    0.266E-02
RMM:   7    -0.105743928005E+04   -0.26003E-05   -0.19118E-05  3514   0.603E-03    0.158E-02
RMM:   8    -0.105743928205E+04   -0.20082E-05   -0.11515E-05  3342   0.539E-03
  16 F= -.10574393E+04 E0= -.10574393E+04  d E =-.226408E-02  mag=    80.0000
       N       E                     dE             d eps       ncg     rms          rms(c)
DAV:   1    -0.105743729763E+04    0.19824E-02   -0.11630E+00  6208   0.124E+00    0.342E-01
RMM:   2    -0.105744010570E+04   -0.28081E-02   -0.31136E-02  6386   0.229E-01    0.229E-01
RMM:   3    -0.105744008225E+04    0.23444E-04   -0.16432E-03  6135   0.653E-02    0.141E-01
RMM:   4    -0.105743999029E+04    0.91965E-04   -0.28484E-04  4303   0.209E-02    0.805E-02
RMM:   5    -0.105743996805E+04    0.22238E-04   -0.11897E-04  3664   0.143E-02    0.371E-02
RMM:   6    -0.105743997320E+04   -0.51459E-05   -0.31443E-05  3566   0.927E-03    0.232E-02
RMM:   7    -0.105743997554E+04   -0.23395E-05   -0.16611E-05  3490   0.552E-03    0.141E-02
RMM:   8    -0.105743997741E+04   -0.18735E-05   -0.10059E-05  3263   0.507E-03
  17 F= -.10574400E+04 E0= -.10574400E+04  d E =-.295944E-02  mag=    80.0000
       N       E                     dE             d eps       ncg     rms          rms(c)
DAV:   1    -0.105743865827E+04    0.13173E-02   -0.15528E+00  6192   0.142E+00    0.418E-01
RMM:   2    -0.105744261044E+04   -0.39522E-02   -0.40701E-02  6386   0.263E-01    0.300E-01
RMM:   3    -0.105744264544E+04   -0.34998E-04   -0.21518E-03  6287   0.730E-02    0.184E-01
RMM:   4    -0.105744251398E+04    0.13146E-03   -0.33659E-04  4702   0.223E-02    0.103E-01
RMM:   5    -0.105744246776E+04    0.46220E-04   -0.24706E-04  4187   0.178E-02    0.382E-02
RMM:   6    -0.105744247013E+04   -0.23694E-05   -0.40195E-05  3581   0.112E-02    0.331E-02
RMM:   7    -0.105744247187E+04   -0.17456E-05   -0.17057E-05  3449   0.545E-03    0.125E-02
RMM:   8    -0.105744247263E+04   -0.75782E-06   -0.92947E-06  3310   0.507E-03
  18 F= -.10574425E+04 E0= -.10574425E+04  d E =-.249522E-02  mag=    80.0000
       N       E                     dE             d eps       ncg     rms          rms(c)
DAV:   1    -0.105744038270E+04    0.20892E-02   -0.10113E+00  6208   0.115E+00    0.338E-01
RMM:   2    -0.105744295881E+04   -0.25761E-02   -0.26517E-02  6378   0.212E-01    0.243E-01
RMM:   3    -0.105744298338E+04   -0.24577E-04   -0.14141E-03  6002   0.591E-02    0.150E-01
RMM:   4    -0.105744289624E+04    0.87144E-04   -0.20275E-04  4050   0.183E-02    0.845E-02
RMM:   5    -0.105744286649E+04    0.29750E-04   -0.15484E-04  3760   0.146E-02    0.277E-02
RMM:   6    -0.105744286952E+04   -0.30324E-05   -0.30424E-05  3528   0.951E-03    0.274E-02
RMM:   7    -0.105744287104E+04   -0.15149E-05   -0.14402E-05  3348   0.481E-03    0.108E-02
RMM:   8    -0.105744287170E+04   -0.66428E-06   -0.78310E-06  3157   0.468E-03
  19 F= -.10574429E+04 E0= -.10574429E+04  d E =-.289429E-02  mag=    80.0000
       N       E                     dE             d eps       ncg     rms          rms(c)
DAV:   1    -0.105744274551E+04    0.12553E-03   -0.81369E-02  6288   0.326E-01    0.963E-02
RMM:   2    -0.105744294657E+04   -0.20106E-03   -0.20756E-03  6147   0.601E-02    0.686E-02
RMM:   3    -0.105744294748E+04   -0.91574E-06   -0.85018E-05  3461   0.176E-02    0.428E-02
RMM:   4    -0.105744294243E+04    0.50525E-05   -0.21421E-05  3292   0.722E-03    0.236E-02
RMM:   5    -0.105744293992E+04    0.25069E-05   -0.12665E-05  2995   0.455E-03    0.110E-02
RMM:   6    -0.105744294006E+04   -0.14092E-06   -0.23216E-06  2209   0.295E-03    0.551E-03
RMM:   7    -0.105744294006E+04    0.37544E-08   -0.33055E-07  1122   0.176E-03    0.271E-03
RMM:   8    -0.105744294001E+04    0.46290E-07   -0.16598E-07   940   0.174E-03
  20 F= -.10574429E+04 E0= -.10574429E+04  d E =-.296260E-02  mag=    80.0000
       N       E                     dE             d eps       ncg     rms          rms(c)
DAV:   1    -0.105744212305E+04    0.81701E-03   -0.83333E-01  6232   0.107E+00    0.323E-01
RMM:   2    -0.105744433439E+04   -0.22113E-02   -0.22677E-02  6271   0.206E-01    0.238E-01
RMM:   3    -0.105744439660E+04   -0.62211E-04   -0.13188E-03  6077   0.609E-02    0.140E-01
RMM:   4    -0.105744433126E+04    0.65333E-04   -0.15189E-04  3810   0.174E-02    0.869E-02
RMM:   5    -0.105744429556E+04    0.35703E-04   -0.13155E-04  3614   0.143E-02    0.316E-02
RMM:   6    -0.105744429642E+04   -0.86267E-06   -0.29588E-05  3526   0.976E-03    0.348E-02
RMM:   7    -0.105744429719E+04   -0.76155E-06   -0.12877E-05  3399   0.483E-03    0.110E-02
RMM:   8    -0.105744429587E+04    0.13153E-05   -0.69464E-06  3138   0.470E-03
  21 F= -.10574443E+04 E0= -.10574443E+04  d E =-.135586E-02  mag=    80.0000
       N       E                     dE             d eps       ncg     rms          rms(c)
DAV:   1    -0.105744322327E+04    0.10739E-02   -0.53549E-01  6192   0.862E-01    0.258E-01
RMM:   2    -0.105744465510E+04   -0.14318E-02   -0.14684E-02  6275   0.165E-01    0.190E-01
RMM:   3    -0.105744469219E+04   -0.37088E-04   -0.83689E-04  5608   0.490E-02    0.114E-01
RMM:   4    -0.105744465367E+04    0.38520E-04   -0.10608E-04  3651   0.150E-02    0.706E-02
RMM:   5    -0.105744463065E+04    0.23025E-04   -0.85884E-05  3562   0.118E-02    0.248E-02
RMM:   6    -0.105744463101E+04   -0.36528E-06   -0.21197E-05  3524   0.768E-03    0.196E-02
RMM:   7    -0.105744463127E+04   -0.26132E-06   -0.95677E-06  3269   0.422E-03    0.853E-03
RMM:   8    -0.105744463047E+04    0.79894E-06   -0.49680E-06  2895   0.388E-03
  22 F= -.10574446E+04 E0= -.10574446E+04  d E =-.169046E-02  mag=    80.0000
       N       E                     dE             d eps       ncg     rms          rms(c)
DAV:   1    -0.105744259246E+04    0.20388E-02   -0.92864E-01  6352   0.114E+00    0.413E-01
RMM:   2    -0.105744578016E+04   -0.31877E-02   -0.24509E-02  6381   0.211E-01    0.236E-01
RMM:   3    -0.105744605745E+04   -0.27730E-03   -0.13423E-03  6134   0.612E-02    0.125E-01
RMM:   4    -0.105744599461E+04    0.62838E-04   -0.20608E-04  4044   0.195E-02    0.720E-02
RMM:   5    -0.105744598106E+04    0.13557E-04   -0.10176E-04  3612   0.136E-02    0.416E-02
RMM:   6    -0.105744598587E+04   -0.48076E-05   -0.32138E-05  3551   0.943E-03    0.233E-02
RMM:   7    -0.105744598825E+04   -0.23860E-05   -0.16015E-05  3462   0.574E-03    0.140E-02
RMM:   8    -0.105744599026E+04   -0.20138E-05   -0.93841E-06  3280   0.506E-03
  23 F= -.10574460E+04 E0= -.10574460E+04  d E =-.135979E-02  mag=    80.0000
