<?xml version="1.0" encoding="ISO-8859-1"?>
<modeling>
 <generator>
  <i name="program" type="string">vasp </i>
  <i name="version" type="string">5.4.1  </i>
  <i name="subversion" type="string">05Feb16 (build Jan 25 2017 20:16:33) complex                          parallel </i>
  <i name="platform" type="string">BWXE6 </i>
  <i name="date" type="string">2019 08 06 </i>
  <i name="time" type="string">15:49:55 </i>
 </generator>
 <incar>
  <i type="string" name="SYSTEM"> STF</i>
  <i type="string" name="PREC">normal</i>
  <i type="string" name="ALGO"> Fast</i>
  <i type="int" name="ISPIN">     2</i>
  <i type="int" name="NELM">    40</i>
  <i type="int" name="NELMIN">     8</i>
  <i type="int" name="IBRION">     2</i>
  <i name="EDIFF">      0.00010000</i>
  <i name="EDIFFG">     -0.03000000</i>
  <i type="int" name="NSW">    30</i>
  <i type="int" name="ISIF">     3</i>
  <i name="ENCUT">    520.00000000</i>
  <i type="int" name="NBANDS">   768</i>
  <v name="MAGMOM">      0.60000000      0.60000000      0.60000000      0.60000000      0.60000000      0.60000000      0.60000000      0.60000000      0.60000000      0.60000000      0.60000000      0.60000000      0.60000000      0.60000000      0.60000000      0.60000000      0.60000000      0.60000000      0.60000000      0.60000000
      0.60000000      0.60000000      0.60000000      0.60000000      0.60000000      0.60000000      0.60000000      0.60000000      0.60000000      0.60000000      0.60000000      0.60000000      0.60000000      0.60000000      0.60000000      0.60000000      0.60000000      0.60000000      0.60000000      0.60000000
      0.60000000      0.60000000      0.60000000      0.60000000      0.60000000      0.60000000      0.60000000      0.60000000      5.00000000      5.00000000      5.00000000      5.00000000      5.00000000      5.00000000      5.00000000      5.00000000      5.00000000      5.00000000      5.00000000      5.00000000
      5.00000000      5.00000000      5.00000000      5.00000000      0.60000000      0.60000000      0.60000000      0.60000000      0.60000000      0.60000000      0.60000000      0.60000000      0.60000000      0.60000000      0.60000000      0.60000000      0.60000000      0.60000000      0.60000000      0.60000000
      0.60000000      0.60000000      0.60000000      0.60000000      0.60000000      0.60000000      0.60000000      0.60000000      0.60000000      0.60000000      0.60000000      0.60000000      0.60000000      0.60000000      0.60000000      0.60000000      0.60000000      0.60000000      0.60000000      0.60000000
      0.60000000      0.60000000      0.60000000      0.60000000      0.60000000      0.60000000      0.60000000      0.60000000      0.60000000      0.60000000      0.60000000      0.60000000      0.60000000      0.60000000      0.60000000      0.60000000      0.60000000      0.60000000      0.60000000      0.60000000
      0.60000000      0.60000000      0.60000000      0.60000000      0.60000000      0.60000000      0.60000000      0.60000000      0.60000000      0.60000000      0.60000000      0.60000000      0.60000000      0.60000000      0.60000000      0.60000000      0.60000000      0.60000000      0.60000000      0.60000000
      0.60000000      0.60000000      0.60000000      0.60000000      0.60000000      0.60000000      0.60000000      0.60000000      0.60000000      0.60000000      0.60000000      0.60000000</v>
  <i type="string" name="LREAL"> Auto</i>
  <i type="int" name="ISMEAR">     0</i>
  <i name="SIGMA">      0.05000000</i>
  <i type="int" name="LMAXMIX">     4</i>
  <v type="int" name="KPOINT_BSE">    -1     0     0     0</v>
  <i type="int" name="NELM">    40</i>
  <i type="logical" name="LDAU"> T  </i>
  <v type="int" name="LDAUTYPE">     2</v>
  <v type="int" name="LDAUL">     0     2     2     0</v>
  <v name="LDAUU">      0.00000000      3.00000000      5.00000000      0.00000000</v>
  <v name="LDAUJ">      0.00000000      0.00000000      0.00000000      0.00000000</v>
  <i type="int" name="LDAUPRINT">     1</i>
 </incar>
 <kpoints>
  <generation param="Monkhorst-Pack">
   <v type="int" name="divisions">       2        2        2 </v>
   <v name="usershift">      0.00000000       0.00000000       0.00000000 </v>
   <v name="genvec1">      0.50000000       0.00000000       0.00000000 </v>
   <v name="genvec2">      0.00000000       0.50000000       0.00000000 </v>
   <v name="genvec3">      0.00000000       0.00000000       0.50000000 </v>
   <v name="shift">      0.50000000       0.50000000       0.50000000 </v>
  </generation>
  <varray name="kpointlist" >
   <v>       0.25000000       0.25000000       0.25000000 </v>
   <v>      -0.25000000       0.25000000       0.25000000 </v>
  </varray>
  <varray name="weights" >
   <v>       0.50000000 </v>
   <v>       0.50000000 </v>
  </varray>
 </kpoints>
 <parameters>
  <separator name="general" >
   <i type="string" name="SYSTEM">STF</i>
   <i type="logical" name="LCOMPAT"> F  </i>
  </separator>
  <separator name="electronic" >
   <i type="string" name="PREC">normal</i>
   <i name="ENMAX">    520.00000000</i>
   <i name="ENAUG">    605.39200000</i>
   <i name="EDIFF">      0.00010000</i>
   <i type="int" name="IALGO">    68</i>
   <i type="int" name="IWAVPR">    11</i>
   <i type="int" name="NBANDS">   768</i>
   <i name="NELECT">   1040.00000000</i>
   <i type="int" name="TURBO">     0</i>
   <i type="int" name="IRESTART">     0</i>
   <i type="int" name="NREBOOT">     0</i>
   <i type="int" name="NMIN">     0</i>
   <i name="EREF">      0.00000000</i>
   <separator name="electronic smearing" >
    <i type="int" name="ISMEAR">     0</i>
    <i name="SIGMA">      0.05000000</i>
    <i name="KSPACING">      0.50000000</i>
    <i type="logical" name="KGAMMA"> T  </i>
   </separator>
   <separator name="electronic projectors" >
    <i type="logical" name="LREAL"> T  </i>
    <v name="ROPT">     -0.00050000     -0.00050000     -0.00050000     -0.00050000</v>
    <i type="int" name="LMAXPAW">  -100</i>
    <i type="int" name="LMAXMIX">     4</i>
    <i type="logical" name="NLSPLINE"> F  </i>
   </separator>
   <separator name="electronic startup" >
    <i type="int" name="ISTART">     1</i>
    <i type="int" name="ICHARG">     0</i>
    <i type="int" name="INIWAV">     1</i>
   </separator>
   <separator name="electronic spin" >
    <i type="int" name="ISPIN">     2</i>
    <i type="logical" name="LNONCOLLINEAR"> F  </i>
    <v name="MAGMOM">      0.60000000      0.60000000      0.60000000      0.60000000      0.60000000      0.60000000      0.60000000      0.60000000      0.60000000      0.60000000      0.60000000      0.60000000      0.60000000      0.60000000      0.60000000      0.60000000      0.60000000      0.60000000      0.60000000      0.60000000
      0.60000000      0.60000000      0.60000000      0.60000000      0.60000000      0.60000000      0.60000000      0.60000000      0.60000000      0.60000000      0.60000000      0.60000000      0.60000000      0.60000000      0.60000000      0.60000000      0.60000000      0.60000000      0.60000000      0.60000000
      0.60000000      0.60000000      0.60000000      0.60000000      0.60000000      0.60000000      0.60000000      0.60000000      5.00000000      5.00000000      5.00000000      5.00000000      5.00000000      5.00000000      5.00000000      5.00000000      5.00000000      5.00000000      5.00000000      5.00000000
      5.00000000      5.00000000      5.00000000      5.00000000      0.60000000      0.60000000      0.60000000      0.60000000      0.60000000      0.60000000      0.60000000      0.60000000      0.60000000      0.60000000      0.60000000      0.60000000      0.60000000      0.60000000      0.60000000      0.60000000
      0.60000000      0.60000000      0.60000000      0.60000000      0.60000000      0.60000000      0.60000000      0.60000000      0.60000000      0.60000000      0.60000000      0.60000000      0.60000000      0.60000000      0.60000000      0.60000000      0.60000000      0.60000000      0.60000000      0.60000000
      0.60000000      0.60000000      0.60000000      0.60000000      0.60000000      0.60000000      0.60000000      0.60000000      0.60000000      0.60000000      0.60000000      0.60000000      0.60000000      0.60000000      0.60000000      0.60000000      0.60000000      0.60000000      0.60000000      0.60000000
      0.60000000      0.60000000      0.60000000      0.60000000      0.60000000      0.60000000      0.60000000      0.60000000      0.60000000      0.60000000      0.60000000      0.60000000      0.60000000      0.60000000      0.60000000      0.60000000      0.60000000      0.60000000      0.60000000      0.60000000
      0.60000000      0.60000000      0.60000000      0.60000000      0.60000000      0.60000000      0.60000000      0.60000000      0.60000000      0.60000000      0.60000000      0.60000000</v>
    <i name="NUPDOWN">     -1.00000000</i>
    <i type="logical" name="LSORBIT"> F  </i>
    <v name="SAXIS">      0.00000000      0.00000000      1.00000000</v>
    <i type="logical" name="LSPIRAL"> F  </i>
    <v name="QSPIRAL">      0.00000000      0.00000000      0.00000000</v>
    <i type="logical" name="LZEROZ"> F  </i>
   </separator>
   <separator name="electronic exchange-correlation" >
    <i type="logical" name="LASPH"> F  </i>
    <i type="logical" name="LMETAGGA"> F  </i>
   </separator>
   <separator name="electronic convergence" >
    <i type="int" name="NELM">    40</i>
    <i type="int" name="NELMDL">     0</i>
    <i type="int" name="NELMIN">     8</i>
    <i name="ENINI">    520.00000000</i>
    <separator name="electronic convergence detail" >
     <i type="logical" name="LDIAG"> T  </i>
     <i type="logical" name="LSUBROT"> F  </i>
     <i name="WEIMIN">      0.00100000</i>
     <i name="EBREAK">      0.00000003</i>
     <i name="DEPER">      0.30000000</i>
     <i type="int" name="NRMM">     4</i>
     <i name="TIME">      0.40000000</i>
    </separator>
   </separator>
   <separator name="electronic mixer" >
    <i name="AMIX">      0.40000000</i>
    <i name="BMIX">      1.00000000</i>
    <i name="AMIN">      0.10000000</i>
    <i name="AMIX_MAG">      1.60000000</i>
    <i name="BMIX_MAG">      1.00000000</i>
    <separator name="electronic mixer details" >
     <i type="int" name="IMIX">     4</i>
     <i type="logical" name="MIXFIRST"> F  </i>
     <i type="int" name="MAXMIX">   -45</i>
     <i name="WC">    100.00000000</i>
     <i type="int" name="INIMIX">     1</i>
     <i type="int" name="MIXPRE">     1</i>
     <i type="int" name="MREMOVE">     5</i>
    </separator>
   </separator>
   <separator name="electronic dipolcorrection" >
    <i type="logical" name="LDIPOL"> F  </i>
    <i type="logical" name="LMONO"> F  </i>
    <i type="int" name="IDIPOL">     0</i>
    <i name="EPSILON">      1.00000000</i>
    <v name="DIPOL">   -100.00000000   -100.00000000   -100.00000000</v>
    <i name="EFIELD">      0.00000000</i>
   </separator>
  </separator>
  <separator name="grids" >
   <i type="int" name="NGX">    64</i>
   <i type="int" name="NGY">    64</i>
   <i type="int" name="NGZ">    90</i>
   <i type="int" name="NGXF">   128</i>
   <i type="int" name="NGYF">   128</i>
   <i type="int" name="NGZF">   180</i>
   <i type="logical" name="ADDGRID"> F  </i>
  </separator>
  <separator name="ionic" >
   <i type="int" name="NSW">    30</i>
   <i type="int" name="IBRION">     2</i>
   <i type="int" name="ISIF">     3</i>
   <i name="PSTRESS">      0.00000000</i>
   <i name="EDIFFG">     -0.03000000</i>
   <i type="int" name="NFREE">     1</i>
   <i name="POTIM">      0.50000000</i>
   <i name="SMASS">     -3.00000000</i>
   <i name="SCALEE">      1.00000000</i>
  </separator>
  <separator name="ionic md" >
   <i name="TEBEG">      0.00010000</i>
   <i name="TEEND">      0.00010000</i>
   <i type="int" name="NBLOCK">     1</i>
   <i type="int" name="KBLOCK">    30</i>
   <i type="int" name="NPACO">   256</i>
   <i name="APACO">     16.00000000</i>
  </separator>
  <separator name="symmetry" >
   <i type="int" name="ISYM">     2</i>
   <i name="SYMPREC">      0.00001000</i>
  </separator>
  <separator name="dos" >
   <i type="logical" name="LORBIT"> F  </i>
   <v name="RWIGS">     -1.00000000     -1.00000000     -1.00000000     -1.00000000</v>
   <i type="int" name="NEDOS">   301</i>
   <i name="EMIN">     10.00000000</i>
   <i name="EMAX">    -10.00000000</i>
   <i name="EFERMI">      0.00000000</i>
  </separator>
  <separator name="writing" >
   <i type="int" name="NWRITE">     2</i>
   <i type="logical" name="LWAVE"> T  </i>
   <i type="logical" name="LCHARG"> T  </i>
   <i type="logical" name="LPARD"> F  </i>
   <i type="logical" name="LVTOT"> F  </i>
   <i type="logical" name="LVHAR"> F  </i>
   <i type="logical" name="LELF"> F  </i>
   <i type="logical" name="LOPTICS"> F  </i>
   <v name="STM">      0.00000000      0.00000000      0.00000000      0.00000000      0.00000000      0.00000000      0.00000000</v>
  </separator>
  <separator name="performance" >
   <i type="int" name="NPAR">     2</i>
   <i type="int" name="NSIM">     4</i>
   <i type="int" name="NBLK">    -1</i>
   <i type="logical" name="LPLANE"> T  </i>
   <i type="logical" name="LSCALAPACK"> T  </i>
   <i type="logical" name="LSCAAWARE"> F  </i>
   <i type="logical" name="LSCALU"> F  </i>
   <i type="logical" name="LASYNC"> F  </i>
   <i type="logical" name="LORBITALREAL"> F  </i>
  </separator>
  <separator name="miscellaneous" >
   <i type="int" name="IDIOT">     3</i>
   <i type="logical" name="LMUSIC"> F  </i>
   <v name="POMASS">     87.62000000     47.88000000     55.84700000     16.00000000</v>
   <v name="DARWINR">      0.00000000      0.00000000      0.00000000      0.00000000</v>
   <v name="DARWINV">      1.00000000      1.00000000      1.00000000      1.00000000</v>
   <i type="logical" name="LCORR"> T  </i>
  </separator>
  <i type="logical" name="GGA_COMPAT"> T  </i>
  <i type="logical" name="LBERRY"> F  </i>
  <i type="int" name="ICORELEVEL">     0</i>
  <i type="logical" name="LDAU"> T  </i>
  <v type="int" name="LDAUTYPE">     2</v>
  <v type="int" name="LDAUL">     0</v>
  <v name="LDAUU">      0.00000000</v>
  <v name="LDAUJ">      0.00000000</v>
  <i type="int" name="LDAUPRINT">     1</i>
  <i type="int" name="I_CONSTRAINED_M">     0</i>
  <separator name="electronic exchange-correlation" >
   <i type="string" name="GGA">--</i>
   <i type="int" name="VOSKOWN">     0</i>
   <i type="logical" name="LHFCALC"> F  </i>
   <i type="string" name="PRECFOCK"></i>
   <i type="logical" name="LSYMGRAD"> F  </i>
   <i type="logical" name="LHFONE"> F  </i>
   <i type="logical" name="LRHFCALC"> F  </i>
   <i type="logical" name="LTHOMAS"> F  </i>
   <i type="logical" name="LMODELHF"> F  </i>
   <i name="ENCUT4O">     -1.00000000</i>
   <i type="int" name="EXXOEP">     0</i>
   <i type="int" name="FOURORBIT">     0</i>
   <i name="AEXX">      0.00000000</i>
   <i name="HFALPHA">      0.00000000</i>
   <i name="MCALPHA">      0.00000000</i>
   <i name="ALDAX">      1.00000000</i>
   <i name="AGGAX">      1.00000000</i>
   <i name="ALDAC">      1.00000000</i>
   <i name="AGGAC">      1.00000000</i>
   <i type="int" name="NKREDX">     1</i>
   <i type="int" name="NKREDY">     1</i>
   <i type="int" name="NKREDZ">     1</i>
   <i type="logical" name="SHIFTRED"> F  </i>
   <i type="logical" name="ODDONLY"> F  </i>
   <i type="logical" name="EVENONLY"> F  </i>
   <i type="int" name="LMAXFOCK">     0</i>
   <i type="int" name="NMAXFOCKAE">     0</i>
   <i type="logical" name="LFOCKAEDFT"> F  </i>
   <i name="HFSCREEN">      0.00000000</i>
   <i name="HFSCREENC">      0.00000000</i>
   <i type="int" name="NBANDSGWLOW">     0</i>
  </separator>
  <separator name="vdW DFT" >
   <i type="logical" name="LUSE_VDW"> F  </i>
   <i name="Zab_VDW">     -0.84910000</i>
   <i name="PARAM1">      0.12340000</i>
   <i name="PARAM2">      1.00000000</i>
   <i name="PARAM3">      0.00000000</i>
  </separator>
  <separator name="model GW" >
   <i type="int" name="MODEL_GW">     0</i>
   <i name="MODEL_EPS0">      7.93251918</i>
   <i name="MODEL_ALPHA">      1.00000000</i>
  </separator>
  <separator name="linear response parameters" >
   <i type="logical" name="LEPSILON"> F  </i>
   <i type="logical" name="LRPA"> F  </i>
   <i type="logical" name="LNABLA"> F  </i>
   <i type="logical" name="LVEL"> F  </i>
   <i type="int" name="KINTER">     0</i>
   <i name="CSHIFT">      0.10000000</i>
   <i name="OMEGAMAX">     -1.00000000</i>
   <i name="DEG_THRESHOLD">      0.00200000</i>
  </separator>
  <separator name="orbital magnetization" >
   <i type="logical" name="NUCIND"> F  </i>
   <v name="MAGPOS">      0.00000000      0.00000000      0.00000000</v>
   <i type="logical" name="LNICSALL"> T  </i>
   <i type="logical" name="ORBITALMAG"> F  </i>
   <i type="logical" name="LMAGBLOCH"> F  </i>
   <i type="logical" name="LCHIMAG"> F  </i>
   <i type="logical" name="LGAUGE"> T  </i>
   <i type="int" name="MAGATOM">     0</i>
   <v name="MAGDIPOL">      0.00000000      0.00000000      0.00000000</v>
   <v name="AVECCONST">      0.00000000      0.00000000      0.00000000</v>
  </separator>
  <separator name="response functions" >
   <i type="logical" name="LADDER"> F  </i>
   <i type="logical" name="LFXC"> F  </i>
   <i type="logical" name="LHARTREE"> T  </i>
   <i type="int" name="IBSE">     0</i>
   <v type="int" name="KPOINT">    -1     0     0     0</v>
   <i type="logical" name="LTCTE"> F  </i>
   <i type="logical" name="LTETE"> F  </i>
   <i type="logical" name="LTRIPLET"> F  </i>
   <i type="logical" name="LFXCEPS"> F  </i>
   <i type="logical" name="LFXHEG"> F  </i>
   <i type="int" name="NATURALO">     0</i>
   <i type="logical" name="L2ORDER"> F  </i>
   <i type="logical" name="LUSEW"> F  </i>
   <i name="ENCUTGW">     -2.00000000</i>
   <i name="ENCUTGWSOFT">     -2.00000000</i>
   <i name="ENCUTLF">     -1.00000000</i>
   <i type="int" name="LMAXMP2">    -1</i>
   <i name="SCISSOR">      0.00000000</i>
   <i type="int" name="NOMEGA">     0</i>
   <i type="int" name="NOMEGAR">     0</i>
   <i type="int" name="NBANDSGW">    -1</i>
   <i type="int" name="NBANDSO">    -1</i>
   <i type="int" name="NBANDSV">    -1</i>
   <i type="int" name="NELM">    40</i>
   <i type="int" name="NELMHF">     1</i>
   <i type="int" name="DIM">     3</i>
   <i type="int" name="ANTIRES">     0</i>
   <i name="OMEGAMAX">    -30.00000000</i>
   <i name="OMEGAMIN">    -30.00000000</i>
   <i name="OMEGATL">   -200.00000000</i>
   <i type="int" name="OMEGAGRID">     0</i>
   <i name="CSHIFT">     -0.10000000</i>
   <i type="logical" name="SELFENERGY"> F  </i>
   <i type="logical" name="LSPECTRAL"> F  </i>
   <i type="logical" name="LSPECTRALGW"> F  </i>
   <i type="logical" name="LSINGLES"> F  </i>
   <i type="logical" name="LFERMIGW"> F  </i>
   <i type="logical" name="ODDONLYGW"> F  </i>
   <i type="logical" name="EVENONLYGW"> F  </i>
   <i type="int" name="NKREDLFX">     1</i>
   <i type="int" name="NKREDLFY">     1</i>
   <i type="int" name="NKREDLFZ">     1</i>
   <i type="int" name="MAXMEM">  1800</i>
   <i type="int" name="TELESCOPE">     0</i>
   <i type="int" name="TAUPAR">     1</i>
   <i type="int" name="OMEGAPAR">    -1</i>
   <i name="LAMBDA">      1.00000000</i>
  </separator>
  <separator name="External order field" >
   <i name="OFIELD_KAPPA">      0.00000000</i>
   <v name="OFIELD_K">      0.00000000      0.00000000      0.00000000</v>
   <i name="OFIELD_Q6_NEAR">      0.00000000</i>
   <i name="OFIELD_Q6_FAR">      0.00000000</i>
   <i name="OFIELD_A">      0.00000000</i>
  </separator>
 </parameters>
 <atominfo>
  <atoms>     152 </atoms>
  <types>       4 </types>
  <array name="atoms" >
   <dimension dim="1">ion</dimension>
   <field type="string">element</field>
   <field type="int">atomtype</field>
   <set>
    <rc><c>Sr</c><c>   1</c></rc>
    <rc><c>Sr</c><c>   1</c></rc>
    <rc><c>Sr</c><c>   1</c></rc>
    <rc><c>Sr</c><c>   1</c></rc>
    <rc><c>Sr</c><c>   1</c></rc>
    <rc><c>Sr</c><c>   1</c></rc>
    <rc><c>Sr</c><c>   1</c></rc>
    <rc><c>Sr</c><c>   1</c></rc>
    <rc><c>Sr</c><c>   1</c></rc>
    <rc><c>Sr</c><c>   1</c></rc>
    <rc><c>Sr</c><c>   1</c></rc>
    <rc><c>Sr</c><c>   1</c></rc>
    <rc><c>Sr</c><c>   1</c></rc>
    <rc><c>Sr</c><c>   1</c></rc>
    <rc><c>Sr</c><c>   1</c></rc>
    <rc><c>Sr</c><c>   1</c></rc>
    <rc><c>Sr</c><c>   1</c></rc>
    <rc><c>Sr</c><c>   1</c></rc>
    <rc><c>Sr</c><c>   1</c></rc>
    <rc><c>Sr</c><c>   1</c></rc>
    <rc><c>Sr</c><c>   1</c></rc>
    <rc><c>Sr</c><c>   1</c></rc>
    <rc><c>Sr</c><c>   1</c></rc>
    <rc><c>Sr</c><c>   1</c></rc>
    <rc><c>Sr</c><c>   1</c></rc>
    <rc><c>Sr</c><c>   1</c></rc>
    <rc><c>Sr</c><c>   1</c></rc>
    <rc><c>Sr</c><c>   1</c></rc>
    <rc><c>Sr</c><c>   1</c></rc>
    <rc><c>Sr</c><c>   1</c></rc>
    <rc><c>Sr</c><c>   1</c></rc>
    <rc><c>Sr</c><c>   1</c></rc>
    <rc><c>Ti</c><c>   2</c></rc>
    <rc><c>Ti</c><c>   2</c></rc>
    <rc><c>Ti</c><c>   2</c></rc>
    <rc><c>Ti</c><c>   2</c></rc>
    <rc><c>Ti</c><c>   2</c></rc>
    <rc><c>Ti</c><c>   2</c></rc>
    <rc><c>Ti</c><c>   2</c></rc>
    <rc><c>Ti</c><c>   2</c></rc>
    <rc><c>Ti</c><c>   2</c></rc>
    <rc><c>Ti</c><c>   2</c></rc>
    <rc><c>Ti</c><c>   2</c></rc>
    <rc><c>Ti</c><c>   2</c></rc>
    <rc><c>Ti</c><c>   2</c></rc>
    <rc><c>Ti</c><c>   2</c></rc>
    <rc><c>Ti</c><c>   2</c></rc>
    <rc><c>Ti</c><c>   2</c></rc>
    <rc><c>Fe</c><c>   3</c></rc>
    <rc><c>Fe</c><c>   3</c></rc>
    <rc><c>Fe</c><c>   3</c></rc>
    <rc><c>Fe</c><c>   3</c></rc>
    <rc><c>Fe</c><c>   3</c></rc>
    <rc><c>Fe</c><c>   3</c></rc>
    <rc><c>Fe</c><c>   3</c></rc>
    <rc><c>Fe</c><c>   3</c></rc>
    <rc><c>Fe</c><c>   3</c></rc>
    <rc><c>Fe</c><c>   3</c></rc>
    <rc><c>Fe</c><c>   3</c></rc>
    <rc><c>Fe</c><c>   3</c></rc>
    <rc><c>Fe</c><c>   3</c></rc>
    <rc><c>Fe</c><c>   3</c></rc>
    <rc><c>Fe</c><c>   3</c></rc>
    <rc><c>Fe</c><c>   3</c></rc>
    <rc><c>O </c><c>   4</c></rc>
    <rc><c>O </c><c>   4</c></rc>
    <rc><c>O </c><c>   4</c></rc>
    <rc><c>O </c><c>   4</c></rc>
    <rc><c>O </c><c>   4</c></rc>
    <rc><c>O </c><c>   4</c></rc>
    <rc><c>O </c><c>   4</c></rc>
    <rc><c>O </c><c>   4</c></rc>
    <rc><c>O </c><c>   4</c></rc>
    <rc><c>O </c><c>   4</c></rc>
    <rc><c>O </c><c>   4</c></rc>
    <rc><c>O </c><c>   4</c></rc>
    <rc><c>O </c><c>   4</c></rc>
    <rc><c>O </c><c>   4</c></rc>
    <rc><c>O </c><c>   4</c></rc>
    <rc><c>O </c><c>   4</c></rc>
    <rc><c>O </c><c>   4</c></rc>
    <rc><c>O </c><c>   4</c></rc>
    <rc><c>O </c><c>   4</c></rc>
    <rc><c>O </c><c>   4</c></rc>
    <rc><c>O </c><c>   4</c></rc>
    <rc><c>O </c><c>   4</c></rc>
    <rc><c>O </c><c>   4</c></rc>
    <rc><c>O </c><c>   4</c></rc>
    <rc><c>O </c><c>   4</c></rc>
    <rc><c>O </c><c>   4</c></rc>
    <rc><c>O </c><c>   4</c></rc>
    <rc><c>O </c><c>   4</c></rc>
    <rc><c>O </c><c>   4</c></rc>
    <rc><c>O </c><c>   4</c></rc>
    <rc><c>O </c><c>   4</c></rc>
    <rc><c>O </c><c>   4</c></rc>
    <rc><c>O </c><c>   4</c></rc>
    <rc><c>O </c><c>   4</c></rc>
    <rc><c>O </c><c>   4</c></rc>
    <rc><c>O </c><c>   4</c></rc>
    <rc><c>O </c><c>   4</c></rc>
    <rc><c>O </c><c>   4</c></rc>
    <rc><c>O </c><c>   4</c></rc>
    <rc><c>O </c><c>   4</c></rc>
    <rc><c>O </c><c>   4</c></rc>
    <rc><c>O </c><c>   4</c></rc>
    <rc><c>O </c><c>   4</c></rc>
    <rc><c>O </c><c>   4</c></rc>
    <rc><c>O </c><c>   4</c></rc>
    <rc><c>O </c><c>   4</c></rc>
    <rc><c>O </c><c>   4</c></rc>
    <rc><c>O </c><c>   4</c></rc>
    <rc><c>O </c><c>   4</c></rc>
    <rc><c>O </c><c>   4</c></rc>
    <rc><c>O </c><c>   4</c></rc>
    <rc><c>O </c><c>   4</c></rc>
    <rc><c>O </c><c>   4</c></rc>
    <rc><c>O </c><c>   4</c></rc>
    <rc><c>O </c><c>   4</c></rc>
    <rc><c>O </c><c>   4</c></rc>
    <rc><c>O </c><c>   4</c></rc>
    <rc><c>O </c><c>   4</c></rc>
    <rc><c>O </c><c>   4</c></rc>
    <rc><c>O </c><c>   4</c></rc>
    <rc><c>O </c><c>   4</c></rc>
    <rc><c>O </c><c>   4</c></rc>
    <rc><c>O </c><c>   4</c></rc>
    <rc><c>O </c><c>   4</c></rc>
    <rc><c>O </c><c>   4</c></rc>
    <rc><c>O </c><c>   4</c></rc>
    <rc><c>O </c><c>   4</c></rc>
    <rc><c>O </c><c>   4</c></rc>
    <rc><c>O </c><c>   4</c></rc>
    <rc><c>O </c><c>   4</c></rc>
    <rc><c>O </c><c>   4</c></rc>
    <rc><c>O </c><c>   4</c></rc>
    <rc><c>O </c><c>   4</c></rc>
    <rc><c>O </c><c>   4</c></rc>
    <rc><c>O </c><c>   4</c></rc>
    <rc><c>O </c><c>   4</c></rc>
    <rc><c>O </c><c>   4</c></rc>
    <rc><c>O </c><c>   4</c></rc>
    <rc><c>O </c><c>   4</c></rc>
    <rc><c>O </c><c>   4</c></rc>
    <rc><c>O </c><c>   4</c></rc>
    <rc><c>O </c><c>   4</c></rc>
    <rc><c>O </c><c>   4</c></rc>
    <rc><c>O </c><c>   4</c></rc>
    <rc><c>O </c><c>   4</c></rc>
    <rc><c>O </c><c>   4</c></rc>
    <rc><c>O </c><c>   4</c></rc>
    <rc><c>O </c><c>   4</c></rc>
   </set>
  </array>
  <array name="atomtypes" >
   <dimension dim="1">type</dimension>
   <field type="int">atomspertype</field>
   <field type="string">element</field>
   <field>mass</field>
   <field>valence</field>
   <field type="string">pseudopotential</field>
   <set>
    <rc><c>  32</c><c>Sr</c><c>     87.62000000</c><c>     10.00000000</c><c>  PAW_PBE Sr_sv 07Sep2000               </c></rc>
    <rc><c>  16</c><c>Ti</c><c>     47.88000000</c><c>      4.00000000</c><c>  PAW_PBE Ti 08Apr2002                  </c></rc>
    <rc><c>  16</c><c>Fe</c><c>     55.84700000</c><c>      8.00000000</c><c>  PAW_PBE Fe 06Sep2000                  </c></rc>
    <rc><c>  88</c><c>O </c><c>     16.00000000</c><c>      6.00000000</c><c>  PAW_PBE O 08Apr2002                   </c></rc>
   </set>
  </array>
 </atominfo>
 <structure name="initialpos" >
  <crystal>
   <varray name="basis" >
    <v>      11.27436530       0.01011205       0.00000000 </v>
    <v>       0.01026857      11.31963375       0.00000000 </v>
    <v>       0.00000000       0.00000000      15.74632984 </v>
   </varray>
   <i name="volume">   2009.57152669 </i>
   <varray name="rec_basis" >
    <v>       0.08869686      -0.00008046       0.00000000 </v>
    <v>      -0.00007923       0.08834215       0.00000000 </v>
    <v>       0.00000000       0.00000000       0.06350686 </v>
   </varray>
  </crystal>
  <varray name="positions" >
   <v>       0.98921960       0.24415832       0.11664976 </v>
   <v>       0.98921960       0.24415832       0.61664976 </v>
   <v>       0.98921960       0.74415832       0.11664976 </v>
   <v>       0.98921960       0.74415832       0.61664976 </v>
   <v>       0.50679607       0.24788179       0.12099818 </v>
   <v>       0.50679607       0.24788179       0.62099818 </v>
   <v>       0.50679607       0.74788179       0.12099818 </v>
   <v>       0.50679607       0.74788179       0.62099818 </v>
   <v>       0.98921960       0.24415832       0.38335024 </v>
   <v>       0.98921960       0.24415832       0.88335024 </v>
   <v>       0.98921960       0.74415832       0.38335024 </v>
   <v>       0.98921960       0.74415832       0.88335024 </v>
   <v>       0.50679607       0.24788179       0.37900182 </v>
   <v>       0.50679607       0.24788179       0.87900182 </v>
   <v>       0.50679607       0.74788179       0.37900182 </v>
   <v>       0.50679607       0.74788179       0.87900182 </v>
   <v>       0.24872877       0.00129325       0.11350177 </v>
   <v>       0.24872877       0.00129325       0.61350177 </v>
   <v>       0.24872877       0.50129325       0.11350177 </v>
   <v>       0.24872877       0.50129325       0.61350177 </v>
   <v>       0.75328335       0.00269991       0.12121932 </v>
   <v>       0.75328335       0.00269991       0.62121932 </v>
   <v>       0.75328335       0.50269991       0.12121932 </v>
   <v>       0.75328335       0.50269991       0.62121932 </v>
   <v>       0.24872877       0.00129325       0.38649823 </v>
   <v>       0.24872877       0.00129325       0.88649823 </v>
   <v>       0.24872877       0.50129325       0.38649823 </v>
   <v>       0.24872877       0.50129325       0.88649823 </v>
   <v>       0.75328335       0.00269991       0.37878068 </v>
   <v>       0.75328335       0.00269991       0.87878068 </v>
   <v>       0.75328335       0.50269991       0.37878068 </v>
   <v>       0.75328335       0.50269991       0.87878068 </v>
   <v>       0.50073823       0.50153494       0.50000000 </v>
   <v>       0.99550020       0.99863034       0.50000000 </v>
   <v>       0.99550020       0.49863034       0.50000000 </v>
   <v>       0.99550020       0.49863034       0.00000000 </v>
   <v>       0.24614473       0.74546607       0.00000000 </v>
   <v>       0.24614473       0.24546607       0.50000000 </v>
   <v>       0.50073823       0.50153494       0.00000000 </v>
   <v>       0.99550020       0.99863034       0.00000000 </v>
   <v>       0.50073823       0.00153494       0.50000000 </v>
   <v>       0.75175549       0.74477958       0.25000000 </v>
   <v>       0.75175549       0.74477958       0.75000000 </v>
   <v>       0.50073823       0.00153494       0.00000000 </v>
   <v>       0.24614473       0.24546607       0.00000000 </v>
   <v>       0.75175549       0.24477958       0.25000000 </v>
   <v>       0.75175549       0.24477958       0.75000000 </v>
   <v>       0.24614473       0.74546607       0.50000000 </v>
   <v>       0.99083539       0.48405741       0.25000000 </v>
   <v>       0.52061573       0.98951052       0.25000000 </v>
   <v>       0.74713267       0.25084243       0.00000000 </v>
   <v>       0.74713267       0.25084243       0.50000000 </v>
   <v>       0.74713267       0.75084243       0.00000000 </v>
   <v>       0.99083539       0.98405741       0.75000000 </v>
   <v>       0.25445291       0.29184786       0.25000000 </v>
   <v>       0.25445291       0.79184786       0.25000000 </v>
   <v>       0.74713267       0.75084243       0.50000000 </v>
   <v>       0.25445291       0.29184786       0.75000000 </v>
   <v>       0.25445291       0.79184786       0.75000000 </v>
   <v>       0.99083539       0.48405741       0.75000000 </v>
   <v>       0.52061573       0.98951052       0.75000000 </v>
   <v>       0.99083539       0.98405741       0.25000000 </v>
   <v>       0.52061573       0.48951052       0.75000000 </v>
   <v>       0.52061573       0.48951052       0.25000000 </v>
   <v>       0.00544750       0.00674097       0.12617700 </v>
   <v>       0.00544750       0.00674097       0.62617700 </v>
   <v>       0.00544750       0.50674097       0.12617700 </v>
   <v>       0.00544750       0.50674097       0.62617700 </v>
   <v>       0.48331739       0.01060197       0.12803868 </v>
   <v>       0.48331739       0.01060197       0.62803868 </v>
   <v>       0.48331739       0.51060197       0.12803868 </v>
   <v>       0.48331739       0.51060197       0.62803868 </v>
   <v>       0.00544750       0.00674097       0.37382300 </v>
   <v>       0.00544750       0.00674097       0.87382300 </v>
   <v>       0.00544750       0.50674097       0.37382300 </v>
   <v>       0.00544750       0.50674097       0.87382300 </v>
   <v>       0.48331739       0.01060197       0.37196132 </v>
   <v>       0.48331739       0.01060197       0.87196132 </v>
   <v>       0.48331739       0.51060197       0.37196132 </v>
   <v>       0.48331739       0.51060197       0.87196132 </v>
   <v>       0.23523155       0.23046892       0.36297529 </v>
   <v>       0.23523155       0.23046892       0.86297529 </v>
   <v>       0.23523155       0.73046892       0.36297529 </v>
   <v>       0.23523155       0.73046892       0.86297529 </v>
   <v>       0.74952325       0.25126323       0.37463830 </v>
   <v>       0.74952325       0.25126323       0.87463830 </v>
   <v>       0.74952325       0.75126323       0.37463830 </v>
   <v>       0.74952325       0.75126323       0.87463830 </v>
   <v>       0.23523155       0.23046892       0.13702471 </v>
   <v>       0.23523155       0.23046892       0.63702471 </v>
   <v>       0.23523155       0.73046892       0.13702471 </v>
   <v>       0.23523155       0.73046892       0.63702471 </v>
   <v>       0.74952325       0.25126323       0.12536170 </v>
   <v>       0.74952325       0.25126323       0.62536170 </v>
   <v>       0.74952325       0.75126323       0.12536170 </v>
   <v>       0.74952325       0.75126323       0.62536170 </v>
   <v>       0.60600410       0.14531716       0.25000000 </v>
   <v>       0.86203794       0.10529274       0.25000000 </v>
   <v>       0.16325674       0.43197024       0.25000000 </v>
   <v>       0.40929379       0.34691232       0.25000000 </v>
   <v>       0.65900666       0.39731818       0.25000000 </v>
   <v>       0.90825085       0.34053083       0.25000000 </v>
   <v>       0.60600410       0.64531716       0.25000000 </v>
   <v>       0.86203794       0.60529274       0.25000000 </v>
   <v>       0.16325674       0.93197024       0.25000000 </v>
   <v>       0.40929379       0.84691232       0.25000000 </v>
   <v>       0.65900666       0.89731818       0.25000000 </v>
   <v>       0.90825085       0.84053083       0.25000000 </v>
   <v>       0.13113562       0.11631502       0.50000000 </v>
   <v>       0.37431521       0.13155618       0.50000000 </v>
   <v>       0.62580376       0.11785249       0.50000000 </v>
   <v>       0.87951142       0.12760778       0.50000000 </v>
   <v>       0.11835439       0.36398395       0.50000000 </v>
   <v>       0.36160730       0.37553756       0.50000000 </v>
   <v>       0.61193390       0.37225754       0.50000000 </v>
   <v>       0.87121802       0.38066214       0.50000000 </v>
   <v>       0.13113562       0.61631502       0.50000000 </v>
   <v>       0.37431521       0.63155618       0.50000000 </v>
   <v>       0.62580376       0.61785249       0.50000000 </v>
   <v>       0.87951142       0.62760778       0.50000000 </v>
   <v>       0.11835439       0.86398395       0.50000000 </v>
   <v>       0.36160730       0.87553756       0.50000000 </v>
   <v>       0.61193390       0.87225754       0.50000000 </v>
   <v>       0.87121802       0.88066214       0.50000000 </v>
   <v>       0.60600410       0.14531716       0.75000000 </v>
   <v>       0.86203794       0.10529274       0.75000000 </v>
   <v>       0.16325674       0.43197024       0.75000000 </v>
   <v>       0.40929379       0.34691232       0.75000000 </v>
   <v>       0.65900666       0.39731818       0.75000000 </v>
   <v>       0.90825085       0.34053083       0.75000000 </v>
   <v>       0.60600410       0.64531716       0.75000000 </v>
   <v>       0.86203794       0.60529274       0.75000000 </v>
   <v>       0.16325674       0.93197024       0.75000000 </v>
   <v>       0.40929379       0.84691232       0.75000000 </v>
   <v>       0.65900666       0.89731818       0.75000000 </v>
   <v>       0.90825085       0.84053083       0.75000000 </v>
   <v>       0.13113562       0.11631502       0.00000000 </v>
   <v>       0.37431521       0.13155618       0.00000000 </v>
   <v>       0.62580376       0.11785249       0.00000000 </v>
   <v>       0.87951142       0.12760778       0.00000000 </v>
   <v>       0.11835439       0.36398395       0.00000000 </v>
   <v>       0.36160730       0.37553756       0.00000000 </v>
   <v>       0.61193390       0.37225754       0.00000000 </v>
   <v>       0.87121802       0.38066214       0.00000000 </v>
   <v>       0.13113562       0.61631502       0.00000000 </v>
   <v>       0.37431521       0.63155618       0.00000000 </v>
   <v>       0.62580376       0.61785249       0.00000000 </v>
   <v>       0.87951142       0.62760778       0.00000000 </v>
   <v>       0.11835439       0.86398395       0.00000000 </v>
   <v>       0.36160730       0.87553756       0.00000000 </v>
   <v>       0.61193390       0.87225754       0.00000000 </v>
   <v>       0.87121802       0.88066214       0.00000000 </v>
  </varray>
 </structure>
 <calculation>
  <scstep>
   <time name="dav">  153.88  153.92</time>
   <time name="total">  156.59  156.67</time>
   <energy>
    <i name="alphaZ">   5604.29790277 </i>
    <i name="ewald"> -62039.94205708 </i>
    <i name="hartreedc"> -17531.54810539 </i>
    <i name="XCdc">   3186.53181502 </i>
    <i name="pawpsdc"> 115901.73927099 </i>
    <i name="pawaedc">-115104.92842842 </i>
    <i name="eentropy">     -0.00000000 </i>
    <i name="bandstr">  -7123.65297901 </i>
    <i name="atom">  76050.17612637 </i>
    <i name="e_fr_energy">  -1057.32645475 </i>
    <i name="e_wo_entrp">  -1057.32645475 </i>
    <i name="e_0_energy">  -1057.32645475 </i>
   </energy>
  </scstep>
  <scstep>
   <time name="diag">   16.64   16.65</time>
   <time name="diis">   16.31   16.31</time>
   <time name="orth">    9.48    9.48</time>
   <time name="total">   45.18   45.21</time>
   <energy>
    <i name="e_fr_energy">  -1057.32646245 </i>
    <i name="e_wo_entrp">  -1057.32646245 </i>
    <i name="e_0_energy">  -1057.32646245 </i>
   </energy>
  </scstep>
  <scstep>
   <time name="diag">   16.62   16.62</time>
   <time name="diis">   15.96   15.97</time>
   <time name="orth">    9.48    9.48</time>
   <time name="total">   44.81   44.84</time>
   <energy>
    <i name="e_fr_energy">  -1057.32646542 </i>
    <i name="e_wo_entrp">  -1057.32646542 </i>
    <i name="e_0_energy">  -1057.32646542 </i>
   </energy>
  </scstep>
  <scstep>
   <time name="diag">   16.65   16.65</time>
   <time name="diis">   15.63   15.63</time>
   <time name="orth">    9.45    9.45</time>
   <time name="total">   44.49   44.57</time>
   <energy>
    <i name="e_fr_energy">  -1057.32647188 </i>
    <i name="e_wo_entrp">  -1057.32647188 </i>
    <i name="e_0_energy">  -1057.32647188 </i>
   </energy>
  </scstep>
  <scstep>
   <time name="diag">   16.63   16.63</time>
   <time name="diis">   15.34   15.34</time>
   <time name="orth">    9.49    9.49</time>
   <time name="total">   44.22   44.28</time>
   <energy>
    <i name="e_fr_energy">  -1057.32647422 </i>
    <i name="e_wo_entrp">  -1057.32647422 </i>
    <i name="e_0_energy">  -1057.32647422 </i>
   </energy>
  </scstep>
  <scstep>
   <time name="diag">   16.66   16.66</time>
   <time name="diis">   14.26   14.27</time>
   <time name="orth">    9.50    9.50</time>
   <time name="total">   43.17   43.24</time>
   <energy>
    <i name="e_fr_energy">  -1057.32647518 </i>
    <i name="e_wo_entrp">  -1057.32647518 </i>
    <i name="e_0_energy">  -1057.32647518 </i>
   </energy>
  </scstep>
  <scstep>
   <time name="diag">   16.62   16.63</time>
   <time name="diis">   13.58   13.58</time>
   <time name="orth">    9.44    9.44</time>
   <time name="total">   42.36   42.42</time>
   <energy>
    <i name="e_fr_energy">  -1057.32647572 </i>
    <i name="e_wo_entrp">  -1057.32647572 </i>
    <i name="e_0_energy">  -1057.32647572 </i>
   </energy>
  </scstep>
  <scstep>
   <time name="diag">   16.63   16.64</time>
   <time name="diis">   12.84   12.84</time>
   <time name="orth">    9.42    9.43</time>
   <time name="total">   39.46   39.55</time>
   <energy>
    <i name="alphaZ">   5604.29790277 </i>
    <i name="ewald"> -62039.94205708 </i>
    <i name="hartreedc"> -17531.50065488 </i>
    <i name="XCdc">   3186.52518477 </i>
    <i name="pawpsdc"> 115894.18775662 </i>
    <i name="pawaedc">-115097.33958104 </i>
    <i name="eentropy">     -0.00000000 </i>
    <i name="bandstr">  -7123.73115358 </i>
    <i name="atom">  76050.17612637 </i>
    <i name="e_fr_energy">  -1057.32647605 </i>
    <i name="e_wo_entrp">  -1057.32647605 </i>
    <i name="e_0_energy">  -1057.32647605 </i>
   </energy>
  </scstep>
  <structure>
   <crystal>
    <varray name="basis" >
     <v>      11.27436530       0.01011205       0.00000000 </v>
     <v>       0.01026857      11.31963375       0.00000000 </v>
     <v>       0.00000000       0.00000000      15.74632984 </v>
    </varray>
    <i name="volume">   2009.57152669 </i>
    <varray name="rec_basis" >
     <v>       0.08869686      -0.00008046       0.00000000 </v>
     <v>      -0.00007923       0.08834215       0.00000000 </v>
     <v>       0.00000000       0.00000000       0.06350686 </v>
    </varray>
   </crystal>
   <varray name="positions" >
    <v>       0.98921960       0.24415832       0.11664976 </v>
    <v>       0.98921960       0.24415832       0.61664976 </v>
    <v>       0.98921960       0.74415832       0.11664976 </v>
    <v>       0.98921960       0.74415832       0.61664976 </v>
    <v>       0.50679607       0.24788179       0.12099818 </v>
    <v>       0.50679607       0.24788179       0.62099818 </v>
    <v>       0.50679607       0.74788179       0.12099818 </v>
    <v>       0.50679607       0.74788179       0.62099818 </v>
    <v>       0.98921960       0.24415832       0.38335024 </v>
    <v>       0.98921960       0.24415832       0.88335024 </v>
    <v>       0.98921960       0.74415832       0.38335024 </v>
    <v>       0.98921960       0.74415832       0.88335024 </v>
    <v>       0.50679607       0.24788179       0.37900182 </v>
    <v>       0.50679607       0.24788179       0.87900182 </v>
    <v>       0.50679607       0.74788179       0.37900182 </v>
    <v>       0.50679607       0.74788179       0.87900182 </v>
    <v>       0.24872877       0.00129325       0.11350177 </v>
    <v>       0.24872877       0.00129325       0.61350177 </v>
    <v>       0.24872877       0.50129325       0.11350177 </v>
    <v>       0.24872877       0.50129325       0.61350177 </v>
    <v>       0.75328335       0.00269991       0.12121932 </v>
    <v>       0.75328335       0.00269991       0.62121932 </v>
    <v>       0.75328335       0.50269991       0.12121932 </v>
    <v>       0.75328335       0.50269991       0.62121932 </v>
    <v>       0.24872877       0.00129325       0.38649823 </v>
    <v>       0.24872877       0.00129325       0.88649823 </v>
    <v>       0.24872877       0.50129325       0.38649823 </v>
    <v>       0.24872877       0.50129325       0.88649823 </v>
    <v>       0.75328335       0.00269991       0.37878068 </v>
    <v>       0.75328335       0.00269991       0.87878068 </v>
    <v>       0.75328335       0.50269991       0.37878068 </v>
    <v>       0.75328335       0.50269991       0.87878068 </v>
    <v>       0.50073823       0.50153494       0.50000000 </v>
    <v>       0.99550020       0.99863034       0.50000000 </v>
    <v>       0.99550020       0.49863034       0.50000000 </v>
    <v>       0.99550020       0.49863034       0.00000000 </v>
    <v>       0.24614473       0.74546607       0.00000000 </v>
    <v>       0.24614473       0.24546607       0.50000000 </v>
    <v>       0.50073823       0.50153494       0.00000000 </v>
    <v>       0.99550020       0.99863034       0.00000000 </v>
    <v>       0.50073823       0.00153494       0.50000000 </v>
    <v>       0.75175549       0.74477958       0.25000000 </v>
    <v>       0.75175549       0.74477958       0.75000000 </v>
    <v>       0.50073823       0.00153494       0.00000000 </v>
    <v>       0.24614473       0.24546607       0.00000000 </v>
    <v>       0.75175549       0.24477958       0.25000000 </v>
    <v>       0.75175549       0.24477958       0.75000000 </v>
    <v>       0.24614473       0.74546607       0.50000000 </v>
    <v>       0.99083539       0.48405741       0.25000000 </v>
    <v>       0.52061573       0.98951052       0.25000000 </v>
    <v>       0.74713267       0.25084243       0.00000000 </v>
    <v>       0.74713267       0.25084243       0.50000000 </v>
    <v>       0.74713267       0.75084243       0.00000000 </v>
    <v>       0.99083539       0.98405741       0.75000000 </v>
    <v>       0.25445291       0.29184786       0.25000000 </v>
    <v>       0.25445291       0.79184786       0.25000000 </v>
    <v>       0.74713267       0.75084243       0.50000000 </v>
    <v>       0.25445291       0.29184786       0.75000000 </v>
    <v>       0.25445291       0.79184786       0.75000000 </v>
    <v>       0.99083539       0.48405741       0.75000000 </v>
    <v>       0.52061573       0.98951052       0.75000000 </v>
    <v>       0.99083539       0.98405741       0.25000000 </v>
    <v>       0.52061573       0.48951052       0.75000000 </v>
    <v>       0.52061573       0.48951052       0.25000000 </v>
    <v>       0.00544750       0.00674097       0.12617700 </v>
    <v>       0.00544750       0.00674097       0.62617700 </v>
    <v>       0.00544750       0.50674097       0.12617700 </v>
    <v>       0.00544750       0.50674097       0.62617700 </v>
    <v>       0.48331739       0.01060197       0.12803868 </v>
    <v>       0.48331739       0.01060197       0.62803868 </v>
    <v>       0.48331739       0.51060197       0.12803868 </v>
    <v>       0.48331739       0.51060197       0.62803868 </v>
    <v>       0.00544750       0.00674097       0.37382300 </v>
    <v>       0.00544750       0.00674097       0.87382300 </v>
    <v>       0.00544750       0.50674097       0.37382300 </v>
    <v>       0.00544750       0.50674097       0.87382300 </v>
    <v>       0.48331739       0.01060197       0.37196132 </v>
    <v>       0.48331739       0.01060197       0.87196132 </v>
    <v>       0.48331739       0.51060197       0.37196132 </v>
    <v>       0.48331739       0.51060197       0.87196132 </v>
    <v>       0.23523155       0.23046892       0.36297529 </v>
    <v>       0.23523155       0.23046892       0.86297529 </v>
    <v>       0.23523155       0.73046892       0.36297529 </v>
    <v>       0.23523155       0.73046892       0.86297529 </v>
    <v>       0.74952325       0.25126323       0.37463830 </v>
    <v>       0.74952325       0.25126323       0.87463830 </v>
    <v>       0.74952325       0.75126323       0.37463830 </v>
    <v>       0.74952325       0.75126323       0.87463830 </v>
    <v>       0.23523155       0.23046892       0.13702471 </v>
    <v>       0.23523155       0.23046892       0.63702471 </v>
    <v>       0.23523155       0.73046892       0.13702471 </v>
    <v>       0.23523155       0.73046892       0.63702471 </v>
    <v>       0.74952325       0.25126323       0.12536170 </v>
    <v>       0.74952325       0.25126323       0.62536170 </v>
    <v>       0.74952325       0.75126323       0.12536170 </v>
    <v>       0.74952325       0.75126323       0.62536170 </v>
    <v>       0.60600410       0.14531716       0.25000000 </v>
    <v>       0.86203794       0.10529274       0.25000000 </v>
    <v>       0.16325674       0.43197024       0.25000000 </v>
    <v>       0.40929379       0.34691232       0.25000000 </v>
    <v>       0.65900666       0.39731818       0.25000000 </v>
    <v>       0.90825085       0.34053083       0.25000000 </v>
    <v>       0.60600410       0.64531716       0.25000000 </v>
    <v>       0.86203794       0.60529274       0.25000000 </v>
    <v>       0.16325674       0.93197024       0.25000000 </v>
    <v>       0.40929379       0.84691232       0.25000000 </v>
    <v>       0.65900666       0.89731818       0.25000000 </v>
    <v>       0.90825085       0.84053083       0.25000000 </v>
    <v>       0.13113562       0.11631502       0.50000000 </v>
    <v>       0.37431521       0.13155618       0.50000000 </v>
    <v>       0.62580376       0.11785249       0.50000000 </v>
    <v>       0.87951142       0.12760778       0.50000000 </v>
    <v>       0.11835439       0.36398395       0.50000000 </v>
    <v>       0.36160730       0.37553756       0.50000000 </v>
    <v>       0.61193390       0.37225754       0.50000000 </v>
    <v>       0.87121802       0.38066214       0.50000000 </v>
    <v>       0.13113562       0.61631502       0.50000000 </v>
    <v>       0.37431521       0.63155618       0.50000000 </v>
    <v>       0.62580376       0.61785249       0.50000000 </v>
    <v>       0.87951142       0.62760778       0.50000000 </v>
    <v>       0.11835439       0.86398395       0.50000000 </v>
    <v>       0.36160730       0.87553756       0.50000000 </v>
    <v>       0.61193390       0.87225754       0.50000000 </v>
    <v>       0.87121802       0.88066214       0.50000000 </v>
    <v>       0.60600410       0.14531716       0.75000000 </v>
    <v>       0.86203794       0.10529274       0.75000000 </v>
    <v>       0.16325674       0.43197024       0.75000000 </v>
    <v>       0.40929379       0.34691232       0.75000000 </v>
    <v>       0.65900666       0.39731818       0.75000000 </v>
    <v>       0.90825085       0.34053083       0.75000000 </v>
    <v>       0.60600410       0.64531716       0.75000000 </v>
    <v>       0.86203794       0.60529274       0.75000000 </v>
    <v>       0.16325674       0.93197024       0.75000000 </v>
    <v>       0.40929379       0.84691232       0.75000000 </v>
    <v>       0.65900666       0.89731818       0.75000000 </v>
    <v>       0.90825085       0.84053083       0.75000000 </v>
    <v>       0.13113562       0.11631502       0.00000000 </v>
    <v>       0.37431521       0.13155618       0.00000000 </v>
    <v>       0.62580376       0.11785249       0.00000000 </v>
    <v>       0.87951142       0.12760778       0.00000000 </v>
    <v>       0.11835439       0.36398395       0.00000000 </v>
    <v>       0.36160730       0.37553756       0.00000000 </v>
    <v>       0.61193390       0.37225754       0.00000000 </v>
    <v>       0.87121802       0.38066214       0.00000000 </v>
    <v>       0.13113562       0.61631502       0.00000000 </v>
    <v>       0.37431521       0.63155618       0.00000000 </v>
    <v>       0.62580376       0.61785249       0.00000000 </v>
    <v>       0.87951142       0.62760778       0.00000000 </v>
    <v>       0.11835439       0.86398395       0.00000000 </v>
    <v>       0.36160730       0.87553756       0.00000000 </v>
    <v>       0.61193390       0.87225754       0.00000000 </v>
    <v>       0.87121802       0.88066214       0.00000000 </v>
   </varray>
  </structure>
  <varray name="forces" >
   <v>       0.04322378       0.04312709       0.02594460 </v>
   <v>       0.04322378       0.04312709       0.02594460 </v>
   <v>       0.04322378       0.04312709       0.02594460 </v>
   <v>       0.04322378       0.04312709       0.02594460 </v>
   <v>      -0.00570787       0.01799805       0.04861392 </v>
   <v>      -0.00570787       0.01799805       0.04861392 </v>
   <v>      -0.00570787       0.01799805       0.04861392 </v>
   <v>      -0.00570787       0.01799805       0.04861392 </v>
   <v>       0.04322378       0.04312709      -0.02594460 </v>
   <v>       0.04322378       0.04312709      -0.02594460 </v>
   <v>       0.04322378       0.04312709      -0.02594460 </v>
   <v>       0.04322378       0.04312709      -0.02594460 </v>
   <v>      -0.00570787       0.01799805      -0.04861392 </v>
   <v>      -0.00570787       0.01799805      -0.04861392 </v>
   <v>      -0.00570787       0.01799805      -0.04861392 </v>
   <v>      -0.00570787       0.01799805      -0.04861392 </v>
   <v>      -0.15018821       0.02371243       0.04898606 </v>
   <v>      -0.15018821       0.02371243       0.04898606 </v>
   <v>      -0.15018821       0.02371243       0.04898606 </v>
   <v>      -0.15018821       0.02371243       0.04898606 </v>
   <v>       0.00974725      -0.04155998       0.02236819 </v>
   <v>       0.00974725      -0.04155998       0.02236819 </v>
   <v>       0.00974725      -0.04155998       0.02236819 </v>
   <v>       0.00974725      -0.04155998       0.02236819 </v>
   <v>      -0.15018821       0.02371243      -0.04898606 </v>
   <v>      -0.15018821       0.02371243      -0.04898606 </v>
   <v>      -0.15018821       0.02371243      -0.04898606 </v>
   <v>      -0.15018821       0.02371243      -0.04898606 </v>
   <v>       0.00974725      -0.04155998      -0.02236819 </v>
   <v>       0.00974725      -0.04155998      -0.02236819 </v>
   <v>       0.00974725      -0.04155998      -0.02236819 </v>
   <v>       0.00974725      -0.04155998      -0.02236819 </v>
   <v>      -0.20274320      -0.06238998      -0.00000000 </v>
   <v>       0.18251908      -0.03016742      -0.00000000 </v>
   <v>       0.18251908      -0.03016742      -0.00000000 </v>
   <v>       0.18251908      -0.03016742      -0.00000000 </v>
   <v>      -0.10467750       0.16624685      -0.00000000 </v>
   <v>      -0.10467750       0.16624685      -0.00000000 </v>
   <v>      -0.20274320      -0.06238998      -0.00000000 </v>
   <v>       0.18251908      -0.03016742      -0.00000000 </v>
   <v>      -0.20274320      -0.06238998      -0.00000000 </v>
   <v>       0.11011637      -0.07321453      -0.00000000 </v>
   <v>       0.11011637      -0.07321453      -0.00000000 </v>
   <v>      -0.20274320      -0.06238998      -0.00000000 </v>
   <v>      -0.10467750       0.16624685      -0.00000000 </v>
   <v>       0.11011637      -0.07321453      -0.00000000 </v>
   <v>       0.11011637      -0.07321453      -0.00000000 </v>
   <v>      -0.10467750       0.16624685      -0.00000000 </v>
   <v>       0.05990263       0.02946325      -0.00000000 </v>
   <v>      -0.03119919      -0.02457951      -0.00000000 </v>
   <v>       0.01375946      -0.01364387      -0.00000000 </v>
   <v>       0.01375946      -0.01364387      -0.00000000 </v>
   <v>       0.01375946      -0.01364387      -0.00000000 </v>
   <v>       0.05990263       0.02946325      -0.00000000 </v>
   <v>      -0.06949019      -0.01051872      -0.00000000 </v>
   <v>      -0.06949019      -0.01051872      -0.00000000 </v>
   <v>       0.01375946      -0.01364387      -0.00000000 </v>
   <v>      -0.06949019      -0.01051872      -0.00000000 </v>
   <v>      -0.06949019      -0.01051872      -0.00000000 </v>
   <v>       0.05990263       0.02946325      -0.00000000 </v>
   <v>      -0.03119919      -0.02457951      -0.00000000 </v>
   <v>       0.05990263       0.02946325      -0.00000000 </v>
   <v>      -0.03119919      -0.02457951      -0.00000000 </v>
   <v>      -0.03119919      -0.02457951      -0.00000000 </v>
   <v>      -0.02554581      -0.00960090      -0.03781452 </v>
   <v>      -0.02554581      -0.00960090      -0.03781452 </v>
   <v>      -0.02554581      -0.00960090      -0.03781452 </v>
   <v>      -0.02554581      -0.00960090      -0.03781452 </v>
   <v>       0.04877286      -0.01153968       0.00139353 </v>
   <v>       0.04877286      -0.01153968       0.00139353 </v>
   <v>       0.04877286      -0.01153968       0.00139353 </v>
   <v>       0.04877286      -0.01153968       0.00139353 </v>
   <v>      -0.02554581      -0.00960090       0.03781452 </v>
   <v>      -0.02554581      -0.00960090       0.03781452 </v>
   <v>      -0.02554581      -0.00960090       0.03781452 </v>
   <v>      -0.02554581      -0.00960090       0.03781452 </v>
   <v>       0.04877286      -0.01153968      -0.00139353 </v>
   <v>       0.04877286      -0.01153968      -0.00139353 </v>
   <v>       0.04877286      -0.01153968      -0.00139353 </v>
   <v>       0.04877286      -0.01153968      -0.00139353 </v>
   <v>       0.03325181       0.00636898      -0.01881604 </v>
   <v>       0.03325181       0.00636898      -0.01881604 </v>
   <v>       0.03325181       0.00636898      -0.01881604 </v>
   <v>       0.03325181       0.00636898      -0.01881604 </v>
   <v>      -0.01073467      -0.06043695       0.11555415 </v>
   <v>      -0.01073467      -0.06043695       0.11555415 </v>
   <v>      -0.01073467      -0.06043695       0.11555415 </v>
   <v>      -0.01073467      -0.06043695       0.11555415 </v>
   <v>       0.03325181       0.00636898       0.01881604 </v>
   <v>       0.03325181       0.00636898       0.01881604 </v>
   <v>       0.03325181       0.00636898       0.01881604 </v>
   <v>       0.03325181       0.00636898       0.01881604 </v>
   <v>      -0.01073467      -0.06043695      -0.11555415 </v>
   <v>      -0.01073467      -0.06043695      -0.11555415 </v>
   <v>      -0.01073467      -0.06043695      -0.11555415 </v>
   <v>      -0.01073467      -0.06043695      -0.11555415 </v>
   <v>       0.02416141      -0.12066793      -0.00000000 </v>
   <v>      -0.00866744      -0.02656021      -0.00000000 </v>
   <v>      -0.01008335       0.09505212      -0.00000000 </v>
   <v>       0.13081835       0.10931551      -0.00000000 </v>
   <v>       0.01002481      -0.03513287      -0.00000000 </v>
   <v>      -0.04385378      -0.06892213      -0.00000000 </v>
   <v>       0.02416141      -0.12066793      -0.00000000 </v>
   <v>      -0.00866744      -0.02656021      -0.00000000 </v>
   <v>      -0.01008335       0.09505212      -0.00000000 </v>
   <v>       0.13081835       0.10931551      -0.00000000 </v>
   <v>       0.01002481      -0.03513287      -0.00000000 </v>
   <v>      -0.04385378      -0.06892213      -0.00000000 </v>
   <v>      -0.08542924       0.03591555      -0.00000000 </v>
   <v>       0.09895763      -0.02607490      -0.00000000 </v>
   <v>       0.06580038       0.05038460      -0.00000000 </v>
   <v>      -0.10389093       0.10355363      -0.00000000 </v>
   <v>       0.02116276       0.02266989      -0.00000000 </v>
   <v>       0.07910309       0.06119770      -0.00000000 </v>
   <v>       0.08753076      -0.04031739      -0.00000000 </v>
   <v>      -0.10946016      -0.07774773      -0.00000000 </v>
   <v>      -0.08542924       0.03591555      -0.00000000 </v>
   <v>       0.09895763      -0.02607490      -0.00000000 </v>
   <v>       0.06580038       0.05038460      -0.00000000 </v>
   <v>      -0.10389093       0.10355363      -0.00000000 </v>
   <v>       0.02116276       0.02266989      -0.00000000 </v>
   <v>       0.07910309       0.06119770      -0.00000000 </v>
   <v>       0.08753076      -0.04031739      -0.00000000 </v>
   <v>      -0.10946016      -0.07774773      -0.00000000 </v>
   <v>       0.02416141      -0.12066793      -0.00000000 </v>
   <v>      -0.00866744      -0.02656021      -0.00000000 </v>
   <v>      -0.01008335       0.09505212      -0.00000000 </v>
   <v>       0.13081835       0.10931551      -0.00000000 </v>
   <v>       0.01002481      -0.03513287      -0.00000000 </v>
   <v>      -0.04385378      -0.06892213      -0.00000000 </v>
   <v>       0.02416141      -0.12066793      -0.00000000 </v>
   <v>      -0.00866744      -0.02656021      -0.00000000 </v>
   <v>      -0.01008335       0.09505212      -0.00000000 </v>
   <v>       0.13081835       0.10931551      -0.00000000 </v>
   <v>       0.01002481      -0.03513287      -0.00000000 </v>
   <v>      -0.04385378      -0.06892213      -0.00000000 </v>
   <v>      -0.08542924       0.03591555      -0.00000000 </v>
   <v>       0.09895763      -0.02607490      -0.00000000 </v>
   <v>       0.06580038       0.05038460      -0.00000000 </v>
   <v>      -0.10389093       0.10355363      -0.00000000 </v>
   <v>       0.02116276       0.02266989      -0.00000000 </v>
   <v>       0.07910309       0.06119770      -0.00000000 </v>
   <v>       0.08753076      -0.04031739      -0.00000000 </v>
   <v>      -0.10946016      -0.07774773      -0.00000000 </v>
   <v>      -0.08542924       0.03591555      -0.00000000 </v>
   <v>       0.09895763      -0.02607490      -0.00000000 </v>
   <v>       0.06580038       0.05038460      -0.00000000 </v>
   <v>      -0.10389093       0.10355363      -0.00000000 </v>
   <v>       0.02116276       0.02266989      -0.00000000 </v>
   <v>       0.07910309       0.06119770      -0.00000000 </v>
   <v>       0.08753076      -0.04031739      -0.00000000 </v>
   <v>      -0.10946016      -0.07774773      -0.00000000 </v>
  </varray>
  <varray name="stress" >
   <v>       1.12131251       0.16313738       0.00000000 </v>
   <v>       0.16313667       1.23891814       0.00000000 </v>
   <v>       0.00000000       0.00000000      -0.07016636 </v>
  </varray>
  <energy>
   <i name="e_fr_energy">  -1057.32647605 </i>
   <i name="e_wo_entrp">  -1057.32647605 </i>
   <i name="e_0_energy">     -0.00000000 </i>
  </energy>
  <time name="totalsc">  552.30  554.49</time>
 </calculation>
 <calculation>
  <scstep>
   <time name="dav">  144.12  144.15</time>
   <time name="total">  146.84  146.92</time>
   <energy>
    <i name="alphaZ">   5599.19233664 </i>
    <i name="ewald"> -62017.45990590 </i>
    <i name="hartreedc"> -17531.43604618 </i>
    <i name="XCdc">   3185.28240402 </i>
    <i name="pawpsdc"> 115894.21916726 </i>
    <i name="pawaedc">-115097.36974666 </i>
    <i name="eentropy">     -0.00000000 </i>
    <i name="bandstr">  -7139.93712954 </i>
    <i name="atom">  76050.17612637 </i>
    <i name="e_fr_energy">  -1057.33279399 </i>
    <i name="e_wo_entrp">  -1057.33279399 </i>
    <i name="e_0_energy">  -1057.33279399 </i>
   </energy>
  </scstep>
  <scstep>
   <time name="diag">   16.60   16.61</time>
   <time name="diis">   26.20   26.21</time>
   <time name="orth">    9.43    9.43</time>
   <time name="total">   54.93   54.99</time>
   <energy>
    <i name="e_fr_energy">  -1057.35302301 </i>
    <i name="e_wo_entrp">  -1057.35302301 </i>
    <i name="e_0_energy">  -1057.35302301 </i>
   </energy>
  </scstep>
  <scstep>
   <time name="diag">   16.60   16.61</time>
   <time name="diis">   28.41   28.42</time>
   <time name="orth">    9.44    9.45</time>
   <time name="total">   57.14   57.22</time>
   <energy>
    <i name="e_fr_energy">  -1057.34917773 </i>
    <i name="e_wo_entrp">  -1057.34917773 </i>
    <i name="e_0_energy">  -1057.34917773 </i>
   </energy>
  </scstep>
  <scstep>
   <time name="diag">   16.60   16.62</time>
   <time name="diis">   27.47   27.47</time>
   <time name="orth">    9.46    9.46</time>
   <time name="total">   56.24   56.34</time>
   <energy>
    <i name="e_fr_energy">  -1057.34414799 </i>
    <i name="e_wo_entrp">  -1057.34414799 </i>
    <i name="e_0_energy">  -1057.34414799 </i>
   </energy>
  </scstep>
  <scstep>
   <time name="diag">   16.61   16.62</time>
   <time name="diis">   27.73   27.73</time>
   <time name="orth">    9.42    9.42</time>
   <time name="total">   56.50   56.53</time>
   <energy>
    <i name="e_fr_energy">  -1057.34236291 </i>
    <i name="e_wo_entrp">  -1057.34236291 </i>
    <i name="e_0_energy">  -1057.34236291 </i>
   </energy>
  </scstep>
  <scstep>
   <time name="diag">   16.62   16.64</time>
   <time name="diis">   24.05   24.07</time>
   <time name="orth">    9.45    9.45</time>
   <time name="total">   52.84   52.94</time>
   <energy>
    <i name="e_fr_energy">  -1057.34230405 </i>
    <i name="e_wo_entrp">  -1057.34230405 </i>
    <i name="e_0_energy">  -1057.34230405 </i>
   </energy>
  </scstep>
  <scstep>
   <time name="diag">   16.61   16.62</time>
   <time name="diis">   18.02   18.02</time>
   <time name="orth">    9.45    9.45</time>
   <time name="total">   46.80   46.89</time>
   <energy>
    <i name="e_fr_energy">  -1057.34228633 </i>
    <i name="e_wo_entrp">  -1057.34228633 </i>
    <i name="e_0_energy">  -1057.34228633 </i>
   </energy>
  </scstep>
  <scstep>
   <time name="diag">   16.63   16.63</time>
   <time name="diis">   17.13   17.13</time>
   <time name="orth">    9.40    9.41</time>
   <time name="total">   43.73   43.77</time>
   <energy>
    <i name="alphaZ">   5599.19233664 </i>
    <i name="ewald"> -62017.45990590 </i>
    <i name="hartreedc"> -17546.57897481 </i>
    <i name="XCdc">   3186.14200658 </i>
    <i name="pawpsdc"> 115631.15620355 </i>
    <i name="pawaedc">-114834.20694443 </i>
    <i name="eentropy">     -0.00000000 </i>
    <i name="bandstr">  -7125.76312583 </i>
    <i name="atom">  76050.17612637 </i>
    <i name="e_fr_energy">  -1057.34227784 </i>
    <i name="e_wo_entrp">  -1057.34227784 </i>
    <i name="e_0_energy">  -1057.34227784 </i>
   </energy>
  </scstep>
  <structure>
   <crystal>
    <varray name="basis" >
     <v>      11.27939864       0.01084923       0.00000000 </v>
     <v>       0.01100828      11.32521726       0.00000000 </v>
     <v>       0.00000000       0.00000000      15.74589000 </v>
    </varray>
    <i name="volume">   2011.40393388 </i>
    <varray name="rec_basis" >
     <v>       0.08865729      -0.00008618       0.00000000 </v>
     <v>      -0.00008493       0.08829861       0.00000000 </v>
     <v>       0.00000000       0.00000000       0.06350864 </v>
    </varray>
   </crystal>
   <varray name="positions" >
    <v>       0.98940438       0.24434196       0.11672925 </v>
    <v>       0.98940438       0.24434196       0.61672925 </v>
    <v>       0.98940438       0.74434196       0.11672925 </v>
    <v>       0.98940438       0.74434196       0.61672925 </v>
    <v>       0.50677157       0.24795852       0.12114712 </v>
    <v>       0.50677157       0.24795852       0.62114712 </v>
    <v>       0.50677157       0.74795852       0.12114712 </v>
    <v>       0.50677157       0.74795852       0.62114712 </v>
    <v>       0.98940438       0.24434196       0.38327075 </v>
    <v>       0.98940438       0.24434196       0.88327075 </v>
    <v>       0.98940438       0.74434196       0.38327075 </v>
    <v>       0.98940438       0.74434196       0.88327075 </v>
    <v>       0.50677157       0.24795852       0.37885288 </v>
    <v>       0.50677157       0.24795852       0.87885288 </v>
    <v>       0.50677157       0.74795852       0.37885288 </v>
    <v>       0.50677157       0.74795852       0.87885288 </v>
    <v>       0.24808603       0.00139489       0.11365185 </v>
    <v>       0.24808603       0.00139489       0.61365185 </v>
    <v>       0.24808603       0.50139489       0.11365185 </v>
    <v>       0.24808603       0.50139489       0.61365185 </v>
    <v>       0.75332522       0.00252275       0.12128785 </v>
    <v>       0.75332522       0.00252275       0.62128785 </v>
    <v>       0.75332522       0.50252275       0.12128785 </v>
    <v>       0.75332522       0.50252275       0.62128785 </v>
    <v>       0.24808603       0.00139489       0.38634815 </v>
    <v>       0.24808603       0.00139489       0.88634815 </v>
    <v>       0.24808603       0.50139489       0.38634815 </v>
    <v>       0.24808603       0.50139489       0.88634815 </v>
    <v>       0.75332522       0.00252275       0.37871215 </v>
    <v>       0.75332522       0.00252275       0.87871215 </v>
    <v>       0.75332522       0.50252275       0.37871215 </v>
    <v>       0.75332522       0.50252275       0.87871215 </v>
    <v>       0.49987094       0.50126981       0.50000000 </v>
    <v>       0.99628131       0.99850108       0.50000000 </v>
    <v>       0.99628131       0.49850108       0.50000000 </v>
    <v>       0.99628131       0.49850108      -0.00000000 </v>
    <v>       0.24569617       0.74617500      -0.00000000 </v>
    <v>       0.24569617       0.24617500       0.50000000 </v>
    <v>       0.49987094       0.50126981      -0.00000000 </v>
    <v>       0.99628131       0.99850108      -0.00000000 </v>
    <v>       0.49987094       0.00126981       0.50000000 </v>
    <v>       0.75222696       0.74446712       0.25000000 </v>
    <v>       0.75222696       0.74446712       0.75000000 </v>
    <v>       0.49987094       0.00126981      -0.00000000 </v>
    <v>       0.24569617       0.24617500      -0.00000000 </v>
    <v>       0.75222696       0.24446712       0.25000000 </v>
    <v>       0.75222696       0.24446712       0.75000000 </v>
    <v>       0.24569617       0.74617500       0.50000000 </v>
    <v>       0.99109159       0.48418275       0.25000000 </v>
    <v>       0.52048233       0.98940588       0.25000000 </v>
    <v>       0.74719160       0.25078423      -0.00000000 </v>
    <v>       0.74719160       0.25078423       0.50000000 </v>
    <v>       0.74719160       0.75078423      -0.00000000 </v>
    <v>       0.99109159       0.98418275       0.75000000 </v>
    <v>       0.25415560       0.29180330       0.25000000 </v>
    <v>       0.25415560       0.79180330       0.25000000 </v>
    <v>       0.74719160       0.75078423       0.50000000 </v>
    <v>       0.25415560       0.29180330       0.75000000 </v>
    <v>       0.25415560       0.79180330       0.75000000 </v>
    <v>       0.99109159       0.48418275       0.75000000 </v>
    <v>       0.52048233       0.98940588       0.75000000 </v>
    <v>       0.99109159       0.98418275       0.25000000 </v>
    <v>       0.52048233       0.48940588       0.75000000 </v>
    <v>       0.52048233       0.48940588       0.25000000 </v>
    <v>       0.00533823       0.00670015       0.12606114 </v>
    <v>       0.00533823       0.00670015       0.62606114 </v>
    <v>       0.00533823       0.50670015       0.12606114 </v>
    <v>       0.00533823       0.50670015       0.62606114 </v>
    <v>       0.48352613       0.01055260       0.12804295 </v>
    <v>       0.48352613       0.01055260       0.62804295 </v>
    <v>       0.48352613       0.51055260       0.12804295 </v>
    <v>       0.48352613       0.51055260       0.62804295 </v>
    <v>       0.00533823       0.00670015       0.37393886 </v>
    <v>       0.00533823       0.00670015       0.87393886 </v>
    <v>       0.00533823       0.50670015       0.37393886 </v>
    <v>       0.00533823       0.50670015       0.87393886 </v>
    <v>       0.48352613       0.01055260       0.37195705 </v>
    <v>       0.48352613       0.01055260       0.87195705 </v>
    <v>       0.48352613       0.51055260       0.37195705 </v>
    <v>       0.48352613       0.51055260       0.87195705 </v>
    <v>       0.23537381       0.23049593       0.36291765 </v>
    <v>       0.23537381       0.23049593       0.86291765 </v>
    <v>       0.23537381       0.73049593       0.36291765 </v>
    <v>       0.23537381       0.73049593       0.86291765 </v>
    <v>       0.74947755       0.25100570       0.37499233 </v>
    <v>       0.74947755       0.25100570       0.87499233 </v>
    <v>       0.74947755       0.75100570       0.37499233 </v>
    <v>       0.74947755       0.75100570       0.87499233 </v>
    <v>       0.23537381       0.23049593       0.13708235 </v>
    <v>       0.23537381       0.23049593       0.63708235 </v>
    <v>       0.23537381       0.73049593       0.13708235 </v>
    <v>       0.23537381       0.73049593       0.63708235 </v>
    <v>       0.74947755       0.25100570       0.12500767 </v>
    <v>       0.74947755       0.25100570       0.62500767 </v>
    <v>       0.74947755       0.75100570       0.12500767 </v>
    <v>       0.74947755       0.75100570       0.62500767 </v>
    <v>       0.60610796       0.14480280       0.25000000 </v>
    <v>       0.86200095       0.10517958       0.25000000 </v>
    <v>       0.16321322       0.43237538       0.25000000 </v>
    <v>       0.40985313       0.34737771       0.25000000 </v>
    <v>       0.65904969       0.39716841       0.25000000 </v>
    <v>       0.90806347       0.34023727       0.25000000 </v>
    <v>       0.60610796       0.64480280       0.25000000 </v>
    <v>       0.86200095       0.60517958       0.25000000 </v>
    <v>       0.16321322       0.93237538       0.25000000 </v>
    <v>       0.40985313       0.84737771       0.25000000 </v>
    <v>       0.65904969       0.89716841       0.25000000 </v>
    <v>       0.90806347       0.84023727       0.25000000 </v>
    <v>       0.13076993       0.11646841       0.50000000 </v>
    <v>       0.37473875       0.13144467       0.50000000 </v>
    <v>       0.62608512       0.11806697       0.50000000 </v>
    <v>       0.87906647       0.12804951       0.50000000 </v>
    <v>       0.11844486       0.36408049       0.50000000 </v>
    <v>       0.36194554       0.37579807       0.50000000 </v>
    <v>       0.61230860       0.37208538       0.50000000 </v>
    <v>       0.87074994       0.38033120       0.50000000 </v>
    <v>       0.13076993       0.61646841       0.50000000 </v>
    <v>       0.37473875       0.63144467       0.50000000 </v>
    <v>       0.62608512       0.61806697       0.50000000 </v>
    <v>       0.87906647       0.62804951       0.50000000 </v>
    <v>       0.11844486       0.86408049       0.50000000 </v>
    <v>       0.36194554       0.87579807       0.50000000 </v>
    <v>       0.61230860       0.87208538       0.50000000 </v>
    <v>       0.87074994       0.88033120       0.50000000 </v>
    <v>       0.60610796       0.14480280       0.75000000 </v>
    <v>       0.86200095       0.10517958       0.75000000 </v>
    <v>       0.16321322       0.43237538       0.75000000 </v>
    <v>       0.40985313       0.34737771       0.75000000 </v>
    <v>       0.65904969       0.39716841       0.75000000 </v>
    <v>       0.90806347       0.34023727       0.75000000 </v>
    <v>       0.60610796       0.64480280       0.75000000 </v>
    <v>       0.86200095       0.60517958       0.75000000 </v>
    <v>       0.16321322       0.93237538       0.75000000 </v>
    <v>       0.40985313       0.84737771       0.75000000 </v>
    <v>       0.65904969       0.89716841       0.75000000 </v>
    <v>       0.90806347       0.84023727       0.75000000 </v>
    <v>       0.13076993       0.11646841      -0.00000000 </v>
    <v>       0.37473875       0.13144467      -0.00000000 </v>
    <v>       0.62608512       0.11806697      -0.00000000 </v>
    <v>       0.87906647       0.12804951      -0.00000000 </v>
    <v>       0.11844486       0.36408049      -0.00000000 </v>
    <v>       0.36194554       0.37579807      -0.00000000 </v>
    <v>       0.61230860       0.37208538      -0.00000000 </v>
    <v>       0.87074994       0.38033120      -0.00000000 </v>
    <v>       0.13076993       0.61646841      -0.00000000 </v>
    <v>       0.37473875       0.63144467      -0.00000000 </v>
    <v>       0.62608512       0.61806697      -0.00000000 </v>
    <v>       0.87906647       0.62804951      -0.00000000 </v>
    <v>       0.11844486       0.86408049      -0.00000000 </v>
    <v>       0.36194554       0.87579807      -0.00000000 </v>
    <v>       0.61230860       0.87208538      -0.00000000 </v>
    <v>       0.87074994       0.88033120      -0.00000000 </v>
   </varray>
  </structure>
  <varray name="forces" >
   <v>      -0.05930961       0.01844641      -0.00739412 </v>
   <v>      -0.05930961       0.01844641      -0.00739412 </v>
   <v>      -0.05930961       0.01844641      -0.00739412 </v>
   <v>      -0.05930961       0.01844641      -0.00739412 </v>
   <v>       0.06808184      -0.00862070       0.01547298 </v>
   <v>       0.06808184      -0.00862070       0.01547298 </v>
   <v>       0.06808184      -0.00862070       0.01547298 </v>
   <v>       0.06808184      -0.00862070       0.01547298 </v>
   <v>      -0.05930961       0.01844641       0.00739412 </v>
   <v>      -0.05930961       0.01844641       0.00739412 </v>
   <v>      -0.05930961       0.01844641       0.00739412 </v>
   <v>      -0.05930961       0.01844641       0.00739412 </v>
   <v>       0.06808184      -0.00862070      -0.01547298 </v>
   <v>       0.06808184      -0.00862070      -0.01547298 </v>
   <v>       0.06808184      -0.00862070      -0.01547298 </v>
   <v>       0.06808184      -0.00862070      -0.01547298 </v>
   <v>      -0.05665998       0.06025304       0.03832870 </v>
   <v>      -0.05665998       0.06025304       0.03832870 </v>
   <v>      -0.05665998       0.06025304       0.03832870 </v>
   <v>      -0.05665998       0.06025304       0.03832870 </v>
   <v>      -0.03586095      -0.03295025      -0.04142471 </v>
   <v>      -0.03586095      -0.03295025      -0.04142471 </v>
   <v>      -0.03586095      -0.03295025      -0.04142471 </v>
   <v>      -0.03586095      -0.03295025      -0.04142471 </v>
   <v>      -0.05665998       0.06025304      -0.03832870 </v>
   <v>      -0.05665998       0.06025304      -0.03832870 </v>
   <v>      -0.05665998       0.06025304      -0.03832870 </v>
   <v>      -0.05665998       0.06025304      -0.03832870 </v>
   <v>      -0.03586095      -0.03295025       0.04142471 </v>
   <v>      -0.03586095      -0.03295025       0.04142471 </v>
   <v>      -0.03586095      -0.03295025       0.04142471 </v>
   <v>      -0.03586095      -0.03295025       0.04142471 </v>
   <v>       0.20441887       0.01530959       0.00000000 </v>
   <v>      -0.30429643       0.08375478       0.00000000 </v>
   <v>      -0.30429643       0.08375478       0.00000000 </v>
   <v>      -0.30429643       0.08375478       0.00000000 </v>
   <v>       0.17113775      -0.06662101       0.00000000 </v>
   <v>       0.17113775      -0.06662101       0.00000000 </v>
   <v>       0.20441887       0.01530959       0.00000000 </v>
   <v>      -0.30429643       0.08375478       0.00000000 </v>
   <v>       0.20441887       0.01530959       0.00000000 </v>
   <v>      -0.07668628      -0.01103508       0.00000000 </v>
   <v>      -0.07668628      -0.01103508       0.00000000 </v>
   <v>       0.20441887       0.01530959       0.00000000 </v>
   <v>       0.17113775      -0.06662101       0.00000000 </v>
   <v>      -0.07668628      -0.01103508       0.00000000 </v>
   <v>      -0.07668628      -0.01103508       0.00000000 </v>
   <v>       0.17113775      -0.06662101       0.00000000 </v>
   <v>      -0.06580423      -0.02973657       0.00000000 </v>
   <v>       0.05096075      -0.00706799       0.00000000 </v>
   <v>      -0.06140412      -0.04857416       0.00000000 </v>
   <v>      -0.06140412      -0.04857416       0.00000000 </v>
   <v>      -0.06140412      -0.04857416       0.00000000 </v>
   <v>      -0.06580423      -0.02973657       0.00000000 </v>
   <v>       0.13052806       0.08675432       0.00000000 </v>
   <v>       0.13052806       0.08675432       0.00000000 </v>
   <v>      -0.06140412      -0.04857416       0.00000000 </v>
   <v>       0.13052806       0.08675432       0.00000000 </v>
   <v>       0.13052806       0.08675432       0.00000000 </v>
   <v>      -0.06580423      -0.02973657       0.00000000 </v>
   <v>       0.05096075      -0.00706799       0.00000000 </v>
   <v>      -0.06580423      -0.02973657       0.00000000 </v>
   <v>       0.05096075      -0.00706799       0.00000000 </v>
   <v>       0.05096075      -0.00706799       0.00000000 </v>
   <v>       0.02441065      -0.02295408       0.00292107 </v>
   <v>       0.02441065      -0.02295408       0.00292107 </v>
   <v>       0.02441065      -0.02295408       0.00292107 </v>
   <v>       0.02441065      -0.02295408       0.00292107 </v>
   <v>      -0.01174582      -0.01381322      -0.00256527 </v>
   <v>      -0.01174582      -0.01381322      -0.00256527 </v>
   <v>      -0.01174582      -0.01381322      -0.00256527 </v>
   <v>      -0.01174582      -0.01381322      -0.00256527 </v>
   <v>       0.02441065      -0.02295408      -0.00292107 </v>
   <v>       0.02441065      -0.02295408      -0.00292107 </v>
   <v>       0.02441065      -0.02295408      -0.00292107 </v>
   <v>       0.02441065      -0.02295408      -0.00292107 </v>
   <v>      -0.01174582      -0.01381322       0.00256527 </v>
   <v>      -0.01174582      -0.01381322       0.00256527 </v>
   <v>      -0.01174582      -0.01381322       0.00256527 </v>
   <v>      -0.01174582      -0.01381322       0.00256527 </v>
   <v>       0.00085809       0.02529427      -0.00430880 </v>
   <v>       0.00085809       0.02529427      -0.00430880 </v>
   <v>       0.00085809       0.02529427      -0.00430880 </v>
   <v>       0.00085809       0.02529427      -0.00430880 </v>
   <v>       0.01571540      -0.05859621      -0.09261506 </v>
   <v>       0.01571540      -0.05859621      -0.09261506 </v>
   <v>       0.01571540      -0.05859621      -0.09261506 </v>
   <v>       0.01571540      -0.05859621      -0.09261506 </v>
   <v>       0.00085809       0.02529427       0.00430880 </v>
   <v>       0.00085809       0.02529427       0.00430880 </v>
   <v>       0.00085809       0.02529427       0.00430880 </v>
[...]
       <r>   -16.9126     0.0000    32.0000 </r>
       <r>   -16.7599     0.0000    32.0000 </r>
       <r>   -16.6072     0.0000    32.0000 </r>
       <r>   -16.4545     0.0000    32.0000 </r>
       <r>   -16.3018     0.0000    32.0000 </r>
       <r>   -16.1491     0.0000    32.0000 </r>
       <r>   -15.9964     0.0000    32.0000 </r>
       <r>   -15.8437     0.0000    32.0000 </r>
       <r>   -15.6910     0.0000    32.0000 </r>
       <r>   -15.5383     0.0000    32.0000 </r>
       <r>   -15.3856     0.0000    32.0000 </r>
       <r>   -15.2329     0.8976    32.1371 </r>
       <r>   -15.0802    17.1101    34.7498 </r>
       <r>   -14.9275    38.8030    40.6750 </r>
       <r>   -14.7748    38.8178    46.6025 </r>
       <r>   -14.6221    44.7241    53.4319 </r>
       <r>   -14.4694    32.4508    58.3871 </r>
       <r>   -14.3167    41.8243    64.7737 </r>
       <r>   -14.1640    70.7632    75.5792 </r>
       <r>   -14.0113    90.6015    89.4141 </r>
       <r>   -13.8586    97.9446   104.3703 </r>
       <r>   -13.7059    66.2323   114.4839 </r>
       <r>   -13.5532    36.0743   119.9925 </r>
       <r>   -13.4005     0.0491   120.0000 </r>
       <r>   -13.2478     0.0000   120.0000 </r>
       <r>   -13.0951     0.0000   120.0000 </r>
       <r>   -12.9424     0.0000   120.0000 </r>
       <r>   -12.7897     0.0407   120.0062 </r>
       <r>   -12.6370    26.5025   124.0531 </r>
       <r>   -12.4843   123.7865   142.9554 </r>
       <r>   -12.3316   145.8586   165.2280 </r>
       <r>   -12.1789   131.3475   185.2848 </r>
       <r>   -12.0262   113.4527   202.6090 </r>
       <r>   -11.8735    65.0426   212.5410 </r>
       <r>   -11.7208    22.5171   215.9794 </r>
       <r>   -11.5681     0.1349   216.0000 </r>
       <r>   -11.4154     0.0000   216.0000 </r>
       <r>   -11.2627     0.0000   216.0000 </r>
       <r>   -11.1100     0.0000   216.0000 </r>
       <r>   -10.9573     0.0000   216.0000 </r>
       <r>   -10.8046     0.0000   216.0000 </r>
       <r>   -10.6519     0.0000   216.0000 </r>
       <r>   -10.4992     0.0000   216.0000 </r>
       <r>   -10.3465     0.0000   216.0000 </r>
       <r>   -10.1938     0.0000   216.0000 </r>
       <r>   -10.0411     0.0000   216.0000 </r>
       <r>    -9.8884     0.0000   216.0000 </r>
       <r>    -9.7357     0.0000   216.0000 </r>
       <r>    -9.5830     0.0000   216.0000 </r>
       <r>    -9.4303     0.0000   216.0000 </r>
       <r>    -9.2776     0.0000   216.0000 </r>
       <r>    -9.1249     0.0000   216.0000 </r>
       <r>    -8.9722     0.0000   216.0000 </r>
       <r>    -8.8195     0.0000   216.0000 </r>
       <r>    -8.6668     0.0000   216.0000 </r>
       <r>    -8.5141     0.0000   216.0000 </r>
       <r>    -8.3614     0.0000   216.0000 </r>
       <r>    -8.2087     0.0000   216.0000 </r>
       <r>    -8.0560     0.0000   216.0000 </r>
       <r>    -7.9033     0.0000   216.0000 </r>
       <r>    -7.7506     0.0000   216.0000 </r>
       <r>    -7.5979     0.0000   216.0000 </r>
       <r>    -7.4452     0.0000   216.0000 </r>
       <r>    -7.2925     0.0000   216.0000 </r>
       <r>    -7.1398     0.0000   216.0000 </r>
       <r>    -6.9871     0.0000   216.0000 </r>
       <r>    -6.8344     0.0000   216.0000 </r>
       <r>    -6.6817     0.0000   216.0000 </r>
       <r>    -6.5290     0.0000   216.0000 </r>
       <r>    -6.3763     0.0000   216.0000 </r>
       <r>    -6.2236     0.0000   216.0000 </r>
       <r>    -6.0709     0.0000   216.0000 </r>
       <r>    -5.9182     0.0000   216.0000 </r>
       <r>    -5.7655     0.0000   216.0000 </r>
       <r>    -5.6128     0.0000   216.0000 </r>
       <r>    -5.4601     0.0000   216.0000 </r>
       <r>    -5.3074     0.0000   216.0000 </r>
       <r>    -5.1547     0.0000   216.0000 </r>
       <r>    -5.0020     0.0000   216.0000 </r>
       <r>    -4.8493     0.0000   216.0000 </r>
       <r>    -4.6966     0.0000   216.0000 </r>
       <r>    -4.5439     0.0000   216.0000 </r>
       <r>    -4.3912     0.0000   216.0000 </r>
       <r>    -4.2385     0.0000   216.0000 </r>
       <r>    -4.0858     0.0000   216.0000 </r>
       <r>    -3.9331     0.0000   216.0000 </r>
       <r>    -3.7804     0.0000   216.0000 </r>
       <r>    -3.6277     0.0000   216.0000 </r>
       <r>    -3.4750     0.0000   216.0000 </r>
       <r>    -3.3223     0.0000   216.0000 </r>
       <r>    -3.1696     0.0000   216.0000 </r>
       <r>    -3.0169     0.0000   216.0000 </r>
       <r>    -2.8642     0.0000   216.0000 </r>
       <r>    -2.7115     0.0000   216.0000 </r>
       <r>    -2.5588     0.0340   216.0052 </r>
       <r>    -2.4061     6.8273   217.0477 </r>
       <r>    -2.2534    13.3662   219.0887 </r>
       <r>    -2.1007    16.4002   221.5931 </r>
       <r>    -1.9480    37.1384   227.2641 </r>
       <r>    -1.7953    31.7624   232.1142 </r>
       <r>    -1.6426    25.1494   235.9545 </r>
       <r>    -1.4899    44.9215   242.8141 </r>
       <r>    -1.3372    46.6917   249.9439 </r>
       <r>    -1.1845    49.2584   257.4656 </r>
       <r>    -1.0318    94.2855   271.8630 </r>
       <r>    -0.8791    94.2913   286.2613 </r>
       <r>    -0.7264    71.3160   297.1513 </r>
       <r>    -0.5737    97.3338   312.0142 </r>
       <r>    -0.4210    91.0624   325.9194 </r>
       <r>    -0.2683    69.0479   336.4630 </r>
       <r>    -0.1156    59.6040   345.5646 </r>
       <r>     0.0371    62.8756   355.1657 </r>
       <r>     0.1898    52.7611   363.2223 </r>
       <r>     0.3425    56.2228   371.8075 </r>
       <r>     0.4952    53.7602   380.0167 </r>
       <r>     0.6479    55.6608   388.5161 </r>
       <r>     0.8006    55.4257   396.9797 </r>
       <r>     0.9533    52.9918   405.0715 </r>
       <r>     1.1060    55.7654   413.5869 </r>
       <r>     1.2587    85.8133   426.6906 </r>
       <r>     1.4114    68.7791   437.1932 </r>
       <r>     1.5641    86.8876   450.4609 </r>
       <r>     1.7168    81.4842   462.9036 </r>
       <r>     1.8695    44.9778   469.7717 </r>
       <r>     2.0222    31.8379   474.6334 </r>
       <r>     2.1749    21.7352   477.9523 </r>
       <r>     2.3276    13.4048   479.9992 </r>
       <r>     2.4803     0.0050   480.0000 </r>
       <r>     2.6330     0.0000   480.0000 </r>
       <r>     2.7857     0.0000   480.0000 </r>
       <r>     2.9384     0.0000   480.0000 </r>
       <r>     3.0911     0.0000   480.0000 </r>
       <r>     3.2438     0.0000   480.0000 </r>
       <r>     3.3965     0.0000   480.0000 </r>
       <r>     3.5492     0.0000   480.0000 </r>
       <r>     3.7019     0.0000   480.0000 </r>
       <r>     3.8546     0.0000   480.0000 </r>
       <r>     4.0073     0.0000   480.0000 </r>
       <r>     4.1600     0.0000   480.0000 </r>
       <r>     4.3127     0.0015   480.0002 </r>
       <r>     4.4654     8.3049   481.2684 </r>
       <r>     4.6181    58.1147   490.1425 </r>
       <r>     4.7708    66.5200   500.3001 </r>
       <r>     4.9235    46.4242   507.3891 </r>
       <r>     5.0762    59.2617   516.4384 </r>
       <r>     5.2289    88.4146   529.9393 </r>
       <r>     5.3816    80.6316   542.2518 </r>
       <r>     5.5343    80.1785   554.4950 </r>
       <r>     5.6870    57.1991   563.2293 </r>
       <r>     5.8397    63.5094   572.9272 </r>
       <r>     5.9924    76.8584   584.6635 </r>
       <r>     6.1451    86.0145   597.7979 </r>
       <r>     6.2978    59.1766   606.8342 </r>
       <r>     6.4505    20.5594   609.9736 </r>
       <r>     6.6032     3.1929   610.4612 </r>
       <r>     6.7559    20.2739   613.5570 </r>
       <r>     6.9086    13.2661   615.5828 </r>
       <r>     7.0613    10.4326   617.1758 </r>
       <r>     7.2140    10.0676   618.7132 </r>
       <r>     7.3667    16.4505   621.2252 </r>
       <r>     7.5194    12.0394   623.0636 </r>
       <r>     7.6721    23.2967   626.6210 </r>
       <r>     7.8248    19.1403   629.5437 </r>
       <r>     7.9775    24.6849   633.3131 </r>
       <r>     8.1302    41.9615   639.7206 </r>
       <r>     8.2829    19.2041   642.6531 </r>
       <r>     8.4356    22.1634   646.0375 </r>
       <r>     8.5883    18.8151   648.9105 </r>
       <r>     8.7410     9.1148   650.3024 </r>
       <r>     8.8937    32.0196   655.1918 </r>
       <r>     9.0464    40.5281   661.3804 </r>
       <r>     9.1992    39.4177   667.3995 </r>
       <r>     9.3519    40.5629   673.5934 </r>
       <r>     9.5046    42.6197   680.1015 </r>
       <r>     9.6573    58.3908   689.0178 </r>
       <r>     9.8100    54.9927   697.4152 </r>
       <r>     9.9627    53.0485   705.5157 </r>
       <r>    10.1154    56.2029   714.0979 </r>
       <r>    10.2681    58.0779   722.9664 </r>
       <r>    10.4208    59.8026   732.0982 </r>
       <r>    10.5735    56.0797   740.6616 </r>
       <r>    10.7262    46.0077   747.6870 </r>
       <r>    10.8789    46.4945   754.7867 </r>
       <r>    11.0316    54.8479   763.1620 </r>
       <r>    11.1843    31.6423   767.9938 </r>
       <r>    11.3370     0.0409   768.0000 </r>
       <r>    11.4897     0.0000   768.0000 </r>
       <r>    11.6424     0.0000   768.0000 </r>
       <r>    11.7951     0.0000   768.0000 </r>
       <r>    11.9478     0.0000   768.0000 </r>
       <r>    12.1005     0.0000   768.0000 </r>
       <r>    12.2532     0.0000   768.0000 </r>
       <r>    12.4059     0.0000   768.0000 </r>
       <r>    12.5586     0.0000   768.0000 </r>
       <r>    12.7113     0.0000   768.0000 </r>
       <r>    12.8640     0.0000   768.0000 </r>
       <r>    13.0167     0.0000   768.0000 </r>
       <r>    13.1694     0.0000   768.0000 </r>
      </set>
     </set>
    </array>
   </total>
  </dos>
 </calculation>
 <structure name="finalpos" >
  <crystal>
   <varray name="basis" >
    <v>      11.27454252       0.01137454       0.00000000 </v>
    <v>       0.01153667      11.32221890       0.00000000 </v>
    <v>       0.00000000       0.00000000      15.75744086 </v>
   </varray>
   <i name="volume">   2011.47998464 </i>
   <varray name="rec_basis" >
    <v>       0.08869549      -0.00009038       0.00000000 </v>
    <v>      -0.00008911       0.08832200       0.00000000 </v>
    <v>       0.00000000       0.00000000       0.06346208 </v>
   </varray>
  </crystal>
  <varray name="positions" >
   <v>       0.98939531       0.24522919       0.11596695 </v>
   <v>       0.98939531       0.24522919       0.61596695 </v>
   <v>       0.98939531       0.74522919       0.11596695 </v>
   <v>       0.98939531       0.74522919       0.61596695 </v>
   <v>       0.50793140       0.24703270       0.12166841 </v>
   <v>       0.50793140       0.24703270       0.62166841 </v>
   <v>       0.50793140       0.74703270       0.12166841 </v>
   <v>       0.50793140       0.74703270       0.62166841 </v>
   <v>       0.98939531       0.24522919       0.38403305 </v>
   <v>       0.98939531       0.24522919       0.88403305 </v>
   <v>       0.98939531       0.74522919       0.38403305 </v>
   <v>       0.98939531       0.74522919       0.88403305 </v>
   <v>       0.50793140       0.24703270       0.37833159 </v>
   <v>       0.50793140       0.24703270       0.87833159 </v>
   <v>       0.50793140       0.74703270       0.37833159 </v>
   <v>       0.50793140       0.74703270       0.87833159 </v>
   <v>       0.24602399       0.00480577       0.11330037 </v>
   <v>       0.24602399       0.00480577       0.61330037 </v>
   <v>       0.24602399       0.50480577       0.11330037 </v>
   <v>       0.24602399       0.50480577       0.61330037 </v>
   <v>       0.75227243       0.00059114       0.12119923 </v>
   <v>       0.75227243       0.00059114       0.62119923 </v>
   <v>       0.75227243       0.50059114       0.12119923 </v>
   <v>       0.75227243       0.50059114       0.62119923 </v>
   <v>       0.24602399       0.00480577       0.38669963 </v>
   <v>       0.24602399       0.00480577       0.88669963 </v>
   <v>       0.24602399       0.50480577       0.38669963 </v>
   <v>       0.24602399       0.50480577       0.88669963 </v>
   <v>       0.75227243       0.00059114       0.37880077 </v>
   <v>       0.75227243       0.00059114       0.87880077 </v>
   <v>       0.75227243       0.50059114       0.37880077 </v>
   <v>       0.75227243       0.50059114       0.87880077 </v>
   <v>       0.49964484       0.50077925       0.50000000 </v>
   <v>       0.99479462       0.99932382       0.50000000 </v>
   <v>       0.99479462       0.49932382       0.50000000 </v>
   <v>       0.99479462       0.49932382       0.00000000 </v>
   <v>       0.24643214       0.74871069       0.00000000 </v>
   <v>       0.24643214       0.24871069       0.50000000 </v>
   <v>       0.49964484       0.50077925       0.00000000 </v>
   <v>       0.99479462       0.99932382       0.00000000 </v>
   <v>       0.49964484       0.00077925       0.50000000 </v>
   <v>       0.75307845       0.74169541       0.25000000 </v>
   <v>       0.75307845       0.74169541       0.75000000 </v>
   <v>       0.49964484       0.00077925       0.00000000 </v>
   <v>       0.24643214       0.24871069       0.00000000 </v>
   <v>       0.75307845       0.24169541       0.25000000 </v>
   <v>       0.75307845       0.24169541       0.75000000 </v>
   <v>       0.24643214       0.74871069       0.50000000 </v>
   <v>       0.99098816       0.48335616       0.25000000 </v>
   <v>       0.52095955       0.98746612       0.25000000 </v>
   <v>       0.74655821       0.24914158       0.00000000 </v>
   <v>       0.74655821       0.24914158       0.50000000 </v>
   <v>       0.74655821       0.74914158       0.00000000 </v>
   <v>       0.99098816       0.98335616       0.75000000 </v>
   <v>       0.25455879       0.29484299       0.25000000 </v>
   <v>       0.25455879       0.79484299       0.25000000 </v>
   <v>       0.74655821       0.74914158       0.50000000 </v>
   <v>       0.25455879       0.29484299       0.75000000 </v>
   <v>       0.25455879       0.79484299       0.75000000 </v>
   <v>       0.99098816       0.48335616       0.75000000 </v>
   <v>       0.52095955       0.98746612       0.75000000 </v>
   <v>       0.99098816       0.98335616       0.25000000 </v>
   <v>       0.52095955       0.48746612       0.75000000 </v>
   <v>       0.52095955       0.48746612       0.25000000 </v>
   <v>       0.00498126       0.00548128       0.12593467 </v>
   <v>       0.00498126       0.00548128       0.62593467 </v>
   <v>       0.00498126       0.50548128       0.12593467 </v>
   <v>       0.00498126       0.50548128       0.62593467 </v>
   <v>       0.48375200       0.00997421       0.12800588 </v>
   <v>       0.48375200       0.00997421       0.62800588 </v>
   <v>       0.48375200       0.50997421       0.12800588 </v>
   <v>       0.48375200       0.50997421       0.62800588 </v>
   <v>       0.00498126       0.00548128       0.37406533 </v>
   <v>       0.00498126       0.00548128       0.87406533 </v>
   <v>       0.00498126       0.50548128       0.37406533 </v>
   <v>       0.00498126       0.50548128       0.87406533 </v>
   <v>       0.48375200       0.00997421       0.37199412 </v>
   <v>       0.48375200       0.00997421       0.87199412 </v>
   <v>       0.48375200       0.50997421       0.37199412 </v>
   <v>       0.48375200       0.50997421       0.87199412 </v>
   <v>       0.23502824       0.23339694       0.36282737 </v>
   <v>       0.23502824       0.23339694       0.86282737 </v>
   <v>       0.23502824       0.73339694       0.36282737 </v>
   <v>       0.23502824       0.73339694       0.86282737 </v>
   <v>       0.74991287       0.24856221       0.37481016 </v>
   <v>       0.74991287       0.24856221       0.87481016 </v>
   <v>       0.74991287       0.74856221       0.37481016 </v>
   <v>       0.74991287       0.74856221       0.87481016 </v>
   <v>       0.23502824       0.23339694       0.13717263 </v>
   <v>       0.23502824       0.23339694       0.63717263 </v>
   <v>       0.23502824       0.73339694       0.13717263 </v>
   <v>       0.23502824       0.73339694       0.63717263 </v>
   <v>       0.74991287       0.24856221       0.12518984 </v>
   <v>       0.74991287       0.24856221       0.62518984 </v>
   <v>       0.74991287       0.74856221       0.12518984 </v>
   <v>       0.74991287       0.74856221       0.62518984 </v>
   <v>       0.60812366       0.14121402       0.25000000 </v>
   <v>       0.86201062       0.10242164       0.25000000 </v>
   <v>       0.16509479       0.43691631       0.25000000 </v>
   <v>       0.41088636       0.34613000       0.25000000 </v>
   <v>       0.65871634       0.39349835       0.25000000 </v>
   <v>       0.90958862       0.33833196       0.25000000 </v>
   <v>       0.60812366       0.64121402       0.25000000 </v>
   <v>       0.86201062       0.60242164       0.25000000 </v>
   <v>       0.16509479       0.93691631       0.25000000 </v>
   <v>       0.41088636       0.84613000       0.25000000 </v>
   <v>       0.65871634       0.89349835       0.25000000 </v>
   <v>       0.90958862       0.83833196       0.25000000 </v>
   <v>       0.12800374       0.12139665       0.50000000 </v>
   <v>       0.37405256       0.13337692       0.50000000 </v>
   <v>       0.62546267       0.11721794       0.50000000 </v>
   <v>       0.87807532       0.12692208       0.50000000 </v>
   <v>       0.12023222       0.36833689       0.50000000 </v>
   <v>       0.36206632       0.37778171       0.50000000 </v>
   <v>       0.61262553       0.37172730       0.50000000 </v>
   <v>       0.87145151       0.37926535       0.50000000 </v>
   <v>       0.12800374       0.62139665       0.50000000 </v>
   <v>       0.37405256       0.63337692       0.50000000 </v>
   <v>       0.62546267       0.61721794       0.50000000 </v>
   <v>       0.87807532       0.62692208       0.50000000 </v>
   <v>       0.12023222       0.86833689       0.50000000 </v>
   <v>       0.36206632       0.87778171       0.50000000 </v>
   <v>       0.61262553       0.87172730       0.50000000 </v>
   <v>       0.87145151       0.87926535       0.50000000 </v>
   <v>       0.60812366       0.14121402       0.75000000 </v>
   <v>       0.86201062       0.10242164       0.75000000 </v>
   <v>       0.16509479       0.43691631       0.75000000 </v>
   <v>       0.41088636       0.34613000       0.75000000 </v>
   <v>       0.65871634       0.39349835       0.75000000 </v>
   <v>       0.90958862       0.33833196       0.75000000 </v>
   <v>       0.60812366       0.64121402       0.75000000 </v>
   <v>       0.86201062       0.60242164       0.75000000 </v>
   <v>       0.16509479       0.93691631       0.75000000 </v>
   <v>       0.41088636       0.84613000       0.75000000 </v>
   <v>       0.65871634       0.89349835       0.75000000 </v>
   <v>       0.90958862       0.83833196       0.75000000 </v>
   <v>       0.12800374       0.12139665       0.00000000 </v>
   <v>       0.37405256       0.13337692       0.00000000 </v>
   <v>       0.62546267       0.11721794       0.00000000 </v>
   <v>       0.87807532       0.12692208       0.00000000 </v>
   <v>       0.12023222       0.36833689       0.00000000 </v>
   <v>       0.36206632       0.37778171       0.00000000 </v>
   <v>       0.61262553       0.37172730       0.00000000 </v>
   <v>       0.87145151       0.37926535       0.00000000 </v>
   <v>       0.12800374       0.62139665       0.00000000 </v>
   <v>       0.37405256       0.63337692       0.00000000 </v>
   <v>       0.62546267       0.61721794       0.00000000 </v>
   <v>       0.87807532       0.62692208       0.00000000 </v>
   <v>       0.12023222       0.86833689       0.00000000 </v>
   <v>       0.36206632       0.87778171       0.00000000 </v>
   <v>       0.61262553       0.87172730       0.00000000 </v>
   <v>       0.87145151       0.87926535       0.00000000 </v>
  </varray>
 </structure>
</modeling>
