       N       E                     dE             d eps       ncg     rms          rms(c)
DAV:   1    -0.105807723931E+04   -0.10581E+04   -0.13117E-01 13752   0.841E-01    0.278E-02
RMM:   2    -0.105807724211E+04   -0.27936E-05   -0.65650E-05  7281   0.146E-02    0.537E-02
RMM:   3    -0.105807724375E+04   -0.16456E-05   -0.24971E-05  7145   0.918E-03    0.106E-02
RMM:   4    -0.105807724706E+04   -0.33051E-05   -0.17382E-05  6639   0.513E-03    0.159E-02
RMM:   5    -0.105807724839E+04   -0.13365E-05   -0.90474E-06  6088   0.486E-03    0.580E-03
RMM:   6    -0.105807725032E+04   -0.19249E-05   -0.74315E-06  5618   0.337E-03    0.623E-03
RMM:   7    -0.105807725085E+04   -0.52989E-06   -0.39808E-06  4598   0.333E-03    0.297E-03
RMM:   8    -0.105807725115E+04   -0.30505E-06   -0.28234E-06  3610   0.245E-03
   1 F= -.10580773E+04 E0= -.10580773E+04  d E =-.105808E+04  mag=    80.0000
       N       E                     dE             d eps       ncg     rms          rms(c)
DAV:   1    -0.105809284449E+04   -0.15594E-01   -0.11151E+01 12384   0.401E+00    0.220E+00
RMM:   2    -0.105811171897E+04   -0.18874E-01   -0.39376E-01 12441   0.855E-01    0.176E+00
RMM:   3    -0.105810860367E+04    0.31153E-02   -0.24455E-02 12810   0.279E-01    0.829E-01
RMM:   4    -0.105810481018E+04    0.37935E-02   -0.89168E-03 13139   0.112E-01    0.497E-01
RMM:   5    -0.105810380217E+04    0.10080E-02   -0.29859E-03 12838   0.687E-02    0.261E-01
RMM:   6    -0.105810379381E+04    0.83667E-05   -0.69476E-04 11961   0.279E-02    0.152E-01
RMM:   7    -0.105810378693E+04    0.68785E-05   -0.14212E-04  8096   0.157E-02    0.895E-02
RMM:   8    -0.105810377920E+04    0.77321E-05   -0.89684E-05  7619   0.121E-02
   2 F= -.10581038E+04 E0= -.10581038E+04  d E =-.265280E-01  mag=    80.0000
       N       E                     dE             d eps       ncg     rms          rms(c)
DAV:   1    -0.105810436733E+04   -0.58040E-03   -0.23286E-01 13600   0.578E-01    0.313E-01
RMM:   2    -0.105810475439E+04   -0.38706E-03   -0.83456E-03 12497   0.124E-01    0.244E-01
RMM:   3    -0.105810466536E+04    0.89035E-04   -0.48200E-04 10561   0.400E-02    0.120E-01
RMM:   4    -0.105810457862E+04    0.86736E-04   -0.18068E-04  7431   0.179E-02    0.761E-02
RMM:   5    -0.105810456416E+04    0.14463E-04   -0.54894E-05  7083   0.109E-02    0.462E-02
RMM:   6    -0.105810456582E+04   -0.16639E-05   -0.15709E-05  7032   0.649E-03    0.247E-02
RMM:   7    -0.105810456887E+04   -0.30486E-05   -0.69990E-06  6115   0.393E-03    0.136E-02
RMM:   8    -0.105810457126E+04   -0.23881E-05   -0.36494E-06  5453   0.327E-03
   3 F= -.10581046E+04 E0= -.10581046E+04  d E =-.273201E-01  mag=    80.0000
       N       E                     dE             d eps       ncg     rms          rms(c)
DAV:   1    -0.105810339960E+04    0.11693E-02   -0.11653E+01 12304   0.404E+00    0.121E+00
RMM:   2    -0.105813244749E+04   -0.29048E-01   -0.31663E-01 12541   0.773E-01    0.810E-01
RMM:   3    -0.105813278309E+04   -0.33560E-03   -0.17266E-02 13299   0.225E-01    0.492E-01
RMM:   4    -0.105813127890E+04    0.15042E-02   -0.40093E-03 14576   0.732E-02    0.251E-01
RMM:   5    -0.105813095464E+04    0.32426E-03   -0.15965E-03 13259   0.423E-02    0.675E-02
RMM:   6    -0.105813095671E+04   -0.20708E-05   -0.13880E-04  8200   0.179E-02    0.548E-02
RMM:   7    -0.105813096315E+04   -0.64433E-05   -0.67075E-05  7475   0.101E-02    0.355E-02
RMM:   8    -0.105813096731E+04   -0.41582E-05   -0.43554E-05  7316   0.879E-03
   4 F= -.10581310E+04 E0= -.10581310E+04  d E =-.263961E-01  mag=    80.0000
       N       E                     dE             d eps       ncg     rms          rms(c)
DAV:   1    -0.105812264529E+04    0.83179E-02   -0.58192E+00 12336   0.286E+00    0.853E-01
RMM:   2    -0.105813724407E+04   -0.14599E-01   -0.15874E-01 12547   0.546E-01    0.569E-01
RMM:   3    -0.105813740946E+04   -0.16539E-03   -0.87789E-03 13371   0.159E-01    0.347E-01
RMM:   4    -0.105813666490E+04    0.74456E-03   -0.21288E-03 14317   0.522E-02    0.176E-01
RMM:   5    -0.105813650602E+04    0.15888E-03   -0.80046E-04 12196   0.304E-02    0.485E-02
RMM:   6    -0.105813650850E+04   -0.24770E-05   -0.82838E-05  7560   0.138E-02    0.433E-02
RMM:   7    -0.105813651266E+04   -0.41571E-05   -0.43064E-05  7313   0.820E-03    0.252E-02
RMM:   8    -0.105813651525E+04   -0.25956E-05   -0.26462E-05  7203   0.745E-03
   5 F= -.10581365E+04 E0= -.10581365E+04  d E =-.319440E-01  mag=    80.0000
       N       E                     dE             d eps       ncg     rms          rms(c)
DAV:   1    -0.105812111005E+04    0.15403E-01   -0.13006E+01 12624   0.425E+00    0.122E+00
RMM:   2    -0.105815808334E+04   -0.36973E-01   -0.33834E-01 12659   0.774E-01    0.761E-01
RMM:   3    -0.105815968949E+04   -0.16061E-02   -0.17735E-02 13400   0.231E-01    0.415E-01
RMM:   4    -0.105815875820E+04    0.93129E-03   -0.42238E-03 15290   0.744E-02    0.223E-01
RMM:   5    -0.105815860137E+04    0.15683E-03   -0.13636E-03 13787   0.360E-02    0.123E-01
RMM:   6    -0.105815861133E+04   -0.99612E-05   -0.19519E-04  8361   0.172E-02    0.488E-02
RMM:   7    -0.105815862126E+04   -0.99337E-05   -0.75756E-05  7591   0.113E-02    0.277E-02
RMM:   8    -0.105815863165E+04   -0.10388E-04   -0.70678E-05  7552   0.102E-02
   6 F= -.10581586E+04 E0= -.10581586E+04  d E =-.221164E-01  mag=    80.0000
       N       E                     dE             d eps       ncg     rms          rms(c)
DAV:   1    -0.105812544229E+04    0.33179E-01   -0.14150E+01 12600   0.443E+00    0.128E+00
RMM:   2    -0.105816566633E+04   -0.40224E-01   -0.36784E-01 12648   0.807E-01    0.792E-01
RMM:   3    -0.105816744154E+04   -0.17752E-02   -0.19482E-02 13423   0.243E-01    0.433E-01
RMM:   4    -0.105816643703E+04    0.10045E-02   -0.46501E-03 15435   0.784E-02    0.232E-01
RMM:   5    -0.105816627806E+04    0.15897E-03   -0.14885E-03 14065   0.374E-02    0.128E-01
RMM:   6    -0.105816629068E+04   -0.12622E-04   -0.22373E-04  8734   0.178E-02    0.510E-02
RMM:   7    -0.105816630195E+04   -0.11270E-04   -0.90242E-05  7749   0.116E-02    0.287E-02
RMM:   8    -0.105816631303E+04   -0.11082E-04   -0.77074E-05  7678   0.107E-02
   7 F= -.10581663E+04 E0= -.10581663E+04  d E =-.297978E-01  mag=    80.0000
       N       E                     dE             d eps       ncg     rms          rms(c)
DAV:   1    -0.105815377572E+04    0.12526E-01   -0.11914E+01 12288   0.403E+00    0.103E+00
RMM:   2    -0.105818499175E+04   -0.31216E-01   -0.29965E-01 12681   0.724E-01    0.639E-01
RMM:   3    -0.105818590534E+04   -0.91360E-03   -0.15849E-02 13475   0.215E-01    0.364E-01
RMM:   4    -0.105818524807E+04    0.65728E-03   -0.28813E-03 15562   0.602E-02    0.221E-01
RMM:   5    -0.105818494559E+04    0.30248E-03   -0.15129E-03 13079   0.366E-02    0.700E-02
RMM:   6    -0.105818496116E+04   -0.15567E-04   -0.17290E-04  8391   0.179E-02    0.450E-02
RMM:   7    -0.105818496590E+04   -0.47415E-05   -0.61661E-05  7560   0.969E-03    0.257E-02
RMM:   8    -0.105818496733E+04   -0.14249E-05   -0.61111E-05  7442   0.953E-03
   8 F= -.10581850E+04 E0= -.10581850E+04  d E =-.186543E-01  mag=    80.0000
       N       E                     dE             d eps       ncg     rms          rms(c)
DAV:   1    -0.105810545242E+04    0.79513E-01   -0.35770E+01 12288   0.698E+00    0.179E+00
RMM:   2    -0.105819935856E+04   -0.93906E-01   -0.89941E-01 12684   0.126E+00    0.111E+00
RMM:   3    -0.105820220323E+04   -0.28447E-02   -0.47561E-02 13480   0.372E-01    0.631E-01
RMM:   4    -0.105820020921E+04    0.19940E-02   -0.83975E-03 16446   0.104E-01    0.384E-01
RMM:   5    -0.105819928869E+04    0.92052E-03   -0.44299E-03 14124   0.620E-02    0.121E-01
RMM:   6    -0.105819935158E+04   -0.62888E-04   -0.56664E-04 12211   0.290E-02    0.665E-02
RMM:   7    -0.105819936765E+04   -0.16069E-04   -0.20095E-04  8624   0.130E-02    0.394E-02
RMM:   8    -0.105819937238E+04   -0.47332E-05   -0.15846E-04  8410   0.119E-02
   9 F= -.10581994E+04 E0= -.10581994E+04  d E =-.330593E-01  mag=    80.0000
       N       E                     dE             d eps       ncg     rms          rms(c)
DAV:   1    -0.105819391018E+04    0.54575E-02   -0.77491E+00 12352   0.326E+00    0.840E-01
RMM:   2    -0.105821374647E+04   -0.19836E-01   -0.20255E-01 12679   0.599E-01    0.539E-01
RMM:   3    -0.105821405957E+04   -0.31311E-03   -0.10664E-02 13394   0.176E-01    0.336E-01
RMM:   4    -0.105821345612E+04    0.60346E-03   -0.22293E-03 14768   0.541E-02    0.196E-01
RMM:   5    -0.105821327993E+04    0.17619E-03   -0.96540E-04 12397   0.312E-02    0.533E-02
RMM:   6    -0.105821328593E+04   -0.60035E-05   -0.11805E-04  7757   0.146E-02    0.352E-02
RMM:   7    -0.105821328954E+04   -0.36024E-05   -0.59174E-05  7362   0.873E-03    0.260E-02
RMM:   8    -0.105821329007E+04   -0.52992E-06   -0.37002E-05  7255   0.816E-03
  10 F= -.10582133E+04 E0= -.10582133E+04  d E =-.139177E-01  mag=    80.0000
       N       E                     dE             d eps       ncg     rms          rms(c)
DAV:   1    -0.105820346412E+04    0.98254E-02   -0.53404E+00 12400   0.271E+00    0.697E-01
RMM:   2    -0.105821710592E+04   -0.13642E-01   -0.13929E-01 12666   0.498E-01    0.447E-01
RMM:   3    -0.105821733373E+04   -0.22781E-03   -0.73623E-03 13289   0.147E-01    0.280E-01
RMM:   4    -0.105821691495E+04    0.41878E-03   -0.15153E-03 13913   0.449E-02    0.163E-01
RMM:   5    -0.105821679128E+04    0.12367E-03   -0.65593E-04 11513   0.269E-02    0.454E-02
RMM:   6    -0.105821679527E+04   -0.39956E-05   -0.78347E-05  7486   0.131E-02    0.326E-02
RMM:   7    -0.105821679833E+04   -0.30540E-05   -0.41152E-05  7265   0.786E-03    0.225E-02
RMM:   8    -0.105821679849E+04   -0.15950E-06   -0.26390E-05  7143   0.750E-03
  11 F= -.10582168E+04 E0= -.10582168E+04  d E =-.174261E-01  mag=    80.0000
       N       E                     dE             d eps       ncg     rms          rms(c)
DAV:   1    -0.105820916292E+04    0.76354E-02   -0.71601E+00 12304   0.313E+00    0.761E-01
RMM:   2    -0.105822676722E+04   -0.17604E-01   -0.18306E-01 12647   0.569E-01    0.481E-01
RMM:   3    -0.105822702604E+04   -0.25883E-03   -0.97581E-03 13292   0.167E-01    0.289E-01
RMM:   4    -0.105822646362E+04    0.56242E-03   -0.19984E-03 14160   0.506E-02    0.160E-01
RMM:   5    -0.105822633008E+04    0.13355E-03   -0.79948E-04 11808   0.287E-02    0.431E-02
RMM:   6    -0.105822633374E+04   -0.36592E-05   -0.87057E-05  7519   0.135E-02    0.297E-02
RMM:   7    -0.105822633732E+04   -0.35844E-05   -0.46866E-05  7299   0.809E-03    0.218E-02
RMM:   8    -0.105822633916E+04   -0.18412E-05   -0.29977E-05  7096   0.773E-03
  12 F= -.10582263E+04 E0= -.10582263E+04  d E =-.954068E-02  mag=    80.0000
       N       E                     dE             d eps       ncg     rms          rms(c)
DAV:   1    -0.105821785393E+04    0.84834E-02   -0.45222E+00 12352   0.249E+00    0.604E-01
RMM:   2    -0.105822900035E+04   -0.11146E-01   -0.11586E-01 12665   0.453E-01    0.382E-01
RMM:   3    -0.105822915292E+04   -0.15256E-03   -0.61718E-03 13242   0.132E-01    0.230E-01
RMM:   4    -0.105822879341E+04    0.35950E-03   -0.12519E-03 13307   0.402E-02    0.128E-01
RMM:   5    -0.105822870978E+04    0.83630E-04   -0.50555E-04 11024   0.238E-02    0.360E-02
RMM:   6    -0.105822871338E+04   -0.35954E-05   -0.61705E-05  7388   0.121E-02    0.267E-02
RMM:   7    -0.105822871657E+04   -0.31856E-05   -0.36669E-05  7203   0.721E-03    0.180E-02
RMM:   8    -0.105822871794E+04   -0.13719E-05   -0.21896E-05  7011   0.702E-03
  13 F= -.10582287E+04 E0= -.10582287E+04  d E =-.119195E-01  mag=    80.0000
       N       E                     dE             d eps       ncg     rms          rms(c)
DAV:   1    -0.105821831586E+04    0.10401E-01   -0.56299E+00 12304   0.274E+00    0.882E-01
RMM:   2    -0.105823673531E+04   -0.18419E-01   -0.14360E-01 12610   0.509E-01    0.520E-01
RMM:   3    -0.105823806874E+04   -0.13334E-02   -0.80032E-03 13266   0.146E-01    0.267E-01
RMM:   4    -0.105823765508E+04    0.41366E-03   -0.13167E-03 13272   0.420E-02    0.156E-01
RMM:   5    -0.105823751237E+04    0.14271E-03   -0.77168E-04 11347   0.285E-02    0.462E-02
RMM:   6    -0.105823751767E+04   -0.53046E-05   -0.71654E-05  7443   0.139E-02    0.297E-02
RMM:   7    -0.105823752066E+04   -0.29872E-05   -0.37731E-05  7265   0.730E-03    0.230E-02
RMM:   8    -0.105823752198E+04   -0.13251E-05   -0.22047E-05  7037   0.740E-03
  14 F= -.10582375E+04 E0= -.10582375E+04  d E =-.880405E-02  mag=    80.0000
       N       E                     dE             d eps       ncg     rms          rms(c)
DAV:   1    -0.105821407623E+04    0.23444E-01   -0.78907E+00 12288   0.324E+00    0.104E+00
RMM:   2    -0.105823987855E+04   -0.25802E-01   -0.20121E-01 12603   0.602E-01    0.618E-01
RMM:   3    -0.105824175277E+04   -0.18742E-02   -0.11204E-02 13301   0.173E-01    0.316E-01
RMM:   4    -0.105824117922E+04    0.57356E-03   -0.18769E-03 14005   0.499E-02    0.185E-01
RMM:   5    -0.105824097911E+04    0.20011E-03   -0.10855E-03 11785   0.329E-02    0.551E-02
RMM:   6    -0.105824098500E+04   -0.58934E-05   -0.97013E-05  7615   0.157E-02    0.355E-02
RMM:   7    -0.105824098835E+04   -0.33506E-05   -0.46031E-05  7369   0.820E-03    0.264E-02
RMM:   8    -0.105824099001E+04   -0.16590E-05   -0.29781E-05  7188   0.812E-03
  15 F= -.10582410E+04 E0= -.10582410E+04  d E =-.122721E-01  mag=    80.0000
       N       E                     dE             d eps       ncg     rms          rms(c)
DAV:   1    -0.105822782892E+04    0.13159E-01   -0.77452E+00 12288   0.320E+00    0.779E-01
RMM:   2    -0.105824833189E+04   -0.20503E-01   -0.19769E-01 12604   0.591E-01    0.490E-01
RMM:   3    -0.105824890613E+04   -0.57424E-03   -0.10975E-02 13402   0.170E-01    0.285E-01
RMM:   4    -0.105824837774E+04    0.52840E-03   -0.17397E-03 14014   0.470E-02    0.171E-01
RMM:   5    -0.105824820248E+04    0.17525E-03   -0.10093E-03 11819   0.311E-02    0.502E-02
RMM:   6    -0.105824820398E+04   -0.14978E-05   -0.90418E-05  7506   0.150E-02    0.396E-02
RMM:   7    -0.105824820731E+04   -0.33307E-05   -0.44826E-05  7261   0.778E-03    0.237E-02
RMM:   8    -0.105824820603E+04    0.12867E-05   -0.29841E-05  7212   0.787E-03
  16 F= -.10582482E+04 E0= -.10582482E+04  d E =-.721601E-02  mag=    80.0000
       N       E                     dE             d eps       ncg     rms          rms(c)
DAV:   1    -0.105823508171E+04    0.13126E-01   -0.59385E+00 12352   0.280E+00    0.682E-01
RMM:   2    -0.105825081698E+04   -0.15735E-01   -0.15168E-01 12614   0.517E-01    0.429E-01
RMM:   3    -0.105825125131E+04   -0.43434E-03   -0.84100E-03 13368   0.149E-01    0.249E-01
RMM:   4    -0.105825084477E+04    0.40654E-03   -0.13298E-03 13514   0.413E-02    0.149E-01
RMM:   5    -0.105825071202E+04    0.13275E-03   -0.76772E-04 11415   0.277E-02    0.441E-02
RMM:   6    -0.105825071388E+04   -0.18529E-05   -0.73713E-05  7433   0.138E-02    0.362E-02
RMM:   7    -0.105825071695E+04   -0.30783E-05   -0.39052E-05  7232   0.724E-03    0.214E-02
RMM:   8    -0.105825071574E+04    0.12180E-05   -0.24413E-05  7153   0.759E-03
  17 F= -.10582507E+04 E0= -.10582507E+04  d E =-.972573E-02  mag=    80.0000
       N       E                     dE             d eps       ncg     rms          rms(c)
DAV:   1    -0.105823848356E+04    0.12233E-01   -0.87927E+00 12608   0.344E+00    0.822E-01
RMM:   2    -0.105825976719E+04   -0.21284E-01   -0.23073E-01 12676   0.636E-01    0.516E-01
RMM:   3    -0.105825974033E+04    0.26867E-04   -0.12503E-02 13547   0.183E-01    0.309E-01
RMM:   4    -0.105825916431E+04    0.57602E-03   -0.21963E-03 14407   0.523E-02    0.186E-01
RMM:   5    -0.105825900037E+04    0.16394E-03   -0.87290E-04 11914   0.297E-02    0.665E-02
RMM:   6    -0.105825901718E+04   -0.16810E-04   -0.13018E-04  7736   0.153E-02    0.416E-02
RMM:   7    -0.105825902443E+04   -0.72531E-05   -0.46986E-05  7316   0.979E-03    0.284E-02
RMM:   8    -0.105825903161E+04   -0.71752E-05   -0.41623E-05  7265   0.843E-03
  18 F= -.10582590E+04 E0= -.10582590E+04  d E =-.831587E-02  mag=    80.0000
       N       E                     dE             d eps       ncg     rms          rms(c)
DAV:   1    -0.105825649753E+04    0.25269E-02   -0.14299E+00 12736   0.139E+00    0.332E-01
RMM:   2    -0.105826000495E+04   -0.35074E-02   -0.37797E-02 12677   0.257E-01    0.208E-01
RMM:   3    -0.105826000224E+04    0.27069E-05   -0.20894E-03 12842   0.743E-02    0.125E-01
RMM:   4    -0.105825990565E+04    0.96593E-04   -0.33823E-04  9416   0.218E-02    0.753E-02
RMM:   5    -0.105825988112E+04    0.24525E-04   -0.13668E-04  7478   0.149E-02    0.294E-02
RMM:   6    -0.105825988718E+04   -0.60526E-05   -0.35720E-05  7177   0.973E-03    0.228E-02
RMM:   7    -0.105825988983E+04   -0.26546E-05   -0.18825E-05  7031   0.578E-03    0.141E-02
RMM:   8    -0.105825989241E+04   -0.25761E-05   -0.11440E-05  6827   0.537E-03
  19 F= -.10582599E+04 E0= -.10582599E+04  d E =-.917667E-02  mag=    80.0000
       N       E                     dE             d eps       ncg     rms          rms(c)
DAV:   1    -0.105824269249E+04    0.17197E-01   -0.77884E+00 12320   0.324E+00    0.929E-01
RMM:   2    -0.105826495119E+04   -0.22259E-01   -0.19903E-01 12688   0.597E-01    0.573E-01
RMM:   3    -0.105826594244E+04   -0.99125E-03   -0.10865E-02 13538   0.171E-01    0.330E-01
RMM:   4    -0.105826538679E+04    0.55565E-03   -0.17835E-03 14158   0.481E-02    0.194E-01
RMM:   5    -0.105826518319E+04    0.20359E-03   -0.99382E-04 11875   0.313E-02    0.581E-02
RMM:   6    -0.105826518451E+04   -0.13144E-05   -0.84611E-05  7490   0.146E-02    0.423E-02
RMM:   7    -0.105826518813E+04   -0.36260E-05   -0.43668E-05  7272   0.797E-03    0.253E-02
RMM:   8    -0.105826518674E+04    0.13953E-05   -0.26869E-05  7198   0.749E-03
  20 F= -.10582652E+04 E0= -.10582652E+04  d E =-.529433E-02  mag=    80.0000
       N       E                     dE             d eps       ncg     rms          rms(c)
DAV:   1    -0.105826448410E+04    0.70403E-03   -0.31072E-01 12984   0.648E-01    0.184E-01
RMM:   2    -0.105826538751E+04   -0.90340E-03   -0.81110E-03 12726   0.119E-01    0.114E-01
RMM:   3    -0.105826541557E+04   -0.28064E-04   -0.37773E-04  9288   0.340E-02    0.659E-02
RMM:   4    -0.105826539620E+04    0.19375E-04   -0.76067E-05  7183   0.124E-02    0.404E-02
RMM:   5    -0.105826538898E+04    0.72194E-05   -0.42073E-05  7131   0.878E-03    0.210E-02
RMM:   6    -0.105826539009E+04   -0.11112E-05   -0.15007E-05  6786   0.564E-03    0.915E-03
RMM:   7    -0.105826539048E+04   -0.39395E-06   -0.78414E-06  6139   0.422E-03    0.924E-03
RMM:   8    -0.105826539046E+04    0.26688E-07   -0.44063E-06  4977   0.322E-03
  21 F= -.10582654E+04 E0= -.10582654E+04  d E =-.549805E-02  mag=    80.0000
       N       E                     dE             d eps       ncg     rms          rms(c)
DAV:   1    -0.105825773057E+04    0.76599E-02   -0.27289E+00 12432   0.192E+00    0.715E-01
RMM:   2    -0.105826766398E+04   -0.99334E-02   -0.69054E-02 12669   0.357E-01    0.418E-01
RMM:   3    -0.105826855519E+04   -0.89121E-03   -0.37967E-03 12892   0.102E-01    0.200E-01
RMM:   4    -0.105826832389E+04    0.23130E-03   -0.68054E-04 11810   0.317E-02    0.115E-01
RMM:   5    -0.105826824090E+04    0.82990E-04   -0.41529E-04 10107   0.223E-02    0.332E-02
RMM:   6    -0.105826824187E+04   -0.97677E-06   -0.41910E-05  7250   0.116E-02    0.283E-02
RMM:   7    -0.105826824331E+04   -0.14315E-05   -0.21963E-05  7026   0.605E-03    0.172E-02
RMM:   8    -0.105826824289E+04    0.41355E-06   -0.13028E-05  6944   0.609E-03
  22 F= -.10582682E+04 E0= -.10582682E+04  d E =-.285244E-02  mag=    80.0000
       N       E                     dE             d eps       ncg     rms          rms(c)
DAV:   1    -0.105826767738E+04    0.56592E-03   -0.18386E-01 12688   0.499E-01    0.185E-01
RMM:   2    -0.105826835244E+04   -0.67506E-03   -0.47215E-03 12619   0.930E-02    0.108E-01
RMM:   3    -0.105826840591E+04   -0.53467E-04   -0.21030E-04  8320   0.272E-02    0.530E-02
RMM:   4    -0.105826839410E+04    0.11813E-04   -0.54976E-05  7088   0.111E-02    0.313E-02
RMM:   5    -0.105826838885E+04    0.52509E-05   -0.34058E-05  7035   0.770E-03    0.127E-02
RMM:   6    -0.105826838959E+04   -0.74090E-06   -0.10434E-05  6579   0.515E-03    0.119E-02
RMM:   7    -0.105826838995E+04   -0.36164E-06   -0.49692E-06  5351   0.332E-03    0.426E-03
RMM:   8    -0.105826838997E+04   -0.20998E-07   -0.25941E-06  4400   0.290E-03
  23 F= -.10582684E+04 E0= -.10582684E+04  d E =-.299951E-02  mag=    80.0000
       N       E                     dE             d eps       ncg     rms          rms(c)
DAV:   1    -0.105826415774E+04    0.42322E-02   -0.23087E+00 12432   0.180E+00    0.580E-01
RMM:   2    -0.105827029225E+04   -0.61345E-02   -0.63535E-02 12534   0.344E-01    0.355E-01
RMM:   3    -0.105827050348E+04   -0.21123E-03   -0.38114E-03 12961   0.106E-01    0.199E-01
RMM:   4    -0.105827032713E+04    0.17635E-03   -0.70079E-04 12100   0.322E-02    0.122E-01
RMM:   5    -0.105827026985E+04    0.57275E-04   -0.24601E-04  7978   0.206E-02    0.683E-02
RMM:   6    -0.105827027774E+04   -0.78886E-05   -0.64395E-05  7220   0.131E-02    0.547E-02
RMM:   7    -0.105827028456E+04   -0.68159E-05   -0.32656E-05  7131   0.845E-03    0.250E-02
RMM:   8    -0.105827029059E+04   -0.60295E-05   -0.19842E-05  7080   0.760E-03
  24 F= -.10582703E+04 E0= -.10582703E+04  d E =-.190062E-02  mag=    80.0000
       N       E                     dE             d eps       ncg     rms          rms(c)
DAV:   1    -0.105826981361E+04    0.47094E-03   -0.21122E-01 12432   0.546E-01    0.175E-01
RMM:   2    -0.105827039157E+04   -0.57795E-03   -0.59171E-03 12553   0.104E-01    0.108E-01
RMM:   3    -0.105827040585E+04   -0.14282E-04   -0.30153E-04  9162   0.321E-02    0.618E-02
RMM:   4    -0.105827039491E+04    0.10937E-04   -0.68662E-05  7109   0.119E-02    0.393E-02
RMM:   5    -0.105827039368E+04    0.12276E-05   -0.29209E-05  7060   0.802E-03    0.263E-02
RMM:   6    -0.105827039616E+04   -0.24770E-05   -0.14119E-05  6866   0.532E-03    0.124E-02
RMM:   7    -0.105827039757E+04   -0.14138E-05   -0.65611E-06  6018   0.411E-03    0.801E-03
RMM:   8    -0.105827039886E+04   -0.12839E-05   -0.35743E-06  4604   0.296E-03
  25 F= -.10582704E+04 E0= -.10582704E+04  d E =-.200889E-02  mag=    80.0000
       N       E                     dE             d eps       ncg     rms          rms(c)
DAV:   1    -0.105826575229E+04    0.46453E-02   -0.22277E+00 12368   0.177E+00    0.562E-01
RMM:   2    -0.105827224319E+04   -0.64909E-02   -0.59342E-02 12603   0.332E-01    0.356E-01
RMM:   3    -0.105827258437E+04   -0.34118E-03   -0.34118E-03 13144   0.986E-02    0.199E-01
RMM:   4    -0.105827239085E+04    0.19352E-03   -0.57464E-04 11386   0.296E-02    0.119E-01
RMM:   5    -0.105827231515E+04    0.75702E-04   -0.29336E-04  8427   0.208E-02    0.448E-02
RMM:   6    -0.105827231576E+04   -0.60658E-06   -0.55494E-05  7199   0.133E-02    0.523E-02
RMM:   7    -0.105827231767E+04   -0.19119E-05   -0.27187E-05  7096   0.738E-03    0.181E-02
RMM:   8    -0.105827231621E+04    0.14608E-05   -0.15246E-05  7054   0.687E-03
  26 F= -.10582723E+04 E0= -.10582723E+04  d E =-.191735E-02  mag=    80.0000
       N       E                     dE             d eps       ncg     rms          rms(c)
DAV:   1    -0.105827144410E+04    0.87357E-03   -0.36456E-01 12400   0.717E-01    0.227E-01
RMM:   2    -0.105827251449E+04   -0.10704E-02   -0.98139E-03 12609   0.135E-01    0.144E-01
RMM:   3    -0.105827256380E+04   -0.49310E-04   -0.51218E-04 10165   0.401E-02    0.822E-02
RMM:   4    -0.105827253501E+04    0.28792E-04   -0.92850E-05  7193   0.138E-02    0.506E-02
RMM:   5    -0.105827252319E+04    0.11822E-04   -0.47492E-05  7074   0.977E-03    0.300E-02
RMM:   6    -0.105827252339E+04   -0.20172E-06   -0.19082E-05  7016   0.645E-03    0.130E-02
RMM:   7    -0.105827252361E+04   -0.22021E-06   -0.91547E-06  6559   0.481E-03    0.125E-02
RMM:   8    -0.105827252319E+04    0.42604E-06   -0.50754E-06  5304   0.339E-03
  27 F= -.10582725E+04 E0= -.10582725E+04  d E =-.212433E-02  mag=    80.0000
       N       E                     dE             d eps       ncg     rms          rms(c)
DAV:   1    -0.105826794312E+04    0.45805E-02   -0.22655E+00 12480   0.179E+00    0.474E-01
RMM:   2    -0.105827410806E+04   -0.61649E-02   -0.59390E-02 12680   0.330E-01    0.290E-01
RMM:   3    -0.105827434019E+04   -0.23212E-03   -0.32446E-03 12934   0.964E-02    0.162E-01
RMM:   4    -0.105827419065E+04    0.14954E-03   -0.53344E-04 10973   0.281E-02    0.918E-02
RMM:   5    -0.105827414745E+04    0.43201E-04   -0.26175E-04  8166   0.190E-02    0.300E-02
RMM:   6    -0.105827415167E+04   -0.42192E-05   -0.46647E-05  7188   0.121E-02    0.312E-02
RMM:   7    -0.105827415409E+04   -0.24168E-05   -0.23876E-05  7008   0.652E-03    0.129E-02
RMM:   8    -0.105827415522E+04   -0.11303E-05   -0.13473E-05  6886   0.623E-03
  28 F= -.10582742E+04 E0= -.10582742E+04  d E =-.163203E-02  mag=    80.0000
