<?xml version="1.0" encoding="ISO-8859-1"?>
<modeling>
 <generator>
  <i name="program" type="string">vasp </i>
  <i name="version" type="string">5.4.1  </i>
  <i name="subversion" type="string">05Feb16 (build Jan 25 2017 20:16:33) complex                          parallel </i>
  <i name="platform" type="string">BWXE6 </i>
  <i name="date" type="string">2019 08 11 </i>
  <i name="time" type="string">11:57:33 </i>
 </generator>
 <incar>
  <i type="string" name="SYSTEM"> STF</i>
  <i type="string" name="PREC">normal</i>
  <i type="string" name="ALGO"> Fast</i>
  <i type="int" name="ISPIN">     2</i>
  <i type="int" name="NELM">    40</i>
  <i type="int" name="NELMIN">     8</i>
  <i type="int" name="IBRION">     2</i>
  <i name="EDIFF">      0.00010000</i>
  <i name="EDIFFG">     -0.03000000</i>
  <i type="int" name="NSW">    30</i>
  <i type="int" name="ISIF">     3</i>
  <i name="ENCUT">    520.00000000</i>
  <i type="int" name="NBANDS">   768</i>
  <v name="MAGMOM">      0.60000000      0.60000000      0.60000000      0.60000000      0.60000000      0.60000000      0.60000000      0.60000000      0.60000000      0.60000000      0.60000000      0.60000000      0.60000000      0.60000000      0.60000000      0.60000000      0.60000000      0.60000000      0.60000000      0.60000000
      0.60000000      0.60000000      0.60000000      0.60000000      0.60000000      0.60000000      0.60000000      0.60000000      0.60000000      0.60000000      0.60000000      0.60000000      0.60000000      0.60000000      0.60000000      0.60000000      0.60000000      0.60000000      0.60000000      0.60000000
      0.60000000      0.60000000      0.60000000      0.60000000      0.60000000      0.60000000      0.60000000      0.60000000      5.00000000      5.00000000      5.00000000      5.00000000      5.00000000      5.00000000      5.00000000      5.00000000      5.00000000      5.00000000      5.00000000      5.00000000
      5.00000000      5.00000000      5.00000000      5.00000000      0.60000000      0.60000000      0.60000000      0.60000000      0.60000000      0.60000000      0.60000000      0.60000000      0.60000000      0.60000000      0.60000000      0.60000000      0.60000000      0.60000000      0.60000000      0.60000000
      0.60000000      0.60000000      0.60000000      0.60000000      0.60000000      0.60000000      0.60000000      0.60000000      0.60000000      0.60000000      0.60000000      0.60000000      0.60000000      0.60000000      0.60000000      0.60000000      0.60000000      0.60000000      0.60000000      0.60000000
      0.60000000      0.60000000      0.60000000      0.60000000      0.60000000      0.60000000      0.60000000      0.60000000      0.60000000      0.60000000      0.60000000      0.60000000      0.60000000      0.60000000      0.60000000      0.60000000      0.60000000      0.60000000      0.60000000      0.60000000
      0.60000000      0.60000000      0.60000000      0.60000000      0.60000000      0.60000000      0.60000000      0.60000000      0.60000000      0.60000000      0.60000000      0.60000000      0.60000000      0.60000000      0.60000000      0.60000000      0.60000000      0.60000000      0.60000000      0.60000000
      0.60000000      0.60000000      0.60000000      0.60000000      0.60000000      0.60000000      0.60000000      0.60000000      0.60000000      0.60000000      0.60000000      0.60000000</v>
  <i type="string" name="LREAL"> Auto</i>
  <i type="int" name="ISMEAR">     0</i>
  <i name="SIGMA">      0.05000000</i>
  <i type="int" name="LMAXMIX">     4</i>
  <v type="int" name="KPOINT_BSE">    -1     0     0     0</v>
  <i type="int" name="NELM">    40</i>
  <i type="logical" name="LDAU"> T  </i>
  <v type="int" name="LDAUTYPE">     2</v>
  <v type="int" name="LDAUL">     0     2     2     0</v>
  <v name="LDAUU">      0.00000000      3.00000000      5.00000000      0.00000000</v>
  <v name="LDAUJ">      0.00000000      0.00000000      0.00000000      0.00000000</v>
  <i type="int" name="LDAUPRINT">     1</i>
 </incar>
 <kpoints>
  <generation param="Monkhorst-Pack">
   <v type="int" name="divisions">       2        2        2 </v>
   <v name="usershift">      0.00000000       0.00000000       0.00000000 </v>
   <v name="genvec1">      0.50000000      -0.00000000       0.00000000 </v>
   <v name="genvec2">      0.00000000       0.50000000      -0.00000000 </v>
   <v name="genvec3">      0.00000000      -0.00000000       0.50000000 </v>
   <v name="shift">      0.50000000       0.50000000       0.50000000 </v>
  </generation>
  <varray name="kpointlist" >
   <v>       0.25000000       0.25000000       0.25000000 </v>
   <v>      -0.25000000       0.25000000       0.25000000 </v>
   <v>       0.25000000      -0.25000000       0.25000000 </v>
   <v>      -0.25000000      -0.25000000       0.25000000 </v>
  </varray>
  <varray name="weights" >
   <v>       0.25000000 </v>
   <v>       0.25000000 </v>
   <v>       0.25000000 </v>
   <v>       0.25000000 </v>
  </varray>
 </kpoints>
 <parameters>
  <separator name="general" >
   <i type="string" name="SYSTEM">STF</i>
   <i type="logical" name="LCOMPAT"> F  </i>
  </separator>
  <separator name="electronic" >
   <i type="string" name="PREC">normal</i>
   <i name="ENMAX">    520.00000000</i>
   <i name="ENAUG">    605.39200000</i>
   <i name="EDIFF">      0.00010000</i>
   <i type="int" name="IALGO">    68</i>
   <i type="int" name="IWAVPR">    11</i>
   <i type="int" name="NBANDS">   768</i>
   <i name="NELECT">   1040.00000000</i>
   <i type="int" name="TURBO">     0</i>
   <i type="int" name="IRESTART">     0</i>
   <i type="int" name="NREBOOT">     0</i>
   <i type="int" name="NMIN">     0</i>
   <i name="EREF">      0.00000000</i>
   <separator name="electronic smearing" >
    <i type="int" name="ISMEAR">     0</i>
    <i name="SIGMA">      0.05000000</i>
    <i name="KSPACING">      0.50000000</i>
    <i type="logical" name="KGAMMA"> T  </i>
   </separator>
   <separator name="electronic projectors" >
    <i type="logical" name="LREAL"> T  </i>
    <v name="ROPT">     -0.00050000     -0.00050000     -0.00050000     -0.00050000</v>
    <i type="int" name="LMAXPAW">  -100</i>
    <i type="int" name="LMAXMIX">     4</i>
    <i type="logical" name="NLSPLINE"> F  </i>
   </separator>
   <separator name="electronic startup" >
    <i type="int" name="ISTART">     1</i>
    <i type="int" name="ICHARG">     0</i>
    <i type="int" name="INIWAV">     1</i>
   </separator>
   <separator name="electronic spin" >
    <i type="int" name="ISPIN">     2</i>
    <i type="logical" name="LNONCOLLINEAR"> F  </i>
    <v name="MAGMOM">      0.60000000      0.60000000      0.60000000      0.60000000      0.60000000      0.60000000      0.60000000      0.60000000      0.60000000      0.60000000      0.60000000      0.60000000      0.60000000      0.60000000      0.60000000      0.60000000      0.60000000      0.60000000      0.60000000      0.60000000
      0.60000000      0.60000000      0.60000000      0.60000000      0.60000000      0.60000000      0.60000000      0.60000000      0.60000000      0.60000000      0.60000000      0.60000000      0.60000000      0.60000000      0.60000000      0.60000000      0.60000000      0.60000000      0.60000000      0.60000000
      0.60000000      0.60000000      0.60000000      0.60000000      0.60000000      0.60000000      0.60000000      0.60000000      5.00000000      5.00000000      5.00000000      5.00000000      5.00000000      5.00000000      5.00000000      5.00000000      5.00000000      5.00000000      5.00000000      5.00000000
      5.00000000      5.00000000      5.00000000      5.00000000      0.60000000      0.60000000      0.60000000      0.60000000      0.60000000      0.60000000      0.60000000      0.60000000      0.60000000      0.60000000      0.60000000      0.60000000      0.60000000      0.60000000      0.60000000      0.60000000
      0.60000000      0.60000000      0.60000000      0.60000000      0.60000000      0.60000000      0.60000000      0.60000000      0.60000000      0.60000000      0.60000000      0.60000000      0.60000000      0.60000000      0.60000000      0.60000000      0.60000000      0.60000000      0.60000000      0.60000000
      0.60000000      0.60000000      0.60000000      0.60000000      0.60000000      0.60000000      0.60000000      0.60000000      0.60000000      0.60000000      0.60000000      0.60000000      0.60000000      0.60000000      0.60000000      0.60000000      0.60000000      0.60000000      0.60000000      0.60000000
      0.60000000      0.60000000      0.60000000      0.60000000      0.60000000      0.60000000      0.60000000      0.60000000      0.60000000      0.60000000      0.60000000      0.60000000      0.60000000      0.60000000      0.60000000      0.60000000      0.60000000      0.60000000      0.60000000      0.60000000
      0.60000000      0.60000000      0.60000000      0.60000000      0.60000000      0.60000000      0.60000000      0.60000000      0.60000000      0.60000000      0.60000000      0.60000000</v>
    <i name="NUPDOWN">     -1.00000000</i>
    <i type="logical" name="LSORBIT"> F  </i>
    <v name="SAXIS">      0.00000000      0.00000000      1.00000000</v>
    <i type="logical" name="LSPIRAL"> F  </i>
    <v name="QSPIRAL">      0.00000000      0.00000000      0.00000000</v>
    <i type="logical" name="LZEROZ"> F  </i>
   </separator>
   <separator name="electronic exchange-correlation" >
    <i type="logical" name="LASPH"> F  </i>
    <i type="logical" name="LMETAGGA"> F  </i>
   </separator>
   <separator name="electronic convergence" >
    <i type="int" name="NELM">    40</i>
    <i type="int" name="NELMDL">     0</i>
    <i type="int" name="NELMIN">     8</i>
    <i name="ENINI">    520.00000000</i>
    <separator name="electronic convergence detail" >
     <i type="logical" name="LDIAG"> T  </i>
     <i type="logical" name="LSUBROT"> F  </i>
     <i name="WEIMIN">      0.00100000</i>
     <i name="EBREAK">      0.00000003</i>
     <i name="DEPER">      0.30000000</i>
     <i type="int" name="NRMM">     4</i>
     <i name="TIME">      0.40000000</i>
    </separator>
   </separator>
   <separator name="electronic mixer" >
    <i name="AMIX">      0.40000000</i>
    <i name="BMIX">      1.00000000</i>
    <i name="AMIN">      0.10000000</i>
    <i name="AMIX_MAG">      1.60000000</i>
    <i name="BMIX_MAG">      1.00000000</i>
    <separator name="electronic mixer details" >
     <i type="int" name="IMIX">     4</i>
     <i type="logical" name="MIXFIRST"> F  </i>
     <i type="int" name="MAXMIX">   -45</i>
     <i name="WC">    100.00000000</i>
     <i type="int" name="INIMIX">     1</i>
     <i type="int" name="MIXPRE">     1</i>
     <i type="int" name="MREMOVE">     5</i>
    </separator>
   </separator>
   <separator name="electronic dipolcorrection" >
    <i type="logical" name="LDIPOL"> F  </i>
    <i type="logical" name="LMONO"> F  </i>
    <i type="int" name="IDIPOL">     0</i>
    <i name="EPSILON">      1.00000000</i>
    <v name="DIPOL">   -100.00000000   -100.00000000   -100.00000000</v>
    <i name="EFIELD">      0.00000000</i>
   </separator>
  </separator>
  <separator name="grids" >
   <i type="int" name="NGX">    64</i>
   <i type="int" name="NGY">    64</i>
   <i type="int" name="NGZ">    90</i>
   <i type="int" name="NGXF">   128</i>
   <i type="int" name="NGYF">   128</i>
   <i type="int" name="NGZF">   180</i>
   <i type="logical" name="ADDGRID"> F  </i>
  </separator>
  <separator name="ionic" >
   <i type="int" name="NSW">    30</i>
   <i type="int" name="IBRION">     2</i>
   <i type="int" name="ISIF">     3</i>
   <i name="PSTRESS">      0.00000000</i>
   <i name="EDIFFG">     -0.03000000</i>
   <i type="int" name="NFREE">     1</i>
   <i name="POTIM">      0.50000000</i>
   <i name="SMASS">     -3.00000000</i>
   <i name="SCALEE">      1.00000000</i>
  </separator>
  <separator name="ionic md" >
   <i name="TEBEG">      0.00010000</i>
   <i name="TEEND">      0.00010000</i>
   <i type="int" name="NBLOCK">     1</i>
   <i type="int" name="KBLOCK">    30</i>
   <i type="int" name="NPACO">   256</i>
   <i name="APACO">     16.00000000</i>
  </separator>
  <separator name="symmetry" >
   <i type="int" name="ISYM">     2</i>
   <i name="SYMPREC">      0.00001000</i>
  </separator>
  <separator name="dos" >
   <i type="logical" name="LORBIT"> F  </i>
   <v name="RWIGS">     -1.00000000     -1.00000000     -1.00000000     -1.00000000</v>
   <i type="int" name="NEDOS">   301</i>
   <i name="EMIN">     10.00000000</i>
   <i name="EMAX">    -10.00000000</i>
   <i name="EFERMI">      0.00000000</i>
  </separator>
  <separator name="writing" >
   <i type="int" name="NWRITE">     2</i>
   <i type="logical" name="LWAVE"> T  </i>
   <i type="logical" name="LCHARG"> T  </i>
   <i type="logical" name="LPARD"> F  </i>
   <i type="logical" name="LVTOT"> F  </i>
   <i type="logical" name="LVHAR"> F  </i>
   <i type="logical" name="LELF"> F  </i>
   <i type="logical" name="LOPTICS"> F  </i>
   <v name="STM">      0.00000000      0.00000000      0.00000000      0.00000000      0.00000000      0.00000000      0.00000000</v>
  </separator>
  <separator name="performance" >
   <i type="int" name="NPAR">     2</i>
   <i type="int" name="NSIM">     4</i>
   <i type="int" name="NBLK">    -1</i>
   <i type="logical" name="LPLANE"> T  </i>
   <i type="logical" name="LSCALAPACK"> T  </i>
   <i type="logical" name="LSCAAWARE"> F  </i>
   <i type="logical" name="LSCALU"> F  </i>
   <i type="logical" name="LASYNC"> F  </i>
   <i type="logical" name="LORBITALREAL"> F  </i>
  </separator>
  <separator name="miscellaneous" >
   <i type="int" name="IDIOT">     3</i>
   <i type="logical" name="LMUSIC"> F  </i>
   <v name="POMASS">     87.62000000     47.88000000     55.84700000     16.00000000</v>
   <v name="DARWINR">      0.00000000      0.00000000      0.00000000      0.00000000</v>
   <v name="DARWINV">      1.00000000      1.00000000      1.00000000      1.00000000</v>
   <i type="logical" name="LCORR"> T  </i>
  </separator>
  <i type="logical" name="GGA_COMPAT"> T  </i>
  <i type="logical" name="LBERRY"> F  </i>
  <i type="int" name="ICORELEVEL">     0</i>
  <i type="logical" name="LDAU"> T  </i>
  <v type="int" name="LDAUTYPE">     2</v>
  <v type="int" name="LDAUL">     0</v>
  <v name="LDAUU">      0.00000000</v>
  <v name="LDAUJ">      0.00000000</v>
  <i type="int" name="LDAUPRINT">     1</i>
  <i type="int" name="I_CONSTRAINED_M">     0</i>
  <separator name="electronic exchange-correlation" >
   <i type="string" name="GGA">--</i>
   <i type="int" name="VOSKOWN">     0</i>
   <i type="logical" name="LHFCALC"> F  </i>
   <i type="string" name="PRECFOCK"></i>
   <i type="logical" name="LSYMGRAD"> F  </i>
   <i type="logical" name="LHFONE"> F  </i>
   <i type="logical" name="LRHFCALC"> F  </i>
   <i type="logical" name="LTHOMAS"> F  </i>
   <i type="logical" name="LMODELHF"> F  </i>
   <i name="ENCUT4O">     -1.00000000</i>
   <i type="int" name="EXXOEP">     0</i>
   <i type="int" name="FOURORBIT">     0</i>
   <i name="AEXX">      0.00000000</i>
   <i name="HFALPHA">      0.00000000</i>
   <i name="MCALPHA">      0.00000000</i>
   <i name="ALDAX">      1.00000000</i>
   <i name="AGGAX">      1.00000000</i>
   <i name="ALDAC">      1.00000000</i>
   <i name="AGGAC">      1.00000000</i>
   <i type="int" name="NKREDX">     1</i>
   <i type="int" name="NKREDY">     1</i>
   <i type="int" name="NKREDZ">     1</i>
   <i type="logical" name="SHIFTRED"> F  </i>
   <i type="logical" name="ODDONLY"> F  </i>
   <i type="logical" name="EVENONLY"> F  </i>
   <i type="int" name="LMAXFOCK">     0</i>
   <i type="int" name="NMAXFOCKAE">     0</i>
   <i type="logical" name="LFOCKAEDFT"> F  </i>
   <i name="HFSCREEN">      0.00000000</i>
   <i name="HFSCREENC">      0.00000000</i>
   <i type="int" name="NBANDSGWLOW">     0</i>
  </separator>
  <separator name="vdW DFT" >
   <i type="logical" name="LUSE_VDW"> F  </i>
   <i name="Zab_VDW">     -0.84910000</i>
   <i name="PARAM1">      0.12340000</i>
   <i name="PARAM2">      1.00000000</i>
   <i name="PARAM3">      0.00000000</i>
  </separator>
  <separator name="model GW" >
   <i type="int" name="MODEL_GW">     0</i>
   <i name="MODEL_EPS0">      7.92926978</i>
   <i name="MODEL_ALPHA">      1.00000000</i>
  </separator>
  <separator name="linear response parameters" >
   <i type="logical" name="LEPSILON"> F  </i>
   <i type="logical" name="LRPA"> F  </i>
   <i type="logical" name="LNABLA"> F  </i>
   <i type="logical" name="LVEL"> F  </i>
   <i type="int" name="KINTER">     0</i>
   <i name="CSHIFT">      0.10000000</i>
   <i name="OMEGAMAX">     -1.00000000</i>
   <i name="DEG_THRESHOLD">      0.00200000</i>
  </separator>
  <separator name="orbital magnetization" >
   <i type="logical" name="NUCIND"> F  </i>
   <v name="MAGPOS">      0.00000000      0.00000000      0.00000000</v>
   <i type="logical" name="LNICSALL"> T  </i>
   <i type="logical" name="ORBITALMAG"> F  </i>
   <i type="logical" name="LMAGBLOCH"> F  </i>
   <i type="logical" name="LCHIMAG"> F  </i>
   <i type="logical" name="LGAUGE"> T  </i>
   <i type="int" name="MAGATOM">     0</i>
   <v name="MAGDIPOL">      0.00000000      0.00000000      0.00000000</v>
   <v name="AVECCONST">      0.00000000      0.00000000      0.00000000</v>
  </separator>
  <separator name="response functions" >
   <i type="logical" name="LADDER"> F  </i>
   <i type="logical" name="LFXC"> F  </i>
   <i type="logical" name="LHARTREE"> T  </i>
   <i type="int" name="IBSE">     0</i>
   <v type="int" name="KPOINT">    -1     0     0     0</v>
   <i type="logical" name="LTCTE"> F  </i>
   <i type="logical" name="LTETE"> F  </i>
   <i type="logical" name="LTRIPLET"> F  </i>
   <i type="logical" name="LFXCEPS"> F  </i>
   <i type="logical" name="LFXHEG"> F  </i>
   <i type="int" name="NATURALO">     0</i>
   <i type="logical" name="L2ORDER"> F  </i>
   <i type="logical" name="LUSEW"> F  </i>
   <i name="ENCUTGW">     -2.00000000</i>
   <i name="ENCUTGWSOFT">     -2.00000000</i>
   <i name="ENCUTLF">     -1.00000000</i>
   <i type="int" name="LMAXMP2">    -1</i>
   <i name="SCISSOR">      0.00000000</i>
   <i type="int" name="NOMEGA">     0</i>
   <i type="int" name="NOMEGAR">     0</i>
   <i type="int" name="NBANDSGW">    -1</i>
   <i type="int" name="NBANDSO">    -1</i>
   <i type="int" name="NBANDSV">    -1</i>
   <i type="int" name="NELM">    40</i>
   <i type="int" name="NELMHF">     1</i>
   <i type="int" name="DIM">     3</i>
   <i type="int" name="ANTIRES">     0</i>
   <i name="OMEGAMAX">    -30.00000000</i>
   <i name="OMEGAMIN">    -30.00000000</i>
   <i name="OMEGATL">   -200.00000000</i>
   <i type="int" name="OMEGAGRID">     0</i>
   <i name="CSHIFT">     -0.10000000</i>
   <i type="logical" name="SELFENERGY"> F  </i>
   <i type="logical" name="LSPECTRAL"> F  </i>
   <i type="logical" name="LSPECTRALGW"> F  </i>
   <i type="logical" name="LSINGLES"> F  </i>
   <i type="logical" name="LFERMIGW"> F  </i>
   <i type="logical" name="ODDONLYGW"> F  </i>
   <i type="logical" name="EVENONLYGW"> F  </i>
   <i type="int" name="NKREDLFX">     1</i>
   <i type="int" name="NKREDLFY">     1</i>
   <i type="int" name="NKREDLFZ">     1</i>
   <i type="int" name="MAXMEM">  1800</i>
   <i type="int" name="TELESCOPE">     0</i>
   <i type="int" name="TAUPAR">     1</i>
   <i type="int" name="OMEGAPAR">    -1</i>
   <i name="LAMBDA">      1.00000000</i>
  </separator>
  <separator name="External order field" >
   <i name="OFIELD_KAPPA">      0.00000000</i>
   <v name="OFIELD_K">      0.00000000      0.00000000      0.00000000</v>
   <i name="OFIELD_Q6_NEAR">      0.00000000</i>
   <i name="OFIELD_Q6_FAR">      0.00000000</i>
   <i name="OFIELD_A">      0.00000000</i>
  </separator>
 </parameters>
 <atominfo>
  <atoms>     152 </atoms>
  <types>       4 </types>
  <array name="atoms" >
   <dimension dim="1">ion</dimension>
   <field type="string">element</field>
   <field type="int">atomtype</field>
   <set>
    <rc><c>Sr</c><c>   1</c></rc>
    <rc><c>Sr</c><c>   1</c></rc>
    <rc><c>Sr</c><c>   1</c></rc>
    <rc><c>Sr</c><c>   1</c></rc>
    <rc><c>Sr</c><c>   1</c></rc>
    <rc><c>Sr</c><c>   1</c></rc>
    <rc><c>Sr</c><c>   1</c></rc>
    <rc><c>Sr</c><c>   1</c></rc>
    <rc><c>Sr</c><c>   1</c></rc>
    <rc><c>Sr</c><c>   1</c></rc>
    <rc><c>Sr</c><c>   1</c></rc>
    <rc><c>Sr</c><c>   1</c></rc>
    <rc><c>Sr</c><c>   1</c></rc>
    <rc><c>Sr</c><c>   1</c></rc>
    <rc><c>Sr</c><c>   1</c></rc>
    <rc><c>Sr</c><c>   1</c></rc>
    <rc><c>Sr</c><c>   1</c></rc>
    <rc><c>Sr</c><c>   1</c></rc>
    <rc><c>Sr</c><c>   1</c></rc>
    <rc><c>Sr</c><c>   1</c></rc>
    <rc><c>Sr</c><c>   1</c></rc>
    <rc><c>Sr</c><c>   1</c></rc>
    <rc><c>Sr</c><c>   1</c></rc>
    <rc><c>Sr</c><c>   1</c></rc>
    <rc><c>Sr</c><c>   1</c></rc>
    <rc><c>Sr</c><c>   1</c></rc>
    <rc><c>Sr</c><c>   1</c></rc>
    <rc><c>Sr</c><c>   1</c></rc>
    <rc><c>Sr</c><c>   1</c></rc>
    <rc><c>Sr</c><c>   1</c></rc>
    <rc><c>Sr</c><c>   1</c></rc>
    <rc><c>Sr</c><c>   1</c></rc>
    <rc><c>Ti</c><c>   2</c></rc>
    <rc><c>Ti</c><c>   2</c></rc>
    <rc><c>Ti</c><c>   2</c></rc>
    <rc><c>Ti</c><c>   2</c></rc>
    <rc><c>Ti</c><c>   2</c></rc>
    <rc><c>Ti</c><c>   2</c></rc>
    <rc><c>Ti</c><c>   2</c></rc>
    <rc><c>Ti</c><c>   2</c></rc>
    <rc><c>Ti</c><c>   2</c></rc>
    <rc><c>Ti</c><c>   2</c></rc>
    <rc><c>Ti</c><c>   2</c></rc>
    <rc><c>Ti</c><c>   2</c></rc>
    <rc><c>Ti</c><c>   2</c></rc>
    <rc><c>Ti</c><c>   2</c></rc>
    <rc><c>Ti</c><c>   2</c></rc>
    <rc><c>Ti</c><c>   2</c></rc>
    <rc><c>Fe</c><c>   3</c></rc>
    <rc><c>Fe</c><c>   3</c></rc>
    <rc><c>Fe</c><c>   3</c></rc>
    <rc><c>Fe</c><c>   3</c></rc>
    <rc><c>Fe</c><c>   3</c></rc>
    <rc><c>Fe</c><c>   3</c></rc>
    <rc><c>Fe</c><c>   3</c></rc>
    <rc><c>Fe</c><c>   3</c></rc>
    <rc><c>Fe</c><c>   3</c></rc>
    <rc><c>Fe</c><c>   3</c></rc>
    <rc><c>Fe</c><c>   3</c></rc>
    <rc><c>Fe</c><c>   3</c></rc>
    <rc><c>Fe</c><c>   3</c></rc>
    <rc><c>Fe</c><c>   3</c></rc>
    <rc><c>Fe</c><c>   3</c></rc>
    <rc><c>Fe</c><c>   3</c></rc>
    <rc><c>O </c><c>   4</c></rc>
    <rc><c>O </c><c>   4</c></rc>
    <rc><c>O </c><c>   4</c></rc>
    <rc><c>O </c><c>   4</c></rc>
    <rc><c>O </c><c>   4</c></rc>
    <rc><c>O </c><c>   4</c></rc>
    <rc><c>O </c><c>   4</c></rc>
    <rc><c>O </c><c>   4</c></rc>
    <rc><c>O </c><c>   4</c></rc>
    <rc><c>O </c><c>   4</c></rc>
    <rc><c>O </c><c>   4</c></rc>
    <rc><c>O </c><c>   4</c></rc>
    <rc><c>O </c><c>   4</c></rc>
    <rc><c>O </c><c>   4</c></rc>
    <rc><c>O </c><c>   4</c></rc>
    <rc><c>O </c><c>   4</c></rc>
    <rc><c>O </c><c>   4</c></rc>
    <rc><c>O </c><c>   4</c></rc>
    <rc><c>O </c><c>   4</c></rc>
    <rc><c>O </c><c>   4</c></rc>
    <rc><c>O </c><c>   4</c></rc>
    <rc><c>O </c><c>   4</c></rc>
    <rc><c>O </c><c>   4</c></rc>
    <rc><c>O </c><c>   4</c></rc>
    <rc><c>O </c><c>   4</c></rc>
    <rc><c>O </c><c>   4</c></rc>
    <rc><c>O </c><c>   4</c></rc>
    <rc><c>O </c><c>   4</c></rc>
    <rc><c>O </c><c>   4</c></rc>
    <rc><c>O </c><c>   4</c></rc>
    <rc><c>O </c><c>   4</c></rc>
    <rc><c>O </c><c>   4</c></rc>
    <rc><c>O </c><c>   4</c></rc>
    <rc><c>O </c><c>   4</c></rc>
    <rc><c>O </c><c>   4</c></rc>
    <rc><c>O </c><c>   4</c></rc>
    <rc><c>O </c><c>   4</c></rc>
    <rc><c>O </c><c>   4</c></rc>
    <rc><c>O </c><c>   4</c></rc>
    <rc><c>O </c><c>   4</c></rc>
    <rc><c>O </c><c>   4</c></rc>
    <rc><c>O </c><c>   4</c></rc>
    <rc><c>O </c><c>   4</c></rc>
    <rc><c>O </c><c>   4</c></rc>
    <rc><c>O </c><c>   4</c></rc>
    <rc><c>O </c><c>   4</c></rc>
    <rc><c>O </c><c>   4</c></rc>
    <rc><c>O </c><c>   4</c></rc>
    <rc><c>O </c><c>   4</c></rc>
    <rc><c>O </c><c>   4</c></rc>
    <rc><c>O </c><c>   4</c></rc>
    <rc><c>O </c><c>   4</c></rc>
    <rc><c>O </c><c>   4</c></rc>
    <rc><c>O </c><c>   4</c></rc>
    <rc><c>O </c><c>   4</c></rc>
    <rc><c>O </c><c>   4</c></rc>
    <rc><c>O </c><c>   4</c></rc>
    <rc><c>O </c><c>   4</c></rc>
    <rc><c>O </c><c>   4</c></rc>
    <rc><c>O </c><c>   4</c></rc>
    <rc><c>O </c><c>   4</c></rc>
    <rc><c>O </c><c>   4</c></rc>
    <rc><c>O </c><c>   4</c></rc>
    <rc><c>O </c><c>   4</c></rc>
    <rc><c>O </c><c>   4</c></rc>
    <rc><c>O </c><c>   4</c></rc>
    <rc><c>O </c><c>   4</c></rc>
    <rc><c>O </c><c>   4</c></rc>
    <rc><c>O </c><c>   4</c></rc>
    <rc><c>O </c><c>   4</c></rc>
    <rc><c>O </c><c>   4</c></rc>
    <rc><c>O </c><c>   4</c></rc>
    <rc><c>O </c><c>   4</c></rc>
    <rc><c>O </c><c>   4</c></rc>
    <rc><c>O </c><c>   4</c></rc>
    <rc><c>O </c><c>   4</c></rc>
    <rc><c>O </c><c>   4</c></rc>
    <rc><c>O </c><c>   4</c></rc>
    <rc><c>O </c><c>   4</c></rc>
    <rc><c>O </c><c>   4</c></rc>
    <rc><c>O </c><c>   4</c></rc>
    <rc><c>O </c><c>   4</c></rc>
    <rc><c>O </c><c>   4</c></rc>
    <rc><c>O </c><c>   4</c></rc>
    <rc><c>O </c><c>   4</c></rc>
    <rc><c>O </c><c>   4</c></rc>
    <rc><c>O </c><c>   4</c></rc>
    <rc><c>O </c><c>   4</c></rc>
   </set>
  </array>
  <array name="atomtypes" >
   <dimension dim="1">type</dimension>
   <field type="int">atomspertype</field>
   <field type="string">element</field>
   <field>mass</field>
   <field>valence</field>
   <field type="string">pseudopotential</field>
   <set>
    <rc><c>  32</c><c>Sr</c><c>     87.62000000</c><c>     10.00000000</c><c>  PAW_PBE Sr_sv 07Sep2000               </c></rc>
    <rc><c>  16</c><c>Ti</c><c>     47.88000000</c><c>      4.00000000</c><c>  PAW_PBE Ti 08Apr2002                  </c></rc>
    <rc><c>  16</c><c>Fe</c><c>     55.84700000</c><c>      8.00000000</c><c>  PAW_PBE Fe 06Sep2000                  </c></rc>
    <rc><c>  88</c><c>O </c><c>     16.00000000</c><c>      6.00000000</c><c>  PAW_PBE O 08Apr2002                   </c></rc>
   </set>
  </array>
 </atominfo>
 <structure name="initialpos" >
  <crystal>
   <varray name="basis" >
    <v>      11.22796039       0.00938136       0.00233837 </v>
    <v>       0.00944031      11.27644554      -0.01065917 </v>
    <v>       0.00334265      -0.01468178      15.86547709 </v>
   </varray>
   <i name="volume">   2008.74834440 </i>
   <varray name="rec_basis" >
    <v>       0.08906344      -0.00007458      -0.00001883 </v>
    <v>      -0.00007411       0.08868057       0.00008208 </v>
    <v>      -0.00001318       0.00005959       0.06302999 </v>
   </varray>
  </crystal>
  <varray name="positions" >
   <v>       0.98953581       0.24555744       0.11425800 </v>
   <v>       0.00781606       0.24827586       0.62275936 </v>
   <v>       0.98953581       0.74555744       0.11425800 </v>
   <v>       0.00781606       0.74827586       0.62275936 </v>
   <v>       0.50781606       0.24827586       0.12275936 </v>
   <v>       0.48953581       0.24555744       0.61425800 </v>
   <v>       0.50781606       0.74827586       0.12275936 </v>
   <v>       0.48953581       0.74555744       0.61425800 </v>
   <v>       0.99621323       0.24395614       0.38479028 </v>
   <v>       0.00139973       0.24832005       0.87767137 </v>
   <v>       0.99621323       0.74395614       0.38479028 </v>
   <v>       0.00139973       0.74832005       0.87767137 </v>
   <v>       0.50139973       0.24832005       0.37767137 </v>
   <v>       0.49621323       0.24395614       0.88479028 </v>
   <v>       0.50139973       0.74832005       0.37767137 </v>
   <v>       0.49621323       0.74395614       0.88479028 </v>
   <v>       0.24502155       0.00597539       0.11247577 </v>
   <v>       0.25411771       0.00035062       0.62157704 </v>
   <v>       0.24502155       0.50597539       0.11247577 </v>
   <v>       0.25411771       0.50035062       0.62157704 </v>
   <v>       0.75411771       0.00035062       0.12157704 </v>
   <v>       0.74502155       0.00597539       0.61247577 </v>
   <v>       0.75411771       0.50035062       0.12157704 </v>
   <v>       0.74502155       0.50597539       0.61247577 </v>
   <v>       0.24470057       0.00536655       0.38785686 </v>
   <v>       0.25366852       0.99970224       0.87824612 </v>
   <v>       0.24470057       0.50536655       0.38785686 </v>
   <v>       0.25366852       0.49970224       0.87824612 </v>
   <v>       0.75366852       0.99970224       0.37824612 </v>
   <v>       0.74470057       0.00536655       0.88785686 </v>
   <v>       0.75366852       0.49970224       0.37824612 </v>
   <v>       0.74470057       0.50536655       0.88785686 </v>
   <v>       0.99473077       0.99942462       0.99735357 </v>
   <v>       0.99473077       0.49942462       0.99735357 </v>
   <v>       0.50065469       0.99932059       0.00271677 </v>
   <v>       0.49473077       0.99942462       0.49735357 </v>
   <v>       0.50065469       0.49932059       0.00271677 </v>
   <v>       0.75405324       0.24337807       0.24926371 </v>
   <v>       0.74716428       0.24891520       0.50122835 </v>
   <v>       0.75405324       0.74337807       0.24926371 </v>
   <v>       0.25405324       0.24337807       0.74926371 </v>
   <v>       0.24716428       0.74891520       0.00122835 </v>
   <v>       0.25405324       0.74337807       0.74926371 </v>
   <v>       0.00065469       0.49932059       0.50271677 </v>
   <v>       0.00065469       0.99932059       0.50271677 </v>
   <v>       0.74716428       0.74891520       0.50122835 </v>
   <v>       0.49473077       0.49942462       0.49735357 </v>
   <v>       0.24716428       0.24891520       0.00122835 </v>
   <v>       0.24668030       0.24867164       0.50108325 </v>
   <v>       0.74668030       0.24867164       0.00108325 </v>
   <v>       0.74668030       0.74867164       0.00108325 </v>
   <v>       0.75066493       0.29571440       0.74815019 </v>
   <v>       0.24668030       0.74867164       0.50108325 </v>
   <v>       0.25066493       0.79571440       0.24815019 </v>
   <v>       0.99023399       0.48409458       0.25043924 </v>
   <v>       0.25066493       0.29571440       0.24815019 </v>
   <v>       0.02348472       0.48734967       0.75018198 </v>
   <v>       0.49023399       0.98409458       0.75043924 </v>
   <v>       0.99023399       0.98409458       0.25043924 </v>
   <v>       0.02348472       0.98734967       0.75018198 </v>
   <v>       0.52348472       0.98734967       0.25018198 </v>
   <v>       0.75066493       0.79571440       0.74815019 </v>
   <v>       0.52348472       0.48734967       0.25018198 </v>
   <v>       0.49023399       0.48409458       0.75043924 </v>
   <v>       0.99634126       0.00831878       0.12395986 </v>
   <v>       0.99291644       0.00743172       0.63003243 </v>
   <v>       0.99634126       0.50831878       0.12395986 </v>
   <v>       0.99291644       0.50743172       0.63003243 </v>
   <v>       0.49291644       0.00743172       0.13003243 </v>
   <v>       0.49634126       0.00831878       0.62395986 </v>
   <v>       0.49291644       0.50743172       0.13003243 </v>
   <v>       0.49634126       0.50831878       0.62395986 </v>
   <v>       0.99543992       0.00564296       0.37721459 </v>
   <v>       0.99464030       0.00371271       0.87090887 </v>
   <v>       0.99543992       0.50564296       0.37721459 </v>
   <v>       0.99464030       0.50371271       0.87090887 </v>
   <v>       0.49464030       0.00371271       0.37090887 </v>
   <v>       0.49543992       0.00564296       0.87721459 </v>
   <v>       0.49464030       0.50371271       0.37090887 </v>
   <v>       0.49543992       0.50564296       0.87721459 </v>
   <v>       0.22607766       0.22355127       0.35305896 </v>
   <v>       0.25234552       0.25340451       0.87798372 </v>
   <v>       0.22607766       0.72355127       0.35305896 </v>
   <v>       0.25234552       0.75340451       0.87798372 </v>
   <v>       0.75234552       0.25340451       0.37798372 </v>
   <v>       0.72607766       0.22355127       0.85305896 </v>
   <v>       0.75234552       0.75340451       0.37798372 </v>
   <v>       0.72607766       0.72355127       0.85305896 </v>
   <v>       0.23049439       0.23349140       0.13600024 </v>
   <v>       0.25266655       0.25071585       0.62543051 </v>
   <v>       0.23049439       0.73349140       0.13600024 </v>
   <v>       0.25266655       0.75071585       0.62543051 </v>
   <v>       0.75266655       0.25071585       0.12543051 </v>
   <v>       0.73049439       0.23349140       0.63600024 </v>
   <v>       0.75266655       0.75071585       0.12543051 </v>
   <v>       0.73049439       0.73349140       0.63600024 </v>
   <v>       0.60788025       0.14689357       0.25167798 </v>
   <v>       0.85897410       0.10242073       0.25137140 </v>
   <v>       0.16098174       0.44042914       0.24951623 </v>
   <v>       0.40868751       0.34860538       0.24925546 </v>
   <v>       0.66463990       0.39611279       0.25018942 </v>
   <v>       0.91232293       0.33653433       0.25078337 </v>
   <v>       0.60788025       0.64689357       0.25167798 </v>
   <v>       0.85897410       0.60242073       0.25137140 </v>
   <v>       0.16098174       0.94042914       0.24951623 </v>
   <v>       0.40868751       0.84860538       0.24925546 </v>
   <v>       0.66463990       0.89611279       0.25018942 </v>
   <v>       0.91232293       0.83653433       0.25078337 </v>
   <v>       0.12798027       0.11686078       0.50409720 </v>
   <v>       0.37816796       0.13031054       0.49450676 </v>
   <v>       0.62941428       0.11731669       0.49566852 </v>
   <v>       0.87706148       0.13160959       0.50485919 </v>
   <v>       0.11583375       0.36785336       0.49834359 </v>
   <v>       0.36723738       0.37842879       0.49492061 </v>
   <v>       0.61610824       0.36735636       0.50276240 </v>
   <v>       0.86564804       0.37862568       0.50740684 </v>
   <v>       0.12798027       0.61686078       0.50409720 </v>
   <v>       0.37816796       0.63031054       0.49450676 </v>
   <v>       0.62941428       0.61731669       0.49566852 </v>
   <v>       0.87706148       0.63160959       0.50485919 </v>
   <v>       0.11583375       0.86785336       0.49834359 </v>
   <v>       0.36723738       0.87842879       0.49492061 </v>
   <v>       0.61610824       0.86735636       0.50276240 </v>
   <v>       0.86564804       0.87862568       0.50740684 </v>
   <v>       0.10788025       0.14689357       0.75167798 </v>
   <v>       0.35897410       0.10242073       0.75137140 </v>
   <v>       0.16463990       0.39611279       0.75018942 </v>
   <v>       0.41232293       0.33653433       0.75078337 </v>
   <v>       0.66098174       0.44042914       0.74951623 </v>
   <v>       0.90868751       0.34860538       0.74925546 </v>
   <v>       0.10788025       0.64689357       0.75167798 </v>
   <v>       0.35897410       0.60242073       0.75137140 </v>
   <v>       0.16463990       0.89611279       0.75018942 </v>
   <v>       0.41232293       0.83653433       0.75078337 </v>
   <v>       0.66098174       0.94042914       0.74951623 </v>
   <v>       0.90868751       0.84860538       0.74925546 </v>
   <v>       0.12941428       0.11731669       0.99566852 </v>
   <v>       0.37706148       0.13160959       0.00485919 </v>
   <v>       0.62798027       0.11686078       0.00409720 </v>
   <v>       0.87816796       0.13031054       0.99450676 </v>
   <v>       0.11610824       0.36735636       0.00276240 </v>
   <v>       0.36564804       0.37862568       0.00740684 </v>
   <v>       0.61583375       0.36785336       0.99834359 </v>
   <v>       0.86723738       0.37842879       0.99492061 </v>
   <v>       0.12941428       0.61731669       0.99566852 </v>
   <v>       0.37706148       0.63160959       0.00485919 </v>
   <v>       0.62798027       0.61686078       0.00409720 </v>
   <v>       0.87816796       0.63031054       0.99450676 </v>
   <v>       0.11610824       0.86735636       0.00276240 </v>
   <v>       0.36564804       0.87862568       0.00740684 </v>
   <v>       0.61583375       0.86785336       0.99834359 </v>
   <v>       0.86723738       0.87842879       0.99492061 </v>
  </varray>
 </structure>
 <calculation>
  <scstep>
   <time name="dav">  310.43  310.45</time>
   <time name="total">  314.16  314.20</time>
   <energy>
    <i name="alphaZ">   5606.59453628 </i>
    <i name="ewald"> -62203.23517364 </i>
    <i name="hartreedc"> -17364.07009662 </i>
    <i name="XCdc">   3186.89479542 </i>
    <i name="pawpsdc"> 116372.13776931 </i>
    <i name="pawaedc">-115575.30711151 </i>
    <i name="eentropy">     -0.00000000 </i>
    <i name="bandstr">  -7131.26808492 </i>
    <i name="atom">  76050.17612637 </i>
    <i name="e_fr_energy">  -1058.07723931 </i>
    <i name="e_wo_entrp">  -1058.07723931 </i>
    <i name="e_0_energy">  -1058.07723931 </i>
   </energy>
  </scstep>
  <scstep>
   <time name="diag">   33.37   33.37</time>
   <time name="diis">   32.25   32.25</time>
   <time name="orth">   18.96   18.96</time>
   <time name="total">   88.32   88.39</time>
   <energy>
    <i name="e_fr_energy">  -1058.07724211 </i>
    <i name="e_wo_entrp">  -1058.07724211 </i>
    <i name="e_0_energy">  -1058.07724211 </i>
   </energy>
  </scstep>
  <scstep>
   <time name="diag">   33.37   33.38</time>
   <time name="diis">   31.75   31.76</time>
   <time name="orth">   18.99   18.99</time>
   <time name="total">   87.85   87.92</time>
   <energy>
    <i name="e_fr_energy">  -1058.07724375 </i>
    <i name="e_wo_entrp">  -1058.07724375 </i>
    <i name="e_0_energy">  -1058.07724375 </i>
   </energy>
  </scstep>
  <scstep>
   <time name="diag">   33.37   33.37</time>
   <time name="diis">   30.54   30.55</time>
   <time name="orth">   18.95   18.96</time>
   <time name="total">   86.64   86.70</time>
   <energy>
    <i name="e_fr_energy">  -1058.07724706 </i>
    <i name="e_wo_entrp">  -1058.07724706 </i>
    <i name="e_0_energy">  -1058.07724706 </i>
   </energy>
  </scstep>
  <scstep>
   <time name="diag">   33.31   33.34</time>
   <time name="diis">   29.57   29.59</time>
   <time name="orth">   18.95   18.95</time>
   <time name="total">   85.59   85.70</time>
   <energy>
    <i name="e_fr_energy">  -1058.07724839 </i>
    <i name="e_wo_entrp">  -1058.07724839 </i>
    <i name="e_0_energy">  -1058.07724839 </i>
   </energy>
  </scstep>
  <scstep>
   <time name="diag">   33.35   33.36</time>
   <time name="diis">   28.76   28.76</time>
   <time name="orth">   18.96   18.97</time>
   <time name="total">   84.83   84.87</time>
   <energy>
    <i name="e_fr_energy">  -1058.07725032 </i>
    <i name="e_wo_entrp">  -1058.07725032 </i>
    <i name="e_0_energy">  -1058.07725032 </i>
   </energy>
  </scstep>
  <scstep>
   <time name="diag">   33.43   33.43</time>
   <time name="diis">   27.23   27.23</time>
   <time name="orth">   18.91   18.91</time>
   <time name="total">   83.35   83.44</time>
   <energy>
    <i name="e_fr_energy">  -1058.07725085 </i>
    <i name="e_wo_entrp">  -1058.07725085 </i>
    <i name="e_0_energy">  -1058.07725085 </i>
   </energy>
  </scstep>
  <scstep>
   <time name="diag">   33.45   33.45</time>
   <time name="diis">   25.71   25.72</time>
   <time name="orth">   18.97   18.97</time>
   <time name="total">   78.72   78.81</time>
   <energy>
    <i name="alphaZ">   5606.59453628 </i>
    <i name="ewald"> -62203.23517364 </i>
    <i name="hartreedc"> -17364.06877335 </i>
    <i name="XCdc">   3186.89561476 </i>
    <i name="pawpsdc"> 116368.33395895 </i>
    <i name="pawaedc">-115571.46612136 </i>
    <i name="eentropy">     -0.00000000 </i>
    <i name="bandstr">  -7131.30741916 </i>
    <i name="atom">  76050.17612637 </i>
    <i name="e_fr_energy">  -1058.07725115 </i>
    <i name="e_wo_entrp">  -1058.07725115 </i>
    <i name="e_0_energy">  -1058.07725115 </i>
   </energy>
  </scstep>
  <structure>
   <crystal>
    <varray name="basis" >
     <v>      11.22796039       0.00938136       0.00233837 </v>
     <v>       0.00944031      11.27644554      -0.01065917 </v>
     <v>       0.00334265      -0.01468178      15.86547709 </v>
    </varray>
    <i name="volume">   2008.74834440 </i>
    <varray name="rec_basis" >
     <v>       0.08906344      -0.00007458      -0.00001883 </v>
     <v>      -0.00007411       0.08868057       0.00008208 </v>
     <v>      -0.00001318       0.00005959       0.06302999 </v>
    </varray>
   </crystal>
   <varray name="positions" >
    <v>       0.98953581       0.24555744       0.11425800 </v>
    <v>       0.00781606       0.24827586       0.62275936 </v>
    <v>       0.98953581       0.74555744       0.11425800 </v>
    <v>       0.00781606       0.74827586       0.62275936 </v>
    <v>       0.50781606       0.24827586       0.12275936 </v>
    <v>       0.48953581       0.24555744       0.61425800 </v>
    <v>       0.50781606       0.74827586       0.12275936 </v>
    <v>       0.48953581       0.74555744       0.61425800 </v>
    <v>       0.99621323       0.24395614       0.38479028 </v>
    <v>       0.00139973       0.24832005       0.87767137 </v>
    <v>       0.99621323       0.74395614       0.38479028 </v>
    <v>       0.00139973       0.74832005       0.87767137 </v>
    <v>       0.50139973       0.24832005       0.37767137 </v>
    <v>       0.49621323       0.24395614       0.88479028 </v>
    <v>       0.50139973       0.74832005       0.37767137 </v>
    <v>       0.49621323       0.74395614       0.88479028 </v>
    <v>       0.24502155       0.00597539       0.11247577 </v>
    <v>       0.25411771       0.00035062       0.62157704 </v>
    <v>       0.24502155       0.50597539       0.11247577 </v>
    <v>       0.25411771       0.50035062       0.62157704 </v>
    <v>       0.75411771       0.00035062       0.12157704 </v>
    <v>       0.74502155       0.00597539       0.61247577 </v>
    <v>       0.75411771       0.50035062       0.12157704 </v>
    <v>       0.74502155       0.50597539       0.61247577 </v>
    <v>       0.24470057       0.00536655       0.38785686 </v>
    <v>       0.25366852       0.99970224       0.87824612 </v>
    <v>       0.24470057       0.50536655       0.38785686 </v>
    <v>       0.25366852       0.49970224       0.87824612 </v>
    <v>       0.75366852       0.99970224       0.37824612 </v>
    <v>       0.74470057       0.00536655       0.88785686 </v>
    <v>       0.75366852       0.49970224       0.37824612 </v>
    <v>       0.74470057       0.50536655       0.88785686 </v>
    <v>       0.99473077       0.99942462       0.99735357 </v>
    <v>       0.99473077       0.49942462       0.99735357 </v>
    <v>       0.50065469       0.99932059       0.00271677 </v>
    <v>       0.49473077       0.99942462       0.49735357 </v>
    <v>       0.50065469       0.49932059       0.00271677 </v>
    <v>       0.75405324       0.24337807       0.24926371 </v>
    <v>       0.74716428       0.24891520       0.50122835 </v>
    <v>       0.75405324       0.74337807       0.24926371 </v>
    <v>       0.25405324       0.24337807       0.74926371 </v>
    <v>       0.24716428       0.74891520       0.00122835 </v>
    <v>       0.25405324       0.74337807       0.74926371 </v>
    <v>       0.00065469       0.49932059       0.50271677 </v>
    <v>       0.00065469       0.99932059       0.50271677 </v>
    <v>       0.74716428       0.74891520       0.50122835 </v>
    <v>       0.49473077       0.49942462       0.49735357 </v>
    <v>       0.24716428       0.24891520       0.00122835 </v>
    <v>       0.24668030       0.24867164       0.50108325 </v>
    <v>       0.74668030       0.24867164       0.00108325 </v>
    <v>       0.74668030       0.74867164       0.00108325 </v>
    <v>       0.75066493       0.29571440       0.74815019 </v>
    <v>       0.24668030       0.74867164       0.50108325 </v>
    <v>       0.25066493       0.79571440       0.24815019 </v>
    <v>       0.99023399       0.48409458       0.25043924 </v>
    <v>       0.25066493       0.29571440       0.24815019 </v>
    <v>       0.02348472       0.48734967       0.75018198 </v>
    <v>       0.49023399       0.98409458       0.75043924 </v>
    <v>       0.99023399       0.98409458       0.25043924 </v>
    <v>       0.02348472       0.98734967       0.75018198 </v>
    <v>       0.52348472       0.98734967       0.25018198 </v>
    <v>       0.75066493       0.79571440       0.74815019 </v>
    <v>       0.52348472       0.48734967       0.25018198 </v>
    <v>       0.49023399       0.48409458       0.75043924 </v>
    <v>       0.99634126       0.00831878       0.12395986 </v>
    <v>       0.99291644       0.00743172       0.63003243 </v>
    <v>       0.99634126       0.50831878       0.12395986 </v>
    <v>       0.99291644       0.50743172       0.63003243 </v>
    <v>       0.49291644       0.00743172       0.13003243 </v>
    <v>       0.49634126       0.00831878       0.62395986 </v>
    <v>       0.49291644       0.50743172       0.13003243 </v>
    <v>       0.49634126       0.50831878       0.62395986 </v>
    <v>       0.99543992       0.00564296       0.37721459 </v>
    <v>       0.99464030       0.00371271       0.87090887 </v>
    <v>       0.99543992       0.50564296       0.37721459 </v>
    <v>       0.99464030       0.50371271       0.87090887 </v>
    <v>       0.49464030       0.00371271       0.37090887 </v>
    <v>       0.49543992       0.00564296       0.87721459 </v>
    <v>       0.49464030       0.50371271       0.37090887 </v>
    <v>       0.49543992       0.50564296       0.87721459 </v>
    <v>       0.22607766       0.22355127       0.35305896 </v>
    <v>       0.25234552       0.25340451       0.87798372 </v>
    <v>       0.22607766       0.72355127       0.35305896 </v>
    <v>       0.25234552       0.75340451       0.87798372 </v>
    <v>       0.75234552       0.25340451       0.37798372 </v>
    <v>       0.72607766       0.22355127       0.85305896 </v>
    <v>       0.75234552       0.75340451       0.37798372 </v>
    <v>       0.72607766       0.72355127       0.85305896 </v>
    <v>       0.23049439       0.23349140       0.13600024 </v>
    <v>       0.25266655       0.25071585       0.62543051 </v>
    <v>       0.23049439       0.73349140       0.13600024 </v>
    <v>       0.25266655       0.75071585       0.62543051 </v>
    <v>       0.75266655       0.25071585       0.12543051 </v>
    <v>       0.73049439       0.23349140       0.63600024 </v>
    <v>       0.75266655       0.75071585       0.12543051 </v>
    <v>       0.73049439       0.73349140       0.63600024 </v>
    <v>       0.60788025       0.14689357       0.25167798 </v>
    <v>       0.85897410       0.10242073       0.25137140 </v>
    <v>       0.16098174       0.44042914       0.24951623 </v>
    <v>       0.40868751       0.34860538       0.24925546 </v>
    <v>       0.66463990       0.39611279       0.25018942 </v>
    <v>       0.91232293       0.33653433       0.25078337 </v>
    <v>       0.60788025       0.64689357       0.25167798 </v>
    <v>       0.85897410       0.60242073       0.25137140 </v>
    <v>       0.16098174       0.94042914       0.24951623 </v>
    <v>       0.40868751       0.84860538       0.24925546 </v>
    <v>       0.66463990       0.89611279       0.25018942 </v>
    <v>       0.91232293       0.83653433       0.25078337 </v>
    <v>       0.12798027       0.11686078       0.50409720 </v>
    <v>       0.37816796       0.13031054       0.49450676 </v>
    <v>       0.62941428       0.11731669       0.49566852 </v>
    <v>       0.87706148       0.13160959       0.50485919 </v>
    <v>       0.11583375       0.36785336       0.49834359 </v>
    <v>       0.36723738       0.37842879       0.49492061 </v>
    <v>       0.61610824       0.36735636       0.50276240 </v>
    <v>       0.86564804       0.37862568       0.50740684 </v>
    <v>       0.12798027       0.61686078       0.50409720 </v>
    <v>       0.37816796       0.63031054       0.49450676 </v>
    <v>       0.62941428       0.61731669       0.49566852 </v>
    <v>       0.87706148       0.63160959       0.50485919 </v>
    <v>       0.11583375       0.86785336       0.49834359 </v>
    <v>       0.36723738       0.87842879       0.49492061 </v>
    <v>       0.61610824       0.86735636       0.50276240 </v>
    <v>       0.86564804       0.87862568       0.50740684 </v>
    <v>       0.10788025       0.14689357       0.75167798 </v>
    <v>       0.35897410       0.10242073       0.75137140 </v>
    <v>       0.16463990       0.39611279       0.75018942 </v>
    <v>       0.41232293       0.33653433       0.75078337 </v>
    <v>       0.66098174       0.44042914       0.74951623 </v>
    <v>       0.90868751       0.34860538       0.74925546 </v>
    <v>       0.10788025       0.64689357       0.75167798 </v>
    <v>       0.35897410       0.60242073       0.75137140 </v>
    <v>       0.16463990       0.89611279       0.75018942 </v>
    <v>       0.41232293       0.83653433       0.75078337 </v>
    <v>       0.66098174       0.94042914       0.74951623 </v>
    <v>       0.90868751       0.84860538       0.74925546 </v>
    <v>       0.12941428       0.11731669       0.99566852 </v>
    <v>       0.37706148       0.13160959       0.00485919 </v>
    <v>       0.62798027       0.11686078       0.00409720 </v>
    <v>       0.87816796       0.13031054       0.99450676 </v>
    <v>       0.11610824       0.36735636       0.00276240 </v>
    <v>       0.36564804       0.37862568       0.00740684 </v>
    <v>       0.61583375       0.36785336       0.99834359 </v>
    <v>       0.86723738       0.37842879       0.99492061 </v>
    <v>       0.12941428       0.61731669       0.99566852 </v>
    <v>       0.37706148       0.63160959       0.00485919 </v>
    <v>       0.62798027       0.61686078       0.00409720 </v>
    <v>       0.87816796       0.63031054       0.99450676 </v>
    <v>       0.11610824       0.86735636       0.00276240 </v>
    <v>       0.36564804       0.87862568       0.00740684 </v>
    <v>       0.61583375       0.86785336       0.99834359 </v>
    <v>       0.86723738       0.87842879       0.99492061 </v>
   </varray>
  </structure>
  <varray name="forces" >
   <v>       0.04908628       0.03476626      -0.03671515 </v>
   <v>      -0.01985943      -0.01611521      -0.00525077 </v>
   <v>       0.04908628       0.03476626      -0.03671515 </v>
   <v>      -0.01985943      -0.01611521      -0.00525077 </v>
   <v>      -0.01985943      -0.01611521      -0.00525077 </v>
   <v>       0.04908628       0.03476626      -0.03671515 </v>
   <v>      -0.01985943      -0.01611521      -0.00525077 </v>
   <v>       0.04908628       0.03476626      -0.03671515 </v>
   <v>      -0.05742742       0.04940996       0.02147169 </v>
   <v>       0.05067466      -0.01039009      -0.01680683 </v>
   <v>      -0.05742742       0.04940996       0.02147169 </v>
   <v>       0.05067466      -0.01039009      -0.01680683 </v>
   <v>       0.05067466      -0.01039009      -0.01680683 </v>
   <v>      -0.05742742       0.04940996       0.02147169 </v>
   <v>       0.05067466      -0.01039009      -0.01680683 </v>
   <v>      -0.05742742       0.04940996       0.02147169 </v>
   <v>      -0.05828919      -0.04006362       0.04945301 </v>
   <v>      -0.00191863       0.00395701       0.03398938 </v>
   <v>      -0.05828919      -0.04006362       0.04945301 </v>
   <v>      -0.00191863       0.00395701       0.03398938 </v>
   <v>      -0.00191863       0.00395701       0.03398938 </v>
   <v>      -0.05828919      -0.04006362       0.04945301 </v>
   <v>      -0.00191863       0.00395701       0.03398938 </v>
   <v>      -0.05828919      -0.04006362       0.04945301 </v>
   <v>      -0.03761286      -0.02438308      -0.04022619 </v>
   <v>      -0.01682498       0.00986909      -0.02906717 </v>
   <v>      -0.03761286      -0.02438308      -0.04022619 </v>
   <v>      -0.01682498       0.00986909      -0.02906717 </v>
   <v>      -0.01682498       0.00986909      -0.02906717 </v>
   <v>      -0.03761286      -0.02438308      -0.04022619 </v>
   <v>      -0.01682498       0.00986909      -0.02906717 </v>
   <v>      -0.03761286      -0.02438308      -0.04022619 </v>
   <v>       0.05068995      -0.01906529       0.00736349 </v>
   <v>       0.05068995      -0.01906529       0.00736349 </v>
   <v>      -0.16620085      -0.04670384       0.10478885 </v>
   <v>       0.05068995      -0.01906529       0.00736349 </v>
   <v>      -0.16620085      -0.04670384       0.10478885 </v>
   <v>       0.05665211      -0.05815867       0.09435126 </v>
   <v>      -0.01262650       0.09827843       0.02083586 </v>
   <v>       0.05665211      -0.05815867       0.09435126 </v>
   <v>       0.05665211      -0.05815867       0.09435126 </v>
   <v>      -0.01262650       0.09827843       0.02083586 </v>
   <v>       0.05665211      -0.05815867       0.09435126 </v>
   <v>      -0.16620085      -0.04670384       0.10478885 </v>
   <v>      -0.16620085      -0.04670384       0.10478885 </v>
   <v>      -0.01262650       0.09827843       0.02083586 </v>
   <v>       0.05068995      -0.01906529       0.00736349 </v>
   <v>      -0.01262650       0.09827843       0.02083586 </v>
   <v>       0.03832016       0.00136726      -0.04203483 </v>
   <v>       0.03832016       0.00136726      -0.04203483 </v>
   <v>       0.03832016       0.00136726      -0.04203483 </v>
   <v>       0.02096903      -0.02872701      -0.14716789 </v>
   <v>       0.03832016       0.00136726      -0.04203483 </v>
   <v>       0.02096903      -0.02872701      -0.14716789 </v>
   <v>      -0.10081886      -0.00715421      -0.03752296 </v>
   <v>       0.02096903      -0.02872701      -0.14716789 </v>
   <v>       0.01605694      -0.02136470       0.00225970 </v>
   <v>      -0.10081886      -0.00715421      -0.03752296 </v>
   <v>      -0.10081886      -0.00715421      -0.03752296 </v>
   <v>       0.01605694      -0.02136470       0.00225970 </v>
   <v>       0.01605694      -0.02136470       0.00225970 </v>
   <v>       0.02096903      -0.02872701      -0.14716789 </v>
   <v>       0.01605694      -0.02136470       0.00225970 </v>
   <v>      -0.10081886      -0.00715421      -0.03752296 </v>
   <v>       0.01977456      -0.04613205      -0.04433149 </v>
   <v>      -0.01682792       0.05305014      -0.05061647 </v>
   <v>       0.01977456      -0.04613205      -0.04433149 </v>
   <v>      -0.01682792       0.05305014      -0.05061647 </v>
   <v>      -0.01682792       0.05305014      -0.05061647 </v>
   <v>       0.01977456      -0.04613205      -0.04433149 </v>
   <v>      -0.01682792       0.05305014      -0.05061647 </v>
   <v>       0.01977456      -0.04613205      -0.04433149 </v>
   <v>       0.05551594      -0.03620316       0.02329420 </v>
   <v>      -0.05787474       0.04959643       0.00279683 </v>
   <v>       0.05551594      -0.03620316       0.02329420 </v>
   <v>      -0.05787474       0.04959643       0.00279683 </v>
   <v>      -0.05787474       0.04959643       0.00279683 </v>
   <v>       0.05551594      -0.03620316       0.02329420 </v>
   <v>      -0.05787474       0.04959643       0.00279683 </v>
   <v>       0.05551594      -0.03620316       0.02329420 </v>
   <v>       0.01380924       0.04134049       0.07830430 </v>
   <v>       0.06084171      -0.07678246      -0.03929521 </v>
   <v>       0.01380924       0.04134049       0.07830430 </v>
   <v>       0.06084171      -0.07678246      -0.03929521 </v>
   <v>       0.06084171      -0.07678246      -0.03929521 </v>
   <v>       0.01380924       0.04134049       0.07830430 </v>
   <v>       0.06084171      -0.07678246      -0.03929521 </v>
   <v>       0.01380924       0.04134049       0.07830430 </v>
   <v>       0.00264235       0.00159843       0.10244618 </v>
   <v>       0.03891628      -0.07703171       0.01505379 </v>
   <v>       0.00264235       0.00159843       0.10244618 </v>
   <v>       0.03891628      -0.07703171       0.01505379 </v>
   <v>       0.03891628      -0.07703171       0.01505379 </v>
   <v>       0.00264235       0.00159843       0.10244618 </v>
   <v>       0.03891628      -0.07703171       0.01505379 </v>
   <v>       0.00264235       0.00159843       0.10244618 </v>
   <v>      -0.01614638      -0.08685851      -0.00846142 </v>
   <v>       0.10568940      -0.05589683       0.00163786 </v>
   <v>       0.03382230       0.04343345       0.02737510 </v>
   <v>      -0.01271506       0.00039998       0.03612136 </v>
   <v>      -0.09446495      -0.01349437      -0.02336958 </v>
   <v>       0.02350421       0.01676498      -0.01647577 </v>
   <v>      -0.01614638      -0.08685851      -0.00846142 </v>
   <v>       0.10568940      -0.05589683       0.00163786 </v>
   <v>       0.03382230       0.04343345       0.02737510 </v>
   <v>      -0.01271506       0.00039998       0.03612136 </v>
   <v>      -0.09446495      -0.01349437      -0.02336958 </v>
   <v>       0.02350421       0.01676498      -0.01647577 </v>
   <v>       0.09589205       0.09849239      -0.02630406 </v>
   <v>      -0.10202517       0.09643903      -0.01389678 </v>
   <v>       0.03814027       0.02210350       0.01557121 </v>
   <v>       0.02726942      -0.01412582      -0.01139991 </v>
   <v>       0.01621670       0.00063781       0.06251470 </v>
   <v>      -0.06101631      -0.01579358      -0.02146505 </v>
   <v>       0.00669128       0.04785872      -0.07010063 </v>
   <v>       0.01147442       0.02508084      -0.01912063 </v>
   <v>       0.09589205       0.09849239      -0.02630406 </v>
   <v>      -0.10202517       0.09643903      -0.01389678 </v>
   <v>       0.03814027       0.02210350       0.01557121 </v>
   <v>       0.02726942      -0.01412582      -0.01139991 </v>
   <v>       0.01621670       0.00063781       0.06251470 </v>
   <v>      -0.06101631      -0.01579358      -0.02146505 </v>
   <v>       0.00669128       0.04785872      -0.07010063 </v>
   <v>       0.01147442       0.02508084      -0.01912063 </v>
   <v>      -0.01614638      -0.08685851      -0.00846142 </v>
   <v>       0.10568940      -0.05589683       0.00163786 </v>
   <v>      -0.09446495      -0.01349437      -0.02336958 </v>
   <v>       0.02350421       0.01676498      -0.01647577 </v>
   <v>       0.03382230       0.04343345       0.02737510 </v>
   <v>      -0.01271506       0.00039998       0.03612136 </v>
   <v>      -0.01614638      -0.08685851      -0.00846142 </v>
   <v>       0.10568940      -0.05589683       0.00163786 </v>
   <v>      -0.09446495      -0.01349437      -0.02336958 </v>
   <v>       0.02350421       0.01676498      -0.01647577 </v>
   <v>       0.03382230       0.04343345       0.02737510 </v>
   <v>      -0.01271506       0.00039998       0.03612136 </v>
   <v>       0.03814027       0.02210350       0.01557121 </v>
   <v>       0.02726942      -0.01412582      -0.01139991 </v>
   <v>       0.09589205       0.09849239      -0.02630406 </v>
   <v>      -0.10202517       0.09643903      -0.01389678 </v>
   <v>       0.00669128       0.04785872      -0.07010063 </v>
   <v>       0.01147442       0.02508084      -0.01912063 </v>
   <v>       0.01621670       0.00063781       0.06251470 </v>
   <v>      -0.06101631      -0.01579358      -0.02146505 </v>
   <v>       0.03814027       0.02210350       0.01557121 </v>
   <v>       0.02726942      -0.01412582      -0.01139991 </v>
   <v>       0.09589205       0.09849239      -0.02630406 </v>
   <v>      -0.10202517       0.09643903      -0.01389678 </v>
   <v>       0.00669128       0.04785872      -0.07010063 </v>
   <v>       0.01147442       0.02508084      -0.01912063 </v>
   <v>       0.01621670       0.00063781       0.06251470 </v>
   <v>      -0.06101631      -0.01579358      -0.02146505 </v>
  </varray>
  <varray name="stress" >
   <v>       0.31319619       0.91916189      -0.43580209 </v>
   <v>       0.91916203       3.55149996      -0.19080017 </v>
   <v>      -0.43580220      -0.19080030       0.97252803 </v>
  </varray>
  <energy>
   <i name="e_fr_energy">  -1058.07725115 </i>
   <i name="e_wo_entrp">  -1058.07725115 </i>
   <i name="e_0_energy">     -0.00000000 </i>
  </energy>
  <time name="totalsc"> 1062.02 1065.49</time>
 </calculation>
 <calculation>
  <scstep>
   <time name="dav">  284.69  284.70</time>
   <time name="total">  288.41  288.47</time>
   <energy>
    <i name="alphaZ">   5595.82000889 </i>
    <i name="ewald"> -62159.85066310 </i>
    <i name="hartreedc"> -17356.61336184 </i>
    <i name="XCdc">   3184.34197903 </i>
    <i name="pawpsdc"> 116368.40137937 </i>
    <i name="pawaedc">-115571.53323089 </i>
    <i name="eentropy">     -0.00000000 </i>
    <i name="bandstr">  -7168.83508234 </i>
    <i name="atom">  76050.17612637 </i>
    <i name="e_fr_energy">  -1058.09284449 </i>
    <i name="e_wo_entrp">  -1058.09284449 </i>
    <i name="e_0_energy">  -1058.09284449 </i>
   </energy>
  </scstep>
  <scstep>
   <time name="diag">   33.37   33.37</time>
   <time name="diis">   52.18   52.18</time>
   <time name="orth">   18.94   18.94</time>
   <time name="total">  108.21  108.25</time>
   <energy>
    <i name="e_fr_energy">  -1058.11171897 </i>
    <i name="e_wo_entrp">  -1058.11171897 </i>
    <i name="e_0_energy">  -1058.11171897 </i>
   </energy>
  </scstep>
  <scstep>
   <time name="diag">   33.34   33.37</time>
   <time name="diis">   53.85   53.85</time>
   <time name="orth">   18.89   18.89</time>
   <time name="total">  109.81  109.93</time>
   <energy>
    <i name="e_fr_energy">  -1058.10860367 </i>
    <i name="e_wo_entrp">  -1058.10860367 </i>
    <i name="e_0_energy">  -1058.10860367 </i>
   </energy>
  </scstep>
  <scstep>
   <time name="diag">   33.37   33.38</time>
   <time name="diis">   55.00   55.01</time>
   <time name="orth">   18.91   18.91</time>
   <time name="total">  111.03  111.14</time>
   <energy>
    <i name="e_fr_energy">  -1058.10481018 </i>
    <i name="e_wo_entrp">  -1058.10481018 </i>
    <i name="e_0_energy">  -1058.10481018 </i>
   </energy>
  </scstep>
  <scstep>
   <time name="diag">   33.38   33.39</time>
   <time name="diis">   53.95   53.95</time>
   <time name="orth">   18.91   18.91</time>
   <time name="total">  109.98  110.00</time>
   <energy>
    <i name="e_fr_energy">  -1058.10380217 </i>
    <i name="e_wo_entrp">  -1058.10380217 </i>
    <i name="e_0_energy">  -1058.10380217 </i>
   </energy>
  </scstep>
  <scstep>
   <time name="diag">   33.33   33.34</time>
   <time name="diis">   50.53   50.54</time>
   <time name="orth">   18.93   18.93</time>
   <time name="total">  106.53  106.65</time>
   <energy>
    <i name="e_fr_energy">  -1058.10379381 </i>
    <i name="e_wo_entrp">  -1058.10379381 </i>
    <i name="e_0_energy">  -1058.10379381 </i>
   </energy>
  </scstep>
  <scstep>
   <time name="diag">   33.34   33.35</time>
   <time name="diis">   35.42   35.42</time>
   <time name="orth">   18.90   18.90</time>
   <time name="total">   91.43   91.48</time>
   <energy>
    <i name="e_fr_energy">  -1058.10378693 </i>
    <i name="e_wo_entrp">  -1058.10378693 </i>
    <i name="e_0_energy">  -1058.10378693 </i>
   </energy>
  </scstep>
  <scstep>
   <time name="diag">   33.36   33.37</time>
   <time name="diis">   33.53   33.53</time>
   <time name="orth">   18.94   18.94</time>
   <time name="total">   86.42   86.47</time>
   <energy>
    <i name="alphaZ">   5595.82000889 </i>
    <i name="ewald"> -62159.85066310 </i>
    <i name="hartreedc"> -17385.37000225 </i>
    <i name="XCdc">   3186.22744350 </i>
    <i name="pawpsdc"> 115943.75225563 </i>
    <i name="pawaedc">-115146.72569611 </i>
    <i name="eentropy">     -0.00000000 </i>
    <i name="bandstr">  -7142.13325214 </i>
    <i name="atom">  76050.17612637 </i>
    <i name="e_fr_energy">  -1058.10377920 </i>
    <i name="e_wo_entrp">  -1058.10377920 </i>
    <i name="e_0_energy">  -1058.10377920 </i>
   </energy>
  </scstep>
  <structure>
   <crystal>
    <varray name="basis" >
     <v>      11.22936275       0.01350116       0.00039145 </v>
     <v>       0.01356779      11.29238607      -0.01152109 </v>
     <v>       0.00058635      -0.01590588      15.87161747 </v>
    </varray>
    <i name="volume">   2012.61610891 </i>
    <varray name="rec_basis" >
     <v>       0.08905238      -0.00010700      -0.00000340 </v>
     <v>      -0.00010647       0.08855546       0.00008875 </v>
     <v>      -0.00000227       0.00006428       0.06300562 </v>
    </varray>
   </crystal>
   <varray name="positions" >
    <v>       0.98974662       0.24570586       0.11414643 </v>
    <v>       0.00773079       0.24820697       0.62274336 </v>
    <v>       0.98974662       0.74570586       0.11414643 </v>
    <v>       0.00773079       0.74820697       0.62274336 </v>
    <v>       0.50773079       0.24820697       0.12274336 </v>
    <v>       0.48974662       0.24570586       0.61414643 </v>
    <v>       0.50773079       0.74820697       0.12274336 </v>
    <v>       0.48974662       0.74570586       0.61414643 </v>
    <v>       0.99596629       0.24416782       0.38485575 </v>
    <v>       0.00161751       0.24827535       0.87762020 </v>
    <v>       0.99596629       0.74416782       0.38485575 </v>
    <v>       0.00161751       0.74827535       0.87762020 </v>
    <v>       0.50161751       0.24827535       0.37762020 </v>
    <v>       0.49596629       0.24416782       0.88485575 </v>
    <v>       0.50161751       0.74827535       0.37762020 </v>
    <v>       0.49596629       0.74416782       0.88485575 </v>
    <v>       0.24477121       0.00580439       0.11262606 </v>
    <v>       0.25410942       0.00036769       0.62168041 </v>
    <v>       0.24477121       0.50580439       0.11262606 </v>
    <v>       0.25410942       0.50036769       0.62168041 </v>
    <v>       0.75410942       0.00036769       0.12168041 </v>
    <v>       0.74477121       0.00580439       0.61262606 </v>
    <v>       0.75410942       0.50036769       0.12168041 </v>
    <v>       0.74477121       0.50580439       0.61262606 </v>
    <v>       0.24453909       0.00526221       0.38773449 </v>
    <v>       0.25359622       0.99974441       0.87815777 </v>
    <v>       0.24453909       0.50526221       0.38773449 </v>
    <v>       0.25359622       0.49974441       0.87815777 </v>
    <v>       0.75359622       0.99974441       0.37815777 </v>
    <v>       0.74453909       0.00526221       0.88773449 </v>
    <v>       0.75359622       0.49974441       0.37815777 </v>
    <v>       0.74453909       0.50526221       0.88773449 </v>
    <v>       0.99494863       0.99934290       0.99737587 </v>
    <v>       0.99494863       0.49934290       0.99737587 </v>
    <v>       0.49994066       0.99912179       0.00303537 </v>
    <v>       0.49494863       0.99934290       0.49737587 </v>
    <v>       0.49994066       0.49912179       0.00303537 </v>
    <v>       0.75429678       0.24312942       0.24955040 </v>
    <v>       0.74710966       0.24933578       0.50129200 </v>
    <v>       0.75429678       0.74312942       0.24955040 </v>
    <v>       0.25429678       0.24312942       0.74955040 </v>
    <v>       0.24710966       0.74933578       0.00129200 </v>
    <v>       0.25429678       0.74312942       0.74955040 </v>
    <v>      -0.00005934       0.49912179       0.50303537 </v>
    <v>      -0.00005934       0.99912179       0.50303537 </v>
    <v>       0.74710966       0.74933578       0.50129200 </v>
    <v>       0.49494863       0.49934290       0.49737587 </v>
    <v>       0.24710966       0.24933578       0.00129200 </v>
    <v>       0.24684498       0.24867719       0.50095542 </v>
    <v>       0.74684498       0.24867719       0.00095542 </v>
    <v>       0.74684498       0.74867719       0.00095542 </v>
    <v>       0.75075527       0.29559084       0.74770259 </v>
    <v>       0.24684498       0.74867719       0.50095542 </v>
    <v>       0.25075527       0.79559084       0.24770259 </v>
    <v>       0.98980087       0.48406418       0.25032519 </v>
    <v>       0.25075527       0.29559084       0.24770259 </v>
    <v>       0.02355378       0.48725822       0.75018878 </v>
    <v>       0.48980087       0.98406418       0.75032519 </v>
    <v>       0.98980087       0.98406418       0.25032519 </v>
    <v>       0.02355378       0.98725822       0.75018878 </v>
    <v>       0.52355378       0.98725822       0.25018878 </v>
    <v>       0.75075527       0.79559084       0.74770259 </v>
    <v>       0.52355378       0.48725822       0.25018878 </v>
    <v>       0.48980087       0.48406418       0.75032519 </v>
    <v>       0.99642643       0.00812118       0.12382492 </v>
    <v>       0.99284399       0.00765854       0.62987868 </v>
    <v>       0.99642643       0.50812118       0.12382492 </v>
    <v>       0.99284399       0.50765854       0.62987868 </v>
    <v>       0.49284399       0.00765854       0.12987868 </v>
    <v>       0.49642643       0.00812118       0.62382492 </v>
    <v>       0.49284399       0.50765854       0.12987868 </v>
    <v>       0.49642643       0.50812118       0.62382492 </v>
    <v>       0.99567857       0.00548797       0.37728528 </v>
    <v>       0.99439145       0.00392511       0.87091755 </v>
    <v>       0.99567857       0.50548797       0.37728528 </v>
    <v>       0.99439145       0.50392511       0.87091755 </v>
    <v>       0.49439145       0.00392511       0.37091755 </v>
    <v>       0.49567857       0.00548797       0.87728528 </v>
    <v>       0.49439145       0.50392511       0.37091755 </v>
    <v>       0.49567857       0.50548797       0.87728528 </v>
    <v>       0.22613677       0.22372840       0.35329717 </v>
    <v>       0.25260725       0.25307565       0.87786398 </v>
    <v>       0.22613677       0.72372840       0.35329717 </v>
    <v>       0.25260725       0.75307565       0.87786398 </v>
    <v>       0.75260725       0.25307565       0.37786398 </v>
    <v>       0.72613677       0.22372840       0.85329717 </v>
    <v>       0.75260725       0.75307565       0.37786398 </v>
    <v>       0.72613677       0.72372840       0.85329717 </v>
    <v>       0.23050564       0.23349864       0.13631176 </v>
    <v>       0.25283402       0.25038622       0.62547604 </v>
    <v>       0.23050564       0.73349864       0.13631176 </v>
    <v>       0.25283402       0.75038622       0.62547604 </v>
    <v>       0.75283402       0.25038622       0.12547604 </v>
    <v>       0.73050564       0.23349864       0.63631176 </v>
    <v>       0.75283402       0.75038622       0.12547604 </v>
    <v>       0.73050564       0.73349864       0.63631176 </v>
    <v>       0.60781120       0.14652200       0.25165201 </v>
    <v>       0.85942841       0.10218122       0.25137616 </v>
    <v>       0.16112688       0.44061494       0.24959957 </v>
    <v>       0.40863285       0.34860728       0.24936531 </v>
    <v>       0.66423408       0.39605531       0.25011838 </v>
    <v>       0.91242387       0.33660591       0.25073330 </v>
    <v>       0.60781120       0.64652200       0.25165201 </v>
    <v>       0.85942841       0.60218122       0.25137616 </v>
    <v>       0.16112688       0.94061494       0.24959957 </v>
    <v>       0.40863285       0.84860728       0.24936531 </v>
    <v>       0.66423408       0.89605531       0.25011838 </v>
    <v>       0.91242387       0.83660591       0.25073330 </v>
    <v>       0.12839196       0.11728170       0.50401744 </v>
    <v>       0.37772926       0.13072344       0.49446485 </v>
    <v>       0.62957806       0.11741117       0.49571591 </v>
    <v>       0.87717871       0.13154901       0.50482447 </v>
    <v>       0.11590337       0.36785627       0.49853367 </v>
    <v>       0.36697529       0.37836136       0.49485534 </v>
    <v>       0.61613688       0.36756081       0.50254937 </v>
    <v>       0.86569727       0.37873286       0.50734876 </v>
    <v>       0.12839196       0.61728170       0.50401744 </v>
    <v>       0.37772926       0.63072344       0.49446485 </v>
    <v>       0.62957806       0.61741117       0.49571591 </v>
    <v>       0.87717871       0.63154901       0.50482447 </v>
    <v>       0.11590337       0.86785627       0.49853367 </v>
    <v>       0.36697529       0.87836136       0.49485534 </v>
    <v>       0.61613688       0.86756081       0.50254937 </v>
    <v>       0.86569727       0.87873286       0.50734876 </v>
    <v>       0.10781120       0.14652200       0.75165201 </v>
    <v>       0.35942841       0.10218122       0.75137616 </v>
    <v>       0.16423408       0.39605531       0.75011838 </v>
    <v>       0.41242387       0.33660591       0.75073330 </v>
    <v>       0.66112688       0.44061494       0.74959957 </v>
    <v>       0.90863285       0.34860728       0.74936531 </v>
    <v>       0.10781120       0.64652200       0.75165201 </v>
    <v>       0.35942841       0.60218122       0.75137616 </v>
    <v>       0.16423408       0.89605531       0.75011838 </v>
    <v>       0.41242387       0.83660591       0.75073330 </v>
    <v>       0.66112688       0.94061494       0.74959957 </v>
    <v>       0.90863285       0.84860728       0.74936531 </v>
    <v>       0.12957806       0.11741117       0.99571591 </v>
    <v>       0.37717871       0.13154901       0.00482447 </v>
    <v>       0.62839196       0.11728170       0.00401744 </v>
    <v>       0.87772926       0.13072344       0.99446485 </v>
    <v>       0.11613688       0.36756081       0.00254937 </v>
    <v>       0.36569727       0.37873286       0.00734876 </v>
    <v>       0.61590337       0.36785627       0.99853367 </v>
    <v>       0.86697529       0.37836136       0.99485534 </v>
    <v>       0.12957806       0.61741117       0.99571591 </v>
    <v>       0.37717871       0.63154901       0.00482447 </v>
    <v>       0.62839196       0.61728170       0.00401744 </v>
    <v>       0.87772926       0.63072344       0.99446485 </v>
    <v>       0.11613688       0.86756081       0.00254937 </v>
    <v>       0.36569727       0.87873286       0.00734876 </v>
    <v>       0.61590337       0.86785627       0.99853367 </v>
    <v>       0.86697529       0.87836136       0.99485534 </v>
   </varray>
  </structure>
  <varray name="forces" >
   <v>      -0.00818661       0.02067730      -0.03819908 </v>
   <v>       0.03757751      -0.03191579      -0.01426472 </v>
   <v>      -0.00818661       0.02067730      -0.03819908 </v>
   <v>       0.03757751      -0.03191579      -0.01426472 </v>
   <v>       0.03757751      -0.03191579      -0.01426472 </v>
   <v>      -0.00818661       0.02067730      -0.03819908 </v>
   <v>       0.03757751      -0.03191579      -0.01426472 </v>
   <v>      -0.00818661       0.02067730      -0.03819908 </v>
   <v>       0.02336267       0.02329606       0.03867539 </v>
   <v>      -0.01172621      -0.02272048      -0.01965951 </v>
   <v>       0.02336267       0.02329606       0.03867539 </v>
   <v>      -0.01172621      -0.02272048      -0.01965951 </v>
   <v>      -0.01172621      -0.02272048      -0.01965951 </v>
   <v>       0.02336267       0.02329606       0.03867539 </v>
   <v>      -0.01172621      -0.02272048      -0.01965951 </v>
   <v>       0.02336267       0.02329606       0.03867539 </v>
   <v>      -0.05233114       0.00447099       0.05158927 </v>
   <v>      -0.02397834       0.00947842      -0.02133846 </v>
   <v>      -0.05233114       0.00447099       0.05158927 </v>
   <v>      -0.02397834       0.00947842      -0.02133846 </v>
   <v>      -0.02397834       0.00947842      -0.02133846 </v>
   <v>      -0.05233114       0.00447099       0.05158927 </v>
   <v>      -0.02397834       0.00947842      -0.02133846 </v>
   <v>      -0.05233114       0.00447099       0.05158927 </v>
   <v>      -0.05510580      -0.00666297       0.00215011 </v>
   <v>      -0.01103931       0.02596437      -0.03592872 </v>
   <v>      -0.05510580      -0.00666297       0.00215011 </v>
   <v>      -0.01103931       0.02596437      -0.03592872 </v>
   <v>      -0.01103931       0.02596437      -0.03592872 </v>
   <v>      -0.05510580      -0.00666297       0.00215011 </v>
   <v>      -0.01103931       0.02596437      -0.03592872 </v>
   <v>      -0.05510580      -0.00666297       0.00215011 </v>
   <v>      -0.16558744       0.07096441      -0.04316551 </v>
   <v>      -0.16558744       0.07096441      -0.04316551 </v>
   <v>       0.18640321       0.07494046       0.01396177 </v>
   <v>      -0.16558744       0.07096441      -0.04316551 </v>
   <v>       0.18640321       0.07494046       0.01396177 </v>
   <v>       0.01695928      -0.03371858      -0.09655104 </v>
   <v>       0.02294530      -0.04049071      -0.00351842 </v>
   <v>       0.01695928      -0.03371858      -0.09655104 </v>
   <v>       0.01695928      -0.03371858      -0.09655104 </v>
   <v>       0.02294530      -0.04049071      -0.00351842 </v>
   <v>       0.01695928      -0.03371858      -0.09655104 </v>
   <v>       0.18640321       0.07494046       0.01396177 </v>
   <v>       0.18640321       0.07494046       0.01396177 </v>
   <v>       0.02294530      -0.04049071      -0.00351842 </v>
   <v>      -0.16558744       0.07096441      -0.04316551 </v>
   <v>       0.02294530      -0.04049071      -0.00351842 </v>
   <v>      -0.03383046      -0.01689473      -0.04543073 </v>
   <v>      -0.03383046      -0.01689473      -0.04543073 </v>
   <v>      -0.03383046      -0.01689473      -0.04543073 </v>
   <v>      -0.01330737      -0.00019638       0.12140187 </v>
   <v>      -0.03383046      -0.01689473      -0.04543073 </v>
   <v>      -0.01330737      -0.00019638       0.12140187 </v>
   <v>       0.01568092      -0.02750453       0.03158022 </v>
   <v>      -0.01330737      -0.00019638       0.12140187 </v>
   <v>      -0.03718553      -0.00958659       0.00796364 </v>
   <v>       0.01568092      -0.02750453       0.03158022 </v>
   <v>       0.01568092      -0.02750453       0.03158022 </v>
   <v>      -0.03718553      -0.00958659       0.00796364 </v>
   <v>      -0.03718553      -0.00958659       0.00796364 </v>
   <v>      -0.01330737      -0.00019638       0.12140187 </v>
   <v>      -0.03718553      -0.00958659       0.00796364 </v>
   <v>       0.01568092      -0.02750453       0.03158022 </v>
   <v>       0.02852034      -0.04375998      -0.05629910 </v>
   <v>      -0.03875016       0.03057084       0.00640347 </v>
   <v>       0.02852034      -0.04375998      -0.05629910 </v>
   <v>      -0.03875016       0.03057084       0.00640347 </v>
   <v>      -0.03875016       0.03057084       0.00640347 </v>
   <v>       0.02852034      -0.04375998      -0.05629910 </v>
   <v>      -0.03875016       0.03057084       0.00640347 </v>
   <v>       0.02852034      -0.04375998      -0.05629910 </v>
   <v>       0.01144914      -0.04526323       0.02975813 </v>
   <v>      -0.03300331       0.04387858       0.01889394 </v>
   <v>       0.01144914      -0.04526323       0.02975813 </v>
   <v>      -0.03300331       0.04387858       0.01889394 </v>
   <v>      -0.03300331       0.04387858       0.01889394 </v>
   <v>       0.01144914      -0.04526323       0.02975813 </v>
   <v>      -0.03300331       0.04387858       0.01889394 </v>
   <v>       0.01144914      -0.04526323       0.02975813 </v>
   <v>       0.02684372       0.08567478      -0.06013759 </v>
   <v>       0.04407904      -0.05076804       0.02444476 </v>
   <v>       0.02684372       0.08567478      -0.06013759 </v>
   <v>       0.04407904      -0.05076804       0.02444476 </v>
   <v>       0.04407904      -0.05076804       0.02444476 </v>
   <v>       0.02684372       0.08567478      -0.06013759 </v>
   <v>       0.04407904      -0.05076804       0.02444476 </v>
   <v>       0.02684372       0.08567478      -0.06013759 </v>
[...]
       <r>   -16.9058     0.0000    32.0000 </r>
       <r>   -16.7529     0.0000    32.0000 </r>
       <r>   -16.5999     0.0000    32.0000 </r>
       <r>   -16.4470     0.0000    32.0000 </r>
       <r>   -16.2941     0.0000    32.0000 </r>
       <r>   -16.1411     0.0000    32.0000 </r>
       <r>   -15.9882     0.0000    32.0000 </r>
       <r>   -15.8353     0.0000    32.0000 </r>
       <r>   -15.6823     0.0000    32.0000 </r>
       <r>   -15.5294     0.0000    32.0000 </r>
       <r>   -15.3764     0.0000    32.0000 </r>
       <r>   -15.2235     0.9773    32.1495 </r>
       <r>   -15.0706    19.7413    35.1686 </r>
       <r>   -14.9176    44.9741    42.0468 </r>
       <r>   -14.7647    40.3737    48.2213 </r>
       <r>   -14.6118    37.3913    53.9398 </r>
       <r>   -14.4588    34.4244    59.2045 </r>
       <r>   -14.3059    49.0967    66.7132 </r>
       <r>   -14.1530    80.8102    79.0720 </r>
       <r>   -14.0000    95.1258    93.6201 </r>
       <r>   -13.8471    84.0332   106.4718 </r>
       <r>   -13.6942    69.4905   117.0994 </r>
       <r>   -13.5412    18.9656   119.9999 </r>
       <r>   -13.3883     0.0006   120.0000 </r>
       <r>   -13.2353     0.0000   120.0000 </r>
       <r>   -13.0824     0.0000   120.0000 </r>
       <r>   -12.9295     0.0000   120.0000 </r>
       <r>   -12.7765     0.0202   120.0031 </r>
       <r>   -12.6236    25.0986   123.8416 </r>
       <r>   -12.4707   134.9256   144.4765 </r>
       <r>   -12.3177   137.8759   165.5627 </r>
       <r>   -12.1648   127.0384   184.9914 </r>
       <r>   -12.0119   106.9259   201.3442 </r>
       <r>   -11.8589    64.7787   211.2512 </r>
       <r>   -11.7060    29.2270   215.7210 </r>
       <r>   -11.5530     1.8241   216.0000 </r>
       <r>   -11.4001     0.0000   216.0000 </r>
       <r>   -11.2472     0.0000   216.0000 </r>
       <r>   -11.0942     0.0000   216.0000 </r>
       <r>   -10.9413     0.0000   216.0000 </r>
       <r>   -10.7884     0.0000   216.0000 </r>
       <r>   -10.6354     0.0000   216.0000 </r>
       <r>   -10.4825     0.0000   216.0000 </r>
       <r>   -10.3296     0.0000   216.0000 </r>
       <r>   -10.1766     0.0000   216.0000 </r>
       <r>   -10.0237     0.0000   216.0000 </r>
       <r>    -9.8708     0.0000   216.0000 </r>
       <r>    -9.7178     0.0000   216.0000 </r>
       <r>    -9.5649     0.0000   216.0000 </r>
       <r>    -9.4119     0.0000   216.0000 </r>
       <r>    -9.2590     0.0000   216.0000 </r>
       <r>    -9.1061     0.0000   216.0000 </r>
       <r>    -8.9531     0.0000   216.0000 </r>
       <r>    -8.8002     0.0000   216.0000 </r>
       <r>    -8.6473     0.0000   216.0000 </r>
       <r>    -8.4943     0.0000   216.0000 </r>
       <r>    -8.3414     0.0000   216.0000 </r>
       <r>    -8.1885     0.0000   216.0000 </r>
       <r>    -8.0355     0.0000   216.0000 </r>
       <r>    -7.8826     0.0000   216.0000 </r>
       <r>    -7.7297     0.0000   216.0000 </r>
       <r>    -7.5767     0.0000   216.0000 </r>
       <r>    -7.4238     0.0000   216.0000 </r>
       <r>    -7.2708     0.0000   216.0000 </r>
       <r>    -7.1179     0.0000   216.0000 </r>
       <r>    -6.9650     0.0000   216.0000 </r>
       <r>    -6.8120     0.0000   216.0000 </r>
       <r>    -6.6591     0.0000   216.0000 </r>
       <r>    -6.5062     0.0000   216.0000 </r>
       <r>    -6.3532     0.0000   216.0000 </r>
       <r>    -6.2003     0.0000   216.0000 </r>
       <r>    -6.0474     0.0000   216.0000 </r>
       <r>    -5.8944     0.0000   216.0000 </r>
       <r>    -5.7415     0.0000   216.0000 </r>
       <r>    -5.5886     0.0000   216.0000 </r>
       <r>    -5.4356     0.0000   216.0000 </r>
       <r>    -5.2827     0.0000   216.0000 </r>
       <r>    -5.1297     0.0000   216.0000 </r>
       <r>    -4.9768     0.0000   216.0000 </r>
       <r>    -4.8239     0.0000   216.0000 </r>
       <r>    -4.6709     0.0000   216.0000 </r>
       <r>    -4.5180     0.0000   216.0000 </r>
       <r>    -4.3651     0.0000   216.0000 </r>
       <r>    -4.2121     0.0000   216.0000 </r>
       <r>    -4.0592     0.0000   216.0000 </r>
       <r>    -3.9063     0.0000   216.0000 </r>
       <r>    -3.7533     0.0000   216.0000 </r>
       <r>    -3.6004     0.0000   216.0000 </r>
       <r>    -3.4475     0.0000   216.0000 </r>
       <r>    -3.2945     0.0000   216.0000 </r>
       <r>    -3.1416     0.0000   216.0000 </r>
       <r>    -2.9886     0.0000   216.0000 </r>
       <r>    -2.8357     0.0000   216.0000 </r>
       <r>    -2.6828     0.0000   216.0000 </r>
       <r>    -2.5298     0.2628   216.0402 </r>
       <r>    -2.3769    12.2520   217.9140 </r>
       <r>    -2.2240    13.4604   219.9725 </r>
       <r>    -2.0710    21.1212   223.2027 </r>
       <r>    -1.9181    32.2766   228.1390 </r>
       <r>    -1.7652    34.3916   233.3987 </r>
       <r>    -1.6122    34.1345   238.6191 </r>
       <r>    -1.4593    46.0736   245.6654 </r>
       <r>    -1.3063    53.2150   253.8039 </r>
       <r>    -1.1534    64.6910   263.6974 </r>
       <r>    -1.0005    82.4776   276.3112 </r>
       <r>    -0.8475    78.8349   288.3679 </r>
       <r>    -0.6946    90.4161   302.1958 </r>
       <r>    -0.5417    97.4362   317.0972 </r>
       <r>    -0.3887    83.2417   329.8279 </r>
       <r>    -0.2358    54.3895   338.1460 </r>
       <r>    -0.0829    54.4591   346.4747 </r>
       <r>     0.0701    65.3163   356.4639 </r>
       <r>     0.2230    60.4094   365.7027 </r>
       <r>     0.3759    50.7012   373.4567 </r>
       <r>     0.5289    52.8544   381.5400 </r>
       <r>     0.6818    64.3004   391.3739 </r>
       <r>     0.8348    54.4307   399.6983 </r>
       <r>     0.9877    59.3311   408.7721 </r>
       <r>     1.1406    61.6012   418.1932 </r>
       <r>     1.2936    82.5242   430.8141 </r>
       <r>     1.4465    83.7106   443.6164 </r>
       <r>     1.5994    85.7012   456.7232 </r>
       <r>     1.7524    55.8919   465.2711 </r>
       <r>     1.9053    40.8481   471.5182 </r>
       <r>     2.0582    33.7002   476.6722 </r>
       <r>     2.2112    21.6925   479.9897 </r>
       <r>     2.3641     0.0671   480.0000 </r>
       <r>     2.5170     0.0000   480.0000 </r>
       <r>     2.6700     0.0000   480.0000 </r>
       <r>     2.8229     0.0000   480.0000 </r>
       <r>     2.9759     0.0000   480.0000 </r>
       <r>     3.1288     0.0000   480.0000 </r>
       <r>     3.2817     0.0000   480.0000 </r>
       <r>     3.4347     0.0000   480.0000 </r>
       <r>     3.5876     0.0000   480.0000 </r>
       <r>     3.7405     0.0000   480.0000 </r>
       <r>     3.8935     0.0000   480.0000 </r>
       <r>     4.0464     0.0000   480.0000 </r>
       <r>     4.1993     0.0000   480.0000 </r>
       <r>     4.3523     0.1997   480.0305 </r>
       <r>     4.5052    33.7515   485.1923 </r>
       <r>     4.6581    64.4651   495.0514 </r>
       <r>     4.8111    55.5870   503.5526 </r>
       <r>     4.9640    52.4192   511.5694 </r>
       <r>     5.1170    91.1197   525.5048 </r>
       <r>     5.2699    80.5658   537.8262 </r>
       <r>     5.4228    55.5589   546.3232 </r>
       <r>     5.5758    72.9760   557.4838 </r>
       <r>     5.7287    68.0328   567.8885 </r>
       <r>     5.8816    94.9908   582.4160 </r>
       <r>     6.0346    72.6620   593.5286 </r>
       <r>     6.1875    67.0512   603.7831 </r>
       <r>     6.3404    27.4070   607.9747 </r>
       <r>     6.4934     3.8137   608.5579 </r>
       <r>     6.6463    19.8935   611.6003 </r>
       <r>     6.7992    23.7329   615.2299 </r>
       <r>     6.9522     5.0540   616.0029 </r>
       <r>     7.1051     7.7291   617.1849 </r>
       <r>     7.2581    16.2141   619.6647 </r>
       <r>     7.4110    10.2575   621.2334 </r>
       <r>     7.5639    16.5819   623.7694 </r>
       <r>     7.7169    27.7124   628.0076 </r>
       <r>     7.8698    24.8120   631.8022 </r>
       <r>     8.0227    25.6894   635.7311 </r>
       <r>     8.1757    19.9585   638.7835 </r>
       <r>     8.3286    28.1775   643.0928 </r>
       <r>     8.4815    25.9085   647.0551 </r>
       <r>     8.6345    18.4738   649.8805 </r>
       <r>     8.7874    10.4300   651.4756 </r>
       <r>     8.9404    40.3601   657.6481 </r>
       <r>     9.0933    36.7288   663.2652 </r>
       <r>     9.2462    36.2263   668.8055 </r>
       <r>     9.3992    42.0536   675.2370 </r>
       <r>     9.5521    49.2776   682.7734 </r>
       <r>     9.7050    51.8895   690.7091 </r>
       <r>     9.8580    56.4660   699.3448 </r>
       <r>    10.0109    56.8677   708.0419 </r>
       <r>    10.1638    61.2213   717.4048 </r>
       <r>    10.3168    55.5722   725.9038 </r>
       <r>    10.4697    52.9261   733.9981 </r>
       <r>    10.6226    59.7576   743.1372 </r>
       <r>    10.7756    49.5195   750.7105 </r>
       <r>    10.9285    42.8920   757.2702 </r>
       <r>    11.0815    56.9198   765.9753 </r>
       <r>    11.2344    13.2267   767.9981 </r>
       <r>    11.3873     0.0123   768.0000 </r>
       <r>    11.5403     0.0000   768.0000 </r>
       <r>    11.6932     0.0000   768.0000 </r>
       <r>    11.8461     0.0000   768.0000 </r>
       <r>    11.9991     0.0000   768.0000 </r>
       <r>    12.1520     0.0000   768.0000 </r>
       <r>    12.3049     0.0000   768.0000 </r>
       <r>    12.4579     0.0000   768.0000 </r>
       <r>    12.6108     0.0000   768.0000 </r>
       <r>    12.7637     0.0000   768.0000 </r>
       <r>    12.9167     0.0000   768.0000 </r>
       <r>    13.0696     0.0000   768.0000 </r>
       <r>    13.2226     0.0000   768.0000 </r>
      </set>
     </set>
    </array>
   </total>
  </dos>
 </calculation>
 <structure name="finalpos" >
  <crystal>
   <varray name="basis" >
    <v>      11.23649819       0.01470729      -0.00272632 </v>
    <v>       0.01479836      11.30255408      -0.00813817 </v>
    <v>      -0.00383829      -0.01118736      15.84107913 </v>
   </varray>
   <i name="volume">   2011.83033671 </i>
   <varray name="rec_basis" >
    <v>       0.08899586      -0.00011651       0.00002148 </v>
    <v>      -0.00011579       0.08847577       0.00006246 </v>
    <v>       0.00001526       0.00004543       0.06312705 </v>
   </varray>
  </crystal>
  <varray name="positions" >
   <v>       0.99027444       0.24770196       0.11186513 </v>
   <v>       0.00999526       0.24559542       0.62411026 </v>
   <v>       0.99027444       0.74770196       0.11186513 </v>
   <v>       0.00999526       0.74559542       0.62411026 </v>
   <v>       0.50999526       0.24559542       0.12411026 </v>
   <v>       0.49027444       0.24770196       0.61186513 </v>
   <v>       0.50999526       0.74559542       0.12411026 </v>
   <v>       0.49027444       0.74770196       0.61186513 </v>
   <v>       0.99516796       0.24660183       0.38695391 </v>
   <v>       0.00330222       0.24637338       0.87606313 </v>
   <v>       0.99516796       0.74660183       0.38695391 </v>
   <v>       0.00330222       0.74637338       0.87606313 </v>
   <v>       0.50330222       0.24637338       0.37606313 </v>
   <v>       0.49516796       0.24660183       0.88695391 </v>
   <v>       0.50330222       0.74637338       0.37606313 </v>
   <v>       0.49516796       0.74660183       0.88695391 </v>
   <v>       0.24205204       0.00725574       0.11168983 </v>
   <v>       0.25501555       0.00039552       0.62248709 </v>
   <v>       0.24205204       0.50725574       0.11168983 </v>
   <v>       0.25501555       0.50039552       0.62248709 </v>
   <v>       0.75501555       0.00039552       0.12248709 </v>
   <v>       0.74205204       0.00725574       0.61168983 </v>
   <v>       0.75501555       0.50039552       0.12248709 </v>
   <v>       0.74205204       0.50725574       0.61168983 </v>
   <v>       0.24220445       0.00719593       0.38848683 </v>
   <v>       0.25370926       0.00024750       0.87721323 </v>
   <v>       0.24220445       0.50719593       0.38848683 </v>
   <v>       0.25370926       0.50024750       0.87721323 </v>
   <v>       0.75370926       0.00024750       0.37721323 </v>
   <v>       0.74220445       0.00719593       0.88848683 </v>
   <v>       0.75370926       0.50024750       0.37721323 </v>
   <v>       0.74220445       0.50719593       0.88848683 </v>
   <v>       0.99329024       0.00035014       0.99560136 </v>
   <v>       0.99329024       0.50035014       0.99560136 </v>
   <v>       0.49946553      -0.00040603       0.00476406 </v>
   <v>       0.49329024       0.00035014       0.49560136 </v>
   <v>       0.49946553       0.49959397       0.00476406 </v>
   <v>       0.75751824       0.24122330       0.24945607 </v>
   <v>       0.74712468       0.25016768       0.50098952 </v>
   <v>       0.75751824       0.74122330       0.24945607 </v>
   <v>       0.25751824       0.24122330       0.74945607 </v>
   <v>       0.24712468       0.75016768       0.00098952 </v>
   <v>       0.25751824       0.74122330       0.74945607 </v>
   <v>      -0.00053447       0.49959397       0.50476406 </v>
   <v>      -0.00053447      -0.00040603       0.50476406 </v>
   <v>       0.74712468       0.75016768       0.50098952 </v>
   <v>       0.49329024       0.50035014       0.49560136 </v>
   <v>       0.24712468       0.25016768       0.00098952 </v>
   <v>       0.24657801       0.24958699       0.50036236 </v>
   <v>       0.74657801       0.24958699       0.00036236 </v>
   <v>       0.74657801       0.74958699       0.00036236 </v>
   <v>       0.74964363       0.29704230       0.74818156 </v>
   <v>       0.24657801       0.74958699       0.50036236 </v>
   <v>       0.24964363       0.79704230       0.24818156 </v>
   <v>       0.99178155       0.48291762       0.25030678 </v>
   <v>       0.24964363       0.29704230       0.24818156 </v>
   <v>       0.02211843       0.48508793       0.75002132 </v>
   <v>       0.49178155       0.98291762       0.75030678 </v>
   <v>       0.99178155       0.98291762       0.25030678 </v>
   <v>       0.02211843       0.98508793       0.75002132 </v>
   <v>       0.52211843       0.98508793       0.25002132 </v>
   <v>       0.74964363       0.79704230       0.74818156 </v>
   <v>       0.52211843       0.48508793       0.25002132 </v>
   <v>       0.49178155       0.48291762       0.75030678 </v>
   <v>       0.99757321       0.00407078       0.12186527 </v>
   <v>       0.98702450       0.01181706       0.63189998 </v>
   <v>       0.99757321       0.50407078       0.12186527 </v>
   <v>       0.98702450       0.51181706       0.63189998 </v>
   <v>       0.48702450       0.01181706       0.13189998 </v>
   <v>       0.49757321       0.00407078       0.62186527 </v>
   <v>       0.48702450       0.51181706       0.13189998 </v>
   <v>       0.49757321       0.50407078       0.62186527 </v>
   <v>       0.99702292       0.00054683       0.37903225 </v>
   <v>       0.98763837       0.00792609       0.86871226 </v>
   <v>       0.99702292       0.50054683       0.37903225 </v>
   <v>       0.98763837       0.50792609       0.86871226 </v>
   <v>       0.48763837       0.00792609       0.36871226 </v>
   <v>       0.49702292       0.00054683       0.87903225 </v>
   <v>       0.48763837       0.50792609       0.36871226 </v>
   <v>       0.49702292       0.50054683       0.87903225 </v>
   <v>       0.22336948       0.22972487       0.35551230 </v>
   <v>       0.25747725       0.25132350       0.87745686 </v>
   <v>       0.22336948       0.72972487       0.35551230 </v>
   <v>       0.25747725       0.75132350       0.87745686 </v>
   <v>       0.75747725       0.25132350       0.37745686 </v>
   <v>       0.72336948       0.22972487       0.85551230 </v>
   <v>       0.75747725       0.75132350       0.37745686 </v>
   <v>       0.72336948       0.72972487       0.85551230 </v>
   <v>       0.22541101       0.23581119       0.13615435 </v>
   <v>       0.25660465       0.24675784       0.62598185 </v>
   <v>       0.22541101       0.73581119       0.13615435 </v>
   <v>       0.25660465       0.74675784       0.62598185 </v>
   <v>       0.75660465       0.24675784       0.12598185 </v>
   <v>       0.72541101       0.23581119       0.63615435 </v>
   <v>       0.75660465       0.74675784       0.12598185 </v>
   <v>       0.72541101       0.73581119       0.63615435 </v>
   <v>       0.61461932       0.14063063       0.25228986 </v>
   <v>       0.86415058       0.10018899       0.25182329 </v>
   <v>       0.16381837       0.44474505       0.24962645 </v>
   <v>       0.40937397       0.34340532       0.24881603 </v>
   <v>       0.66169477       0.39083688       0.24994410 </v>
   <v>       0.91465346       0.33538059       0.25006321 </v>
   <v>       0.61461932       0.64063063       0.25228986 </v>
   <v>       0.86415058       0.60018899       0.25182329 </v>
   <v>       0.16381837       0.94474505       0.24962645 </v>
   <v>       0.40937397       0.84340532       0.24881603 </v>
   <v>       0.66169477       0.89083688       0.24994410 </v>
   <v>       0.91465346       0.83538059       0.25006321 </v>
   <v>       0.12669126       0.11851281       0.50500084 </v>
   <v>       0.37713492       0.13158924       0.49394183 </v>
   <v>       0.62790163       0.11977458       0.49414415 </v>
   <v>       0.87583964       0.13179688       0.50527827 </v>
   <v>       0.11594704       0.36970677       0.50465841 </v>
   <v>       0.36634573       0.37939417       0.49398140 </v>
   <v>       0.61705052       0.37012132       0.49663570 </v>
   <v>       0.86541592       0.37860139       0.50862890 </v>
   <v>       0.12669126       0.61851281       0.50500084 </v>
   <v>       0.37713492       0.63158924       0.49394183 </v>
   <v>       0.62790163       0.61977458       0.49414415 </v>
   <v>       0.87583964       0.63179688       0.50527827 </v>
   <v>       0.11594704       0.86970677       0.50465841 </v>
   <v>       0.36634573       0.87939417       0.49398140 </v>
   <v>       0.61705052       0.87012132       0.49663570 </v>
   <v>       0.86541592       0.87860139       0.50862890 </v>
   <v>       0.11461932       0.14063063       0.75228986 </v>
   <v>       0.36415058       0.10018899       0.75182329 </v>
   <v>       0.16169477       0.39083688       0.74994410 </v>
   <v>       0.41465346       0.33538059       0.75006321 </v>
   <v>       0.66381837       0.44474505       0.74962645 </v>
   <v>       0.90937397       0.34340532       0.74881603 </v>
   <v>       0.11461932       0.64063063       0.75228986 </v>
   <v>       0.36415058       0.60018899       0.75182329 </v>
   <v>       0.16169477       0.89083688       0.74994410 </v>
   <v>       0.41465346       0.83538059       0.75006321 </v>
   <v>       0.66381837       0.94474505       0.74962645 </v>
   <v>       0.90937397       0.84340532       0.74881603 </v>
   <v>       0.12790163       0.11977458       0.99414415 </v>
   <v>       0.37583964       0.13179688       0.00527827 </v>
   <v>       0.62669126       0.11851281       0.00500084 </v>
   <v>       0.87713492       0.13158924       0.99394183 </v>
   <v>       0.11705052       0.37012132      -0.00336430 </v>
   <v>       0.36541592       0.37860139       0.00862890 </v>
   <v>       0.61594704       0.36970677       0.00465841 </v>
   <v>       0.86634573       0.37939417       0.99398140 </v>
   <v>       0.12790163       0.61977458       0.99414415 </v>
   <v>       0.37583964       0.63179688       0.00527827 </v>
   <v>       0.62669126       0.61851281       0.00500084 </v>
   <v>       0.87713492       0.63158924       0.99394183 </v>
   <v>       0.11705052       0.87012132      -0.00336430 </v>
   <v>       0.36541592       0.87860139       0.00862890 </v>
   <v>       0.61594704       0.86970677       0.00465841 </v>
   <v>       0.86634573       0.87939417       0.99398140 </v>
  </varray>
 </structure>
</modeling>
