       N       E                     dE             d eps       ncg     rms          rms(c)
DAV:   1    -0.111914115427E+04   -0.11191E+04   -0.20759E-02 13512   0.336E-01    0.119E-02
RMM:   2    -0.111914115533E+04   -0.10594E-05   -0.23823E-05  6752   0.759E-03    0.209E-02
RMM:   3    -0.111914115603E+04   -0.70492E-06   -0.10395E-05  6128   0.530E-03    0.337E-03
RMM:   4    -0.111914115670E+04   -0.66507E-06   -0.72939E-06  4393   0.312E-03    0.347E-03
RMM:   5    -0.111914115699E+04   -0.29529E-06   -0.42807E-06  4098   0.332E-03    0.237E-03
RMM:   6    -0.111914115727E+04   -0.27701E-06   -0.29588E-06  3033   0.237E-03    0.147E-03
RMM:   7    -0.111914115740E+04   -0.12938E-06   -0.18046E-06  2740   0.246E-03    0.880E-04
RMM:   8    -0.111914115752E+04   -0.12100E-06   -0.13472E-06  2496   0.208E-03
   1 F= -.11191412E+04 E0= -.11191412E+04  d E =-.111914E+04  mag=    40.0000
       N       E                     dE             d eps       ncg     rms          rms(c)
DAV:   1    -0.111914147018E+04   -0.31278E-03   -0.62410E-01 12920   0.934E-01    0.302E-01
RMM:   2    -0.111914298699E+04   -0.15168E-02   -0.18817E-02 12318   0.186E-01    0.250E-01
RMM:   3    -0.111914297429E+04    0.12697E-04   -0.10815E-03 12305   0.562E-02    0.158E-01
RMM:   4    -0.111914285360E+04    0.12069E-03   -0.28380E-04  9342   0.208E-02    0.910E-02
RMM:   5    -0.111914282411E+04    0.29489E-04   -0.13129E-04  7902   0.151E-02    0.495E-02
RMM:   6    -0.111914282738E+04   -0.32676E-05   -0.32250E-05  7160   0.103E-02    0.287E-02
RMM:   7    -0.111914282840E+04   -0.10204E-05   -0.13825E-05  7020   0.483E-03    0.130E-02
RMM:   8    -0.111914283019E+04   -0.17918E-05   -0.71284E-06  6726   0.493E-03
   2 F= -.11191428E+04 E0= -.11191428E+04  d E =-.167267E-02  mag=    40.0000
       N       E                     dE             d eps       ncg     rms          rms(c)
DAV:   1    -0.111914283252E+04   -0.41183E-05   -0.18908E-03 12976   0.516E-02    0.172E-02
RMM:   2    -0.111914283652E+04   -0.40030E-05   -0.51587E-05  6695   0.107E-02    0.159E-02
RMM:   3    -0.111914283721E+04   -0.69229E-06   -0.61946E-06  6112   0.467E-03    0.791E-03
RMM:   4    -0.111914283712E+04    0.91153E-07   -0.11993E-06  3743   0.234E-03    0.563E-03
RMM:   5    -0.111914283709E+04    0.29919E-07   -0.25387E-07  2334   0.208E-03    0.176E-03
RMM:   6    -0.111914283712E+04   -0.26645E-07   -0.79198E-08  1416   0.199E-03    0.548E-04
RMM:   7    -0.111914283712E+04   -0.49622E-08   -0.29704E-08  1226   0.197E-03    0.295E-04
RMM:   8    -0.111914283712E+04   -0.29104E-10   -0.18745E-08  1133   0.197E-03
   3 F= -.11191428E+04 E0= -.11191428E+04  d E =-.167960E-02  mag=    40.0000
       N       E                     dE             d eps       ncg     rms          rms(c)
DAV:   1    -0.111914312868E+04   -0.29156E-03   -0.51390E-01 12768   0.853E-01    0.211E-01
RMM:   2    -0.111914435675E+04   -0.12281E-02   -0.13824E-02 12365   0.155E-01    0.158E-01
RMM:   3    -0.111914434649E+04    0.10263E-04   -0.70534E-04 11004   0.506E-02    0.995E-02
RMM:   4    -0.111914430611E+04    0.40373E-04   -0.18864E-04  7586   0.174E-02    0.605E-02
RMM:   5    -0.111914429952E+04    0.65947E-05   -0.61509E-05  7124   0.113E-02    0.410E-02
RMM:   6    -0.111914430261E+04   -0.30921E-05   -0.20288E-05  7015   0.746E-03    0.141E-02
RMM:   7    -0.111914430436E+04   -0.17524E-05   -0.11138E-05  6668   0.475E-03    0.108E-02
RMM:   8    -0.111914430567E+04   -0.13025E-05   -0.64412E-06  6145   0.433E-03
   4 F= -.11191443E+04 E0= -.11191443E+04  d E =-.146854E-02  mag=    40.0000
       N       E                     dE             d eps       ncg     rms          rms(c)
DAV:   1    -0.111914359137E+04    0.71299E-03   -0.51606E-01 12744   0.855E-01    0.211E-01
RMM:   2    -0.111914483733E+04   -0.12460E-02   -0.13989E-02 12376   0.155E-01    0.159E-01
RMM:   3    -0.111914482774E+04    0.95970E-05   -0.73092E-04 11146   0.505E-02    0.100E-01
RMM:   4    -0.111914478693E+04    0.40805E-04   -0.19112E-04  7611   0.174E-02    0.609E-02
RMM:   5    -0.111914478071E+04    0.62213E-05   -0.64973E-05  7167   0.115E-02    0.426E-02
RMM:   6    -0.111914478396E+04   -0.32522E-05   -0.22342E-05  7066   0.779E-03    0.145E-02
RMM:   7    -0.111914478584E+04   -0.18822E-05   -0.12660E-05  6811   0.501E-03    0.116E-02
RMM:   8    -0.111914478718E+04   -0.13397E-05   -0.75821E-06  6470   0.464E-03
   5 F= -.11191448E+04 E0= -.11191448E+04  d E =-.195006E-02  mag=    40.0000
       N       E                     dE             d eps       ncg     rms          rms(c)
DAV:   1    -0.111914494233E+04   -0.15648E-03   -0.42814E-01 12832   0.771E-01    0.191E-01
RMM:   2    -0.111914595283E+04   -0.10105E-02   -0.11044E-02 12471   0.136E-01    0.127E-01
RMM:   3    -0.111914595139E+04    0.14343E-05   -0.54623E-04 10444   0.445E-02    0.800E-02
RMM:   4    -0.111914592234E+04    0.29053E-04   -0.14514E-04  7296   0.154E-02    0.470E-02
RMM:   5    -0.111914591806E+04    0.42831E-05   -0.51163E-05  7075   0.103E-02    0.382E-02
RMM:   6    -0.111914591943E+04   -0.13672E-05   -0.20399E-05  6990   0.727E-03    0.133E-02
RMM:   7    -0.111914591990E+04   -0.46939E-06   -0.11667E-05  6513   0.477E-03    0.962E-03
RMM:   8    -0.111914591984E+04    0.58499E-07   -0.67691E-06  5817   0.428E-03
   6 F= -.11191459E+04 E0= -.11191459E+04  d E =-.113265E-02  mag=    40.0000
       N       E                     dE             d eps       ncg     rms          rms(c)
DAV:   1    -0.111914499979E+04    0.92011E-03   -0.63068E-01 12824   0.936E-01    0.232E-01
RMM:   2    -0.111914648557E+04   -0.14858E-02   -0.16233E-02 12453   0.165E-01    0.154E-01
RMM:   3    -0.111914648887E+04   -0.33031E-05   -0.83959E-04 11363   0.542E-02    0.968E-02
RMM:   4    -0.111914644587E+04    0.43005E-04   -0.21227E-04  7670   0.180E-02    0.572E-02
RMM:   5    -0.111914643780E+04    0.80618E-05   -0.71656E-05  7159   0.124E-02    0.503E-02
RMM:   6    -0.111914643953E+04   -0.17256E-05   -0.27492E-05  7048   0.856E-03    0.166E-02
RMM:   7    -0.111914644024E+04   -0.70652E-06   -0.15248E-05  6814   0.560E-03    0.133E-02
RMM:   8    -0.111914644033E+04   -0.96974E-07   -0.94579E-06  6574   0.508E-03
   7 F= -.11191464E+04 E0= -.11191464E+04  d E =-.165315E-02  mag=    40.0000
       N       E                     dE             d eps       ncg     rms          rms(c)
DAV:   1    -0.111914649623E+04   -0.55991E-04   -0.41426E-01 12672   0.744E-01    0.155E-01
RMM:   2    -0.111914746105E+04   -0.96482E-03   -0.10299E-02 12476   0.128E-01    0.107E-01
RMM:   3    -0.111914745570E+04    0.53467E-05   -0.49241E-04  9820   0.426E-02    0.671E-02
RMM:   4    -0.111914743175E+04    0.23945E-04   -0.11750E-04  7186   0.140E-02    0.385E-02
RMM:   5    -0.111914742963E+04    0.21295E-05   -0.46226E-05  6995   0.944E-03    0.327E-02
RMM:   6    -0.111914743147E+04   -0.18486E-05   -0.18232E-05  6748   0.669E-03    0.126E-02
RMM:   7    -0.111914743265E+04   -0.11728E-05   -0.10210E-05  6089   0.429E-03    0.857E-03
RMM:   8    -0.111914743320E+04   -0.55686E-06   -0.57651E-06  5336   0.391E-03
   8 F= -.11191474E+04 E0= -.11191474E+04  d E =-.992871E-03  mag=    40.0000
       N       E                     dE             d eps       ncg     rms          rms(c)
DAV:   1    -0.111914558693E+04    0.18457E-02   -0.11474E+00 12624   0.124E+00    0.259E-01
RMM:   2    -0.111914823817E+04   -0.26512E-02   -0.28325E-02 12405   0.213E-01    0.178E-01
RMM:   3    -0.111914824135E+04   -0.31838E-05   -0.14536E-03 11829   0.725E-02    0.111E-01
RMM:   4    -0.111914817903E+04    0.62321E-04   -0.37708E-04  9507   0.220E-02    0.641E-02
RMM:   5    -0.111914816457E+04    0.14467E-04   -0.11016E-04  7238   0.147E-02    0.519E-02
RMM:   6    -0.111914816817E+04   -0.35993E-05   -0.37001E-05  7056   0.991E-03    0.191E-02
RMM:   7    -0.111914817049E+04   -0.23245E-05   -0.20089E-05  6797   0.595E-03    0.124E-02
RMM:   8    -0.111914817162E+04   -0.11308E-05   -0.11808E-05  6436   0.564E-03
   9 F= -.11191482E+04 E0= -.11191482E+04  d E =-.173129E-02  mag=    40.0000
       N       E                     dE             d eps       ncg     rms          rms(c)
DAV:   1    -0.111914825087E+04   -0.80381E-04   -0.38151E-01 12592   0.709E-01    0.145E-01
RMM:   2    -0.111914915152E+04   -0.90065E-03   -0.94813E-03 12672   0.122E-01    0.970E-02
RMM:   3    -0.111914914033E+04    0.11190E-04   -0.42475E-04  9168   0.386E-02    0.608E-02
RMM:   4    -0.111914911959E+04    0.20747E-04   -0.97755E-05  7109   0.132E-02    0.338E-02
RMM:   5    -0.111914911782E+04    0.17657E-05   -0.42898E-05  6960   0.893E-03    0.163E-02
RMM:   6    -0.111914911953E+04   -0.17075E-05   -0.15712E-05  6579   0.587E-03    0.957E-03
RMM:   7    -0.111914912032E+04   -0.79040E-06   -0.88742E-06  5843   0.406E-03    0.562E-03
RMM:   8    -0.111914912061E+04   -0.29459E-06   -0.51656E-06  5152   0.353E-03
  10 F= -.11191491E+04 E0= -.11191491E+04  d E =-.948993E-03  mag=    40.0000
       N       E                     dE             d eps       ncg     rms          rms(c)
DAV:   1    -0.111914359303E+04    0.55273E-02   -0.30085E+00 12488   0.199E+00    0.408E-01
RMM:   2    -0.111915051417E+04   -0.69211E-02   -0.72908E-02 12430   0.340E-01    0.271E-01
RMM:   3    -0.111915052902E+04   -0.14856E-04   -0.37267E-03 12244   0.116E-01    0.168E-01
RMM:   4    -0.111915037887E+04    0.15015E-03   -0.94338E-04 12988   0.338E-02    0.946E-02
RMM:   5    -0.111915034466E+04    0.34214E-04   -0.27996E-04  9062   0.191E-02    0.424E-02
RMM:   6    -0.111915035072E+04   -0.60674E-05   -0.62367E-05  7189   0.108E-02    0.209E-02
RMM:   7    -0.111915035346E+04   -0.27357E-05   -0.32611E-05  7046   0.757E-03    0.142E-02
RMM:   8    -0.111915035442E+04   -0.96299E-06   -0.20751E-05  6794   0.658E-03
  11 F= -.11191504E+04 E0= -.11191504E+04  d E =-.218280E-02  mag=    40.0000
       N       E                     dE             d eps       ncg     rms          rms(c)
DAV:   1    -0.111915019792E+04    0.15554E-03   -0.43353E-01 12624   0.756E-01    0.146E-01
RMM:   2    -0.111915123937E+04   -0.10415E-02   -0.10811E-02 12612   0.130E-01    0.948E-02
RMM:   3    -0.111915123058E+04    0.87932E-05   -0.50090E-04  9620   0.417E-02    0.596E-02
RMM:   4    -0.111915120869E+04    0.21882E-04   -0.11888E-04  7206   0.137E-02    0.323E-02
RMM:   5    -0.111915120937E+04   -0.67995E-06   -0.43451E-05  7002   0.890E-03    0.183E-02
RMM:   6    -0.111915121119E+04   -0.18173E-05   -0.17634E-05  6692   0.600E-03    0.905E-03
RMM:   7    -0.111915121212E+04   -0.93086E-06   -0.10377E-05  6009   0.431E-03    0.606E-03
RMM:   8    -0.111915121257E+04   -0.44709E-06   -0.61890E-06  5115   0.369E-03
  12 F= -.11191512E+04 E0= -.11191512E+04  d E =-.858145E-03  mag=    40.0000
       N       E                     dE             d eps       ncg     rms          rms(c)
DAV:   1    -0.111914351306E+04    0.76991E-02   -0.38965E+00 12496   0.227E+00    0.439E-01
RMM:   2    -0.111915264909E+04   -0.91360E-02   -0.94881E-02 12485   0.387E-01    0.281E-01
RMM:   3    -0.111915267223E+04   -0.23138E-04   -0.47468E-03 12349   0.131E-01    0.176E-01
RMM:   4    -0.111915249522E+04    0.17701E-03   -0.12187E-03 13365   0.386E-02    0.975E-02
RMM:   5    -0.111915247902E+04    0.16207E-04   -0.28598E-04  9607   0.188E-02    0.454E-02
RMM:   6    -0.111915248714E+04   -0.81290E-05   -0.72434E-05  7260   0.108E-02    0.185E-02
RMM:   7    -0.111915249020E+04   -0.30560E-05   -0.35419E-05  7069   0.782E-03    0.136E-02
RMM:   8    -0.111915249189E+04   -0.16914E-05   -0.27219E-05  6801   0.689E-03
  13 F= -.11191525E+04 E0= -.11191525E+04  d E =-.213747E-02  mag=    40.0000
       N       E                     dE             d eps       ncg     rms          rms(c)
DAV:   1    -0.111915225433E+04    0.23587E-03   -0.53293E-01 12528   0.836E-01    0.175E-01
RMM:   2    -0.111915355649E+04   -0.13022E-02   -0.13314E-02 12580   0.145E-01    0.117E-01
RMM:   3    -0.111915355453E+04    0.19589E-05   -0.63853E-04 10543   0.463E-02    0.716E-02
RMM:   4    -0.111915352444E+04    0.30092E-04   -0.14865E-04  7380   0.150E-02    0.398E-02
RMM:   5    -0.111915352207E+04    0.23707E-05   -0.56724E-05  7068   0.102E-02    0.273E-02
RMM:   6    -0.111915352434E+04   -0.22727E-05   -0.21670E-05  6809   0.687E-03    0.130E-02
RMM:   7    -0.111915352560E+04   -0.12649E-05   -0.12581E-05  6222   0.462E-03    0.863E-03
RMM:   8    -0.111915352624E+04   -0.63075E-06   -0.74725E-06  5571   0.411E-03
  14 F= -.11191535E+04 E0= -.11191535E+04  d E =-.103434E-02  mag=    40.0000
