       N       E                     dE             d eps       ncg     rms          rms(c)
DAV:   1    -0.988518984264E+03   -0.98852E+03   -0.93991E-03 13808   0.233E-01    0.429E-02
RMM:   2    -0.988518986873E+03   -0.26094E-05   -0.34863E-05  6793   0.101E-02    0.921E-02
RMM:   3    -0.988518986288E+03    0.58486E-06   -0.11653E-05  6525   0.636E-03    0.164E-02
RMM:   4    -0.988518987246E+03   -0.95776E-06   -0.59362E-06  4832   0.304E-03    0.106E-02
RMM:   5    -0.988518987887E+03   -0.64122E-06   -0.32807E-06  4707   0.335E-03    0.516E-03
RMM:   6    -0.988518988969E+03   -0.10821E-05   -0.23088E-06  3613   0.248E-03    0.582E-03
RMM:   7    -0.988518989630E+03   -0.66070E-06   -0.14732E-06  3368   0.250E-03    0.420E-03
RMM:   8    -0.988518990856E+03   -0.12256E-05   -0.14710E-06  3318   0.240E-03
   1 F= -.98851899E+03 E0= -.98851140E+03  d E =-.988519E+03  mag=   112.0000
       N       E                     dE             d eps       ncg     rms          rms(c)
DAV:   1    -0.988516128106E+03    0.28615E-02   -0.85631E-01 12544   0.108E+00    0.583E-01
RMM:   2    -0.988520863957E+03   -0.47359E-02   -0.25960E-02 12692   0.232E-01    0.405E-01
RMM:   3    -0.988521441923E+03   -0.57797E-03   -0.15148E-03 12428   0.646E-02    0.199E-01
RMM:   4    -0.988521319090E+03    0.12283E-03   -0.21447E-04  8579   0.214E-02    0.132E-01
RMM:   5    -0.988521264004E+03    0.55086E-04   -0.25304E-04  8777   0.188E-02    0.627E-02
RMM:   6    -0.988521266747E+03   -0.27434E-05   -0.33648E-05  7289   0.108E-02    0.255E-02
RMM:   7    -0.988521266846E+03   -0.98720E-07   -0.12904E-05  7107   0.527E-03    0.195E-02
RMM:   8    -0.988521267353E+03   -0.50670E-06   -0.54521E-06  6747   0.435E-03
   2 F= -.98852127E+03 E0= -.98851364E+03  d E =-.227650E-02  mag=   112.0000
       N       E                     dE             d eps       ncg     rms          rms(c)
DAV:   1    -0.988521259550E+03    0.72961E-05   -0.27237E-03 13272   0.611E-02    0.337E-02
RMM:   2    -0.988521274006E+03   -0.14456E-04   -0.70100E-05  6724   0.133E-02    0.257E-02
RMM:   3    -0.988521277097E+03   -0.30911E-05   -0.92645E-06  6270   0.604E-03    0.128E-02
RMM:   4    -0.988521277223E+03   -0.12622E-06   -0.18315E-06  4140   0.272E-03    0.867E-03
RMM:   5    -0.988521277581E+03   -0.35828E-06   -0.12677E-06  3952   0.238E-03    0.404E-03
RMM:   6    -0.988521278027E+03   -0.44546E-06   -0.70956E-07  2250   0.189E-03    0.317E-03
RMM:   7    -0.988521278215E+03   -0.18804E-06   -0.11782E-07  1527   0.175E-03    0.232E-03
RMM:   8    -0.988521278542E+03   -0.32735E-06   -0.33295E-07  1816   0.185E-03
   3 F= -.98852128E+03 E0= -.98851365E+03  d E =-.228769E-02  mag=   112.0000
       N       E                     dE             d eps       ncg     rms          rms(c)
DAV:   1    -0.988519517558E+03    0.17607E-02   -0.66936E-01 12816   0.977E-01    0.398E-01
RMM:   2    -0.988522362477E+03   -0.28449E-02   -0.19133E-02 12699   0.197E-01    0.254E-01
RMM:   3    -0.988522639284E+03   -0.27681E-03   -0.11294E-03 12075   0.553E-02    0.134E-01
RMM:   4    -0.988522578535E+03    0.60749E-04   -0.13175E-04  8004   0.168E-02    0.875E-02
RMM:   5    -0.988522557045E+03    0.21491E-04   -0.11069E-04  7378   0.138E-02    0.423E-02
RMM:   6    -0.988522560097E+03   -0.30525E-05   -0.23525E-05  7180   0.902E-03    0.283E-02
RMM:   7    -0.988522561077E+03   -0.98006E-06   -0.10409E-05  6963   0.506E-03    0.141E-02
RMM:   8    -0.988522561567E+03   -0.48980E-06   -0.49872E-06  6430   0.409E-03
   4 F= -.98852256E+03 E0= -.98851492E+03  d E =-.128302E-02  mag=   112.0000
       N       E                     dE             d eps       ncg     rms          rms(c)
DAV:   1    -0.988522517246E+03    0.43831E-04   -0.15113E-02 12616   0.147E-01    0.606E-02
RMM:   2    -0.988522580227E+03   -0.62981E-04   -0.41326E-04  9660   0.300E-02    0.407E-02
RMM:   3    -0.988522589301E+03   -0.90737E-05   -0.35928E-05  6815   0.124E-02    0.226E-02
RMM:   4    -0.988522589681E+03   -0.37975E-06   -0.10404E-05  6514   0.511E-03    0.164E-02
RMM:   5    -0.988522589693E+03   -0.12675E-07   -0.52449E-06  5882   0.387E-03    0.907E-03
RMM:   6    -0.988522590125E+03   -0.43133E-06   -0.18721E-06  3865   0.252E-03    0.466E-03
RMM:   7    -0.988522590363E+03   -0.23821E-06   -0.75295E-07  2978   0.224E-03    0.243E-03
RMM:   8    -0.988522590520E+03   -0.15738E-06   -0.35011E-07  2106   0.206E-03
   5 F= -.98852259E+03 E0= -.98851495E+03  d E =-.131198E-02  mag=   112.0000
       N       E                     dE             d eps       ncg     rms          rms(c)
DAV:   1    -0.988521333872E+03    0.12565E-02   -0.63206E-01 12768   0.944E-01    0.326E-01
RMM:   2    -0.988523612042E+03   -0.22782E-02   -0.16893E-02 12902   0.180E-01    0.198E-01
RMM:   3    -0.988523790205E+03   -0.17816E-03   -0.91286E-04 10955   0.493E-02    0.104E-01
RMM:   4    -0.988523749030E+03    0.41174E-04   -0.11130E-04  7478   0.155E-02    0.667E-02
RMM:   5    -0.988523732891E+03    0.16139E-04   -0.82619E-05  7275   0.121E-02    0.349E-02
RMM:   6    -0.988523736269E+03   -0.33783E-05   -0.23221E-05  7083   0.828E-03    0.200E-02
RMM:   7    -0.988523737404E+03   -0.11346E-05   -0.10338E-05  6861   0.506E-03    0.135E-02
RMM:   8    -0.988523737950E+03   -0.54573E-06   -0.54095E-06  6148   0.408E-03
   6 F= -.98852374E+03 E0= -.98851610E+03  d E =-.114743E-02  mag=   112.0000
