       N       E                     dE             d eps       ncg     rms          rms(c)
DAV:   1    -0.105498220484E+04   -0.10550E+04   -0.15222E-02 13336   0.290E-01    0.251E-02
RMM:   2    -0.105498220450E+04    0.33340E-06   -0.14710E-05  6592   0.700E-03    0.412E-02
RMM:   3    -0.105498220465E+04   -0.15028E-06   -0.43383E-06  5931   0.406E-03    0.335E-03
RMM:   4    -0.105498220474E+04   -0.89494E-07   -0.10742E-06  2756   0.193E-03    0.211E-03
RMM:   5    -0.105498220482E+04   -0.75903E-07   -0.61860E-07  2504   0.202E-03    0.218E-03
RMM:   6    -0.105498220486E+04   -0.45606E-07   -0.24544E-07  1908   0.172E-03    0.986E-04
RMM:   7    -0.105498220489E+04   -0.28158E-07   -0.14487E-07  1752   0.173E-03    0.677E-04
RMM:   8    -0.105498220493E+04   -0.33760E-07   -0.10863E-07  1527   0.172E-03
   1 F= -.10549822E+04 E0= -.10549822E+04  d E =-.105498E+04  mag=    78.0000
       N       E                     dE             d eps       ncg     rms          rms(c)
DAV:   1    -0.105498168547E+04    0.51942E-03   -0.47836E-01 12384   0.817E-01    0.389E-01
RMM:   2    -0.105498325627E+04   -0.15708E-02   -0.16059E-02 12421   0.178E-01    0.304E-01
RMM:   3    -0.105498328882E+04   -0.32550E-04   -0.94254E-04 11911   0.535E-02    0.166E-01
RMM:   4    -0.105498316563E+04    0.12319E-03   -0.25276E-04  8643   0.222E-02    0.992E-02
RMM:   5    -0.105498314099E+04    0.24640E-04   -0.11863E-04  7619   0.156E-02    0.622E-02
RMM:   6    -0.105498314443E+04   -0.34421E-05   -0.29151E-05  7248   0.987E-03    0.286E-02
RMM:   7    -0.105498314642E+04   -0.19867E-05   -0.11368E-05  7088   0.494E-03    0.163E-02
RMM:   8    -0.105498314824E+04   -0.18281E-05   -0.56195E-06  6377   0.425E-03
   2 F= -.10549831E+04 E0= -.10549831E+04  d E =-.943318E-03  mag=    78.0000
       N       E                     dE             d eps       ncg     rms          rms(c)
DAV:   1    -0.105498318478E+04   -0.38366E-04   -0.27751E-02 12656   0.197E-01    0.927E-02
RMM:   2    -0.105498327229E+04   -0.87511E-04   -0.92012E-04 11675   0.430E-02    0.730E-02
RMM:   3    -0.105498327304E+04   -0.74678E-06   -0.42860E-05  6742   0.133E-02    0.415E-02
RMM:   4    -0.105498326644E+04    0.65961E-05   -0.17129E-05  6561   0.657E-03    0.251E-02
RMM:   5    -0.105498326366E+04    0.27862E-05   -0.89789E-06  6185   0.445E-03    0.188E-02
RMM:   6    -0.105498326340E+04    0.25796E-06   -0.21906E-06  4853   0.298E-03    0.642E-03
RMM:   7    -0.105498326318E+04    0.22232E-06   -0.27568E-08  2121   0.164E-03    0.300E-03
RMM:   8    -0.105498326291E+04    0.27004E-06   -0.40524E-08  1870   0.168E-03
   3 F= -.10549833E+04 E0= -.10549833E+04  d E =-.105798E-02  mag=    78.0000
       N       E                     dE             d eps       ncg     rms          rms(c)
DAV:   1    -0.105498289036E+04    0.37281E-03   -0.32702E-01 12320   0.679E-01    0.235E-01
RMM:   2    -0.105498395305E+04   -0.10627E-02   -0.94939E-03 12421   0.134E-01    0.169E-01
RMM:   3    -0.105498399403E+04   -0.40980E-04   -0.48172E-04 10021   0.415E-02    0.968E-02
RMM:   4    -0.105498395823E+04    0.35798E-04   -0.11362E-04  7322   0.151E-02    0.563E-02
RMM:   5    -0.105498395131E+04    0.69183E-05   -0.49511E-05  7151   0.104E-02    0.277E-02
RMM:   6    -0.105498395235E+04   -0.10333E-05   -0.13086E-05  6916   0.610E-03    0.144E-02
RMM:   7    -0.105498395250E+04   -0.15816E-06   -0.57168E-06  5711   0.370E-03    0.737E-03
RMM:   8    -0.105498395234E+04    0.16046E-06   -0.32142E-06  5050   0.301E-03
   4 F= -.10549840E+04 E0= -.10549840E+04  d E =-.689437E-03  mag=    78.0000
