<?xml version="1.0" encoding="ISO-8859-1"?>
<modeling>
 <generator>
  <i name="program" type="string">vasp </i>
  <i name="version" type="string">5.4.1  </i>
  <i name="subversion" type="string">05Feb16 (build Jan 25 2017 20:16:33) complex                          parallel </i>
  <i name="platform" type="string">BWXE6 </i>
  <i name="date" type="string">2019 06 27 </i>
  <i name="time" type="string">10:05:41 </i>
 </generator>
 <incar>
  <i type="string" name="SYSTEM"> STF</i>
  <i type="string" name="PREC">normal</i>
  <i type="string" name="ALGO"> Fast</i>
  <i type="int" name="ISPIN">     2</i>
  <i type="int" name="NELM">    40</i>
  <i type="int" name="NELMIN">     8</i>
  <i type="int" name="IBRION">     2</i>
  <i name="EDIFF">      0.00010000</i>
  <i name="EDIFFG">     -0.03000000</i>
  <i type="int" name="NSW">    30</i>
  <i type="int" name="ISIF">     3</i>
  <i name="ENCUT">    520.00000000</i>
  <i type="int" name="NBANDS">   768</i>
  <v name="MAGMOM">      0.60000000      0.60000000      0.60000000      0.60000000      0.60000000      0.60000000      0.60000000      0.60000000      0.60000000      0.60000000      0.60000000      0.60000000      0.60000000      0.60000000      0.60000000      0.60000000      0.60000000      0.60000000      0.60000000      0.60000000
      0.60000000      0.60000000      0.60000000      0.60000000      0.60000000      0.60000000      0.60000000      0.60000000      0.60000000      0.60000000      0.60000000      0.60000000      0.60000000      0.60000000      0.60000000      0.60000000      0.60000000      0.60000000      0.60000000      0.60000000
      0.60000000      0.60000000      0.60000000      0.60000000      0.60000000      0.60000000      0.60000000      0.60000000      5.00000000      5.00000000      5.00000000      5.00000000      5.00000000      5.00000000      5.00000000      5.00000000      5.00000000      5.00000000      5.00000000      5.00000000
      5.00000000      5.00000000      5.00000000      5.00000000      0.60000000      0.60000000      0.60000000      0.60000000      0.60000000      0.60000000      0.60000000      0.60000000      0.60000000      0.60000000      0.60000000      0.60000000      0.60000000      0.60000000      0.60000000      0.60000000
      0.60000000      0.60000000      0.60000000      0.60000000      0.60000000      0.60000000      0.60000000      0.60000000      0.60000000      0.60000000      0.60000000      0.60000000      0.60000000      0.60000000      0.60000000      0.60000000      0.60000000      0.60000000      0.60000000      0.60000000
      0.60000000      0.60000000      0.60000000      0.60000000      0.60000000      0.60000000      0.60000000      0.60000000      0.60000000      0.60000000      0.60000000      0.60000000      0.60000000      0.60000000      0.60000000      0.60000000      0.60000000      0.60000000      0.60000000      0.60000000
      0.60000000      0.60000000      0.60000000      0.60000000      0.60000000      0.60000000      0.60000000      0.60000000      0.60000000      0.60000000      0.60000000      0.60000000      0.60000000      0.60000000      0.60000000      0.60000000      0.60000000      0.60000000      0.60000000      0.60000000
      0.60000000      0.60000000      0.60000000      0.60000000      0.60000000      0.60000000      0.60000000      0.60000000      0.60000000      0.60000000      0.60000000      0.60000000</v>
  <i type="string" name="LREAL"> Auto</i>
  <i type="int" name="ISMEAR">     0</i>
  <i name="SIGMA">      0.05000000</i>
  <i type="int" name="LMAXMIX">     4</i>
  <v type="int" name="KPOINT_BSE">    -1     0     0     0</v>
  <i type="int" name="NELM">    40</i>
  <i type="logical" name="LDAU"> T  </i>
  <v type="int" name="LDAUTYPE">     2</v>
  <v type="int" name="LDAUL">     0     2     2     0</v>
  <v name="LDAUU">      0.00000000      3.00000000      5.00000000      0.00000000</v>
  <v name="LDAUJ">      0.00000000      0.00000000      0.00000000      0.00000000</v>
  <i type="int" name="LDAUPRINT">     1</i>
 </incar>
 <kpoints>
  <generation param="Monkhorst-Pack">
   <v type="int" name="divisions">       2        2        2 </v>
   <v name="usershift">      0.00000000       0.00000000       0.00000000 </v>
   <v name="genvec1">      0.50000000       0.00000000       0.00000000 </v>
   <v name="genvec2">     -0.00000000       0.50000000       0.00000000 </v>
   <v name="genvec3">     -0.00000000       0.00000000       0.50000000 </v>
   <v name="shift">      0.50000000       0.50000000       0.50000000 </v>
  </generation>
  <varray name="kpointlist" >
   <v>       0.25000000       0.25000000       0.25000000 </v>
   <v>      -0.25000000       0.25000000       0.25000000 </v>
   <v>       0.25000000      -0.25000000       0.25000000 </v>
   <v>      -0.25000000      -0.25000000       0.25000000 </v>
  </varray>
  <varray name="weights" >
   <v>       0.25000000 </v>
   <v>       0.25000000 </v>
   <v>       0.25000000 </v>
   <v>       0.25000000 </v>
  </varray>
 </kpoints>
 <parameters>
  <separator name="general" >
   <i type="string" name="SYSTEM">STF</i>
   <i type="logical" name="LCOMPAT"> F  </i>
  </separator>
  <separator name="electronic" >
   <i type="string" name="PREC">normal</i>
   <i name="ENMAX">    520.00000000</i>
   <i name="ENAUG">    605.39200000</i>
   <i name="EDIFF">      0.00010000</i>
   <i type="int" name="IALGO">    68</i>
   <i type="int" name="IWAVPR">    11</i>
   <i type="int" name="NBANDS">   768</i>
   <i name="NELECT">   1040.00000000</i>
   <i type="int" name="TURBO">     0</i>
   <i type="int" name="IRESTART">     0</i>
   <i type="int" name="NREBOOT">     0</i>
   <i type="int" name="NMIN">     0</i>
   <i name="EREF">      0.00000000</i>
   <separator name="electronic smearing" >
    <i type="int" name="ISMEAR">     0</i>
    <i name="SIGMA">      0.05000000</i>
    <i name="KSPACING">      0.50000000</i>
    <i type="logical" name="KGAMMA"> T  </i>
   </separator>
   <separator name="electronic projectors" >
    <i type="logical" name="LREAL"> T  </i>
    <v name="ROPT">     -0.00050000     -0.00050000     -0.00050000     -0.00050000</v>
    <i type="int" name="LMAXPAW">  -100</i>
    <i type="int" name="LMAXMIX">     4</i>
    <i type="logical" name="NLSPLINE"> F  </i>
   </separator>
   <separator name="electronic startup" >
    <i type="int" name="ISTART">     1</i>
    <i type="int" name="ICHARG">     0</i>
    <i type="int" name="INIWAV">     1</i>
   </separator>
   <separator name="electronic spin" >
    <i type="int" name="ISPIN">     2</i>
    <i type="logical" name="LNONCOLLINEAR"> F  </i>
    <v name="MAGMOM">      0.60000000      0.60000000      0.60000000      0.60000000      0.60000000      0.60000000      0.60000000      0.60000000      0.60000000      0.60000000      0.60000000      0.60000000      0.60000000      0.60000000      0.60000000      0.60000000      0.60000000      0.60000000      0.60000000      0.60000000
      0.60000000      0.60000000      0.60000000      0.60000000      0.60000000      0.60000000      0.60000000      0.60000000      0.60000000      0.60000000      0.60000000      0.60000000      0.60000000      0.60000000      0.60000000      0.60000000      0.60000000      0.60000000      0.60000000      0.60000000
      0.60000000      0.60000000      0.60000000      0.60000000      0.60000000      0.60000000      0.60000000      0.60000000      5.00000000      5.00000000      5.00000000      5.00000000      5.00000000      5.00000000      5.00000000      5.00000000      5.00000000      5.00000000      5.00000000      5.00000000
      5.00000000      5.00000000      5.00000000      5.00000000      0.60000000      0.60000000      0.60000000      0.60000000      0.60000000      0.60000000      0.60000000      0.60000000      0.60000000      0.60000000      0.60000000      0.60000000      0.60000000      0.60000000      0.60000000      0.60000000
      0.60000000      0.60000000      0.60000000      0.60000000      0.60000000      0.60000000      0.60000000      0.60000000      0.60000000      0.60000000      0.60000000      0.60000000      0.60000000      0.60000000      0.60000000      0.60000000      0.60000000      0.60000000      0.60000000      0.60000000
      0.60000000      0.60000000      0.60000000      0.60000000      0.60000000      0.60000000      0.60000000      0.60000000      0.60000000      0.60000000      0.60000000      0.60000000      0.60000000      0.60000000      0.60000000      0.60000000      0.60000000      0.60000000      0.60000000      0.60000000
      0.60000000      0.60000000      0.60000000      0.60000000      0.60000000      0.60000000      0.60000000      0.60000000      0.60000000      0.60000000      0.60000000      0.60000000      0.60000000      0.60000000      0.60000000      0.60000000      0.60000000      0.60000000      0.60000000      0.60000000
      0.60000000      0.60000000      0.60000000      0.60000000      0.60000000      0.60000000      0.60000000      0.60000000      0.60000000      0.60000000      0.60000000      0.60000000</v>
    <i name="NUPDOWN">     -1.00000000</i>
    <i type="logical" name="LSORBIT"> F  </i>
    <v name="SAXIS">      0.00000000      0.00000000      1.00000000</v>
    <i type="logical" name="LSPIRAL"> F  </i>
    <v name="QSPIRAL">      0.00000000      0.00000000      0.00000000</v>
    <i type="logical" name="LZEROZ"> F  </i>
   </separator>
   <separator name="electronic exchange-correlation" >
    <i type="logical" name="LASPH"> F  </i>
    <i type="logical" name="LMETAGGA"> F  </i>
   </separator>
   <separator name="electronic convergence" >
    <i type="int" name="NELM">    40</i>
    <i type="int" name="NELMDL">     0</i>
    <i type="int" name="NELMIN">     8</i>
    <i name="ENINI">    520.00000000</i>
    <separator name="electronic convergence detail" >
     <i type="logical" name="LDIAG"> T  </i>
     <i type="logical" name="LSUBROT"> F  </i>
     <i name="WEIMIN">      0.00100000</i>
     <i name="EBREAK">      0.00000003</i>
     <i name="DEPER">      0.30000000</i>
     <i type="int" name="NRMM">     4</i>
     <i name="TIME">      0.40000000</i>
    </separator>
   </separator>
   <separator name="electronic mixer" >
    <i name="AMIX">      0.40000000</i>
    <i name="BMIX">      1.00000000</i>
    <i name="AMIN">      0.10000000</i>
    <i name="AMIX_MAG">      1.60000000</i>
    <i name="BMIX_MAG">      1.00000000</i>
    <separator name="electronic mixer details" >
     <i type="int" name="IMIX">     4</i>
     <i type="logical" name="MIXFIRST"> F  </i>
     <i type="int" name="MAXMIX">   -45</i>
     <i name="WC">    100.00000000</i>
     <i type="int" name="INIMIX">     1</i>
     <i type="int" name="MIXPRE">     1</i>
     <i type="int" name="MREMOVE">     5</i>
    </separator>
   </separator>
   <separator name="electronic dipolcorrection" >
    <i type="logical" name="LDIPOL"> F  </i>
    <i type="logical" name="LMONO"> F  </i>
    <i type="int" name="IDIPOL">     0</i>
    <i name="EPSILON">      1.00000000</i>
    <v name="DIPOL">   -100.00000000   -100.00000000   -100.00000000</v>
    <i name="EFIELD">      0.00000000</i>
   </separator>
  </separator>
  <separator name="grids" >
   <i type="int" name="NGX">    64</i>
   <i type="int" name="NGY">    64</i>
   <i type="int" name="NGZ">    90</i>
   <i type="int" name="NGXF">   128</i>
   <i type="int" name="NGYF">   128</i>
   <i type="int" name="NGZF">   180</i>
   <i type="logical" name="ADDGRID"> F  </i>
  </separator>
  <separator name="ionic" >
   <i type="int" name="NSW">    30</i>
   <i type="int" name="IBRION">     2</i>
   <i type="int" name="ISIF">     3</i>
   <i name="PSTRESS">      0.00000000</i>
   <i name="EDIFFG">     -0.03000000</i>
   <i type="int" name="NFREE">     1</i>
   <i name="POTIM">      0.50000000</i>
   <i name="SMASS">     -3.00000000</i>
   <i name="SCALEE">      1.00000000</i>
  </separator>
  <separator name="ionic md" >
   <i name="TEBEG">      0.00010000</i>
   <i name="TEEND">      0.00010000</i>
   <i type="int" name="NBLOCK">     1</i>
   <i type="int" name="KBLOCK">    30</i>
   <i type="int" name="NPACO">   256</i>
   <i name="APACO">     16.00000000</i>
  </separator>
  <separator name="symmetry" >
   <i type="int" name="ISYM">     2</i>
   <i name="SYMPREC">      0.00001000</i>
  </separator>
  <separator name="dos" >
   <i type="logical" name="LORBIT"> F  </i>
   <v name="RWIGS">     -1.00000000     -1.00000000     -1.00000000     -1.00000000</v>
   <i type="int" name="NEDOS">   301</i>
   <i name="EMIN">     10.00000000</i>
   <i name="EMAX">    -10.00000000</i>
   <i name="EFERMI">      0.00000000</i>
  </separator>
  <separator name="writing" >
   <i type="int" name="NWRITE">     2</i>
   <i type="logical" name="LWAVE"> T  </i>
   <i type="logical" name="LCHARG"> T  </i>
   <i type="logical" name="LPARD"> F  </i>
   <i type="logical" name="LVTOT"> F  </i>
   <i type="logical" name="LVHAR"> F  </i>
   <i type="logical" name="LELF"> F  </i>
   <i type="logical" name="LOPTICS"> F  </i>
   <v name="STM">      0.00000000      0.00000000      0.00000000      0.00000000      0.00000000      0.00000000      0.00000000</v>
  </separator>
  <separator name="performance" >
   <i type="int" name="NPAR">     2</i>
   <i type="int" name="NSIM">     4</i>
   <i type="int" name="NBLK">    -1</i>
   <i type="logical" name="LPLANE"> T  </i>
   <i type="logical" name="LSCALAPACK"> T  </i>
   <i type="logical" name="LSCAAWARE"> F  </i>
   <i type="logical" name="LSCALU"> F  </i>
   <i type="logical" name="LASYNC"> F  </i>
   <i type="logical" name="LORBITALREAL"> F  </i>
  </separator>
  <separator name="miscellaneous" >
   <i type="int" name="IDIOT">     3</i>
   <i type="logical" name="LMUSIC"> F  </i>
   <v name="POMASS">     87.62000000     47.88000000     55.84700000     16.00000000</v>
   <v name="DARWINR">      0.00000000      0.00000000      0.00000000      0.00000000</v>
   <v name="DARWINV">      1.00000000      1.00000000      1.00000000      1.00000000</v>
   <i type="logical" name="LCORR"> T  </i>
  </separator>
  <i type="logical" name="GGA_COMPAT"> T  </i>
  <i type="logical" name="LBERRY"> F  </i>
  <i type="int" name="ICORELEVEL">     0</i>
  <i type="logical" name="LDAU"> T  </i>
  <v type="int" name="LDAUTYPE">     2</v>
  <v type="int" name="LDAUL">     0</v>
  <v name="LDAUU">      0.00000000</v>
  <v name="LDAUJ">      0.00000000</v>
  <i type="int" name="LDAUPRINT">     1</i>
  <i type="int" name="I_CONSTRAINED_M">     0</i>
  <separator name="electronic exchange-correlation" >
   <i type="string" name="GGA">--</i>
   <i type="int" name="VOSKOWN">     0</i>
   <i type="logical" name="LHFCALC"> F  </i>
   <i type="string" name="PRECFOCK"></i>
   <i type="logical" name="LSYMGRAD"> F  </i>
   <i type="logical" name="LHFONE"> F  </i>
   <i type="logical" name="LRHFCALC"> F  </i>
   <i type="logical" name="LTHOMAS"> F  </i>
   <i type="logical" name="LMODELHF"> F  </i>
   <i name="ENCUT4O">     -1.00000000</i>
   <i type="int" name="EXXOEP">     0</i>
   <i type="int" name="FOURORBIT">     0</i>
   <i name="AEXX">      0.00000000</i>
   <i name="HFALPHA">      0.00000000</i>
   <i name="MCALPHA">      0.00000000</i>
   <i name="ALDAX">      1.00000000</i>
   <i name="AGGAX">      1.00000000</i>
   <i name="ALDAC">      1.00000000</i>
   <i name="AGGAC">      1.00000000</i>
   <i type="int" name="NKREDX">     1</i>
   <i type="int" name="NKREDY">     1</i>
   <i type="int" name="NKREDZ">     1</i>
   <i type="logical" name="SHIFTRED"> F  </i>
   <i type="logical" name="ODDONLY"> F  </i>
   <i type="logical" name="EVENONLY"> F  </i>
   <i type="int" name="LMAXFOCK">     0</i>
   <i type="int" name="NMAXFOCKAE">     0</i>
   <i type="logical" name="LFOCKAEDFT"> F  </i>
   <i name="HFSCREEN">      0.00000000</i>
   <i name="HFSCREENC">      0.00000000</i>
   <i type="int" name="NBANDSGWLOW">     0</i>
  </separator>
  <separator name="vdW DFT" >
   <i type="logical" name="LUSE_VDW"> F  </i>
   <i name="Zab_VDW">     -0.84910000</i>
   <i name="PARAM1">      0.12340000</i>
   <i name="PARAM2">      1.00000000</i>
   <i name="PARAM3">      0.00000000</i>
  </separator>
  <separator name="model GW" >
   <i type="int" name="MODEL_GW">     0</i>
   <i name="MODEL_EPS0">      7.89331670</i>
   <i name="MODEL_ALPHA">      1.00000000</i>
  </separator>
  <separator name="linear response parameters" >
   <i type="logical" name="LEPSILON"> F  </i>
   <i type="logical" name="LRPA"> F  </i>
   <i type="logical" name="LNABLA"> F  </i>
   <i type="logical" name="LVEL"> F  </i>
   <i type="int" name="KINTER">     0</i>
   <i name="CSHIFT">      0.10000000</i>
   <i name="OMEGAMAX">     -1.00000000</i>
   <i name="DEG_THRESHOLD">      0.00200000</i>
  </separator>
  <separator name="orbital magnetization" >
   <i type="logical" name="NUCIND"> F  </i>
   <v name="MAGPOS">      0.00000000      0.00000000      0.00000000</v>
   <i type="logical" name="LNICSALL"> T  </i>
   <i type="logical" name="ORBITALMAG"> F  </i>
   <i type="logical" name="LMAGBLOCH"> F  </i>
   <i type="logical" name="LCHIMAG"> F  </i>
   <i type="logical" name="LGAUGE"> T  </i>
   <i type="int" name="MAGATOM">     0</i>
   <v name="MAGDIPOL">      0.00000000      0.00000000      0.00000000</v>
   <v name="AVECCONST">      0.00000000      0.00000000      0.00000000</v>
  </separator>
  <separator name="response functions" >
   <i type="logical" name="LADDER"> F  </i>
   <i type="logical" name="LFXC"> F  </i>
   <i type="logical" name="LHARTREE"> T  </i>
   <i type="int" name="IBSE">     0</i>
   <v type="int" name="KPOINT">    -1     0     0     0</v>
   <i type="logical" name="LTCTE"> F  </i>
   <i type="logical" name="LTETE"> F  </i>
   <i type="logical" name="LTRIPLET"> F  </i>
   <i type="logical" name="LFXCEPS"> F  </i>
   <i type="logical" name="LFXHEG"> F  </i>
   <i type="int" name="NATURALO">     0</i>
   <i type="logical" name="L2ORDER"> F  </i>
   <i type="logical" name="LUSEW"> F  </i>
   <i name="ENCUTGW">     -2.00000000</i>
   <i name="ENCUTGWSOFT">     -2.00000000</i>
   <i name="ENCUTLF">     -1.00000000</i>
   <i type="int" name="LMAXMP2">    -1</i>
   <i name="SCISSOR">      0.00000000</i>
   <i type="int" name="NOMEGA">     0</i>
   <i type="int" name="NOMEGAR">     0</i>
   <i type="int" name="NBANDSGW">    -1</i>
   <i type="int" name="NBANDSO">    -1</i>
   <i type="int" name="NBANDSV">    -1</i>
   <i type="int" name="NELM">    40</i>
   <i type="int" name="NELMHF">     1</i>
   <i type="int" name="DIM">     3</i>
   <i type="int" name="ANTIRES">     0</i>
   <i name="OMEGAMAX">    -30.00000000</i>
   <i name="OMEGAMIN">    -30.00000000</i>
   <i name="OMEGATL">   -200.00000000</i>
   <i type="int" name="OMEGAGRID">     0</i>
   <i name="CSHIFT">     -0.10000000</i>
   <i type="logical" name="SELFENERGY"> F  </i>
   <i type="logical" name="LSPECTRAL"> F  </i>
   <i type="logical" name="LSPECTRALGW"> F  </i>
   <i type="logical" name="LSINGLES"> F  </i>
   <i type="logical" name="LFERMIGW"> F  </i>
   <i type="logical" name="ODDONLYGW"> F  </i>
   <i type="logical" name="EVENONLYGW"> F  </i>
   <i type="int" name="NKREDLFX">     1</i>
   <i type="int" name="NKREDLFY">     1</i>
   <i type="int" name="NKREDLFZ">     1</i>
   <i type="int" name="MAXMEM">  1800</i>
   <i type="int" name="TELESCOPE">     0</i>
   <i type="int" name="TAUPAR">     1</i>
   <i type="int" name="OMEGAPAR">    -1</i>
   <i name="LAMBDA">      1.00000000</i>
  </separator>
  <separator name="External order field" >
   <i name="OFIELD_KAPPA">      0.00000000</i>
   <v name="OFIELD_K">      0.00000000      0.00000000      0.00000000</v>
   <i name="OFIELD_Q6_NEAR">      0.00000000</i>
   <i name="OFIELD_Q6_FAR">      0.00000000</i>
   <i name="OFIELD_A">      0.00000000</i>
  </separator>
 </parameters>
 <atominfo>
  <atoms>     152 </atoms>
  <types>       4 </types>
  <array name="atoms" >
   <dimension dim="1">ion</dimension>
   <field type="string">element</field>
   <field type="int">atomtype</field>
   <set>
    <rc><c>Sr</c><c>   1</c></rc>
    <rc><c>Sr</c><c>   1</c></rc>
    <rc><c>Sr</c><c>   1</c></rc>
    <rc><c>Sr</c><c>   1</c></rc>
    <rc><c>Sr</c><c>   1</c></rc>
    <rc><c>Sr</c><c>   1</c></rc>
    <rc><c>Sr</c><c>   1</c></rc>
    <rc><c>Sr</c><c>   1</c></rc>
    <rc><c>Sr</c><c>   1</c></rc>
    <rc><c>Sr</c><c>   1</c></rc>
    <rc><c>Sr</c><c>   1</c></rc>
    <rc><c>Sr</c><c>   1</c></rc>
    <rc><c>Sr</c><c>   1</c></rc>
    <rc><c>Sr</c><c>   1</c></rc>
    <rc><c>Sr</c><c>   1</c></rc>
    <rc><c>Sr</c><c>   1</c></rc>
    <rc><c>Sr</c><c>   1</c></rc>
    <rc><c>Sr</c><c>   1</c></rc>
    <rc><c>Sr</c><c>   1</c></rc>
    <rc><c>Sr</c><c>   1</c></rc>
    <rc><c>Sr</c><c>   1</c></rc>
    <rc><c>Sr</c><c>   1</c></rc>
    <rc><c>Sr</c><c>   1</c></rc>
    <rc><c>Sr</c><c>   1</c></rc>
    <rc><c>Sr</c><c>   1</c></rc>
    <rc><c>Sr</c><c>   1</c></rc>
    <rc><c>Sr</c><c>   1</c></rc>
    <rc><c>Sr</c><c>   1</c></rc>
    <rc><c>Sr</c><c>   1</c></rc>
    <rc><c>Sr</c><c>   1</c></rc>
    <rc><c>Sr</c><c>   1</c></rc>
    <rc><c>Sr</c><c>   1</c></rc>
    <rc><c>Ti</c><c>   2</c></rc>
    <rc><c>Ti</c><c>   2</c></rc>
    <rc><c>Ti</c><c>   2</c></rc>
    <rc><c>Ti</c><c>   2</c></rc>
    <rc><c>Ti</c><c>   2</c></rc>
    <rc><c>Ti</c><c>   2</c></rc>
    <rc><c>Ti</c><c>   2</c></rc>
    <rc><c>Ti</c><c>   2</c></rc>
    <rc><c>Ti</c><c>   2</c></rc>
    <rc><c>Ti</c><c>   2</c></rc>
    <rc><c>Ti</c><c>   2</c></rc>
    <rc><c>Ti</c><c>   2</c></rc>
    <rc><c>Ti</c><c>   2</c></rc>
    <rc><c>Ti</c><c>   2</c></rc>
    <rc><c>Ti</c><c>   2</c></rc>
    <rc><c>Ti</c><c>   2</c></rc>
    <rc><c>Fe</c><c>   3</c></rc>
    <rc><c>Fe</c><c>   3</c></rc>
    <rc><c>Fe</c><c>   3</c></rc>
    <rc><c>Fe</c><c>   3</c></rc>
    <rc><c>Fe</c><c>   3</c></rc>
    <rc><c>Fe</c><c>   3</c></rc>
    <rc><c>Fe</c><c>   3</c></rc>
    <rc><c>Fe</c><c>   3</c></rc>
    <rc><c>Fe</c><c>   3</c></rc>
    <rc><c>Fe</c><c>   3</c></rc>
    <rc><c>Fe</c><c>   3</c></rc>
    <rc><c>Fe</c><c>   3</c></rc>
    <rc><c>Fe</c><c>   3</c></rc>
    <rc><c>Fe</c><c>   3</c></rc>
    <rc><c>Fe</c><c>   3</c></rc>
    <rc><c>Fe</c><c>   3</c></rc>
    <rc><c>O </c><c>   4</c></rc>
    <rc><c>O </c><c>   4</c></rc>
    <rc><c>O </c><c>   4</c></rc>
    <rc><c>O </c><c>   4</c></rc>
    <rc><c>O </c><c>   4</c></rc>
    <rc><c>O </c><c>   4</c></rc>
    <rc><c>O </c><c>   4</c></rc>
    <rc><c>O </c><c>   4</c></rc>
    <rc><c>O </c><c>   4</c></rc>
    <rc><c>O </c><c>   4</c></rc>
    <rc><c>O </c><c>   4</c></rc>
    <rc><c>O </c><c>   4</c></rc>
    <rc><c>O </c><c>   4</c></rc>
    <rc><c>O </c><c>   4</c></rc>
    <rc><c>O </c><c>   4</c></rc>
    <rc><c>O </c><c>   4</c></rc>
    <rc><c>O </c><c>   4</c></rc>
    <rc><c>O </c><c>   4</c></rc>
    <rc><c>O </c><c>   4</c></rc>
    <rc><c>O </c><c>   4</c></rc>
    <rc><c>O </c><c>   4</c></rc>
    <rc><c>O </c><c>   4</c></rc>
    <rc><c>O </c><c>   4</c></rc>
    <rc><c>O </c><c>   4</c></rc>
    <rc><c>O </c><c>   4</c></rc>
    <rc><c>O </c><c>   4</c></rc>
    <rc><c>O </c><c>   4</c></rc>
    <rc><c>O </c><c>   4</c></rc>
    <rc><c>O </c><c>   4</c></rc>
    <rc><c>O </c><c>   4</c></rc>
    <rc><c>O </c><c>   4</c></rc>
    <rc><c>O </c><c>   4</c></rc>
    <rc><c>O </c><c>   4</c></rc>
    <rc><c>O </c><c>   4</c></rc>
    <rc><c>O </c><c>   4</c></rc>
    <rc><c>O </c><c>   4</c></rc>
    <rc><c>O </c><c>   4</c></rc>
    <rc><c>O </c><c>   4</c></rc>
    <rc><c>O </c><c>   4</c></rc>
    <rc><c>O </c><c>   4</c></rc>
    <rc><c>O </c><c>   4</c></rc>
    <rc><c>O </c><c>   4</c></rc>
    <rc><c>O </c><c>   4</c></rc>
    <rc><c>O </c><c>   4</c></rc>
    <rc><c>O </c><c>   4</c></rc>
    <rc><c>O </c><c>   4</c></rc>
    <rc><c>O </c><c>   4</c></rc>
    <rc><c>O </c><c>   4</c></rc>
    <rc><c>O </c><c>   4</c></rc>
    <rc><c>O </c><c>   4</c></rc>
    <rc><c>O </c><c>   4</c></rc>
    <rc><c>O </c><c>   4</c></rc>
    <rc><c>O </c><c>   4</c></rc>
    <rc><c>O </c><c>   4</c></rc>
    <rc><c>O </c><c>   4</c></rc>
    <rc><c>O </c><c>   4</c></rc>
    <rc><c>O </c><c>   4</c></rc>
    <rc><c>O </c><c>   4</c></rc>
    <rc><c>O </c><c>   4</c></rc>
    <rc><c>O </c><c>   4</c></rc>
    <rc><c>O </c><c>   4</c></rc>
    <rc><c>O </c><c>   4</c></rc>
    <rc><c>O </c><c>   4</c></rc>
    <rc><c>O </c><c>   4</c></rc>
    <rc><c>O </c><c>   4</c></rc>
    <rc><c>O </c><c>   4</c></rc>
    <rc><c>O </c><c>   4</c></rc>
    <rc><c>O </c><c>   4</c></rc>
    <rc><c>O </c><c>   4</c></rc>
    <rc><c>O </c><c>   4</c></rc>
    <rc><c>O </c><c>   4</c></rc>
    <rc><c>O </c><c>   4</c></rc>
    <rc><c>O </c><c>   4</c></rc>
    <rc><c>O </c><c>   4</c></rc>
    <rc><c>O </c><c>   4</c></rc>
    <rc><c>O </c><c>   4</c></rc>
    <rc><c>O </c><c>   4</c></rc>
    <rc><c>O </c><c>   4</c></rc>
    <rc><c>O </c><c>   4</c></rc>
    <rc><c>O </c><c>   4</c></rc>
    <rc><c>O </c><c>   4</c></rc>
    <rc><c>O </c><c>   4</c></rc>
    <rc><c>O </c><c>   4</c></rc>
    <rc><c>O </c><c>   4</c></rc>
    <rc><c>O </c><c>   4</c></rc>
    <rc><c>O </c><c>   4</c></rc>
    <rc><c>O </c><c>   4</c></rc>
    <rc><c>O </c><c>   4</c></rc>
   </set>
  </array>
  <array name="atomtypes" >
   <dimension dim="1">type</dimension>
   <field type="int">atomspertype</field>
   <field type="string">element</field>
   <field>mass</field>
   <field>valence</field>
   <field type="string">pseudopotential</field>
   <set>
    <rc><c>  32</c><c>Sr</c><c>     87.62000000</c><c>     10.00000000</c><c>  PAW_PBE Sr_sv 07Sep2000               </c></rc>
    <rc><c>  16</c><c>Ti</c><c>     47.88000000</c><c>      4.00000000</c><c>  PAW_PBE Ti 08Apr2002                  </c></rc>
    <rc><c>  16</c><c>Fe</c><c>     55.84700000</c><c>      8.00000000</c><c>  PAW_PBE Fe 06Sep2000                  </c></rc>
    <rc><c>  88</c><c>O </c><c>     16.00000000</c><c>      6.00000000</c><c>  PAW_PBE O 08Apr2002                   </c></rc>
   </set>
  </array>
 </atominfo>
 <structure name="initialpos" >
  <crystal>
   <varray name="basis" >
    <v>      11.22435750       0.01797096       0.01175450 </v>
    <v>       0.01818305      11.26297158      -0.01685563 </v>
    <v>       0.01690759      -0.02492570      15.81757936 </v>
   </varray>
   <i name="volume">   1999.64023188 </i>
   <varray name="rec_basis" >
    <v>       0.08909229      -0.00014397      -0.00009546 </v>
    <v>      -0.00014230       0.08878695       0.00014006 </v>
    <v>      -0.00006636       0.00009472       0.06322102 </v>
   </varray>
  </crystal>
  <varray name="positions" >
   <v>       0.99619106       0.23994338       0.12558915 </v>
   <v>       0.99510565       0.23962806       0.62170179 </v>
   <v>       0.00524197       0.75742944       0.12119564 </v>
   <v>       0.99968514       0.75147150       0.62212984 </v>
   <v>       0.51058580       0.25594024       0.11805893 </v>
   <v>       0.50078784       0.23487618       0.63130524 </v>
   <v>       0.49812281       0.75021918       0.11108982 </v>
   <v>       0.49656899       0.76313215       0.63431230 </v>
   <v>       0.99396971       0.24519487       0.38014759 </v>
   <v>       0.99883372       0.24231415       0.87193733 </v>
   <v>       0.99870730       0.75036318       0.37364606 </v>
   <v>       0.00762439       0.75809925       0.87422242 </v>
   <v>       0.50266409       0.23542879       0.37033884 </v>
   <v>       0.50323342       0.25203257       0.87455418 </v>
   <v>       0.49839234       0.76548609       0.37064806 </v>
   <v>       0.48928220       0.74895962       0.87518453 </v>
   <v>       0.24426946       0.98957300       0.11807697 </v>
   <v>       0.24822369       0.99539182       0.62519626 </v>
   <v>       0.25704520       0.50338101       0.11575955 </v>
   <v>       0.24573170       0.50180366       0.62901955 </v>
   <v>       0.75361642       0.00639626       0.12195641 </v>
   <v>       0.75021709       0.00592678       0.62409520 </v>
   <v>       0.74367043       0.49165122       0.12283906 </v>
   <v>       0.74728936       0.49199364       0.62892411 </v>
   <v>       0.24079742       0.00584605       0.37732897 </v>
   <v>       0.24780970       0.99355521       0.87153336 </v>
   <v>       0.23657403       0.49075046       0.37263806 </v>
   <v>       0.25899666       0.50154013       0.87837563 </v>
   <v>       0.76159110       0.00650659       0.37511354 </v>
   <v>       0.75169744       0.00810851       0.87221933 </v>
   <v>       0.75737050       0.49031248       0.37056692 </v>
   <v>       0.73902346       0.49223171       0.87705363 </v>
   <v>       0.00187027       0.99879058       0.00017290 </v>
   <v>       0.49285059       0.00414280       0.00186397 </v>
   <v>       0.49873500       0.00070656       0.49539316 </v>
   <v>       0.49852182       0.53048937       0.49443537 </v>
   <v>       0.75127367       0.25193275       0.99702141 </v>
   <v>       0.24970577       0.25016074       0.74551836 </v>
   <v>       0.25107473       0.74829164       0.24167999 </v>
   <v>       0.74959934       0.24836071       0.24917289 </v>
   <v>       0.75357557       0.74684787       0.24087927 </v>
   <v>       0.75101009       0.74820040       0.75158595 </v>
   <v>       0.99933367       0.99717195       0.74521521 </v>
   <v>       0.99878053       0.49925434       0.24325565 </v>
   <v>       0.99612757       0.50171388       0.76235184 </v>
   <v>       0.49928215       0.99946686       0.75323668 </v>
   <v>       0.49831264       0.49719182       0.25109609 </v>
   <v>       0.49955151       0.49802882       0.75193419 </v>
   <v>       0.00091022       0.99158293       0.49522626 </v>
   <v>       0.00990016       0.48910326       0.00624057 </v>
   <v>       0.99665848       0.49957465       0.48872930 </v>
   <v>       0.50088119       0.50269061       0.00005586 </v>
   <v>       0.25123422       0.24673665       0.99043736 </v>
   <v>       0.23861635       0.23734975       0.50508499 </v>
   <v>       0.24766310       0.74561968       0.99287208 </v>
   <v>       0.24466826       0.75363049       0.50873709 </v>
   <v>       0.75903010       0.23828482       0.50117169 </v>
   <v>       0.73917270       0.75865368       0.99179433 </v>
   <v>       0.75229987       0.75797095       0.50922670 </v>
   <v>       0.24006358       0.26181525       0.25720325 </v>
   <v>       0.24765105       0.74738659       0.74861945 </v>
   <v>       0.74992365       0.25040192       0.74567813 </v>
   <v>       0.00543528       0.99934932       0.25108595 </v>
   <v>       0.51401176       0.98588808       0.25043295 </v>
   <v>       0.14788454       0.12018254       0.23509026 </v>
   <v>       0.12119343       0.12961783       0.73640579 </v>
   <v>       0.12478547       0.62742110       0.26013627 </v>
   <v>       0.11387151       0.62026003       0.73142781 </v>
   <v>       0.61298570       0.13328121       0.24852300 </v>
   <v>       0.62112685       0.12446961       0.75054354 </v>
   <v>       0.62244340       0.62902803       0.27313011 </v>
   <v>       0.62075234       0.62558456       0.73492979 </v>
   <v>       0.38221078       0.36392259       0.23928107 </v>
   <v>       0.38020825       0.36974284       0.75685414 </v>
   <v>       0.37304011       0.86967521       0.25731513 </v>
   <v>       0.38126366       0.87088127       0.75394579 </v>
   <v>       0.87571142       0.37392569       0.24451172 </v>
   <v>       0.88528647       0.37574201       0.73433819 </v>
   <v>       0.87402592       0.86552759       0.26209291 </v>
   <v>       0.87645399       0.87027628       0.75833251 </v>
   <v>       0.36944346       0.11880869       0.73771391 </v>
   <v>       0.36828258       0.62042064       0.27676960 </v>
   <v>       0.37488031       0.61594025       0.73387391 </v>
   <v>       0.87049083       0.12522224       0.24761383 </v>
   <v>       0.87225205       0.12082847       0.73906700 </v>
   <v>       0.86626844       0.62475288       0.27201306 </v>
   <v>       0.87375557       0.61828895       0.72561852 </v>
   <v>       0.12252065       0.38601301       0.21908621 </v>
   <v>       0.12668906       0.38171656       0.75431062 </v>
   <v>       0.13062934       0.86680389       0.26191637 </v>
   <v>       0.12639547       0.87842012       0.75689186 </v>
   <v>       0.62941766       0.38347219       0.24818785 </v>
   <v>       0.62834582       0.38062801       0.75362986 </v>
   <v>       0.63629092       0.87226614       0.26682052 </v>
   <v>       0.62647395       0.87322285       0.76807964 </v>
   <v>       0.37154761       0.37499484       0.00612453 </v>
   <v>       0.49821359       0.46043442       0.60121636 </v>
   <v>       0.37250063       0.87800169       0.99604612 </v>
   <v>       0.37354426       0.87171210       0.48946377 </v>
   <v>       0.86936070       0.38372692       0.00176023 </v>
   <v>       0.86936277       0.38390526       0.50788280 </v>
   <v>       0.87909644       0.86205453       0.99431082 </v>
   <v>       0.87258045       0.86812571       0.47894556 </v>
   <v>       0.12531089       0.12426652       0.01214620 </v>
   <v>       0.12596771       0.11672353       0.51044773 </v>
   <v>       0.11381950       0.62669883       0.00194569 </v>
   <v>       0.11990797       0.62104017       0.50106429 </v>
   <v>       0.62474097       0.12409113       0.00005952 </v>
   <v>       0.62003493       0.13094607       0.49362718 </v>
   <v>       0.64234258       0.61658259       0.00266161 </v>
   <v>       0.63075648       0.62815145       0.48875610 </v>
   <v>       0.12651719       0.36867560       0.01398843 </v>
   <v>       0.11668606       0.38166252       0.51449695 </v>
   <v>       0.12614008       0.87592512       0.99610837 </v>
   <v>       0.12771469       0.86546690       0.47677997 </v>
   <v>       0.62085755       0.37085587       0.99809474 </v>
   <v>       0.61901131       0.87537989       0.99103885 </v>
   <v>       0.62722961       0.87647989       0.47728298 </v>
   <v>       0.37130437       0.12991886       0.02421745 </v>
   <v>       0.37927464       0.12999432       0.51030190 </v>
   <v>       0.37914252       0.62785243       0.00128982 </v>
   <v>       0.36170024       0.62244889       0.48436560 </v>
   <v>       0.87334892       0.12267638       0.00395609 </v>
   <v>       0.87714336       0.12138715       0.50540064 </v>
   <v>       0.87507769       0.62399579       0.49999818 </v>
   <v>       0.99446465       0.98652572       0.12615740 </v>
   <v>       0.99837486       0.97483208       0.62209951 </v>
   <v>       0.96795603       0.53502936       0.12318289 </v>
   <v>       0.50101181       0.98849656       0.12904675 </v>
   <v>       0.51271416       0.98480833       0.62288728 </v>
   <v>       0.50031969       0.51846813       0.13279486 </v>
   <v>       0.00508981       0.02135003       0.37180567 </v>
   <v>       0.00141611       0.01468160       0.87455048 </v>
   <v>       0.00678084       0.47805979       0.36946524 </v>
   <v>       0.98154001       0.51551189       0.87903312 </v>
   <v>       0.47621448       0.01661073       0.36872425 </v>
   <v>       0.48244163       0.02116722       0.87740409 </v>
   <v>       0.50137749       0.45010389       0.39245260 </v>
   <v>       0.49827958       0.51172431       0.87222240 </v>
   <v>       0.25964792       0.26285996       0.38609844 </v>
   <v>       0.24849141       0.23532207       0.87150239 </v>
   <v>       0.24900913       0.73041817       0.87011164 </v>
   <v>       0.74857686       0.26098706       0.37719233 </v>
   <v>       0.76034867       0.24903788       0.87328875 </v>
   <v>       0.76719320       0.71763251       0.87260118 </v>
   <v>       0.26286196       0.27534760       0.62318518 </v>
   <v>       0.25312715       0.74522867       0.12553257 </v>
   <v>       0.24944930       0.76342298       0.62447806 </v>
   <v>       0.74602088       0.25016454       0.12414488 </v>
   <v>       0.72872719       0.26159313       0.61881836 </v>
   <v>       0.75593726       0.74308514       0.12384218 </v>
   <v>       0.74136732       0.77573508       0.62598103 </v>
  </varray>
 </structure>
 <calculation>
  <scstep>
   <time name="dav">  598.23  598.25</time>
   <time name="total">  605.38  605.50</time>
   <energy>
    <i name="alphaZ">   5632.13187699 </i>
    <i name="ewald"> -62179.74194947 </i>
    <i name="hartreedc"> -17460.32229192 </i>
    <i name="XCdc">   3183.88173332 </i>
    <i name="pawpsdc"> 114361.34399288 </i>
    <i name="pawaedc">-113562.81903770 </i>
    <i name="eentropy">     -0.00000014 </i>
    <i name="bandstr">  -7079.63265516 </i>
    <i name="atom">  76050.17612637 </i>
    <i name="e_fr_energy">  -1054.98220484 </i>
    <i name="e_wo_entrp">  -1054.98220470 </i>
    <i name="e_0_energy">  -1054.98220477 </i>
   </energy>
  </scstep>
  <scstep>
   <time name="diag">   64.71   64.72</time>
   <time name="diis">   61.12   61.14</time>
   <time name="orth">   33.29   33.29</time>
   <time name="total">  166.25  166.32</time>
   <energy>
    <i name="e_fr_energy">  -1054.98220450 </i>
    <i name="e_wo_entrp">  -1054.98220436 </i>
    <i name="e_0_energy">  -1054.98220443 </i>
   </energy>
  </scstep>
  <scstep>
   <time name="diag">   64.71   64.71</time>
   <time name="diis">   57.84   57.84</time>
   <time name="orth">   33.25   33.25</time>
   <time name="total">  162.93  163.03</time>
   <energy>
    <i name="e_fr_energy">  -1054.98220465 </i>
    <i name="e_wo_entrp">  -1054.98220451 </i>
    <i name="e_0_energy">  -1054.98220458 </i>
   </energy>
  </scstep>
  <scstep>
   <time name="diag">   64.82   64.82</time>
   <time name="diis">   46.91   46.93</time>
   <time name="orth">   33.28   33.28</time>
   <time name="total">  152.17  152.21</time>
   <energy>
    <i name="e_fr_energy">  -1054.98220474 </i>
    <i name="e_wo_entrp">  -1054.98220460 </i>
    <i name="e_0_energy">  -1054.98220467 </i>
   </energy>
  </scstep>
  <scstep>
   <time name="diag">   64.68   64.72</time>
   <time name="diis">   46.01   46.01</time>
   <time name="orth">   33.22   33.22</time>
   <time name="total">  151.04  151.23</time>
   <energy>
    <i name="e_fr_energy">  -1054.98220482 </i>
    <i name="e_wo_entrp">  -1054.98220468 </i>
    <i name="e_0_energy">  -1054.98220475 </i>
   </energy>
  </scstep>
  <scstep>
   <time name="diag">   64.65   64.71</time>
   <time name="diis">   43.79   43.85</time>
   <time name="orth">   33.26   33.26</time>
   <time name="total">  148.83  149.01</time>
   <energy>
    <i name="e_fr_energy">  -1054.98220486 </i>
    <i name="e_wo_entrp">  -1054.98220473 </i>
    <i name="e_0_energy">  -1054.98220480 </i>
   </energy>
  </scstep>
  <scstep>
   <time name="diag">   64.70   64.73</time>
   <time name="diis">   43.35   43.40</time>
   <time name="orth">   33.23   33.23</time>
   <time name="total">  148.57  148.83</time>
   <energy>
    <i name="e_fr_energy">  -1054.98220489 </i>
    <i name="e_wo_entrp">  -1054.98220475 </i>
    <i name="e_0_energy">  -1054.98220482 </i>
   </energy>
  </scstep>
  <scstep>
   <time name="diag">   64.77   64.77</time>
   <time name="diis">   42.61   42.65</time>
   <time name="orth">   33.23   33.23</time>
   <time name="total">  141.66  141.81</time>
   <energy>
    <i name="alphaZ">   5632.13187699 </i>
    <i name="ewald"> -62179.74194947 </i>
    <i name="hartreedc"> -17460.32506169 </i>
    <i name="XCdc">   3183.88132231 </i>
    <i name="pawpsdc"> 114360.92870540 </i>
    <i name="pawaedc">-113562.40514002 </i>
    <i name="eentropy">     -0.00000014 </i>
    <i name="bandstr">  -7079.62808469 </i>
    <i name="atom">  76050.17612637 </i>
    <i name="e_fr_energy">  -1054.98220493 </i>
    <i name="e_wo_entrp">  -1054.98220479 </i>
    <i name="e_0_energy">  -1054.98220486 </i>
   </energy>
  </scstep>
  <structure>
   <crystal>
    <varray name="basis" >
     <v>      11.22435750       0.01797096       0.01175450 </v>
     <v>       0.01818305      11.26297158      -0.01685563 </v>
     <v>       0.01690759      -0.02492570      15.81757936 </v>
    </varray>
    <i name="volume">   1999.64023188 </i>
    <varray name="rec_basis" >
     <v>       0.08909229      -0.00014397      -0.00009546 </v>
     <v>      -0.00014230       0.08878695       0.00014006 </v>
     <v>      -0.00006636       0.00009472       0.06322102 </v>
    </varray>
   </crystal>
   <varray name="positions" >
    <v>       0.99619106       0.23994338       0.12558915 </v>
    <v>       0.99510565       0.23962806       0.62170179 </v>
    <v>       0.00524197       0.75742944       0.12119564 </v>
    <v>       0.99968514       0.75147150       0.62212984 </v>
    <v>       0.51058580       0.25594024       0.11805893 </v>
    <v>       0.50078784       0.23487618       0.63130524 </v>
    <v>       0.49812281       0.75021918       0.11108982 </v>
    <v>       0.49656899       0.76313215       0.63431230 </v>
    <v>       0.99396971       0.24519487       0.38014759 </v>
    <v>       0.99883372       0.24231415       0.87193733 </v>
    <v>       0.99870730       0.75036318       0.37364606 </v>
    <v>       0.00762439       0.75809925       0.87422242 </v>
    <v>       0.50266409       0.23542879       0.37033884 </v>
    <v>       0.50323342       0.25203257       0.87455418 </v>
    <v>       0.49839234       0.76548609       0.37064806 </v>
    <v>       0.48928220       0.74895962       0.87518453 </v>
    <v>       0.24426946       0.98957300       0.11807697 </v>
    <v>       0.24822369       0.99539182       0.62519626 </v>
    <v>       0.25704520       0.50338101       0.11575955 </v>
    <v>       0.24573170       0.50180366       0.62901955 </v>
    <v>       0.75361642       0.00639626       0.12195641 </v>
    <v>       0.75021709       0.00592678       0.62409520 </v>
    <v>       0.74367043       0.49165122       0.12283906 </v>
    <v>       0.74728936       0.49199364       0.62892411 </v>
    <v>       0.24079742       0.00584605       0.37732897 </v>
    <v>       0.24780970       0.99355521       0.87153336 </v>
    <v>       0.23657403       0.49075046       0.37263806 </v>
    <v>       0.25899666       0.50154013       0.87837563 </v>
    <v>       0.76159110       0.00650659       0.37511354 </v>
    <v>       0.75169744       0.00810851       0.87221933 </v>
    <v>       0.75737050       0.49031248       0.37056692 </v>
    <v>       0.73902346       0.49223171       0.87705363 </v>
    <v>       0.00187027       0.99879058       0.00017290 </v>
    <v>       0.49285059       0.00414280       0.00186397 </v>
    <v>       0.49873500       0.00070656       0.49539316 </v>
    <v>       0.49852182       0.53048937       0.49443537 </v>
    <v>       0.75127367       0.25193275       0.99702141 </v>
    <v>       0.24970577       0.25016074       0.74551836 </v>
    <v>       0.25107473       0.74829164       0.24167999 </v>
    <v>       0.74959934       0.24836071       0.24917289 </v>
    <v>       0.75357557       0.74684787       0.24087927 </v>
    <v>       0.75101009       0.74820040       0.75158595 </v>
    <v>       0.99933367       0.99717195       0.74521521 </v>
    <v>       0.99878053       0.49925434       0.24325565 </v>
    <v>       0.99612757       0.50171388       0.76235184 </v>
    <v>       0.49928215       0.99946686       0.75323668 </v>
    <v>       0.49831264       0.49719182       0.25109609 </v>
    <v>       0.49955151       0.49802882       0.75193419 </v>
    <v>       0.00091022       0.99158293       0.49522626 </v>
    <v>       0.00990016       0.48910326       0.00624057 </v>
    <v>       0.99665848       0.49957465       0.48872930 </v>
    <v>       0.50088119       0.50269061       0.00005586 </v>
    <v>       0.25123422       0.24673665       0.99043736 </v>
    <v>       0.23861635       0.23734975       0.50508499 </v>
    <v>       0.24766310       0.74561968       0.99287208 </v>
    <v>       0.24466826       0.75363049       0.50873709 </v>
    <v>       0.75903010       0.23828482       0.50117169 </v>
    <v>       0.73917270       0.75865368       0.99179433 </v>
    <v>       0.75229987       0.75797095       0.50922670 </v>
    <v>       0.24006358       0.26181525       0.25720325 </v>
    <v>       0.24765105       0.74738659       0.74861945 </v>
    <v>       0.74992365       0.25040192       0.74567813 </v>
    <v>       0.00543528       0.99934932       0.25108595 </v>
    <v>       0.51401176       0.98588808       0.25043295 </v>
    <v>       0.14788454       0.12018254       0.23509026 </v>
    <v>       0.12119343       0.12961783       0.73640579 </v>
    <v>       0.12478547       0.62742110       0.26013627 </v>
    <v>       0.11387151       0.62026003       0.73142781 </v>
    <v>       0.61298570       0.13328121       0.24852300 </v>
    <v>       0.62112685       0.12446961       0.75054354 </v>
    <v>       0.62244340       0.62902803       0.27313011 </v>
    <v>       0.62075234       0.62558456       0.73492979 </v>
    <v>       0.38221078       0.36392259       0.23928107 </v>
    <v>       0.38020825       0.36974284       0.75685414 </v>
    <v>       0.37304011       0.86967521       0.25731513 </v>
    <v>       0.38126366       0.87088127       0.75394579 </v>
    <v>       0.87571142       0.37392569       0.24451172 </v>
    <v>       0.88528647       0.37574201       0.73433819 </v>
    <v>       0.87402592       0.86552759       0.26209291 </v>
    <v>       0.87645399       0.87027628       0.75833251 </v>
    <v>       0.36944346       0.11880869       0.73771391 </v>
    <v>       0.36828258       0.62042064       0.27676960 </v>
    <v>       0.37488031       0.61594025       0.73387391 </v>
    <v>       0.87049083       0.12522224       0.24761383 </v>
    <v>       0.87225205       0.12082847       0.73906700 </v>
    <v>       0.86626844       0.62475288       0.27201306 </v>
    <v>       0.87375557       0.61828895       0.72561852 </v>
    <v>       0.12252065       0.38601301       0.21908621 </v>
    <v>       0.12668906       0.38171656       0.75431062 </v>
    <v>       0.13062934       0.86680389       0.26191637 </v>
    <v>       0.12639547       0.87842012       0.75689186 </v>
    <v>       0.62941766       0.38347219       0.24818785 </v>
    <v>       0.62834582       0.38062801       0.75362986 </v>
    <v>       0.63629092       0.87226614       0.26682052 </v>
    <v>       0.62647395       0.87322285       0.76807964 </v>
    <v>       0.37154761       0.37499484       0.00612453 </v>
    <v>       0.49821359       0.46043442       0.60121636 </v>
    <v>       0.37250063       0.87800169       0.99604612 </v>
    <v>       0.37354426       0.87171210       0.48946377 </v>
    <v>       0.86936070       0.38372692       0.00176023 </v>
    <v>       0.86936277       0.38390526       0.50788280 </v>
    <v>       0.87909644       0.86205453       0.99431082 </v>
    <v>       0.87258045       0.86812571       0.47894556 </v>
    <v>       0.12531089       0.12426652       0.01214620 </v>
    <v>       0.12596771       0.11672353       0.51044773 </v>
    <v>       0.11381950       0.62669883       0.00194569 </v>
    <v>       0.11990797       0.62104017       0.50106429 </v>
    <v>       0.62474097       0.12409113       0.00005952 </v>
    <v>       0.62003493       0.13094607       0.49362718 </v>
    <v>       0.64234258       0.61658259       0.00266161 </v>
    <v>       0.63075648       0.62815145       0.48875610 </v>
    <v>       0.12651719       0.36867560       0.01398843 </v>
    <v>       0.11668606       0.38166252       0.51449695 </v>
    <v>       0.12614008       0.87592512       0.99610837 </v>
    <v>       0.12771469       0.86546690       0.47677997 </v>
    <v>       0.62085755       0.37085587       0.99809474 </v>
    <v>       0.61901131       0.87537989       0.99103885 </v>
    <v>       0.62722961       0.87647989       0.47728298 </v>
    <v>       0.37130437       0.12991886       0.02421745 </v>
    <v>       0.37927464       0.12999432       0.51030190 </v>
    <v>       0.37914252       0.62785243       0.00128982 </v>
    <v>       0.36170024       0.62244889       0.48436560 </v>
    <v>       0.87334892       0.12267638       0.00395609 </v>
    <v>       0.87714336       0.12138715       0.50540064 </v>
    <v>       0.87507769       0.62399579       0.49999818 </v>
    <v>       0.99446465       0.98652572       0.12615740 </v>
    <v>       0.99837486       0.97483208       0.62209951 </v>
    <v>       0.96795603       0.53502936       0.12318289 </v>
    <v>       0.50101181       0.98849656       0.12904675 </v>
    <v>       0.51271416       0.98480833       0.62288728 </v>
    <v>       0.50031969       0.51846813       0.13279486 </v>
    <v>       0.00508981       0.02135003       0.37180567 </v>
    <v>       0.00141611       0.01468160       0.87455048 </v>
    <v>       0.00678084       0.47805979       0.36946524 </v>
    <v>       0.98154001       0.51551189       0.87903312 </v>
    <v>       0.47621448       0.01661073       0.36872425 </v>
    <v>       0.48244163       0.02116722       0.87740409 </v>
    <v>       0.50137749       0.45010389       0.39245260 </v>
    <v>       0.49827958       0.51172431       0.87222240 </v>
    <v>       0.25964792       0.26285996       0.38609844 </v>
    <v>       0.24849141       0.23532207       0.87150239 </v>
    <v>       0.24900913       0.73041817       0.87011164 </v>
    <v>       0.74857686       0.26098706       0.37719233 </v>
    <v>       0.76034867       0.24903788       0.87328875 </v>
    <v>       0.76719320       0.71763251       0.87260118 </v>
    <v>       0.26286196       0.27534760       0.62318518 </v>
    <v>       0.25312715       0.74522867       0.12553257 </v>
    <v>       0.24944930       0.76342298       0.62447806 </v>
    <v>       0.74602088       0.25016454       0.12414488 </v>
    <v>       0.72872719       0.26159313       0.61881836 </v>
    <v>       0.75593726       0.74308514       0.12384218 </v>
    <v>       0.74136732       0.77573508       0.62598103 </v>
   </varray>
  </structure>
  <varray name="forces" >
   <v>      -0.01041852      -0.00685684       0.00662152 </v>
   <v>      -0.00726921      -0.00015376       0.00143032 </v>
   <v>      -0.00143560      -0.00064370       0.00105847 </v>
   <v>      -0.00108049       0.00652287      -0.00496309 </v>
   <v>       0.00753706       0.01502396       0.00869841 </v>
   <v>       0.00047778      -0.00311172      -0.00558050 </v>
   <v>       0.00929104      -0.00574729      -0.01707786 </v>
   <v>      -0.00424496       0.00770041       0.00631873 </v>
   <v>      -0.00176667      -0.00699087       0.00556858 </v>
   <v>      -0.00266549      -0.00433699      -0.00692538 </v>
   <v>       0.00273363       0.00128518       0.01401386 </v>
   <v>       0.00014001      -0.00226428      -0.00547994 </v>
   <v>       0.00552951       0.00348090      -0.00751733 </v>
   <v>      -0.00224999       0.00473794       0.00362241 </v>
   <v>       0.00941915       0.00076441       0.00923068 </v>
   <v>      -0.01070794      -0.00851867      -0.00068277 </v>
   <v>      -0.00757554       0.00269604      -0.00183176 </v>
   <v>       0.00010638       0.00399103      -0.00312226 </v>
   <v>       0.00060330      -0.00615260      -0.01224445 </v>
   <v>       0.01111025       0.00766912      -0.01073722 </v>
   <v>       0.00523643      -0.00868507       0.01396742 </v>
   <v>      -0.00584649       0.00561970       0.00419663 </v>
   <v>      -0.00448976      -0.01186154       0.01061275 </v>
   <v>       0.00379372      -0.00252144      -0.00244601 </v>
   <v>      -0.00481376       0.00591677       0.00783137 </v>
   <v>       0.00051021      -0.00680447      -0.00273146 </v>
   <v>      -0.02156960      -0.01654899       0.01273427 </v>
   <v>       0.00738047       0.00033309       0.00894029 </v>
   <v>       0.01301283      -0.00122840       0.00806254 </v>
   <v>       0.00867678      -0.00322425      -0.00802833 </v>
   <v>      -0.01279233      -0.00750407      -0.00506136 </v>
   <v>       0.00217600      -0.00384750       0.00267427 </v>
   <v>       0.01578430      -0.00452024       0.00711537 </v>
   <v>      -0.00129151      -0.02124701      -0.01875198 </v>
   <v>       0.00266378       0.00850886       0.00426019 </v>
   <v>      -0.01158377       0.02932500       0.03364741 </v>
   <v>      -0.00864972       0.02085063       0.00977114 </v>
   <v>       0.00730334      -0.00341427      -0.03852158 </v>
   <v>      -0.00325668       0.00156598      -0.02151436 </v>
   <v>      -0.00852980       0.03102076       0.00460722 </v>
   <v>       0.00562886       0.00113739      -0.03301203 </v>
   <v>       0.00525435       0.00026123       0.00108786 </v>
   <v>      -0.00539797       0.00894475       0.00342179 </v>
   <v>      -0.02100961      -0.01477107      -0.00817752 </v>
   <v>      -0.01269684       0.01736210       0.02362811 </v>
   <v>      -0.00356282      -0.00994758       0.00257328 </v>
   <v>       0.05472993      -0.03283901      -0.02326489 </v>
   <v>      -0.01523766       0.02944359       0.01107349 </v>
   <v>      -0.00984219       0.00823767      -0.00590149 </v>
   <v>       0.02443815      -0.00429037      -0.02351997 </v>
   <v>       0.02554246      -0.00722752      -0.00812692 </v>
   <v>      -0.01238287       0.00371885      -0.00653239 </v>
   <v>      -0.00561065       0.01957065       0.00411379 </v>
   <v>      -0.00876742      -0.00024106      -0.01204790 </v>
   <v>       0.01574446      -0.01714756      -0.01483609 </v>
   <v>      -0.00205587      -0.00347227       0.01054445 </v>
   <v>      -0.01098050       0.01066502      -0.00917295 </v>
   <v>      -0.01263371      -0.01060957       0.00799129 </v>
   <v>      -0.00170923      -0.01419950      -0.00836835 </v>
   <v>       0.00461214      -0.00689110       0.01870446 </v>
   <v>       0.01774790      -0.00537260       0.01164058 </v>
   <v>      -0.00012095      -0.00818101      -0.01494805 </v>
   <v>      -0.01034209      -0.00204280      -0.01587904 </v>
   <v>       0.01018245       0.00442583       0.00986979 </v>
   <v>       0.01704281       0.00589311       0.00100801 </v>
   <v>       0.01605854       0.01774352      -0.00467984 </v>
   <v>       0.01072631      -0.00515767       0.00446377 </v>
   <v>       0.00797707      -0.00782930       0.01092129 </v>
   <v>      -0.01695182      -0.01830270      -0.00060241 </v>
   <v>       0.00239770       0.00199023       0.00174411 </v>
   <v>      -0.00778333      -0.00591676      -0.01360502 </v>
   <v>       0.00484112      -0.01043956       0.00321126 </v>
   <v>      -0.02847173      -0.01594649       0.01657413 </v>
   <v>      -0.01327254      -0.01651881      -0.00060655 </v>
   <v>      -0.00170671       0.00066872      -0.00479162 </v>
   <v>      -0.00614507      -0.00025803       0.00175589 </v>
   <v>       0.00216724       0.01135982       0.00322420 </v>
   <v>      -0.00209128      -0.00065799       0.01135180 </v>
   <v>       0.00073020      -0.00298056      -0.00080597 </v>
   <v>       0.00066191       0.00754641      -0.00085422 </v>
   <v>      -0.01831154       0.02358842      -0.00280013 </v>
   <v>      -0.00402597       0.00181344       0.01797870 </v>
   <v>      -0.00080288      -0.00275480      -0.01168285 </v>
   <v>      -0.00080750       0.00327798      -0.01064742 </v>
   <v>       0.00917491      -0.00810386       0.00100612 </v>
   <v>       0.00217040       0.01214138      -0.00762267 </v>
   <v>       0.01102493      -0.00794546       0.00855041 </v>
   <v>      -0.00183255      -0.00003692      -0.01719917 </v>
   <v>      -0.00074264      -0.00079386      -0.00760867 </v>
   <v>      -0.00280224       0.00438226       0.01005394 </v>
   <v>       0.00618997       0.00481936      -0.00352930 </v>
   <v>      -0.00624240       0.00949002       0.00211288 </v>
   <v>       0.00724154      -0.01559974       0.00332531 </v>
   <v>      -0.00107136      -0.00294398       0.01124121 </v>
   <v>      -0.01355858       0.00834467       0.01078411 </v>
   <v>      -0.00975543      -0.02155829      -0.01083082 </v>
   <v>       0.00693317       0.00562563      -0.01073579 </v>
   <v>      -0.00058501       0.00404756       0.00912036 </v>
   <v>       0.01526755       0.01283838      -0.01403594 </v>
   <v>       0.00605894      -0.00493860      -0.00288819 </v>
   <v>      -0.00594154      -0.00012149      -0.00985352 </v>
   <v>       0.00054573       0.01072363      -0.00054148 </v>
   <v>       0.00155536      -0.01102569       0.00068644 </v>
   <v>       0.01448110       0.01923795      -0.00326847 </v>
   <v>      -0.00688660       0.00670838       0.00498406 </v>
   <v>      -0.00246590      -0.00363912      -0.00243147 </v>
   <v>      -0.01228577      -0.01058296      -0.01800612 </v>
   <v>       0.00315710      -0.01371692      -0.00780128 </v>
   <v>      -0.02012824      -0.00404647       0.00255409 </v>
   <v>       0.00796573       0.00554309      -0.00192473 </v>
   <v>      -0.00884634       0.01776796      -0.00648610 </v>
   <v>       0.00512983      -0.01450924      -0.00314295 </v>
   <v>      -0.01707896       0.01204773       0.00068085 </v>
   <v>      -0.00212502       0.00187620      -0.00676722 </v>
   <v>       0.00680119      -0.00165628      -0.00492029 </v>
   <v>      -0.00607593       0.00321849      -0.00821874 </v>
   <v>       0.00085032       0.01700178      -0.01417185 </v>
   <v>       0.01122082      -0.00531708       0.00404529 </v>
   <v>      -0.00689552       0.01519970       0.01273613 </v>
   <v>      -0.02800821      -0.01028274      -0.00718240 </v>
   <v>      -0.00239489       0.01227760       0.01030140 </v>
   <v>       0.03358599      -0.02735512       0.00397969 </v>
   <v>      -0.00637105      -0.00110268       0.00262476 </v>
   <v>       0.00084772      -0.01786342       0.00495173 </v>
   <v>      -0.00243470       0.00844753       0.01520890 </v>
   <v>       0.00496108      -0.00242235      -0.00137213 </v>
   <v>      -0.00974859      -0.00703651       0.01859825 </v>
   <v>      -0.00140210      -0.00368231       0.03852672 </v>
   <v>       0.00882443      -0.01033610       0.00100980 </v>
   <v>      -0.00070229       0.00211828      -0.00919031 </v>
   <v>       0.00575234      -0.00028567       0.01616840 </v>
   <v>       0.00402395       0.00475126       0.00389270 </v>
   <v>      -0.00584402       0.00986297      -0.00534470 </v>
   <v>       0.01064829       0.00719868       0.00344624 </v>
   <v>       0.00909991       0.00181184       0.00086119 </v>
   <v>      -0.01017952      -0.00300393      -0.01006800 </v>
   <v>       0.00158386       0.01088971       0.00622568 </v>
   <v>       0.00028383       0.00770290       0.00196531 </v>
   <v>       0.01255398       0.00051017      -0.00931706 </v>
   <v>      -0.00479943       0.00668299      -0.01861026 </v>
   <v>      -0.00571158      -0.00731141      -0.00329805 </v>
   <v>      -0.00355167       0.00232220      -0.01744772 </v>
   <v>       0.00158700      -0.00456041       0.00778048 </v>
   <v>       0.00099217      -0.01006469       0.00982784 </v>
   <v>       0.01882850      -0.00361795      -0.02005028 </v>
   <v>       0.01721071       0.00151489       0.04483630 </v>
   <v>       0.00651134       0.00027950       0.01562950 </v>
   <v>      -0.01194974       0.00787757       0.00658878 </v>
   <v>       0.00152312       0.00028374      -0.01684818 </v>
   <v>       0.00561921       0.00582077       0.01443087 </v>
   <v>      -0.01088832       0.00099712       0.01913638 </v>
   <v>      -0.00591091      -0.00138435      -0.00094290 </v>
  </varray>
  <varray name="stress" >
   <v>       0.00151199      -0.11030338      -0.19742682 </v>
   <v>      -0.11030312      -0.07477078       0.06944834 </v>
   <v>      -0.19742675       0.06944882      -0.40809300 </v>
  </varray>
  <energy>
   <i name="e_fr_energy">  -1054.98220493 </i>
   <i name="e_wo_entrp">  -1054.98220486 </i>
   <i name="e_0_energy">     -0.00000014 </i>
  </energy>
  <time name="totalsc"> 1941.35 1944.31</time>
 </calculation>
 <calculation>
  <scstep>
   <time name="dav">  562.06  562.27</time>
   <time name="total">  569.28  569.58</time>
   <energy>
    <i name="alphaZ">   5633.20600604 </i>
    <i name="ewald"> -62183.37304159 </i>
    <i name="hartreedc"> -17461.56453585 </i>
    <i name="XCdc">   3184.14048972 </i>
    <i name="pawpsdc"> 114360.91824827 </i>
    <i name="pawaedc">-113562.39464689 </i>
    <i name="eentropy">     -0.00000013 </i>
    <i name="bandstr">  -7076.09033142 </i>
    <i name="atom">  76050.17612637 </i>
    <i name="e_fr_energy">  -1054.98168547 </i>
    <i name="e_wo_entrp">  -1054.98168534 </i>
    <i name="e_0_energy">  -1054.98168541 </i>
   </energy>
  </scstep>
  <scstep>
   <time name="diag">   64.74   64.74</time>
   <time name="diis">  105.85  105.87</time>
   <time name="orth">   33.14   33.14</time>
   <time name="total">  210.94  211.03</time>
   <energy>
    <i name="e_fr_energy">  -1054.98325627 </i>
    <i name="e_wo_entrp">  -1054.98325616 </i>
    <i name="e_0_energy">  -1054.98325621 </i>
   </energy>
  </scstep>
  <scstep>
   <time name="diag">   64.81   64.82</time>
   <time name="diis">  101.87  101.88</time>
   <time name="orth">   33.19   33.19</time>
   <time name="total">  207.06  207.14</time>
   <energy>
    <i name="e_fr_energy">  -1054.98328882 </i>
    <i name="e_wo_entrp">  -1054.98328871 </i>
    <i name="e_0_energy">  -1054.98328876 </i>
   </energy>
  </scstep>
  <scstep>
   <time name="diag">   64.78   64.79</time>
   <time name="diis">   75.56   75.58</time>
   <time name="orth">   33.19   33.19</time>
   <time name="total">  180.72  180.80</time>
   <energy>
    <i name="e_fr_energy">  -1054.98316563 </i>
    <i name="e_wo_entrp">  -1054.98316552 </i>
    <i name="e_0_energy">  -1054.98316557 </i>
   </energy>
  </scstep>
  <scstep>
   <time name="diag">   64.86   64.91</time>
   <time name="diis">   67.70   67.72</time>
   <time name="orth">   33.21   33.22</time>
   <time name="total">  172.94  173.09</time>
   <energy>
    <i name="e_fr_energy">  -1054.98314099 </i>
    <i name="e_wo_entrp">  -1054.98314088 </i>
    <i name="e_0_energy">  -1054.98314093 </i>
   </energy>
  </scstep>
  <scstep>
   <time name="diag">   64.80   64.87</time>
   <time name="diis">   64.76   64.79</time>
   <time name="orth">   33.13   33.13</time>
   <time name="total">  169.88  170.05</time>
   <energy>
    <i name="e_fr_energy">  -1054.98314443 </i>
    <i name="e_wo_entrp">  -1054.98314432 </i>
    <i name="e_0_energy">  -1054.98314438 </i>
   </energy>
  </scstep>
  <scstep>
   <time name="diag">   64.85   64.87</time>
   <time name="diis">   63.69   63.69</time>
   <time name="orth">   33.19   33.19</time>
   <time name="total">  169.03  169.15</time>
   <energy>
    <i name="e_fr_energy">  -1054.98314642 </i>
    <i name="e_wo_entrp">  -1054.98314631 </i>
    <i name="e_0_energy">  -1054.98314636 </i>
   </energy>
  </scstep>
  <scstep>
   <time name="diag">   64.80   64.82</time>
   <time name="diis">   61.09   61.12</time>
   <time name="orth">   33.21   33.21</time>
   <time name="total">  160.15  160.27</time>
   <energy>
    <i name="alphaZ">   5633.20600604 </i>
    <i name="ewald"> -62183.37304159 </i>
    <i name="hartreedc"> -17458.62751668 </i>
    <i name="XCdc">   3183.95414286 </i>
    <i name="pawpsdc"> 114408.32225884 </i>
    <i name="pawaedc">-113609.81924624 </i>
    <i name="eentropy">     -0.00000011 </i>
    <i name="bandstr">  -7078.82187775 </i>
    <i name="atom">  76050.17612637 </i>
    <i name="e_fr_energy">  -1054.98314824 </i>
    <i name="e_wo_entrp">  -1054.98314814 </i>
    <i name="e_0_energy">  -1054.98314819 </i>
   </energy>
  </scstep>
  <structure>
   <crystal>
    <varray name="basis" >
     <v>      11.22436252       0.01748032       0.01087529 </v>
     <v>       0.01769226      11.26263673      -0.01654448 </v>
     <v>       0.01567168      -0.02449055      15.81502037 </v>
    </varray>
    <i name="volume">   1999.25894427 </i>
    <varray name="rec_basis" >
     <v>       0.08909222      -0.00014008      -0.00008850 </v>
     <v>      -0.00013841       0.08878957       0.00013763 </v>
     <v>      -0.00006141       0.00009298       0.06323123 </v>
    </varray>
   </crystal>
   <varray name="positions" >
    <v>       0.99614630       0.23991412       0.12560935 </v>
    <v>       0.99507440       0.23962746       0.62170618 </v>
    <v>       0.00523580       0.75742670       0.12119887 </v>
    <v>       0.99968047       0.75149941       0.62211474 </v>
    <v>       0.51061805       0.25600460       0.11808550 </v>
    <v>       0.50078994       0.23486281       0.63128820 </v>
    <v>       0.49816286       0.75019438       0.11103768 </v>
    <v>       0.49655066       0.76316520       0.63433162 </v>
    <v>       0.99396214       0.24516498       0.38016454 </v>
    <v>       0.99882233       0.24229555       0.87191620 </v>
    <v>       0.99871898       0.75036876       0.37368880 </v>
    <v>       0.00762503       0.75808952       0.87420570 </v>
    <v>       0.50268787       0.23544361       0.37031591 </v>
    <v>       0.50322370       0.25205290       0.87456526 </v>
    <v>       0.49843277       0.76548937       0.37067619 </v>
    <v>       0.48923624       0.74892320       0.87518245 </v>
    <v>       0.24423689       0.98958459       0.11807142 </v>
    <v>       0.24822414       0.99540889       0.62518676 </v>
    <v>       0.25704789       0.50335457       0.11572218 </v>
    <v>       0.24577945       0.50183636       0.62898680 </v>
    <v>       0.75363892       0.00635912       0.12199895 </v>
    <v>       0.75019190       0.00595092       0.62410804 </v>
    <v>       0.74365117       0.49160051       0.12287139 </v>
    <v>       0.74730570       0.49198279       0.62891662 </v>
    <v>       0.24077665       0.00587148       0.37735289 </v>
    <v>       0.24781196       0.99352605       0.87152499 </v>
    <v>       0.23648138       0.49067981       0.37267689 </v>
    <v>       0.25902834       0.50154157       0.87840288 </v>
    <v>       0.76164700       0.00650129       0.37513809 </v>
    <v>       0.75173479       0.00809459       0.87219481 </v>
    <v>       0.75731559       0.49028039       0.37055149 </v>
    <v>       0.73903283       0.49221523       0.87706176 </v>
    <v>       0.00193811       0.99877116       0.00019453 </v>
    <v>       0.49284527       0.00405168       0.00180668 </v>
    <v>       0.49874638       0.00074302       0.49540618 </v>
    <v>       0.49847167       0.53061529       0.49453816 </v>
    <v>       0.75123631       0.25202218       0.99705134 </v>
    <v>       0.24973736       0.25014580       0.74540084 </v>
    <v>       0.25106082       0.74829822       0.24161439 </v>
    <v>       0.74956244       0.24849367       0.24918711 </v>
    <v>       0.75359991       0.74685248       0.24077857 </v>
    <v>       0.75103266       0.74820149       0.75158925 </v>
    <v>       0.99931039       0.99721032       0.74522571 </v>
    <v>       0.99869037       0.49919116       0.24323071 </v>
    <v>       0.99607277       0.50178849       0.76242402 </v>
    <v>       0.49926690       0.99942429       0.75324450 </v>
    <v>       0.49854820       0.49705063       0.25102481 </v>
    <v>       0.49948577       0.49815512       0.75196815 </v>
    <v>       0.00086789       0.99161824       0.49520833 </v>
    <v>       0.01000533       0.48908456       0.00616874 </v>
    <v>       0.99676835       0.49954346       0.48870440 </v>
    <v>       0.50082797       0.50270658       0.00003600 </v>
    <v>       0.25120995       0.24682055       0.99045001 </v>
    <v>       0.23857872       0.23734870       0.50504827 </v>
    <v>       0.24773096       0.74554602       0.99282670 </v>
    <v>       0.24465940       0.75361570       0.50876924 </v>
    <v>       0.75898288       0.23833052       0.50114379 </v>
    <v>       0.73911844       0.75860838       0.99181870 </v>
    <v>       0.75229266       0.75791008       0.50920112 </v>
    <v>       0.24008336       0.26178582       0.25726025 </v>
    <v>       0.24772731       0.74736354       0.74865487 </v>
    <v>       0.74992325       0.25036678       0.74563250 </v>
    <v>       0.00539092       0.99934053       0.25103754 </v>
    <v>       0.51405545       0.98590704       0.25046304 </v>
    <v>       0.14795774       0.12020767       0.23509331 </v>
    <v>       0.12126234       0.12969369       0.73639155 </v>
    <v>       0.12483159       0.62739897       0.26014983 </v>
    <v>       0.11390580       0.62022652       0.73146106 </v>
    <v>       0.61291297       0.13320293       0.24852114 </v>
    <v>       0.62113713       0.12447813       0.75054886 </v>
    <v>       0.62241005       0.62900265       0.27308861 </v>
    <v>       0.62077321       0.62553983       0.73493952 </v>
    <v>       0.38208844       0.36385459       0.23933164 </v>
    <v>       0.38015132       0.36967217       0.75685226 </v>
    <v>       0.37303279       0.86967805       0.25730052 </v>
    <v>       0.38123725       0.87088022       0.75395116 </v>
    <v>       0.87572064       0.37397435       0.24452160 </v>
    <v>       0.88527744       0.37573928       0.73437281 </v>
    <v>       0.87402908       0.86551482       0.26209043 </v>
    <v>       0.87645679       0.87030860       0.75832994 </v>
    <v>       0.36936461       0.11890983       0.73770554 </v>
    <v>       0.36826518       0.62042855       0.27682446 </v>
    <v>       0.37487693       0.61592838       0.73383826 </v>
    <v>       0.87048738       0.12523621       0.24758137 </v>
    <v>       0.87229153       0.12079371       0.73907000 </v>
    <v>       0.86627772       0.62480482       0.27198986 </v>
    <v>       0.87380297       0.61825490       0.72564452 </v>
    <v>       0.12251286       0.38601275       0.21903376 </v>
    <v>       0.12668591       0.38171311       0.75428741 </v>
    <v>       0.13061722       0.86682275       0.26194706 </v>
    <v>       0.12642206       0.87844070       0.75688110 </v>
    <v>       0.62939075       0.38351290       0.24819436 </v>
    <v>       0.62837703       0.38056116       0.75363990 </v>
    <v>       0.63628629       0.87225361       0.26685479 </v>
    <v>       0.62641556       0.87325876       0.76811261 </v>
    <v>       0.37150588       0.37490249       0.00609143 </v>
    <v>       0.49824340       0.46045840       0.60118362 </v>
    <v>       0.37249805       0.87801909       0.99607396 </v>
    <v>       0.37360985       0.87176689       0.48942097 </v>
    <v>       0.86938679       0.38370570       0.00175138 </v>
    <v>       0.86933728       0.38390471       0.50785277 </v>
    <v>       0.87909872       0.86210046       0.99430922 </v>
    <v>       0.87258721       0.86807848       0.47894759 </v>
    <v>       0.12537301       0.12434880       0.01213628 </v>
    <v>       0.12593804       0.11675235       0.51046299 </v>
    <v>       0.11380894       0.62668324       0.00193827 </v>
    <v>       0.11985532       0.62099480       0.50100936 </v>
    <v>       0.62475467       0.12403230       0.00003565 </v>
    <v>       0.61994843       0.13092889       0.49363502 </v>
    <v>       0.64237678       0.61660626       0.00265574 </v>
    <v>       0.63071837       0.62822757       0.48873643 </v>
    <v>       0.12653935       0.36861340       0.01397876 </v>
    <v>       0.11661256       0.38171425       0.51449913 </v>
    <v>       0.12613096       0.87593312       0.99608775 </v>
    <v>       0.12774395       0.86545973       0.47676494 </v>
    <v>       0.62083145       0.37086964       0.99806970 </v>
    <v>       0.61901491       0.87545262       0.99099571 </v>
    <v>       0.62727786       0.87645707       0.47729526 </v>
    <v>       0.37127457       0.12998410       0.02425639 </v>
    <v>       0.37915436       0.12995042       0.51028004 </v>
    <v>       0.37913209       0.62790510       0.00132130 </v>
    <v>       0.36184477       0.62233152       0.48437750 </v>
    <v>       0.87332153       0.12267171       0.00396411 </v>
    <v>       0.87714710       0.12131067       0.50541566 </v>
    <v>       0.87506709       0.62403209       0.50004461 </v>
    <v>       0.99448599       0.98651530       0.12615319 </v>
    <v>       0.99833292       0.97480213       0.62215623 </v>
    <v>       0.96794985       0.53501385       0.12330038 </v>
    <v>       0.50104980       0.98845223       0.12904976 </v>
    <v>       0.51271117       0.98481735       0.62285926 </v>
    <v>       0.50034434       0.51846697       0.13284416 </v>
    <v>       0.00510705       0.02137038       0.37181755 </v>
    <v>       0.00139095       0.01472385       0.87453425 </v>
    <v>       0.00682654       0.47809058       0.36947574 </v>
    <v>       0.98157910       0.51551959       0.87903573 </v>
    <v>       0.47617079       0.01659787       0.36869357 </v>
    <v>       0.48244833       0.02121389       0.87742313 </v>
    <v>       0.50137864       0.45013689       0.39245863 </v>
    <v>       0.49833357       0.51172634       0.87219394 </v>
    <v>       0.25962733       0.26288849       0.38604172 </v>
    <v>       0.24846693       0.23529077       0.87149232 </v>
    <v>       0.24899393       0.73042802       0.87005844 </v>
    <v>       0.74858368       0.26096756       0.37721603 </v>
    <v>       0.76035296       0.24899483       0.87331868 </v>
    <v>       0.76727424       0.71761675       0.87253995 </v>
    <v>       0.26293572       0.27535427       0.62332188 </v>
    <v>       0.25315506       0.74522992       0.12558022 </v>
    <v>       0.24939785       0.76345685       0.62449823 </v>
    <v>       0.74602750       0.25016564       0.12409349 </v>
    <v>       0.72875123       0.26161812       0.61886238 </v>
    <v>       0.75589036       0.74308961       0.12390059 </v>
    <v>       0.74134193       0.77572918       0.62597816 </v>
   </varray>
  </structure>
  <varray name="forces" >
   <v>      -0.00235655      -0.00759752       0.00164440 </v>
   <v>      -0.00595995       0.00363794       0.00743261 </v>
   <v>       0.00289995      -0.00238597       0.00635821 </v>
   <v>      -0.00114850       0.00639121      -0.00181987 </v>
   <v>      -0.00600988      -0.00309292      -0.00043752 </v>
   <v>      -0.00004376       0.00062845       0.00158643 </v>
   <v>       0.00464044       0.00322628       0.00226617 </v>
   <v>       0.00017741       0.01281307      -0.00268593 </v>
   <v>       0.00109759      -0.00561259       0.00498052 </v>
   <v>       0.00256897      -0.00458562      -0.00842032 </v>
   <v>       0.00514246      -0.00271707       0.00661502 </v>
   <v>      -0.00051117       0.00425373      -0.00804080 </v>
   <v>      -0.00344226       0.00524036      -0.00581938 </v>
   <v>      -0.00542707       0.00062605      -0.00020967 </v>
   <v>       0.00092288      -0.00502219      -0.00101206 </v>
   <v>      -0.00284004      -0.00108662      -0.00344958 </v>
   <v>       0.00236214       0.00588802       0.00447320 </v>
   <v>      -0.00319590       0.00392686       0.00030077 </v>
   <v>      -0.00262526      -0.00968384       0.00660224 </v>
   <v>       0.00243927       0.00176902      -0.00384571 </v>
   <v>       0.00073495       0.00053946       0.00631265 </v>
   <v>      -0.00402710       0.00138955       0.00328320 </v>
   <v>       0.00543148      -0.00683732       0.00305459 </v>
   <v>       0.00313098      -0.00465449      -0.00063235 </v>
   <v>      -0.00050174      -0.00000394       0.00125778 </v>
   <v>      -0.00332510       0.00792413      -0.00355508 </v>
   <v>      -0.00469477      -0.00558027      -0.00435297 </v>
   <v>      -0.00266503      -0.01445350      -0.00273880 </v>
   <v>       0.00862741      -0.00688713       0.00391572 </v>
   <v>       0.00865056       0.00222208      -0.00077644 </v>
   <v>      -0.01028104       0.00840566       0.00601352 </v>
   <v>       0.00313662      -0.01083340      -0.00429328 </v>
   <v>       0.00410218       0.02157875      -0.00711531 </v>
   <v>       0.00035182       0.01479872       0.01736551 </v>
   <v>       0.00089401      -0.00716962      -0.01084435 </v>
   <v>       0.03390808      -0.01561292      -0.03507200 </v>
   <v>       0.00153230      -0.01962072      -0.01357531 </v>
   <v>      -0.00662363      -0.00119401       0.01904884 </v>
   <v>       0.01114474      -0.01412903       0.04086021 </v>
   <v>       0.01127309      -0.02634027      -0.01567844 </v>
   <v>      -0.01069058       0.01099783       0.04191529 </v>
   <v>       0.00943484       0.00628556      -0.01010616 </v>
   <v>       0.01355384       0.00936062       0.00758045 </v>
   <v>       0.02582573       0.01113452       0.00692452 </v>
   <v>       0.02159812      -0.01616643      -0.02962813 </v>
   <v>      -0.00511042       0.01693840       0.00434688 </v>
   <v>      -0.03859207       0.02968244       0.03531791 </v>
   <v>       0.01556121      -0.03002203      -0.01802486 </v>
   <v>      -0.00845056      -0.00138194      -0.00018989 </v>
   <v>       0.00758284      -0.00874106      -0.00280919 </v>
   <v>      -0.01258974       0.00240071       0.00585324 </v>
   <v>      -0.00593500      -0.01059254      -0.00343730 </v>
   <v>       0.00104758      -0.01012471      -0.01168187 </v>
   <v>      -0.00044582       0.00025417       0.00301518 </v>
   <v>       0.00021683       0.00344294      -0.00165252 </v>
   <v>       0.00483856       0.00095668      -0.00622963 </v>
   <v>       0.00333111      -0.00076165       0.00930974 </v>
   <v>       0.00025117       0.01059587      -0.00572743 </v>
   <v>      -0.00150099      -0.01017601      -0.00456406 </v>
   <v>      -0.00280597      -0.00120128      -0.00185350 </v>
   <v>      -0.00709385       0.00308856      -0.00515257 </v>
   <v>      -0.00246823       0.00214453       0.00163413 </v>
   <v>       0.00627641      -0.00818077       0.00760726 </v>
   <v>      -0.00362185      -0.00834852      -0.00143191 </v>
   <v>       0.00371197      -0.00395833      -0.00086801 </v>
   <v>      -0.00602664      -0.00420924      -0.01079444 </v>
   <v>      -0.00187336      -0.00842027       0.00161888 </v>
   <v>       0.01191972       0.00196199       0.00662581 </v>
   <v>       0.00634316       0.01740521      -0.00200105 </v>
   <v>      -0.00461206      -0.00934161      -0.00095251 </v>
   <v>       0.00319579      -0.00442700      -0.01459701 </v>
   <v>       0.00277819      -0.00433819       0.00412129 </v>
   <v>       0.00566940      -0.00681601       0.00200135 </v>
   <v>       0.01849255       0.01780619       0.00472384 </v>
   <v>      -0.00102440       0.00236509      -0.00499946 </v>
   <v>      -0.00241841       0.00003402       0.00251659 </v>
   <v>      -0.02705651      -0.00957499       0.00474169 </v>
   <v>      -0.00173693       0.00052548       0.01322738 </v>
   <v>       0.00166606       0.00468232      -0.00783104 </v>
   <v>      -0.00812720      -0.00159583       0.00025586 </v>
   <v>       0.01495276      -0.01196122      -0.00461793 </v>
   <v>       0.00458164      -0.00825622       0.00654254 </v>
   <v>      -0.00160973       0.00604239      -0.00725233 </v>
   <v>      -0.01400364       0.01878745      -0.00850375 </v>
   <v>      -0.00031914      -0.00043807       0.00055267 </v>
   <v>      -0.00229062       0.00453211      -0.00622625 </v>
   <v>      -0.00094817       0.00553307       0.00715545 </v>
   <v>      -0.01014613      -0.00182322      -0.01123397 </v>
[...]
       <r>   -17.0577     0.0000    32.0000 </r>
       <r>   -16.9042     0.0000    32.0000 </r>
       <r>   -16.7507     0.0000    32.0000 </r>
       <r>   -16.5971     0.0000    32.0000 </r>
       <r>   -16.4436     0.0000    32.0000 </r>
       <r>   -16.2901     0.0000    32.0000 </r>
       <r>   -16.1365     0.0000    32.0000 </r>
       <r>   -15.9830     0.0000    32.0000 </r>
       <r>   -15.8295     0.0000    32.0000 </r>
       <r>   -15.6759     0.0000    32.0000 </r>
       <r>   -15.5224     0.0000    32.0000 </r>
       <r>   -15.3689     0.0000    32.0000 </r>
       <r>   -15.2153     0.3812    32.0585 </r>
       <r>   -15.0618    10.2007    33.6247 </r>
       <r>   -14.9083    37.3282    39.3559 </r>
       <r>   -14.7547    50.3076    47.0799 </r>
       <r>   -14.6012    43.9356    53.8256 </r>
       <r>   -14.4476    33.1572    58.9164 </r>
       <r>   -14.2941    41.2142    65.2442 </r>
       <r>   -14.1406    57.2657    74.0366 </r>
       <r>   -13.9870    85.7320    87.1994 </r>
       <r>   -13.8335    94.4668   101.7035 </r>
       <r>   -13.6800    64.7571   111.6460 </r>
       <r>   -13.5264    39.7015   117.7416 </r>
       <r>   -13.3729    14.6085   119.9845 </r>
       <r>   -13.2194     0.1010   120.0000 </r>
       <r>   -13.0658     0.0000   120.0000 </r>
       <r>   -12.9123     0.0002   120.0000 </r>
       <r>   -12.7588     8.9813   121.3790 </r>
       <r>   -12.6052    71.4748   132.3529 </r>
       <r>   -12.4517    92.9896   146.6301 </r>
       <r>   -12.2981   139.3831   168.0303 </r>
       <r>   -12.1446   111.1442   185.0949 </r>
       <r>   -11.9911    95.8187   199.8065 </r>
       <r>   -11.8375    80.0918   212.1034 </r>
       <r>   -11.6840    22.6472   215.5806 </r>
       <r>   -11.5305     2.7318   216.0000 </r>
       <r>   -11.3769     0.0000   216.0000 </r>
       <r>   -11.2234     0.0000   216.0000 </r>
       <r>   -11.0699     0.0000   216.0000 </r>
       <r>   -10.9163     0.0000   216.0000 </r>
       <r>   -10.7628     0.0000   216.0000 </r>
       <r>   -10.6093     0.0000   216.0000 </r>
       <r>   -10.4557     0.0000   216.0000 </r>
       <r>   -10.3022     0.0000   216.0000 </r>
       <r>   -10.1487     0.0000   216.0000 </r>
       <r>    -9.9951     0.0000   216.0000 </r>
       <r>    -9.8416     0.0000   216.0000 </r>
       <r>    -9.6880     0.0000   216.0000 </r>
       <r>    -9.5345     0.0000   216.0000 </r>
       <r>    -9.3810     0.0000   216.0000 </r>
       <r>    -9.2274     0.0000   216.0000 </r>
       <r>    -9.0739     0.0000   216.0000 </r>
       <r>    -8.9204     0.0000   216.0000 </r>
       <r>    -8.7668     0.0000   216.0000 </r>
       <r>    -8.6133     0.0000   216.0000 </r>
       <r>    -8.4598     0.0000   216.0000 </r>
       <r>    -8.3062     0.0000   216.0000 </r>
       <r>    -8.1527     0.0000   216.0000 </r>
       <r>    -7.9992     0.0000   216.0000 </r>
       <r>    -7.8456     0.0000   216.0000 </r>
       <r>    -7.6921     0.0000   216.0000 </r>
       <r>    -7.5385     0.0000   216.0000 </r>
       <r>    -7.3850     0.0000   216.0000 </r>
       <r>    -7.2315     0.0000   216.0000 </r>
       <r>    -7.0779     0.0000   216.0000 </r>
       <r>    -6.9244     0.0000   216.0000 </r>
       <r>    -6.7709     0.0000   216.0000 </r>
       <r>    -6.6173     0.0000   216.0000 </r>
       <r>    -6.4638     0.0000   216.0000 </r>
       <r>    -6.3103     0.0000   216.0000 </r>
       <r>    -6.1567     0.0000   216.0000 </r>
       <r>    -6.0032     0.0000   216.0000 </r>
       <r>    -5.8497     0.0000   216.0000 </r>
       <r>    -5.6961     0.0000   216.0000 </r>
       <r>    -5.5426     0.0000   216.0000 </r>
       <r>    -5.3891     0.0000   216.0000 </r>
       <r>    -5.2355     0.0000   216.0000 </r>
       <r>    -5.0820     0.0000   216.0000 </r>
       <r>    -4.9284     0.0000   216.0000 </r>
       <r>    -4.7749     0.0000   216.0000 </r>
       <r>    -4.6214     0.0000   216.0000 </r>
       <r>    -4.4678     0.0000   216.0000 </r>
       <r>    -4.3143     0.0000   216.0000 </r>
       <r>    -4.1608     0.0000   216.0000 </r>
       <r>    -4.0072     0.0000   216.0000 </r>
       <r>    -3.8537     0.0000   216.0000 </r>
       <r>    -3.7002     0.0000   216.0000 </r>
       <r>    -3.5466     0.0000   216.0000 </r>
       <r>    -3.3931     0.0000   216.0000 </r>
       <r>    -3.2396     0.0000   216.0000 </r>
       <r>    -3.0860     0.0000   216.0000 </r>
       <r>    -2.9325     0.0000   216.0000 </r>
       <r>    -2.7789     0.0000   216.0000 </r>
       <r>    -2.6254     0.0072   216.0011 </r>
       <r>    -2.4719     6.3353   216.9738 </r>
       <r>    -2.3183     7.6643   218.1505 </r>
       <r>    -2.1648    17.9808   220.9112 </r>
       <r>    -2.0113    25.7425   224.8636 </r>
       <r>    -1.8577    21.9831   228.2388 </r>
       <r>    -1.7042    30.5721   232.9327 </r>
       <r>    -1.5507    35.4511   238.3757 </r>
       <r>    -1.3971    49.1761   245.9260 </r>
       <r>    -1.2436    61.4852   255.3661 </r>
       <r>    -1.0901    70.4525   266.1831 </r>
       <r>    -0.9365    78.8456   278.2887 </r>
       <r>    -0.7830    83.3144   291.0804 </r>
       <r>    -0.6295    91.0541   305.0604 </r>
       <r>    -0.4759    96.6993   319.9072 </r>
       <r>    -0.3224    84.2014   332.8351 </r>
       <r>    -0.1688    69.6969   343.5361 </r>
       <r>    -0.0153    49.0198   351.0623 </r>
       <r>     0.1382    48.3758   358.4897 </r>
       <r>     0.2918    51.3375   366.3719 </r>
       <r>     0.4453    55.4750   374.8892 </r>
       <r>     0.5988    55.5998   383.4258 </r>
       <r>     0.7524    53.8565   391.6947 </r>
       <r>     0.9059    55.4604   400.2098 </r>
       <r>     1.0594    52.5826   408.2831 </r>
       <r>     1.2130    61.5563   417.7342 </r>
       <r>     1.3665    73.1993   428.9729 </r>
       <r>     1.5200    76.4308   440.7077 </r>
       <r>     1.6736    75.6982   452.3301 </r>
       <r>     1.8271    64.5716   462.2441 </r>
       <r>     1.9807    47.0464   469.4674 </r>
       <r>     2.1342    32.8771   474.5152 </r>
       <r>     2.2877    27.5894   478.7512 </r>
       <r>     2.4413     8.1336   480.0000 </r>
       <r>     2.5948     3.0360   480.4661 </r>
       <r>     2.7483     3.4774   481.0000 </r>
       <r>     2.9019     0.0001   481.0000 </r>
       <r>     3.0554     0.0000   481.0000 </r>
       <r>     3.2089     0.0000   481.0000 </r>
       <r>     3.3625     0.0000   481.0000 </r>
       <r>     3.5160     0.0000   481.0000 </r>
       <r>     3.6695     0.0000   481.0000 </r>
       <r>     3.8231     0.0000   481.0000 </r>
       <r>     3.9766     0.0000   481.0000 </r>
       <r>     4.1302     0.0000   481.0000 </r>
       <r>     4.2837     0.0085   481.0013 </r>
       <r>     4.4372     8.1081   482.2462 </r>
       <r>     4.5908    45.0481   489.1627 </r>
       <r>     4.7443    53.3907   497.3600 </r>
       <r>     4.8978    45.6423   504.3678 </r>
       <r>     5.0514    47.0393   511.5900 </r>
       <r>     5.2049    67.4228   521.9418 </r>
       <r>     5.3584    71.8382   532.9715 </r>
       <r>     5.5120    64.5828   542.8872 </r>
       <r>     5.6655    79.3608   555.0719 </r>
       <r>     5.8190    60.8214   564.4102 </r>
       <r>     5.9726    65.7991   574.5127 </r>
       <r>     6.1261    75.5283   586.1090 </r>
       <r>     6.2796    67.7639   596.5131 </r>
       <r>     6.4332    43.9040   603.2539 </r>
       <r>     6.5867    23.6638   606.8872 </r>
       <r>     6.7403    17.9296   609.6400 </r>
       <r>     6.8938    16.8621   612.2289 </r>
       <r>     7.0473    21.7700   615.5714 </r>
       <r>     7.2009    20.1457   618.6645 </r>
       <r>     7.3544    17.1222   621.2934 </r>
       <r>     7.5079    16.5352   623.8321 </r>
       <r>     7.6615    14.7656   626.0991 </r>
       <r>     7.8150    17.9488   628.8549 </r>
       <r>     7.9685    18.0128   631.6205 </r>
       <r>     8.1221    24.9803   635.4559 </r>
       <r>     8.2756    24.3817   639.1993 </r>
       <r>     8.4291    22.0066   642.5781 </r>
       <r>     8.5827    30.2043   647.2156 </r>
       <r>     8.7362    27.0546   651.3694 </r>
       <r>     8.8898    31.6293   656.2256 </r>
       <r>     9.0433    32.1164   661.1566 </r>
       <r>     9.1968    34.6059   666.4699 </r>
       <r>     9.3504    37.7866   672.2715 </r>
       <r>     9.5039    45.8819   679.3159 </r>
       <r>     9.6574    50.2251   687.0273 </r>
       <r>     9.8110    55.1131   695.4891 </r>
       <r>     9.9645    58.2237   704.4285 </r>
       <r>    10.1180    61.9924   713.9465 </r>
       <r>    10.2716    55.1481   722.4137 </r>
       <r>    10.4251    52.9918   730.5498 </r>
       <r>    10.5786    52.1129   738.5510 </r>
       <r>    10.7322    56.3243   747.1988 </r>
       <r>    10.8857    56.0690   755.8074 </r>
       <r>    11.0392    60.0422   765.0260 </r>
       <r>    11.1928    19.3593   767.9983 </r>
       <r>    11.3463     0.0109   768.0000 </r>
       <r>    11.4999     0.0000   768.0000 </r>
       <r>    11.6534     0.0000   768.0000 </r>
       <r>    11.8069     0.0000   768.0000 </r>
       <r>    11.9605     0.0000   768.0000 </r>
       <r>    12.1140     0.0000   768.0000 </r>
       <r>    12.2675     0.0000   768.0000 </r>
       <r>    12.4211     0.0000   768.0000 </r>
       <r>    12.5746     0.0000   768.0000 </r>
       <r>    12.7281     0.0000   768.0000 </r>
       <r>    12.8817     0.0000   768.0000 </r>
       <r>    13.0352     0.0000   768.0000 </r>
       <r>    13.1887     0.0000   768.0000 </r>
      </set>
     </set>
    </array>
   </total>
  </dos>
 </calculation>
 <structure name="finalpos" >
  <crystal>
   <varray name="basis" >
    <v>      11.22493406       0.01727760       0.01038733 </v>
    <v>       0.01748979      11.26305266      -0.01650767 </v>
    <v>       0.01498480      -0.02443824      15.81551518 </v>
   </varray>
   <i name="volume">   1999.49743745 </i>
   <varray name="rec_basis" >
    <v>       0.08908767      -0.00013846      -0.00008462 </v>
    <v>      -0.00013679       0.08878629       0.00013732 </v>
    <v>      -0.00005865       0.00009276       0.06322925 </v>
   </varray>
  </crystal>
  <varray name="positions" >
   <v>       0.99611500       0.23987717       0.12562272 </v>
   <v>       0.99504474       0.23963873       0.62172171 </v>
   <v>       0.00524070       0.75741792       0.12121322 </v>
   <v>       0.99967555       0.75152808       0.62210663 </v>
   <v>       0.51061582       0.25601941       0.11809622 </v>
   <v>       0.50079137       0.23485955       0.63128544 </v>
   <v>       0.49819335       0.75019218       0.11102416 </v>
   <v>       0.49654287       0.76321742       0.63433114 </v>
   <v>       0.99396197       0.24513912       0.38018231 </v>
   <v>       0.99882479       0.24227627       0.87189068 </v>
   <v>       0.99873719       0.75036207       0.37371957 </v>
   <v>       0.00762441       0.75809801       0.87418275 </v>
   <v>       0.50268730       0.23546399       0.37029465 </v>
   <v>       0.50320455       0.25206377       0.87456888 </v>
   <v>       0.49844834       0.76547481       0.37068468 </v>
   <v>       0.48921260       0.74890593       0.87517389 </v>
   <v>       0.24423257       0.98960764       0.11807803 </v>
   <v>       0.24821569       0.99542484       0.62518413 </v>
   <v>       0.25704160       0.50331564       0.11572131 </v>
   <v>       0.24580565       0.50185456       0.62896598 </v>
   <v>       0.75365048       0.00634570       0.12203016 </v>
   <v>       0.75016983       0.00596365       0.62412003 </v>
   <v>       0.74366056       0.49156253       0.12288945 </v>
   <v>       0.74731953       0.49196398       0.62891290 </v>
   <v>       0.24076727       0.00588087       0.37736655 </v>
   <v>       0.24780357       0.99353787       0.87151441 </v>
   <v>       0.23643548       0.49063642       0.37268220 </v>
   <v>       0.25903462       0.50150011       0.87840761 </v>
   <v>       0.76169229       0.00648034       0.37515481 </v>
   <v>       0.75177226       0.00809276       0.87218329 </v>
   <v>       0.75726155       0.49029169       0.37055777 </v>
   <v>       0.73904479       0.49217813       0.87705632 </v>
   <v>       0.00198127       0.99883178       0.00018974 </v>
   <v>       0.49284574       0.00405720       0.00182732 </v>
   <v>       0.49874355       0.00073907       0.49539174 </v>
   <v>       0.49855830       0.53062517       0.49449398 </v>
   <v>       0.75122782       0.25199277       0.99703349 </v>
   <v>       0.24973229       0.25013807       0.74539690 </v>
   <v>       0.25109411       0.74825999       0.24167520 </v>
   <v>       0.74959023       0.24845340       0.24914924 </v>
   <v>       0.75356636       0.74689219       0.24083338 </v>
   <v>       0.75107066       0.74822081       0.75156871 </v>
   <v>       0.99934226       0.99725793       0.74524929 </v>
   <v>       0.99873935       0.49920380       0.24323911 </v>
   <v>       0.99612309       0.50176633       0.76237896 </v>
   <v>       0.49924357       0.99946129       0.75325771 </v>
   <v>       0.49852136       0.49708929       0.25107709 </v>
   <v>       0.49952514       0.49811428       0.75196426 </v>
   <v>       0.00082433       0.99162838       0.49520087 </v>
   <v>       0.01006689       0.48905354       0.00613515 </v>
   <v>       0.99676617       0.49953865       0.48870627 </v>
   <v>       0.50079066       0.50268001       0.00002092 </v>
   <v>       0.25120391       0.24682059       0.99042987 </v>
   <v>       0.23856019       0.23734954       0.50503986 </v>
   <v>       0.24775508       0.74552358       0.99280466 </v>
   <v>       0.24466965       0.75361428       0.50876675 </v>
   <v>       0.75897208       0.23834659       0.50115302 </v>
   <v>       0.73909740       0.75862371       0.99181581 </v>
   <v>       0.75228418       0.75785172       0.50917828 </v>
   <v>       0.24008276       0.26177071       0.25727757 </v>
   <v>       0.24773333       0.74736379       0.74865764 </v>
   <v>       0.74991468       0.25036075       0.74561750 </v>
   <v>       0.00538371       0.99931471       0.25102292 </v>
   <v>       0.51406135       0.98588933       0.25047206 </v>
   <v>       0.14799580       0.12020533       0.23509248 </v>
   <v>       0.12127077       0.12970905       0.73636057 </v>
   <v>       0.12484318       0.62736408       0.26015901 </v>
   <v>       0.11395695       0.62022273       0.73148619 </v>
   <v>       0.61290573       0.13321839       0.24851627 </v>
   <v>       0.62112717       0.12445259       0.75054862 </v>
   <v>       0.62240998       0.62898174       0.27304284 </v>
   <v>       0.62078941       0.62550872       0.73495337 </v>
   <v>       0.38206221       0.36379679       0.23934955 </v>
   <v>       0.38018882       0.36969882       0.75686268 </v>
   <v>       0.37302708       0.86968571       0.25728451 </v>
   <v>       0.38122060       0.87088112       0.75395898 </v>
   <v>       0.87563632       0.37396282       0.24453578 </v>
   <v>       0.88526643       0.37573998       0.73441561 </v>
   <v>       0.87403399       0.86552536       0.26207120 </v>
   <v>       0.87643270       0.87031632       0.75832983 </v>
   <v>       0.36937561       0.11891881       0.73769065 </v>
   <v>       0.36827715       0.62040894       0.27686203 </v>
   <v>       0.37487289       0.61594220       0.73380985 </v>
   <v>       0.87044208       0.12530022       0.24755008 </v>
   <v>       0.87230810       0.12077136       0.73907141 </v>
   <v>       0.86627368       0.62483876       0.27196704 </v>
   <v>       0.87381881       0.61825856       0.72567144 </v>
   <v>       0.12248163       0.38600615       0.21898404 </v>
   <v>       0.12664374       0.38175172       0.75426353 </v>
   <v>       0.13057992       0.86685839       0.26197215 </v>
   <v>       0.12645102       0.87845283       0.75688053 </v>
   <v>       0.62945124       0.38346622       0.24818724 </v>
   <v>       0.62834862       0.38054984       0.75365180 </v>
   <v>       0.63631585       0.87221726       0.26688732 </v>
   <v>       0.62636087       0.87327565       0.76814299 </v>
   <v>       0.37151809       0.37489627       0.00605987 </v>
   <v>       0.49826748       0.46045033       0.60122288 </v>
   <v>       0.37246566       0.87798512       0.99608852 </v>
   <v>       0.37364120       0.87178092       0.48938815 </v>
   <v>       0.86942878       0.38373049       0.00175401 </v>
   <v>       0.86930300       0.38389788       0.50781607 </v>
   <v>       0.87906990       0.86210691       0.99431276 </v>
   <v>       0.87260686       0.86803601       0.47895104 </v>
   <v>       0.12538658       0.12438348       0.01213691 </v>
   <v>       0.12589871       0.11679399       0.51048312 </v>
   <v>       0.11381617       0.62667412       0.00193150 </v>
   <v>       0.11984628       0.62097689       0.50095607 </v>
   <v>       0.62476973       0.12399873       0.00002639 </v>
   <v>       0.61988621       0.13094922       0.49364641 </v>
   <v>       0.64238834       0.61660830       0.00265078 </v>
   <v>       0.63072101       0.62832436       0.48872032 </v>
   <v>       0.12652531       0.36860421       0.01397157 </v>
   <v>       0.11658761       0.38173249       0.51450855 </v>
   <v>       0.12615125       0.87590417       0.99606315 </v>
   <v>       0.12776360       0.86546342       0.47676512 </v>
   <v>       0.62078244       0.37092969       0.99805308 </v>
   <v>       0.61904263       0.87546106       0.99094537 </v>
   <v>       0.62732374       0.87646036       0.47731376 </v>
   <v>       0.37128068       0.13000147       0.02429652 </v>
   <v>       0.37902624       0.12991688       0.51026449 </v>
   <v>       0.37914342       0.62792490       0.00133466 </v>
   <v>       0.36180261       0.62235704       0.48441851 </v>
   <v>       0.87330960       0.12266061       0.00398256 </v>
   <v>       0.87709257       0.12127666       0.50543018 </v>
   <v>       0.87507323       0.62403520       0.50008295 </v>
   <v>       0.99451299       0.98649898       0.12615314 </v>
   <v>       0.99828925       0.97477418       0.62217989 </v>
   <v>       0.96793822       0.53500345       0.12333829 </v>
   <v>       0.50109924       0.98838926       0.12903720 </v>
   <v>       0.51270089       0.98482650       0.62285182 </v>
   <v>       0.50038459       0.51845186       0.13280589 </v>
   <v>       0.00511521       0.02139834       0.37182197 </v>
   <v>       0.00136992       0.01475820       0.87452764 </v>
   <v>       0.00685575       0.47810683       0.36948139 </v>
   <v>       0.98160851       0.51553720       0.87910654 </v>
   <v>       0.47613366       0.01660548       0.36869235 </v>
   <v>       0.48243879       0.02124747       0.87740894 </v>
   <v>       0.50140180       0.45019092       0.39251557 </v>
   <v>       0.49837455       0.51175607       0.87221472 </v>
   <v>       0.25959305       0.26290653       0.38603917 </v>
   <v>       0.24844267       0.23526329       0.87149764 </v>
   <v>       0.24900148       0.73042321       0.87004703 </v>
   <v>       0.74857225       0.26096517       0.37721144 </v>
   <v>       0.76035539       0.24895800       0.87334213 </v>
   <v>       0.76734710       0.71759800       0.87251689 </v>
   <v>       0.26299087       0.27537877       0.62330664 </v>
   <v>       0.25317637       0.74522388       0.12550425 </v>
   <v>       0.24935333       0.76348261       0.62451887 </v>
   <v>       0.74601878       0.25019811       0.12410572 </v>
   <v>       0.72878055       0.26163167       0.61886603 </v>
   <v>       0.75584672       0.74309423       0.12383407 </v>
   <v>       0.74131103       0.77571973       0.62599103 </v>
  </varray>
 </structure>
</modeling>
