       N       E                     dE             d eps       ncg     rms          rms(c)
DAV:   1    -0.105502668470E+04   -0.10550E+04   -0.13230E-02 13904   0.274E-01    0.404E-02
RMM:   2    -0.105502668208E+04    0.26196E-05   -0.40794E-05  6685   0.103E-02    0.733E-02
RMM:   3    -0.105502668228E+04   -0.20489E-06   -0.10884E-05  6332   0.592E-03    0.627E-03
RMM:   4    -0.105502668222E+04    0.62835E-07   -0.26194E-06  3455   0.221E-03    0.444E-03
RMM:   5    -0.105502668225E+04   -0.28085E-07   -0.16053E-06  3193   0.244E-03    0.467E-03
RMM:   6    -0.105502668231E+04   -0.68074E-07   -0.88645E-07  2488   0.195E-03    0.120E-03
RMM:   7    -0.105502668233E+04   -0.14159E-07   -0.49020E-07  2128   0.202E-03    0.696E-04
RMM:   8    -0.105502668235E+04   -0.21697E-07   -0.20876E-07  1749   0.184E-03
   1 F= -.10550267E+04 E0= -.10550267E+04  d E =-.105503E+04  mag=    80.0000
       N       E                     dE             d eps       ncg     rms          rms(c)
DAV:   1    -0.105502641516E+04    0.26717E-03   -0.41409E-01 12416   0.761E-01    0.321E-01
RMM:   2    -0.105502783584E+04   -0.14207E-02   -0.12346E-02 12374   0.155E-01    0.243E-01
RMM:   3    -0.105502791592E+04   -0.80085E-04   -0.67213E-04 11057   0.466E-02    0.139E-01
RMM:   4    -0.105502783852E+04    0.77399E-04   -0.16610E-04  7880   0.179E-02    0.799E-02
RMM:   5    -0.105502782253E+04    0.15994E-04   -0.97740E-05  7366   0.131E-02    0.394E-02
RMM:   6    -0.105502782421E+04   -0.16839E-05   -0.20901E-05  7040   0.820E-03    0.233E-02
RMM:   7    -0.105502782473E+04   -0.51598E-06   -0.89516E-06  6309   0.392E-03    0.109E-02
RMM:   8    -0.105502782530E+04   -0.57113E-06   -0.42491E-06  5647   0.379E-03
   2 F= -.10550278E+04 E0= -.10550278E+04  d E =-.114295E-02  mag=    80.0000
       N       E                     dE             d eps       ncg     rms          rms(c)
DAV:   1    -0.105502782575E+04   -0.10155E-05   -0.64549E-06  7656   0.436E-03    0.683E-03
RMM:   2    -0.105502782596E+04   -0.21185E-06   -0.26624E-06  5090   0.329E-03    0.125E-02
RMM:   3    -0.105502782600E+04   -0.37733E-07   -0.60254E-07  2500   0.189E-03    0.410E-03
RMM:   4    -0.105502782602E+04   -0.21450E-07   -0.30353E-07  2058   0.192E-03    0.310E-03
RMM:   5    -0.105502782601E+04    0.11438E-07   -0.97331E-08  1732   0.178E-03    0.143E-03
RMM:   6    -0.105502782600E+04    0.96916E-08   -0.55755E-08  1340   0.177E-03    0.420E-04
RMM:   7    -0.105502782599E+04    0.39145E-08   -0.71913E-09  1181   0.173E-03    0.134E-04
RMM:   8    -0.105502782599E+04   -0.71304E-09   -0.33025E-09   972   0.173E-03
   3 F= -.10550278E+04 E0= -.10550278E+04  d E =-.114364E-02  mag=    80.0000
       N       E                     dE             d eps       ncg     rms          rms(c)
DAV:   1    -0.105502778687E+04    0.39124E-04   -0.36722E-01 12472   0.724E-01    0.232E-01
RMM:   2    -0.105502885401E+04   -0.10671E-02   -0.98613E-03 12430   0.135E-01    0.147E-01
RMM:   3    -0.105502890335E+04   -0.49342E-04   -0.51663E-04 10208   0.430E-02    0.846E-02
RMM:   4    -0.105502887167E+04    0.31684E-04   -0.11387E-04  7237   0.148E-02    0.466E-02
RMM:   5    -0.105502886481E+04    0.68578E-05   -0.50472E-05  7120   0.101E-02    0.190E-02
RMM:   6    -0.105502886633E+04   -0.15194E-05   -0.15999E-05  6951   0.651E-03    0.142E-02
RMM:   7    -0.105502886693E+04   -0.60677E-06   -0.80550E-06  6044   0.411E-03    0.644E-03
RMM:   8    -0.105502886699E+04   -0.59765E-07   -0.44895E-06  5206   0.354E-03
   4 F= -.10550289E+04 E0= -.10550289E+04  d E =-.104100E-02  mag=    80.0000
