<?xml version="1.0" encoding="ISO-8859-1"?>
<modeling>
 <generator>
  <i name="program" type="string">vasp </i>
  <i name="version" type="string">5.4.1  </i>
  <i name="subversion" type="string">05Feb16 (build Jan 25 2017 20:16:33) complex                          parallel </i>
  <i name="platform" type="string">BWXE6 </i>
  <i name="date" type="string">2019 06 20 </i>
  <i name="time" type="string">10:58:58 </i>
 </generator>
 <incar>
  <i type="string" name="SYSTEM"> STF</i>
  <i type="string" name="PREC">normal</i>
  <i type="string" name="ALGO"> Fast</i>
  <i type="int" name="ISPIN">     2</i>
  <i type="int" name="NELM">    40</i>
  <i type="int" name="NELMIN">     8</i>
  <i type="int" name="IBRION">     2</i>
  <i name="EDIFF">      0.00010000</i>
  <i name="EDIFFG">     -0.03000000</i>
  <i type="int" name="NSW">    30</i>
  <i type="int" name="ISIF">     3</i>
  <i name="ENCUT">    520.00000000</i>
  <i type="int" name="NBANDS">   768</i>
  <v name="MAGMOM">      0.60000000      0.60000000      0.60000000      0.60000000      0.60000000      0.60000000      0.60000000      0.60000000      0.60000000      0.60000000      0.60000000      0.60000000      0.60000000      0.60000000      0.60000000      0.60000000      0.60000000      0.60000000      0.60000000      0.60000000
      0.60000000      0.60000000      0.60000000      0.60000000      0.60000000      0.60000000      0.60000000      0.60000000      0.60000000      0.60000000      0.60000000      0.60000000      0.60000000      0.60000000      0.60000000      0.60000000      0.60000000      0.60000000      0.60000000      0.60000000
      0.60000000      0.60000000      0.60000000      0.60000000      0.60000000      0.60000000      0.60000000      0.60000000      0.60000000      0.60000000      0.60000000      0.60000000      0.60000000      0.60000000      0.60000000      0.60000000      0.60000000      0.60000000      0.60000000      0.60000000
      5.00000000      5.00000000      5.00000000      5.00000000      0.60000000      0.60000000      0.60000000      0.60000000      0.60000000      0.60000000      0.60000000      0.60000000      0.60000000      0.60000000      0.60000000      0.60000000      0.60000000      0.60000000      0.60000000      0.60000000
      0.60000000      0.60000000      0.60000000      0.60000000      0.60000000      0.60000000      0.60000000      0.60000000      0.60000000      0.60000000      0.60000000      0.60000000      0.60000000      0.60000000      0.60000000      0.60000000      0.60000000      0.60000000      0.60000000      0.60000000
      0.60000000      0.60000000      0.60000000      0.60000000      0.60000000      0.60000000      0.60000000      0.60000000      0.60000000      0.60000000      0.60000000      0.60000000      0.60000000      0.60000000      0.60000000      0.60000000      0.60000000      0.60000000      0.60000000      0.60000000
      0.60000000      0.60000000      0.60000000      0.60000000      0.60000000      0.60000000      0.60000000      0.60000000      0.60000000      0.60000000      0.60000000      0.60000000      0.60000000      0.60000000      0.60000000      0.60000000      0.60000000      0.60000000      0.60000000      0.60000000
      0.60000000      0.60000000      0.60000000      0.60000000      0.60000000      0.60000000      0.60000000      0.60000000      0.60000000      0.60000000      0.60000000      0.60000000      0.60000000      0.60000000      0.60000000      0.60000000      0.60000000      0.60000000</v>
  <i type="string" name="LREAL"> Auto</i>
  <i type="int" name="ISMEAR">     0</i>
  <i name="SIGMA">      0.05000000</i>
  <i type="int" name="LMAXMIX">     4</i>
  <v type="int" name="KPOINT_BSE">    -1     0     0     0</v>
  <i type="int" name="NELM">    40</i>
  <i type="logical" name="LDAU"> T  </i>
  <v type="int" name="LDAUTYPE">     2</v>
  <v type="int" name="LDAUL">     0     2     2     0</v>
  <v name="LDAUU">      0.00000000      3.00000000      5.00000000      0.00000000</v>
  <v name="LDAUJ">      0.00000000      0.00000000      0.00000000      0.00000000</v>
  <i type="int" name="LDAUPRINT">     1</i>
 </incar>
 <kpoints>
  <generation param="Monkhorst-Pack">
   <v type="int" name="divisions">       2        2        2 </v>
   <v name="usershift">      0.00000000       0.00000000       0.00000000 </v>
   <v name="genvec1">      0.50000000      -0.00000000      -0.00000000 </v>
   <v name="genvec2">     -0.00000000       0.50000000       0.00000000 </v>
   <v name="genvec3">     -0.00000000       0.00000000       0.50000000 </v>
   <v name="shift">      0.50000000       0.50000000       0.50000000 </v>
  </generation>
  <varray name="kpointlist" >
   <v>       0.25000000       0.25000000       0.25000000 </v>
   <v>      -0.25000000       0.25000000       0.25000000 </v>
   <v>       0.25000000      -0.25000000       0.25000000 </v>
   <v>      -0.25000000      -0.25000000       0.25000000 </v>
  </varray>
  <varray name="weights" >
   <v>       0.25000000 </v>
   <v>       0.25000000 </v>
   <v>       0.25000000 </v>
   <v>       0.25000000 </v>
  </varray>
 </kpoints>
 <parameters>
  <separator name="general" >
   <i type="string" name="SYSTEM">STF</i>
   <i type="logical" name="LCOMPAT"> F  </i>
  </separator>
  <separator name="electronic" >
   <i type="string" name="PREC">normal</i>
   <i name="ENMAX">    520.00000000</i>
   <i name="ENAUG">    605.39200000</i>
   <i name="EDIFF">      0.00010000</i>
   <i type="int" name="IALGO">    68</i>
   <i type="int" name="IWAVPR">    11</i>
   <i type="int" name="NBANDS">   768</i>
   <i name="NELECT">   1028.00000000</i>
   <i type="int" name="TURBO">     0</i>
   <i type="int" name="IRESTART">     0</i>
   <i type="int" name="NREBOOT">     0</i>
   <i type="int" name="NMIN">     0</i>
   <i name="EREF">      0.00000000</i>
   <separator name="electronic smearing" >
    <i type="int" name="ISMEAR">     0</i>
    <i name="SIGMA">      0.05000000</i>
    <i name="KSPACING">      0.50000000</i>
    <i type="logical" name="KGAMMA"> T  </i>
   </separator>
   <separator name="electronic projectors" >
    <i type="logical" name="LREAL"> T  </i>
    <v name="ROPT">     -0.00050000     -0.00050000     -0.00050000     -0.00050000</v>
    <i type="int" name="LMAXPAW">  -100</i>
    <i type="int" name="LMAXMIX">     4</i>
    <i type="logical" name="NLSPLINE"> F  </i>
   </separator>
   <separator name="electronic startup" >
    <i type="int" name="ISTART">     1</i>
    <i type="int" name="ICHARG">     0</i>
    <i type="int" name="INIWAV">     1</i>
   </separator>
   <separator name="electronic spin" >
    <i type="int" name="ISPIN">     2</i>
    <i type="logical" name="LNONCOLLINEAR"> F  </i>
    <v name="MAGMOM">      0.60000000      0.60000000      0.60000000      0.60000000      0.60000000      0.60000000      0.60000000      0.60000000      0.60000000      0.60000000      0.60000000      0.60000000      0.60000000      0.60000000      0.60000000      0.60000000      0.60000000      0.60000000      0.60000000      0.60000000
      0.60000000      0.60000000      0.60000000      0.60000000      0.60000000      0.60000000      0.60000000      0.60000000      0.60000000      0.60000000      0.60000000      0.60000000      0.60000000      0.60000000      0.60000000      0.60000000      0.60000000      0.60000000      0.60000000      0.60000000
      0.60000000      0.60000000      0.60000000      0.60000000      0.60000000      0.60000000      0.60000000      0.60000000      0.60000000      0.60000000      0.60000000      0.60000000      0.60000000      0.60000000      0.60000000      0.60000000      0.60000000      0.60000000      0.60000000      0.60000000
      5.00000000      5.00000000      5.00000000      5.00000000      0.60000000      0.60000000      0.60000000      0.60000000      0.60000000      0.60000000      0.60000000      0.60000000      0.60000000      0.60000000      0.60000000      0.60000000      0.60000000      0.60000000      0.60000000      0.60000000
      0.60000000      0.60000000      0.60000000      0.60000000      0.60000000      0.60000000      0.60000000      0.60000000      0.60000000      0.60000000      0.60000000      0.60000000      0.60000000      0.60000000      0.60000000      0.60000000      0.60000000      0.60000000      0.60000000      0.60000000
      0.60000000      0.60000000      0.60000000      0.60000000      0.60000000      0.60000000      0.60000000      0.60000000      0.60000000      0.60000000      0.60000000      0.60000000      0.60000000      0.60000000      0.60000000      0.60000000      0.60000000      0.60000000      0.60000000      0.60000000
      0.60000000      0.60000000      0.60000000      0.60000000      0.60000000      0.60000000      0.60000000      0.60000000      0.60000000      0.60000000      0.60000000      0.60000000      0.60000000      0.60000000      0.60000000      0.60000000      0.60000000      0.60000000      0.60000000      0.60000000
      0.60000000      0.60000000      0.60000000      0.60000000      0.60000000      0.60000000      0.60000000      0.60000000      0.60000000      0.60000000      0.60000000      0.60000000      0.60000000      0.60000000      0.60000000      0.60000000      0.60000000      0.60000000</v>
    <i name="NUPDOWN">     -1.00000000</i>
    <i type="logical" name="LSORBIT"> F  </i>
    <v name="SAXIS">      0.00000000      0.00000000      1.00000000</v>
    <i type="logical" name="LSPIRAL"> F  </i>
    <v name="QSPIRAL">      0.00000000      0.00000000      0.00000000</v>
    <i type="logical" name="LZEROZ"> F  </i>
   </separator>
   <separator name="electronic exchange-correlation" >
    <i type="logical" name="LASPH"> F  </i>
    <i type="logical" name="LMETAGGA"> F  </i>
   </separator>
   <separator name="electronic convergence" >
    <i type="int" name="NELM">    40</i>
    <i type="int" name="NELMDL">     0</i>
    <i type="int" name="NELMIN">     8</i>
    <i name="ENINI">    520.00000000</i>
    <separator name="electronic convergence detail" >
     <i type="logical" name="LDIAG"> T  </i>
     <i type="logical" name="LSUBROT"> F  </i>
     <i name="WEIMIN">      0.00100000</i>
     <i name="EBREAK">      0.00000003</i>
     <i name="DEPER">      0.30000000</i>
     <i type="int" name="NRMM">     4</i>
     <i name="TIME">      0.40000000</i>
    </separator>
   </separator>
   <separator name="electronic mixer" >
    <i name="AMIX">      0.40000000</i>
    <i name="BMIX">      1.00000000</i>
    <i name="AMIN">      0.10000000</i>
    <i name="AMIX_MAG">      1.60000000</i>
    <i name="BMIX_MAG">      1.00000000</i>
    <separator name="electronic mixer details" >
     <i type="int" name="IMIX">     4</i>
     <i type="logical" name="MIXFIRST"> F  </i>
     <i type="int" name="MAXMIX">   -45</i>
     <i name="WC">    100.00000000</i>
     <i type="int" name="INIMIX">     1</i>
     <i type="int" name="MIXPRE">     1</i>
     <i type="int" name="MREMOVE">     5</i>
    </separator>
   </separator>
   <separator name="electronic dipolcorrection" >
    <i type="logical" name="LDIPOL"> F  </i>
    <i type="logical" name="LMONO"> F  </i>
    <i type="int" name="IDIPOL">     0</i>
    <i name="EPSILON">      1.00000000</i>
    <v name="DIPOL">   -100.00000000   -100.00000000   -100.00000000</v>
    <i name="EFIELD">      0.00000000</i>
   </separator>
  </separator>
  <separator name="grids" >
   <i type="int" name="NGX">    64</i>
   <i type="int" name="NGY">    64</i>
   <i type="int" name="NGZ">    90</i>
   <i type="int" name="NGXF">   128</i>
   <i type="int" name="NGYF">   128</i>
   <i type="int" name="NGZF">   180</i>
   <i type="logical" name="ADDGRID"> F  </i>
  </separator>
  <separator name="ionic" >
   <i type="int" name="NSW">    30</i>
   <i type="int" name="IBRION">     2</i>
   <i type="int" name="ISIF">     3</i>
   <i name="PSTRESS">      0.00000000</i>
   <i name="EDIFFG">     -0.03000000</i>
   <i type="int" name="NFREE">     1</i>
   <i name="POTIM">      0.50000000</i>
   <i name="SMASS">     -3.00000000</i>
   <i name="SCALEE">      1.00000000</i>
  </separator>
  <separator name="ionic md" >
   <i name="TEBEG">      0.00010000</i>
   <i name="TEEND">      0.00010000</i>
   <i type="int" name="NBLOCK">     1</i>
   <i type="int" name="KBLOCK">    30</i>
   <i type="int" name="NPACO">   256</i>
   <i name="APACO">     16.00000000</i>
  </separator>
  <separator name="symmetry" >
   <i type="int" name="ISYM">     2</i>
   <i name="SYMPREC">      0.00001000</i>
  </separator>
  <separator name="dos" >
   <i type="logical" name="LORBIT"> F  </i>
   <v name="RWIGS">     -1.00000000     -1.00000000     -1.00000000     -1.00000000</v>
   <i type="int" name="NEDOS">   301</i>
   <i name="EMIN">     10.00000000</i>
   <i name="EMAX">    -10.00000000</i>
   <i name="EFERMI">      0.00000000</i>
  </separator>
  <separator name="writing" >
   <i type="int" name="NWRITE">     2</i>
   <i type="logical" name="LWAVE"> T  </i>
   <i type="logical" name="LCHARG"> T  </i>
   <i type="logical" name="LPARD"> F  </i>
   <i type="logical" name="LVTOT"> F  </i>
   <i type="logical" name="LVHAR"> F  </i>
   <i type="logical" name="LELF"> F  </i>
   <i type="logical" name="LOPTICS"> F  </i>
   <v name="STM">      0.00000000      0.00000000      0.00000000      0.00000000      0.00000000      0.00000000      0.00000000</v>
  </separator>
  <separator name="performance" >
   <i type="int" name="NPAR">     2</i>
   <i type="int" name="NSIM">     4</i>
   <i type="int" name="NBLK">    -1</i>
   <i type="logical" name="LPLANE"> T  </i>
   <i type="logical" name="LSCALAPACK"> T  </i>
   <i type="logical" name="LSCAAWARE"> F  </i>
   <i type="logical" name="LSCALU"> F  </i>
   <i type="logical" name="LASYNC"> F  </i>
   <i type="logical" name="LORBITALREAL"> F  </i>
  </separator>
  <separator name="miscellaneous" >
   <i type="int" name="IDIOT">     3</i>
   <i type="logical" name="LMUSIC"> F  </i>
   <v name="POMASS">     87.62000000     47.88000000     55.84700000     16.00000000</v>
   <v name="DARWINR">      0.00000000      0.00000000      0.00000000      0.00000000</v>
   <v name="DARWINV">      1.00000000      1.00000000      1.00000000      1.00000000</v>
   <i type="logical" name="LCORR"> T  </i>
  </separator>
  <i type="logical" name="GGA_COMPAT"> T  </i>
  <i type="logical" name="LBERRY"> F  </i>
  <i type="int" name="ICORELEVEL">     0</i>
  <i type="logical" name="LDAU"> T  </i>
  <v type="int" name="LDAUTYPE">     2</v>
  <v type="int" name="LDAUL">     0</v>
  <v name="LDAUU">      0.00000000</v>
  <v name="LDAUJ">      0.00000000</v>
  <i type="int" name="LDAUPRINT">     1</i>
  <i type="int" name="I_CONSTRAINED_M">     0</i>
  <separator name="electronic exchange-correlation" >
   <i type="string" name="GGA">--</i>
   <i type="int" name="VOSKOWN">     0</i>
   <i type="logical" name="LHFCALC"> F  </i>
   <i type="string" name="PRECFOCK"></i>
   <i type="logical" name="LSYMGRAD"> F  </i>
   <i type="logical" name="LHFONE"> F  </i>
   <i type="logical" name="LRHFCALC"> F  </i>
   <i type="logical" name="LTHOMAS"> F  </i>
   <i type="logical" name="LMODELHF"> F  </i>
   <i name="ENCUT4O">     -1.00000000</i>
   <i type="int" name="EXXOEP">     0</i>
   <i type="int" name="FOURORBIT">     0</i>
   <i name="AEXX">      0.00000000</i>
   <i name="HFALPHA">      0.00000000</i>
   <i name="MCALPHA">      0.00000000</i>
   <i name="ALDAX">      1.00000000</i>
   <i name="AGGAX">      1.00000000</i>
   <i name="ALDAC">      1.00000000</i>
   <i name="AGGAC">      1.00000000</i>
   <i type="int" name="NKREDX">     1</i>
   <i type="int" name="NKREDY">     1</i>
   <i type="int" name="NKREDZ">     1</i>
   <i type="logical" name="SHIFTRED"> F  </i>
   <i type="logical" name="ODDONLY"> F  </i>
   <i type="logical" name="EVENONLY"> F  </i>
   <i type="int" name="LMAXFOCK">     0</i>
   <i type="int" name="NMAXFOCKAE">     0</i>
   <i type="logical" name="LFOCKAEDFT"> F  </i>
   <i name="HFSCREEN">      0.00000000</i>
   <i name="HFSCREENC">      0.00000000</i>
   <i type="int" name="NBANDSGWLOW">     0</i>
  </separator>
  <separator name="vdW DFT" >
   <i type="logical" name="LUSE_VDW"> F  </i>
   <i name="Zab_VDW">     -0.84910000</i>
   <i name="PARAM1">      0.12340000</i>
   <i name="PARAM2">      1.00000000</i>
   <i name="PARAM3">      0.00000000</i>
  </separator>
  <separator name="model GW" >
   <i type="int" name="MODEL_GW">     0</i>
   <i name="MODEL_EPS0">      7.61668794</i>
   <i name="MODEL_ALPHA">      1.00000000</i>
  </separator>
  <separator name="linear response parameters" >
   <i type="logical" name="LEPSILON"> F  </i>
   <i type="logical" name="LRPA"> F  </i>
   <i type="logical" name="LNABLA"> F  </i>
   <i type="logical" name="LVEL"> F  </i>
   <i type="int" name="KINTER">     0</i>
   <i name="CSHIFT">      0.10000000</i>
   <i name="OMEGAMAX">     -1.00000000</i>
   <i name="DEG_THRESHOLD">      0.00200000</i>
  </separator>
  <separator name="orbital magnetization" >
   <i type="logical" name="NUCIND"> F  </i>
   <v name="MAGPOS">      0.00000000      0.00000000      0.00000000</v>
   <i type="logical" name="LNICSALL"> T  </i>
   <i type="logical" name="ORBITALMAG"> F  </i>
   <i type="logical" name="LMAGBLOCH"> F  </i>
   <i type="logical" name="LCHIMAG"> F  </i>
   <i type="logical" name="LGAUGE"> T  </i>
   <i type="int" name="MAGATOM">     0</i>
   <v name="MAGDIPOL">      0.00000000      0.00000000      0.00000000</v>
   <v name="AVECCONST">      0.00000000      0.00000000      0.00000000</v>
  </separator>
  <separator name="response functions" >
   <i type="logical" name="LADDER"> F  </i>
   <i type="logical" name="LFXC"> F  </i>
   <i type="logical" name="LHARTREE"> T  </i>
   <i type="int" name="IBSE">     0</i>
   <v type="int" name="KPOINT">    -1     0     0     0</v>
   <i type="logical" name="LTCTE"> F  </i>
   <i type="logical" name="LTETE"> F  </i>
   <i type="logical" name="LTRIPLET"> F  </i>
   <i type="logical" name="LFXCEPS"> F  </i>
   <i type="logical" name="LFXHEG"> F  </i>
   <i type="int" name="NATURALO">     0</i>
   <i type="logical" name="L2ORDER"> F  </i>
   <i type="logical" name="LUSEW"> F  </i>
   <i name="ENCUTGW">     -2.00000000</i>
   <i name="ENCUTGWSOFT">     -2.00000000</i>
   <i name="ENCUTLF">     -1.00000000</i>
   <i type="int" name="LMAXMP2">    -1</i>
   <i name="SCISSOR">      0.00000000</i>
   <i type="int" name="NOMEGA">     0</i>
   <i type="int" name="NOMEGAR">     0</i>
   <i type="int" name="NBANDSGW">    -1</i>
   <i type="int" name="NBANDSO">    -1</i>
   <i type="int" name="NBANDSV">    -1</i>
   <i type="int" name="NELM">    40</i>
   <i type="int" name="NELMHF">     1</i>
   <i type="int" name="DIM">     3</i>
   <i type="int" name="ANTIRES">     0</i>
   <i name="OMEGAMAX">    -30.00000000</i>
   <i name="OMEGAMIN">    -30.00000000</i>
   <i name="OMEGATL">   -200.00000000</i>
   <i type="int" name="OMEGAGRID">     0</i>
   <i name="CSHIFT">     -0.10000000</i>
   <i type="logical" name="SELFENERGY"> F  </i>
   <i type="logical" name="LSPECTRAL"> F  </i>
   <i type="logical" name="LSPECTRALGW"> F  </i>
   <i type="logical" name="LSINGLES"> F  </i>
   <i type="logical" name="LFERMIGW"> F  </i>
   <i type="logical" name="ODDONLYGW"> F  </i>
   <i type="logical" name="EVENONLYGW"> F  </i>
   <i type="int" name="NKREDLFX">     1</i>
   <i type="int" name="NKREDLFY">     1</i>
   <i type="int" name="NKREDLFZ">     1</i>
   <i type="int" name="MAXMEM">  1800</i>
   <i type="int" name="TELESCOPE">     0</i>
   <i type="int" name="TAUPAR">     1</i>
   <i type="int" name="OMEGAPAR">    -1</i>
   <i name="LAMBDA">      1.00000000</i>
  </separator>
  <separator name="External order field" >
   <i name="OFIELD_KAPPA">      0.00000000</i>
   <v name="OFIELD_K">      0.00000000      0.00000000      0.00000000</v>
   <i name="OFIELD_Q6_NEAR">      0.00000000</i>
   <i name="OFIELD_Q6_FAR">      0.00000000</i>
   <i name="OFIELD_A">      0.00000000</i>
  </separator>
 </parameters>
 <atominfo>
  <atoms>     158 </atoms>
  <types>       4 </types>
  <array name="atoms" >
   <dimension dim="1">ion</dimension>
   <field type="string">element</field>
   <field type="int">atomtype</field>
   <set>
    <rc><c>Sr</c><c>   1</c></rc>
    <rc><c>Sr</c><c>   1</c></rc>
    <rc><c>Sr</c><c>   1</c></rc>
    <rc><c>Sr</c><c>   1</c></rc>
    <rc><c>Sr</c><c>   1</c></rc>
    <rc><c>Sr</c><c>   1</c></rc>
    <rc><c>Sr</c><c>   1</c></rc>
    <rc><c>Sr</c><c>   1</c></rc>
    <rc><c>Sr</c><c>   1</c></rc>
    <rc><c>Sr</c><c>   1</c></rc>
    <rc><c>Sr</c><c>   1</c></rc>
    <rc><c>Sr</c><c>   1</c></rc>
    <rc><c>Sr</c><c>   1</c></rc>
    <rc><c>Sr</c><c>   1</c></rc>
    <rc><c>Sr</c><c>   1</c></rc>
    <rc><c>Sr</c><c>   1</c></rc>
    <rc><c>Sr</c><c>   1</c></rc>
    <rc><c>Sr</c><c>   1</c></rc>
    <rc><c>Sr</c><c>   1</c></rc>
    <rc><c>Sr</c><c>   1</c></rc>
    <rc><c>Sr</c><c>   1</c></rc>
    <rc><c>Sr</c><c>   1</c></rc>
    <rc><c>Sr</c><c>   1</c></rc>
    <rc><c>Sr</c><c>   1</c></rc>
    <rc><c>Sr</c><c>   1</c></rc>
    <rc><c>Sr</c><c>   1</c></rc>
    <rc><c>Sr</c><c>   1</c></rc>
    <rc><c>Sr</c><c>   1</c></rc>
    <rc><c>Sr</c><c>   1</c></rc>
    <rc><c>Sr</c><c>   1</c></rc>
    <rc><c>Sr</c><c>   1</c></rc>
    <rc><c>Sr</c><c>   1</c></rc>
    <rc><c>Ti</c><c>   2</c></rc>
    <rc><c>Ti</c><c>   2</c></rc>
    <rc><c>Ti</c><c>   2</c></rc>
    <rc><c>Ti</c><c>   2</c></rc>
    <rc><c>Ti</c><c>   2</c></rc>
    <rc><c>Ti</c><c>   2</c></rc>
    <rc><c>Ti</c><c>   2</c></rc>
    <rc><c>Ti</c><c>   2</c></rc>
    <rc><c>Ti</c><c>   2</c></rc>
    <rc><c>Ti</c><c>   2</c></rc>
    <rc><c>Ti</c><c>   2</c></rc>
    <rc><c>Ti</c><c>   2</c></rc>
    <rc><c>Ti</c><c>   2</c></rc>
    <rc><c>Ti</c><c>   2</c></rc>
    <rc><c>Ti</c><c>   2</c></rc>
    <rc><c>Ti</c><c>   2</c></rc>
    <rc><c>Ti</c><c>   2</c></rc>
    <rc><c>Ti</c><c>   2</c></rc>
    <rc><c>Ti</c><c>   2</c></rc>
    <rc><c>Ti</c><c>   2</c></rc>
    <rc><c>Ti</c><c>   2</c></rc>
    <rc><c>Ti</c><c>   2</c></rc>
    <rc><c>Ti</c><c>   2</c></rc>
    <rc><c>Ti</c><c>   2</c></rc>
    <rc><c>Ti</c><c>   2</c></rc>
    <rc><c>Ti</c><c>   2</c></rc>
    <rc><c>Ti</c><c>   2</c></rc>
    <rc><c>Ti</c><c>   2</c></rc>
    <rc><c>Fe</c><c>   3</c></rc>
    <rc><c>Fe</c><c>   3</c></rc>
    <rc><c>Fe</c><c>   3</c></rc>
    <rc><c>Fe</c><c>   3</c></rc>
    <rc><c>O </c><c>   4</c></rc>
    <rc><c>O </c><c>   4</c></rc>
    <rc><c>O </c><c>   4</c></rc>
    <rc><c>O </c><c>   4</c></rc>
    <rc><c>O </c><c>   4</c></rc>
    <rc><c>O </c><c>   4</c></rc>
    <rc><c>O </c><c>   4</c></rc>
    <rc><c>O </c><c>   4</c></rc>
    <rc><c>O </c><c>   4</c></rc>
    <rc><c>O </c><c>   4</c></rc>
    <rc><c>O </c><c>   4</c></rc>
    <rc><c>O </c><c>   4</c></rc>
    <rc><c>O </c><c>   4</c></rc>
    <rc><c>O </c><c>   4</c></rc>
    <rc><c>O </c><c>   4</c></rc>
    <rc><c>O </c><c>   4</c></rc>
    <rc><c>O </c><c>   4</c></rc>
    <rc><c>O </c><c>   4</c></rc>
    <rc><c>O </c><c>   4</c></rc>
    <rc><c>O </c><c>   4</c></rc>
    <rc><c>O </c><c>   4</c></rc>
    <rc><c>O </c><c>   4</c></rc>
    <rc><c>O </c><c>   4</c></rc>
    <rc><c>O </c><c>   4</c></rc>
    <rc><c>O </c><c>   4</c></rc>
    <rc><c>O </c><c>   4</c></rc>
    <rc><c>O </c><c>   4</c></rc>
    <rc><c>O </c><c>   4</c></rc>
    <rc><c>O </c><c>   4</c></rc>
    <rc><c>O </c><c>   4</c></rc>
    <rc><c>O </c><c>   4</c></rc>
    <rc><c>O </c><c>   4</c></rc>
    <rc><c>O </c><c>   4</c></rc>
    <rc><c>O </c><c>   4</c></rc>
    <rc><c>O </c><c>   4</c></rc>
    <rc><c>O </c><c>   4</c></rc>
    <rc><c>O </c><c>   4</c></rc>
    <rc><c>O </c><c>   4</c></rc>
    <rc><c>O </c><c>   4</c></rc>
    <rc><c>O </c><c>   4</c></rc>
    <rc><c>O </c><c>   4</c></rc>
    <rc><c>O </c><c>   4</c></rc>
    <rc><c>O </c><c>   4</c></rc>
    <rc><c>O </c><c>   4</c></rc>
    <rc><c>O </c><c>   4</c></rc>
    <rc><c>O </c><c>   4</c></rc>
    <rc><c>O </c><c>   4</c></rc>
    <rc><c>O </c><c>   4</c></rc>
    <rc><c>O </c><c>   4</c></rc>
    <rc><c>O </c><c>   4</c></rc>
    <rc><c>O </c><c>   4</c></rc>
    <rc><c>O </c><c>   4</c></rc>
    <rc><c>O </c><c>   4</c></rc>
    <rc><c>O </c><c>   4</c></rc>
    <rc><c>O </c><c>   4</c></rc>
    <rc><c>O </c><c>   4</c></rc>
    <rc><c>O </c><c>   4</c></rc>
    <rc><c>O </c><c>   4</c></rc>
    <rc><c>O </c><c>   4</c></rc>
    <rc><c>O </c><c>   4</c></rc>
    <rc><c>O </c><c>   4</c></rc>
    <rc><c>O </c><c>   4</c></rc>
    <rc><c>O </c><c>   4</c></rc>
    <rc><c>O </c><c>   4</c></rc>
    <rc><c>O </c><c>   4</c></rc>
    <rc><c>O </c><c>   4</c></rc>
    <rc><c>O </c><c>   4</c></rc>
    <rc><c>O </c><c>   4</c></rc>
    <rc><c>O </c><c>   4</c></rc>
    <rc><c>O </c><c>   4</c></rc>
    <rc><c>O </c><c>   4</c></rc>
    <rc><c>O </c><c>   4</c></rc>
    <rc><c>O </c><c>   4</c></rc>
    <rc><c>O </c><c>   4</c></rc>
    <rc><c>O </c><c>   4</c></rc>
    <rc><c>O </c><c>   4</c></rc>
    <rc><c>O </c><c>   4</c></rc>
    <rc><c>O </c><c>   4</c></rc>
    <rc><c>O </c><c>   4</c></rc>
    <rc><c>O </c><c>   4</c></rc>
    <rc><c>O </c><c>   4</c></rc>
    <rc><c>O </c><c>   4</c></rc>
    <rc><c>O </c><c>   4</c></rc>
    <rc><c>O </c><c>   4</c></rc>
    <rc><c>O </c><c>   4</c></rc>
    <rc><c>O </c><c>   4</c></rc>
    <rc><c>O </c><c>   4</c></rc>
    <rc><c>O </c><c>   4</c></rc>
    <rc><c>O </c><c>   4</c></rc>
    <rc><c>O </c><c>   4</c></rc>
    <rc><c>O </c><c>   4</c></rc>
    <rc><c>O </c><c>   4</c></rc>
    <rc><c>O </c><c>   4</c></rc>
    <rc><c>O </c><c>   4</c></rc>
   </set>
  </array>
  <array name="atomtypes" >
   <dimension dim="1">type</dimension>
   <field type="int">atomspertype</field>
   <field type="string">element</field>
   <field>mass</field>
   <field>valence</field>
   <field type="string">pseudopotential</field>
   <set>
    <rc><c>  32</c><c>Sr</c><c>     87.62000000</c><c>     10.00000000</c><c>  PAW_PBE Sr_sv 07Sep2000               </c></rc>
    <rc><c>  28</c><c>Ti</c><c>     47.88000000</c><c>      4.00000000</c><c>  PAW_PBE Ti 08Apr2002                  </c></rc>
    <rc><c>   4</c><c>Fe</c><c>     55.84700000</c><c>      8.00000000</c><c>  PAW_PBE Fe 06Sep2000                  </c></rc>
    <rc><c>  94</c><c>O </c><c>     16.00000000</c><c>      6.00000000</c><c>  PAW_PBE O 08Apr2002                   </c></rc>
   </set>
  </array>
 </atominfo>
 <structure name="initialpos" >
  <crystal>
   <varray name="basis" >
    <v>      11.21393730       0.00205286       0.00024266 </v>
    <v>       0.00205259      11.21445549      -0.00048299 </v>
    <v>       0.00034516      -0.00070800      15.94908234 </v>
   </varray>
   <i name="volume">   2005.72782539 </i>
   <varray name="rec_basis" >
    <v>       0.08917475      -0.00001632      -0.00000193 </v>
    <v>      -0.00001632       0.08917063       0.00000396 </v>
    <v>      -0.00000136       0.00000270       0.06269953 </v>
   </varray>
  </crystal>
  <varray name="positions" >
   <v>       0.00067145       0.24520396       0.12627758 </v>
   <v>       0.99900180       0.25231370       0.62609428 </v>
   <v>       0.99834852       0.75277484       0.13067312 </v>
   <v>       0.00172929       0.75144276       0.62430653 </v>
   <v>       0.50029907       0.25106447       0.12876940 </v>
   <v>       0.49960353       0.24452577       0.62302113 </v>
   <v>       0.50318016       0.74486145       0.12727391 </v>
   <v>       0.49780299       0.75871142       0.62754243 </v>
   <v>       0.99825318       0.25051765       0.37491826 </v>
   <v>       0.00182323       0.24870287       0.87171872 </v>
   <v>       0.99974951       0.75073834       0.37654990 </v>
   <v>       0.99948515       0.75275095       0.86924900 </v>
   <v>       0.50069109       0.25122080       0.37303263 </v>
   <v>       0.49881117       0.24534986       0.87532711 </v>
   <v>       0.49850933       0.74759471       0.37486748 </v>
   <v>       0.50457649       0.75521517       0.87190884 </v>
   <v>       0.24986451       0.00610611       0.12816381 </v>
   <v>       0.25215509       0.99712726       0.62637673 </v>
   <v>       0.25881959       0.49296384       0.13154196 </v>
   <v>       0.24264627       0.50181803       0.62292880 </v>
   <v>       0.75033261       0.00025470       0.12784584 </v>
   <v>       0.74749797       0.99924756       0.62567923 </v>
   <v>       0.74051360       0.49972717       0.13011941 </v>
   <v>       0.75573329       0.50471699       0.62132761 </v>
   <v>       0.24969630       0.99892861       0.37577089 </v>
   <v>       0.25226258       0.00315896       0.86998161 </v>
   <v>       0.25241939       0.50002009       0.37464609 </v>
   <v>       0.24977261       0.49473368       0.87141343 </v>
   <v>       0.74982540       0.00105791       0.37467947 </v>
   <v>       0.74877671       0.99842641       0.87164230 </v>
   <v>       0.74703517       0.49970179       0.37418464 </v>
   <v>       0.75065821       0.50488131       0.87439647 </v>
   <v>       0.99914309       0.99959926       0.99932771 </v>
   <v>       0.00006204       0.00079293       0.50062731 </v>
   <v>       0.98687978       0.49328094       0.00151379 </v>
   <v>       0.99936417       0.49964158       0.49884915 </v>
   <v>       0.50438738       0.00243564       0.99936730 </v>
   <v>       0.49988190       0.99989634       0.50055572 </v>
   <v>       0.50117534       0.49775032       0.00067218 </v>
   <v>       0.50076459       0.49890700       0.49952969 </v>
   <v>       0.25119476       0.24976098       0.99994688 </v>
   <v>       0.25002091       0.24999919       0.50016094 </v>
   <v>       0.25763215       0.76208682       0.99919165 </v>
   <v>       0.25073970       0.75065162       0.50222170 </v>
   <v>       0.74638610       0.24689489       0.99842354 </v>
   <v>       0.74939113       0.25154223       0.50193329 </v>
   <v>       0.75074463       0.75151275       0.00030402 </v>
   <v>       0.74928450       0.75056439       0.49976848 </v>
   <v>       0.25101216       0.25068814       0.25142532 </v>
   <v>       0.25143271       0.24770391       0.74871923 </v>
   <v>       0.25075009       0.74687165       0.25058693 </v>
   <v>       0.74986314       0.25093256       0.24989966 </v>
   <v>       0.74879837       0.74865457       0.25058590 </v>
   <v>       0.75026267       0.75127633       0.74923803 </v>
   <v>       0.99996250       0.00033120       0.25049865 </v>
   <v>       0.00267073       0.99847193       0.74940808 </v>
   <v>       0.00116243       0.50125107       0.24999323 </v>
   <v>       0.00070948       0.50276943       0.74982725 </v>
   <v>       0.50005236       0.99893654       0.24977521 </v>
   <v>       0.48718290       0.50769345       0.74888220 </v>
   <v>       0.24643218       0.75355709       0.75049473 </v>
   <v>       0.75789263       0.23770424       0.75047437 </v>
   <v>       0.49895975       0.00134166       0.75025685 </v>
   <v>       0.49964860       0.50012606       0.25164343 </v>
   <v>       0.11134981       0.13889287       0.24983731 </v>
   <v>       0.10932453       0.14051193       0.74991202 </v>
   <v>       0.10988672       0.64031055       0.25628072 </v>
   <v>       0.10936073       0.63749357       0.74421893 </v>
   <v>       0.61206405       0.13731692       0.25047124 </v>
   <v>       0.60866282       0.14893742       0.74954280 </v>
   <v>       0.61348148       0.63898896       0.25009134 </v>
   <v>       0.61750216       0.62610278       0.75071746 </v>
   <v>       0.38641273       0.36066860       0.24890358 </v>
   <v>       0.39471798       0.35797340       0.75096783 </v>
   <v>       0.38746028       0.86007180       0.24269041 </v>
   <v>       0.38683616       0.85824249       0.75652115 </v>
   <v>       0.89075757       0.36292886       0.24299481 </v>
   <v>       0.87923429       0.36996255       0.75597758 </v>
   <v>       0.88892213       0.86182528       0.25060933 </v>
   <v>       0.88837413       0.86108557       0.74917814 </v>
   <v>       0.36088562       0.11080149       0.25060466 </v>
   <v>       0.35723961       0.11146829       0.74929233 </v>
   <v>       0.36003366       0.61233298       0.24981198 </v>
   <v>       0.35881273       0.60862979       0.74906513 </v>
   <v>       0.86237280       0.11132818       0.24950741 </v>
   <v>       0.86288549       0.10731240       0.75044458 </v>
   <v>       0.86195400       0.61063615       0.24717129 </v>
   <v>       0.86324332       0.61377695       0.75177702 </v>
   <v>       0.13865167       0.38958600       0.25004503 </v>
   <v>       0.13757101       0.38813016       0.75084948 </v>
   <v>       0.13928975       0.88865473       0.24684911 </v>
   <v>       0.13781750       0.89076435       0.75267774 </v>
   <v>       0.63903640       0.38601567       0.25084460 </v>
   <v>       0.63892958       0.88823055       0.24943555 </v>
   <v>       0.63813239       0.88436159       0.75020449 </v>
   <v>       0.36017503       0.38988459       0.99797712 </v>
   <v>       0.35901194       0.39088648       0.50253024 </v>
   <v>       0.35641343       0.89391223       0.99954577 </v>
   <v>       0.36004089       0.89027954       0.49947798 </v>
   <v>       0.85480348       0.39574969       0.00284570 </v>
   <v>       0.85899634       0.39159494       0.49837897 </v>
   <v>       0.85534117       0.89511924       0.99977104 </v>
   <v>       0.85934231       0.89095976       0.50029183 </v>
   <v>       0.14034926       0.11025447       0.99982760 </v>
   <v>       0.14072790       0.10971301       0.50047626 </v>
   <v>       0.13963024       0.60971664       0.49810822 </v>
   <v>       0.64486776       0.10581012       0.99913364 </v>
   <v>       0.64098914       0.10981366       0.50021912 </v>
   <v>       0.64238265       0.60833398       0.99900545 </v>
   <v>       0.64123752       0.60899398       0.50024307 </v>
   <v>       0.11358855       0.37074981       0.99982323 </v>
   <v>       0.10900217       0.35993502       0.49981738 </v>
   <v>       0.10534082       0.85328165       0.00217572 </v>
   <v>       0.10973594       0.85999043       0.49813026 </v>
   <v>       0.60771432       0.35638427       0.00484846 </v>
   <v>       0.60943228       0.35811854       0.49482359 </v>
   <v>       0.60607270       0.85636195       0.00098695 </v>
   <v>       0.60977115       0.85886640       0.49912217 </v>
   <v>       0.39158142       0.14140735       0.00110554 </v>
   <v>       0.39028769       0.14059248       0.49858719 </v>
   <v>       0.38469456       0.63573522       0.99386955 </v>
   <v>       0.39167886       0.63856044       0.50702212 </v>
   <v>       0.89245135       0.14604667       0.99577488 </v>
   <v>       0.89028340       0.14145685       0.50432560 </v>
   <v>       0.89929588       0.64599105       0.99928555 </v>
   <v>       0.89053821       0.64036517       0.50102783 </v>
   <v>       0.99814487       0.00325434       0.12402360 </v>
   <v>       0.00225457       0.99757796       0.62510395 </v>
   <v>       0.01723845       0.51522813       0.12087301 </v>
   <v>       0.99792233       0.49633335       0.62443326 </v>
   <v>       0.50087999       0.00223437       0.12417693 </v>
   <v>       0.49941121       0.99774703       0.62327967 </v>
   <v>       0.49938589       0.50266333       0.12264027 </v>
   <v>       0.51693723       0.48378524       0.62979380 </v>
   <v>       0.99969513       0.00176880       0.37535458 </v>
   <v>       0.00068704       0.99924041       0.87549220 </v>
   <v>       0.99632306       0.49768786       0.37392467 </v>
   <v>       0.01277709       0.51159974       0.88002307 </v>
   <v>       0.49871521       0.99678015       0.37372977 </v>
   <v>       0.50141500       0.00116104       0.87785993 </v>
   <v>       0.49694826       0.50203893       0.37759687 </v>
   <v>       0.51506955       0.48560447       0.87016134 </v>
   <v>       0.24951008       0.25117242       0.37550663 </v>
   <v>       0.24835892       0.24945285       0.87515500 </v>
   <v>       0.25577571       0.75172071       0.37462969 </v>
   <v>       0.23104137       0.73121118       0.88181702 </v>
   <v>       0.75608217       0.24888089       0.37428788 </v>
   <v>       0.74070921       0.26193552       0.87520920 </v>
   <v>       0.75202494       0.74903581       0.37508156 </v>
   <v>       0.74920283       0.75052841       0.87556267 </v>
   <v>       0.24861333       0.24939889       0.12456345 </v>
   <v>       0.24858419       0.25147396       0.62491654 </v>
   <v>       0.23870007       0.72973914       0.11911097 </v>
   <v>       0.24871423       0.75322070       0.62364542 </v>
   <v>       0.75066187       0.24667033       0.12394812 </v>
   <v>       0.74496586       0.26392450       0.62662593 </v>
   <v>       0.75049722       0.74989875       0.12421222 </v>
   <v>       0.74938152       0.74933649       0.62487665 </v>
  </varray>
 </structure>
 <calculation>
  <scstep>
   <time name="dav">  589.30  589.32</time>
   <time name="total">  596.51  596.62</time>
   <energy>
    <i name="alphaZ">   5632.00925259 </i>
    <i name="ewald"> -61031.87475080 </i>
    <i name="hartreedc"> -15464.47127874 </i>
    <i name="XCdc">   2852.24510560 </i>
    <i name="pawpsdc"> 111941.06209406 </i>
    <i name="pawaedc">-110689.06876116 </i>
    <i name="eentropy">     -0.00000000 </i>
    <i name="bandstr">  -7042.28441878 </i>
    <i name="atom">  72650.08363186 </i>
    <i name="e_fr_energy">  -1152.29912537 </i>
    <i name="e_wo_entrp">  -1152.29912537 </i>
    <i name="e_0_energy">  -1152.29912537 </i>
   </energy>
  </scstep>
  <scstep>
   <time name="diag">   64.99   64.99</time>
   <time name="diis">   62.82   62.82</time>
   <time name="orth">   33.26   33.26</time>
   <time name="total">  168.29  168.34</time>
   <energy>
    <i name="e_fr_energy">  -1152.29912497 </i>
    <i name="e_wo_entrp">  -1152.29912497 </i>
    <i name="e_0_energy">  -1152.29912497 </i>
   </energy>
  </scstep>
  <scstep>
   <time name="diag">   64.91   64.91</time>
   <time name="diis">   59.61   59.61</time>
   <time name="orth">   33.34   33.35</time>
   <time name="total">  165.07  165.14</time>
   <energy>
    <i name="e_fr_energy">  -1152.29912540 </i>
    <i name="e_wo_entrp">  -1152.29912540 </i>
    <i name="e_0_energy">  -1152.29912540 </i>
   </energy>
  </scstep>
  <scstep>
   <time name="diag">   64.97   64.97</time>
   <time name="diis">   49.51   49.51</time>
   <time name="orth">   33.33   33.33</time>
   <time name="total">  155.04  155.11</time>
   <energy>
    <i name="e_fr_energy">  -1152.29912585 </i>
    <i name="e_wo_entrp">  -1152.29912585 </i>
    <i name="e_0_energy">  -1152.29912585 </i>
   </energy>
  </scstep>
  <scstep>
   <time name="diag">   64.64   64.64</time>
   <time name="diis">   49.08   49.08</time>
   <time name="orth">   33.29   33.29</time>
   <time name="total">  154.22  154.29</time>
   <energy>
    <i name="e_fr_energy">  -1152.29912618 </i>
    <i name="e_wo_entrp">  -1152.29912618 </i>
    <i name="e_0_energy">  -1152.29912618 </i>
   </energy>
  </scstep>
  <scstep>
   <time name="diag">   64.88   64.88</time>
   <time name="diis">   45.89   45.90</time>
   <time name="orth">   33.33   33.32</time>
   <time name="total">  151.31  151.40</time>
   <energy>
    <i name="e_fr_energy">  -1152.29912639 </i>
    <i name="e_wo_entrp">  -1152.29912639 </i>
    <i name="e_0_energy">  -1152.29912639 </i>
   </energy>
  </scstep>
  <scstep>
   <time name="diag">   64.98   64.98</time>
   <time name="diis">   44.32   44.32</time>
   <time name="orth">   33.23   33.23</time>
   <time name="total">  149.75  149.83</time>
   <energy>
    <i name="e_fr_energy">  -1152.29912650 </i>
    <i name="e_wo_entrp">  -1152.29912650 </i>
    <i name="e_0_energy">  -1152.29912650 </i>
   </energy>
  </scstep>
  <scstep>
   <time name="diag">   65.10   65.10</time>
   <time name="diis">   42.53   42.53</time>
   <time name="orth">   33.17   33.17</time>
   <time name="total">  141.86  141.91</time>
   <energy>
    <i name="alphaZ">   5632.00925259 </i>
    <i name="ewald"> -61031.87475080 </i>
    <i name="hartreedc"> -15464.46812540 </i>
    <i name="XCdc">   2852.24533386 </i>
    <i name="pawpsdc"> 111939.95200210 </i>
    <i name="pawaedc">-110687.94121467 </i>
    <i name="eentropy">     -0.00000000 </i>
    <i name="bandstr">  -7042.30525606 </i>
    <i name="atom">  72650.08363186 </i>
    <i name="e_fr_energy">  -1152.29912653 </i>
    <i name="e_wo_entrp">  -1152.29912653 </i>
    <i name="e_0_energy">  -1152.29912653 </i>
   </energy>
  </scstep>
  <structure>
   <crystal>
    <varray name="basis" >
     <v>      11.21393730       0.00205286       0.00024266 </v>
     <v>       0.00205259      11.21445549      -0.00048299 </v>
     <v>       0.00034516      -0.00070800      15.94908234 </v>
    </varray>
    <i name="volume">   2005.72782539 </i>
    <varray name="rec_basis" >
     <v>       0.08917475      -0.00001632      -0.00000193 </v>
     <v>      -0.00001632       0.08917063       0.00000396 </v>
     <v>      -0.00000136       0.00000270       0.06269953 </v>
    </varray>
   </crystal>
   <varray name="positions" >
    <v>       0.00067145       0.24520396       0.12627758 </v>
    <v>       0.99900180       0.25231370       0.62609428 </v>
    <v>       0.99834852       0.75277484       0.13067312 </v>
    <v>       0.00172929       0.75144276       0.62430653 </v>
    <v>       0.50029907       0.25106447       0.12876940 </v>
    <v>       0.49960353       0.24452577       0.62302113 </v>
    <v>       0.50318016       0.74486145       0.12727391 </v>
    <v>       0.49780299       0.75871142       0.62754243 </v>
    <v>       0.99825318       0.25051765       0.37491826 </v>
    <v>       0.00182323       0.24870287       0.87171872 </v>
    <v>       0.99974951       0.75073834       0.37654990 </v>
    <v>       0.99948515       0.75275095       0.86924900 </v>
    <v>       0.50069109       0.25122080       0.37303263 </v>
    <v>       0.49881117       0.24534986       0.87532711 </v>
    <v>       0.49850933       0.74759471       0.37486748 </v>
    <v>       0.50457649       0.75521517       0.87190884 </v>
    <v>       0.24986451       0.00610611       0.12816381 </v>
    <v>       0.25215509       0.99712726       0.62637673 </v>
    <v>       0.25881959       0.49296384       0.13154196 </v>
    <v>       0.24264627       0.50181803       0.62292880 </v>
    <v>       0.75033261       0.00025470       0.12784584 </v>
    <v>       0.74749797       0.99924756       0.62567923 </v>
    <v>       0.74051360       0.49972717       0.13011941 </v>
    <v>       0.75573329       0.50471699       0.62132761 </v>
    <v>       0.24969630       0.99892861       0.37577089 </v>
    <v>       0.25226258       0.00315896       0.86998161 </v>
    <v>       0.25241939       0.50002009       0.37464609 </v>
    <v>       0.24977261       0.49473368       0.87141343 </v>
    <v>       0.74982540       0.00105791       0.37467947 </v>
    <v>       0.74877671       0.99842641       0.87164230 </v>
    <v>       0.74703517       0.49970179       0.37418464 </v>
    <v>       0.75065821       0.50488131       0.87439647 </v>
    <v>       0.99914309       0.99959926       0.99932771 </v>
    <v>       0.00006204       0.00079293       0.50062731 </v>
    <v>       0.98687978       0.49328094       0.00151379 </v>
    <v>       0.99936417       0.49964158       0.49884915 </v>
    <v>       0.50438738       0.00243564       0.99936730 </v>
    <v>       0.49988190       0.99989634       0.50055572 </v>
    <v>       0.50117534       0.49775032       0.00067218 </v>
    <v>       0.50076459       0.49890700       0.49952969 </v>
    <v>       0.25119476       0.24976098       0.99994688 </v>
    <v>       0.25002091       0.24999919       0.50016094 </v>
    <v>       0.25763215       0.76208682       0.99919165 </v>
    <v>       0.25073970       0.75065162       0.50222170 </v>
    <v>       0.74638610       0.24689489       0.99842354 </v>
    <v>       0.74939113       0.25154223       0.50193329 </v>
    <v>       0.75074463       0.75151275       0.00030402 </v>
    <v>       0.74928450       0.75056439       0.49976848 </v>
    <v>       0.25101216       0.25068814       0.25142532 </v>
    <v>       0.25143271       0.24770391       0.74871923 </v>
    <v>       0.25075009       0.74687165       0.25058693 </v>
    <v>       0.74986314       0.25093256       0.24989966 </v>
    <v>       0.74879837       0.74865457       0.25058590 </v>
    <v>       0.75026267       0.75127633       0.74923803 </v>
    <v>       0.99996250       0.00033120       0.25049865 </v>
    <v>       0.00267073       0.99847193       0.74940808 </v>
    <v>       0.00116243       0.50125107       0.24999323 </v>
    <v>       0.00070948       0.50276943       0.74982725 </v>
    <v>       0.50005236       0.99893654       0.24977521 </v>
    <v>       0.48718290       0.50769345       0.74888220 </v>
    <v>       0.24643218       0.75355709       0.75049473 </v>
    <v>       0.75789263       0.23770424       0.75047437 </v>
    <v>       0.49895975       0.00134166       0.75025685 </v>
    <v>       0.49964860       0.50012606       0.25164343 </v>
    <v>       0.11134981       0.13889287       0.24983731 </v>
    <v>       0.10932453       0.14051193       0.74991202 </v>
    <v>       0.10988672       0.64031055       0.25628072 </v>
    <v>       0.10936073       0.63749357       0.74421893 </v>
    <v>       0.61206405       0.13731692       0.25047124 </v>
    <v>       0.60866282       0.14893742       0.74954280 </v>
    <v>       0.61348148       0.63898896       0.25009134 </v>
    <v>       0.61750216       0.62610278       0.75071746 </v>
    <v>       0.38641273       0.36066860       0.24890358 </v>
    <v>       0.39471798       0.35797340       0.75096783 </v>
    <v>       0.38746028       0.86007180       0.24269041 </v>
    <v>       0.38683616       0.85824249       0.75652115 </v>
    <v>       0.89075757       0.36292886       0.24299481 </v>
    <v>       0.87923429       0.36996255       0.75597758 </v>
    <v>       0.88892213       0.86182528       0.25060933 </v>
    <v>       0.88837413       0.86108557       0.74917814 </v>
    <v>       0.36088562       0.11080149       0.25060466 </v>
    <v>       0.35723961       0.11146829       0.74929233 </v>
    <v>       0.36003366       0.61233298       0.24981198 </v>
    <v>       0.35881273       0.60862979       0.74906513 </v>
    <v>       0.86237280       0.11132818       0.24950741 </v>
    <v>       0.86288549       0.10731240       0.75044458 </v>
    <v>       0.86195400       0.61063615       0.24717129 </v>
    <v>       0.86324332       0.61377695       0.75177702 </v>
    <v>       0.13865167       0.38958600       0.25004503 </v>
    <v>       0.13757101       0.38813016       0.75084948 </v>
    <v>       0.13928975       0.88865473       0.24684911 </v>
    <v>       0.13781750       0.89076435       0.75267774 </v>
    <v>       0.63903640       0.38601567       0.25084460 </v>
    <v>       0.63892958       0.88823055       0.24943555 </v>
    <v>       0.63813239       0.88436159       0.75020449 </v>
    <v>       0.36017503       0.38988459       0.99797712 </v>
    <v>       0.35901194       0.39088648       0.50253024 </v>
    <v>       0.35641343       0.89391223       0.99954577 </v>
    <v>       0.36004089       0.89027954       0.49947798 </v>
    <v>       0.85480348       0.39574969       0.00284570 </v>
    <v>       0.85899634       0.39159494       0.49837897 </v>
    <v>       0.85534117       0.89511924       0.99977104 </v>
    <v>       0.85934231       0.89095976       0.50029183 </v>
    <v>       0.14034926       0.11025447       0.99982760 </v>
    <v>       0.14072790       0.10971301       0.50047626 </v>
    <v>       0.13963024       0.60971664       0.49810822 </v>
    <v>       0.64486776       0.10581012       0.99913364 </v>
    <v>       0.64098914       0.10981366       0.50021912 </v>
    <v>       0.64238265       0.60833398       0.99900545 </v>
    <v>       0.64123752       0.60899398       0.50024307 </v>
    <v>       0.11358855       0.37074981       0.99982323 </v>
    <v>       0.10900217       0.35993502       0.49981738 </v>
    <v>       0.10534082       0.85328165       0.00217572 </v>
    <v>       0.10973594       0.85999043       0.49813026 </v>
    <v>       0.60771432       0.35638427       0.00484846 </v>
    <v>       0.60943228       0.35811854       0.49482359 </v>
    <v>       0.60607270       0.85636195       0.00098695 </v>
    <v>       0.60977115       0.85886640       0.49912217 </v>
    <v>       0.39158142       0.14140735       0.00110554 </v>
    <v>       0.39028769       0.14059248       0.49858719 </v>
    <v>       0.38469456       0.63573522       0.99386955 </v>
    <v>       0.39167886       0.63856044       0.50702212 </v>
    <v>       0.89245135       0.14604667       0.99577488 </v>
    <v>       0.89028340       0.14145685       0.50432560 </v>
    <v>       0.89929588       0.64599105       0.99928555 </v>
    <v>       0.89053821       0.64036517       0.50102783 </v>
    <v>       0.99814487       0.00325434       0.12402360 </v>
    <v>       0.00225457       0.99757796       0.62510395 </v>
    <v>       0.01723845       0.51522813       0.12087301 </v>
    <v>       0.99792233       0.49633335       0.62443326 </v>
    <v>       0.50087999       0.00223437       0.12417693 </v>
    <v>       0.49941121       0.99774703       0.62327967 </v>
    <v>       0.49938589       0.50266333       0.12264027 </v>
    <v>       0.51693723       0.48378524       0.62979380 </v>
    <v>       0.99969513       0.00176880       0.37535458 </v>
    <v>       0.00068704       0.99924041       0.87549220 </v>
    <v>       0.99632306       0.49768786       0.37392467 </v>
    <v>       0.01277709       0.51159974       0.88002307 </v>
    <v>       0.49871521       0.99678015       0.37372977 </v>
    <v>       0.50141500       0.00116104       0.87785993 </v>
    <v>       0.49694826       0.50203893       0.37759687 </v>
    <v>       0.51506955       0.48560447       0.87016134 </v>
    <v>       0.24951008       0.25117242       0.37550663 </v>
    <v>       0.24835892       0.24945285       0.87515500 </v>
    <v>       0.25577571       0.75172071       0.37462969 </v>
    <v>       0.23104137       0.73121118       0.88181702 </v>
    <v>       0.75608217       0.24888089       0.37428788 </v>
    <v>       0.74070921       0.26193552       0.87520920 </v>
    <v>       0.75202494       0.74903581       0.37508156 </v>
    <v>       0.74920283       0.75052841       0.87556267 </v>
    <v>       0.24861333       0.24939889       0.12456345 </v>
    <v>       0.24858419       0.25147396       0.62491654 </v>
    <v>       0.23870007       0.72973914       0.11911097 </v>
    <v>       0.24871423       0.75322070       0.62364542 </v>
    <v>       0.75066187       0.24667033       0.12394812 </v>
    <v>       0.74496586       0.26392450       0.62662593 </v>
    <v>       0.75049722       0.74989875       0.12421222 </v>
    <v>       0.74938152       0.74933649       0.62487665 </v>
   </varray>
  </structure>
  <varray name="forces" >
   <v>      -0.00572671      -0.00715990      -0.01064427 </v>
   <v>      -0.00345185       0.00471263       0.00483128 </v>
   <v>      -0.00285612       0.00579631      -0.03024678 </v>
   <v>       0.00361323      -0.00073692       0.02067356 </v>
   <v>       0.00994667      -0.00149284      -0.01712050 </v>
   <v>       0.00803712      -0.00421183       0.00985186 </v>
   <v>      -0.00261239      -0.01194581      -0.00858919 </v>
   <v>       0.00112638       0.00442041      -0.00156332 </v>
   <v>      -0.00238037      -0.00534989      -0.00109024 </v>
   <v>      -0.00789888       0.00327089       0.01464616 </v>
   <v>      -0.01302572       0.00473436       0.00693128 </v>
   <v>       0.01012892       0.00379203       0.01713197 </v>
   <v>      -0.00176648       0.00135484      -0.00629673 </v>
   <v>       0.00319236      -0.01765855       0.00646259 </v>
   <v>       0.00539637      -0.00118523       0.00417806 </v>
   <v>       0.00441083       0.00888051       0.01229746 </v>
   <v>       0.00085174      -0.00899140      -0.01786288 </v>
   <v>      -0.00363259      -0.00441487       0.00866577 </v>
   <v>       0.01203494      -0.00321725      -0.00531522 </v>
   <v>      -0.00194379       0.00351692      -0.00635576 </v>
   <v>       0.00760186       0.00850460      -0.02102430 </v>
   <v>      -0.00740182       0.00520613       0.01007062 </v>
   <v>      -0.00620050      -0.00775909      -0.00935279 </v>
   <v>       0.01219773       0.00327849       0.00087923 </v>
   <v>       0.00624654      -0.00507658      -0.00088318 </v>
   <v>       0.00406365      -0.00532129       0.00912098 </v>
   <v>       0.00288691       0.00697051      -0.00118411 </v>
   <v>       0.00458046      -0.00427730       0.00672417 </v>
   <v>      -0.00708559       0.00965984      -0.00272095 </v>
   <v>      -0.00584624       0.01127677       0.00417219 </v>
   <v>       0.00266364      -0.01274005      -0.00319631 </v>
   <v>       0.01289743       0.01115532       0.01960915 </v>
   <v>      -0.00742924       0.00582669      -0.00109047 </v>
   <v>       0.00612468       0.00288827       0.01438148 </v>
   <v>      -0.04861315      -0.03948870      -0.02621819 </v>
   <v>      -0.01309132      -0.00111474       0.00156549 </v>
   <v>       0.00471919       0.01406103      -0.01769994 </v>
   <v>       0.00741967      -0.00227138      -0.00852549 </v>
   <v>       0.00863907       0.01584639      -0.01363246 </v>
   <v>       0.00539738       0.00566939       0.00542104 </v>
   <v>      -0.01285507       0.00320297      -0.01263626 </v>
   <v>      -0.01585520       0.00305211       0.00704372 </v>
   <v>       0.03769706       0.02757867      -0.01106720 </v>
   <v>       0.00102083      -0.01081042       0.00391391 </v>
   <v>      -0.00212751      -0.01125277       0.01352293 </v>
   <v>      -0.00652201       0.00512873      -0.00408210 </v>
   <v>       0.00782688      -0.00621276       0.00584931 </v>
   <v>      -0.00277446      -0.00860872       0.01289104 </v>
   <v>       0.00629249       0.00199127       0.00269266 </v>
   <v>       0.00408417      -0.00979664       0.00504603 </v>
   <v>       0.01635073      -0.00750730       0.00979343 </v>
   <v>      -0.00126707       0.01455859      -0.01546308 </v>
   <v>      -0.00687117      -0.01256292      -0.00022901 </v>
   <v>      -0.01362705       0.01457338       0.00056243 </v>
   <v>      -0.01854282       0.00633482      -0.00325832 </v>
   <v>      -0.00393549      -0.00717284      -0.00663348 </v>
   <v>      -0.02076019      -0.00928941      -0.01160180 </v>
   <v>      -0.00706884       0.00245871       0.00907267 </v>
   <v>      -0.00096360       0.00166072       0.00863620 </v>
   <v>       0.02430378      -0.00429031       0.00881930 </v>
   <v>      -0.00690806       0.00571774       0.00578966 </v>
   <v>       0.01824479       0.00815781      -0.00073318 </v>
   <v>      -0.00370696      -0.01246510       0.01804771 </v>
   <v>       0.01076619      -0.01326941       0.00400768 </v>
   <v>       0.00283537      -0.01637992       0.00364622 </v>
   <v>       0.01975800      -0.00303321       0.00124238 </v>
   <v>      -0.00638789       0.00349293      -0.00760107 </v>
   <v>       0.00283247      -0.00764343       0.00911214 </v>
   <v>      -0.01990744      -0.02057010       0.01044294 </v>
   <v>      -0.01522625      -0.00098723      -0.00386917 </v>
   <v>       0.00983584       0.00358085       0.00362876 </v>
   <v>       0.00576338      -0.00458090      -0.00711359 </v>
   <v>      -0.01078929      -0.00355503      -0.00291225 </v>
   <v>      -0.00035953       0.01759068      -0.00209925 </v>
   <v>      -0.01601466      -0.00114731      -0.00339911 </v>
   <v>       0.00125054       0.01297308      -0.00568638 </v>
   <v>       0.01216920       0.02461252       0.00373807 </v>
   <v>      -0.01507525       0.01784919      -0.01653177 </v>
   <v>      -0.01509393       0.01712849       0.00161286 </v>
   <v>      -0.01879708       0.00862067      -0.00033061 </v>
   <v>       0.00172617       0.00132552      -0.00614563 </v>
   <v>       0.01454554       0.01133020      -0.00456390 </v>
   <v>      -0.01172212       0.01425479       0.00194654 </v>
   <v>       0.01486287       0.00993301      -0.01399951 </v>
   <v>       0.02069418      -0.02066654       0.00893899 </v>
   <v>       0.00222415       0.02073912      -0.01725566 </v>
   <v>       0.01028299       0.00629181       0.00349751 </v>
   <v>       0.02671805       0.01524152      -0.00951341 </v>
   <v>      -0.01450329      -0.00536779       0.00347673 </v>
   <v>      -0.01135503      -0.00225205      -0.00558635 </v>
   <v>      -0.00357611      -0.00967840       0.00369913 </v>
   <v>      -0.02112146      -0.00100533       0.00649903 </v>
   <v>      -0.01167584       0.00731977       0.00712877 </v>
   <v>      -0.01102694      -0.01242860       0.00376281 </v>
   <v>      -0.00207186      -0.00434316      -0.00237214 </v>
   <v>       0.00789613      -0.00274057       0.00194122 </v>
   <v>       0.00004517       0.00333973      -0.00133960 </v>
   <v>      -0.01466100      -0.02860647       0.00511083 </v>
   <v>      -0.00802465       0.00175681       0.00354815 </v>
   <v>       0.02490330       0.01923732       0.01163092 </v>
   <v>       0.00792537      -0.00321661       0.00598139 </v>
   <v>       0.02101628      -0.01372378      -0.00159210 </v>
   <v>       0.00165324       0.00422495      -0.00224020 </v>
   <v>      -0.00594040       0.00569658       0.00082028 </v>
   <v>      -0.00534539      -0.00307566      -0.00765457 </v>
   <v>       0.00553490      -0.00804930      -0.00498724 </v>
   <v>      -0.00585740       0.00548670      -0.00217993 </v>
   <v>      -0.00384876      -0.00141338      -0.01691920 </v>
   <v>      -0.00622964       0.00281350       0.00518255 </v>
   <v>      -0.00192962      -0.00135651      -0.00784474 </v>
   <v>       0.01855335       0.00177502      -0.00612156 </v>
   <v>       0.00628581      -0.00631713      -0.00416529 </v>
   <v>       0.00962355      -0.01284431      -0.00578656 </v>
   <v>      -0.00843003       0.00356925       0.00003349 </v>
   <v>      -0.02319068       0.00715393       0.00197749 </v>
   <v>      -0.01270555       0.00701324      -0.01178346 </v>
   <v>       0.01997322      -0.00662200      -0.00301389 </v>
   <v>      -0.00470941       0.00114112      -0.00609010 </v>
   <v>      -0.01312863       0.01256080       0.00234837 </v>
   <v>      -0.00708878       0.00087181       0.00157723 </v>
   <v>       0.00032455      -0.00780561       0.00416963 </v>
   <v>       0.00120110      -0.00842183       0.00553613 </v>
   <v>       0.00846996      -0.02496580       0.00249617 </v>
   <v>       0.00105902      -0.01182667      -0.00937101 </v>
   <v>       0.01679779      -0.00274110       0.00455811 </v>
   <v>      -0.00549100       0.00273671       0.00350691 </v>
   <v>      -0.00012146      -0.01001755       0.00856702 </v>
   <v>       0.00512305       0.00622131      -0.02066628 </v>
   <v>      -0.00538362      -0.00722130       0.01990801 </v>
   <v>       0.02711702       0.00349222       0.00364840 </v>
   <v>       0.01052303       0.00533035       0.02261293 </v>
   <v>      -0.00152205       0.01468804       0.00055149 </v>
   <v>       0.00208164      -0.00246761      -0.00564621 </v>
   <v>       0.00550306       0.00161264       0.00213107 </v>
   <v>       0.00296403      -0.01231958      -0.00339519 </v>
   <v>       0.00171282       0.00935924       0.01801407 </v>
   <v>       0.00272900       0.00428914      -0.01333310 </v>
   <v>       0.00204080      -0.00664131       0.00232147 </v>
   <v>      -0.01055370       0.00439487      -0.00494706 </v>
   <v>       0.00089211      -0.00665016      -0.00309768 </v>
   <v>      -0.00951935       0.00405654       0.01021636 </v>
   <v>       0.00634795       0.00505417      -0.00414057 </v>
   <v>       0.00888148       0.00355277      -0.00231402 </v>
   <v>       0.00081497       0.00088660       0.00110842 </v>
   <v>      -0.00607171      -0.00203562      -0.01717581 </v>
   <v>       0.01053519      -0.00189840       0.01045000 </v>
   <v>       0.00735241       0.00725770       0.02030436 </v>
   <v>       0.00870143       0.00059607      -0.00847369 </v>
   <v>       0.00330760      -0.00685677      -0.00039261 </v>
   <v>       0.00893191       0.00310163       0.00749803 </v>
   <v>       0.00125393       0.00530799       0.00104150 </v>
   <v>      -0.00465320      -0.00343947      -0.00476997 </v>
   <v>      -0.00600695       0.00547248      -0.00019689 </v>
   <v>      -0.01642565       0.00199909       0.01034649 </v>
   <v>      -0.00428831      -0.01341692      -0.00119004 </v>
   <v>      -0.02274766      -0.01117661      -0.00396830 </v>
   <v>      -0.00521409       0.00193181       0.01110374 </v>
   <v>       0.00420227       0.00365507      -0.00582401 </v>
  </varray>
  <varray name="stress" >
   <v>       0.06407794      -0.06032667      -0.03583968 </v>
   <v>      -0.06032663       0.05266725       0.03698898 </v>
   <v>      -0.03584023       0.03698881      -0.12029284 </v>
  </varray>
  <energy>
   <i name="e_fr_energy">  -1152.29912653 </i>
   <i name="e_wo_entrp">  -1152.29912653 </i>
   <i name="e_0_energy">     -0.00000000 </i>
  </energy>
  <time name="totalsc"> 1948.38 1950.38</time>
 </calculation>
 <calculation>
  <scstep>
   <time name="dav">  565.36  565.39</time>
   <time name="total">  572.54  572.70</time>
   <energy>
    <i name="alphaZ">   5632.01690386 </i>
    <i name="ewald"> -61032.09590718 </i>
    <i name="hartreedc"> -15464.14750225 </i>
    <i name="XCdc">   2852.24588276 </i>
    <i name="pawpsdc"> 111939.94314455 </i>
    <i name="pawaedc">-110687.93216463 </i>
    <i name="eentropy">     -0.00000000 </i>
    <i name="bandstr">  -7042.41329113 </i>
    <i name="atom">  72650.08363186 </i>
    <i name="e_fr_energy">  -1152.29930216 </i>
    <i name="e_wo_entrp">  -1152.29930216 </i>
    <i name="e_0_energy">  -1152.29930216 </i>
   </energy>
  </scstep>
  <scstep>
   <time name="diag">   64.77   64.78</time>
   <time name="diis">  104.47  104.47</time>
   <time name="orth">   33.29   33.29</time>
   <time name="total">  209.74  209.78</time>
   <energy>
    <i name="e_fr_energy">  -1152.30018124 </i>
    <i name="e_wo_entrp">  -1152.30018124 </i>
    <i name="e_0_energy">  -1152.30018124 </i>
   </energy>
  </scstep>
  <scstep>
   <time name="diag">   64.74   64.74</time>
   <time name="diis">   95.67   95.68</time>
   <time name="orth">   33.27   33.28</time>
   <time name="total">  200.88  200.92</time>
   <energy>
    <i name="e_fr_energy">  -1152.30012868 </i>
    <i name="e_wo_entrp">  -1152.30012868 </i>
    <i name="e_0_energy">  -1152.30012868 </i>
   </energy>
  </scstep>
  <scstep>
   <time name="diag">   64.67   64.67</time>
   <time name="diis">   88.20   88.20</time>
   <time name="orth">   33.30   33.30</time>
   <time name="total">  193.37  193.46</time>
   <energy>
    <i name="e_fr_energy">  -1152.30004486 </i>
    <i name="e_wo_entrp">  -1152.30004486 </i>
    <i name="e_0_energy">  -1152.30004486 </i>
   </energy>
  </scstep>
  <scstep>
   <time name="diag">   64.68   64.68</time>
   <time name="diis">   68.60   68.60</time>
   <time name="orth">   33.29   33.29</time>
   <time name="total">  173.79  173.88</time>
   <energy>
    <i name="e_fr_energy">  -1152.30002169 </i>
    <i name="e_wo_entrp">  -1152.30002169 </i>
    <i name="e_0_energy">  -1152.30002169 </i>
   </energy>
  </scstep>
  <scstep>
   <time name="diag">   64.62   64.62</time>
   <time name="diis">   62.90   62.90</time>
   <time name="orth">   33.27   33.27</time>
   <time name="total">  168.01  168.08</time>
   <energy>
    <i name="e_fr_energy">  -1152.30002288 </i>
    <i name="e_wo_entrp">  -1152.30002288 </i>
    <i name="e_0_energy">  -1152.30002288 </i>
   </energy>
  </scstep>
  <scstep>
   <time name="diag">   65.14   65.15</time>
   <time name="diis">   59.90   59.90</time>
   <time name="orth">   33.23   33.24</time>
   <time name="total">  165.52  165.63</time>
   <energy>
    <i name="e_fr_energy">  -1152.30002318 </i>
    <i name="e_wo_entrp">  -1152.30002318 </i>
    <i name="e_0_energy">  -1152.30002318 </i>
   </energy>
  </scstep>
  <scstep>
   <time name="diag">   65.18   65.18</time>
   <time name="diis">   59.83   59.83</time>
   <time name="orth">   33.19   33.19</time>
   <time name="total">  159.24  159.32</time>
   <energy>
    <i name="alphaZ">   5632.01690386 </i>
    <i name="ewald"> -61032.09590718 </i>
    <i name="hartreedc"> -15464.09639042 </i>
    <i name="XCdc">   2852.24774918 </i>
    <i name="pawpsdc"> 111935.34052113 </i>
    <i name="pawaedc">-110683.32945070 </i>
    <i name="eentropy">     -0.00000000 </i>
    <i name="bandstr">  -7042.46708139 </i>
    <i name="atom">  72650.08363186 </i>
    <i name="e_fr_energy">  -1152.30002365 </i>
    <i name="e_wo_entrp">  -1152.30002365 </i>
    <i name="e_0_energy">  -1152.30002365 </i>
   </energy>
  </scstep>
  <structure>
   <crystal>
    <varray name="basis" >
     <v>      11.21421191       0.00179432       0.00008905 </v>
     <v>       0.00179405      11.21468120      -0.00032444 </v>
     <v>       0.00012669      -0.00048253      15.94834897 </v>
    </varray>
    <i name="volume">   2005.72510055 </i>
    <varray name="rec_basis" >
     <v>       0.08917256      -0.00001427      -0.00000071 </v>
     <v>      -0.00001427       0.08916883       0.00000270 </v>
     <v>      -0.00000050       0.00000181       0.06270242 </v>
    </varray>
   </crystal>
   <varray name="positions" >
    <v>       0.00064682       0.24517316       0.12624538 </v>
    <v>       0.99898695       0.25233398       0.62610890 </v>
    <v>       0.99833624       0.75279977       0.13058163 </v>
    <v>       0.00174484       0.75143959       0.62436906 </v>
    <v>       0.50034186       0.25105804       0.12871762 </v>
    <v>       0.49963811       0.24450765       0.62305093 </v>
    <v>       0.50316893       0.74481006       0.12724793 </v>
    <v>       0.49780784       0.75873044       0.62753771 </v>
    <v>       0.99824294       0.25049464       0.37491497 </v>
    <v>       0.00178924       0.24871695       0.87176302 </v>
    <v>       0.99969347       0.75075872       0.37657087 </v>
    <v>       0.99952872       0.75276725       0.86930082 </v>
    <v>       0.50068349       0.25122663       0.37301358 </v>
    <v>       0.49882491       0.24527389       0.87534665 </v>
    <v>       0.49853255       0.74758961       0.37488012 </v>
    <v>       0.50459546       0.75525337       0.87194603 </v>
    <v>       0.24986819       0.00606742       0.12810977 </v>
    <v>       0.25213947       0.99710827       0.62640294 </v>
    <v>       0.25887136       0.49294999       0.13152588 </v>
    <v>       0.24263791       0.50183315       0.62290958 </v>
    <v>       0.75036531       0.00029128       0.12778225 </v>
    <v>       0.74746612       0.99926997       0.62570969 </v>
    <v>       0.74048693       0.49969380       0.13009112 </v>
    <v>       0.75578577       0.50473108       0.62133027 </v>
    <v>       0.24972318       0.99890676       0.37576822 </v>
    <v>       0.25228006       0.00313606       0.87000919 </v>
    <v>       0.25243181       0.50005007       0.37464251 </v>
    <v>       0.24979232       0.49471528       0.87143377 </v>
    <v>       0.74979491       0.00109947       0.37467124 </v>
    <v>       0.74875155       0.99847493       0.87165492 </v>
    <v>       0.74704664       0.49964698       0.37417497 </v>
    <v>       0.75071368       0.50492929       0.87445578 </v>
    <v>       0.99911112       0.99962433       0.99932442 </v>
    <v>       0.00008839       0.00080535       0.50067081 </v>
    <v>       0.98667068       0.49311109       0.00143449 </v>
    <v>       0.99930785       0.49963680       0.49885389 </v>
    <v>       0.50440767       0.00249613       0.99931376 </v>
    <v>       0.49991382       0.99988657       0.50052993 </v>
    <v>       0.50121249       0.49781848       0.00063094 </v>
    <v>       0.50078780       0.49893138       0.49954608 </v>
    <v>       0.25113945       0.24977476       0.99990866 </v>
    <v>       0.24995269       0.25001233       0.50018225 </v>
    <v>       0.25779431       0.76220543       0.99915818 </v>
    <v>       0.25074410       0.75060511       0.50223354 </v>
    <v>       0.74637696       0.24684648       0.99846445 </v>
    <v>       0.74936307       0.25156429       0.50192095 </v>
    <v>       0.75077830       0.75148602       0.00032171 </v>
    <v>       0.74927257       0.75052736       0.49980747 </v>
    <v>       0.25103923       0.25069670       0.25143347 </v>
    <v>       0.25145029       0.24766177       0.74873449 </v>
    <v>       0.25082044       0.74683935       0.25061655 </v>
    <v>       0.74985767       0.25099519       0.24985288 </v>
    <v>       0.74876882       0.74860053       0.25058521 </v>
    <v>       0.75020403       0.75133904       0.74923973 </v>
    <v>       0.99988273       0.00035846       0.25048879 </v>
    <v>       0.00265381       0.99844108       0.74938802 </v>
    <v>       0.00107313       0.50121113       0.24995814 </v>
    <v>       0.00067907       0.50278001       0.74985469 </v>
    <v>       0.50004821       0.99894368       0.24980133 </v>
    <v>       0.48728746       0.50767497       0.74890887 </v>
    <v>       0.24640246       0.75358169       0.75051224 </v>
    <v>       0.75797111       0.23773931       0.75047215 </v>
    <v>       0.49894381       0.00128804       0.75031144 </v>
    <v>       0.49969492       0.50006896       0.25165555 </v>
    <v>       0.11136202       0.13882240       0.24984834 </v>
    <v>       0.10940953       0.14049887       0.74991578 </v>
    <v>       0.10985923       0.64032558       0.25625773 </v>
    <v>       0.10937292       0.63746069       0.74424649 </v>
    <v>       0.61197843       0.13722845       0.25050283 </v>
    <v>       0.60859732       0.14893318       0.74953110 </v>
    <v>       0.61352379       0.63900435       0.25010231 </v>
    <v>       0.61752696       0.62608307       0.75069595 </v>
    <v>       0.38636632       0.36065332       0.24889477 </v>
    <v>       0.39471642       0.35804907       0.75096148 </v>
    <v>       0.38739138       0.86006688       0.24268013 </v>
    <v>       0.38684153       0.85829830       0.75650395 </v>
    <v>       0.89080990       0.36303473       0.24300612 </v>
    <v>       0.87916942       0.37003935       0.75592758 </v>
    <v>       0.88885719       0.86189897       0.25061422 </v>
    <v>       0.88829326       0.86112267       0.74917715 </v>
    <v>       0.36089305       0.11080719       0.25058607 </v>
    <v>       0.35730218       0.11151702       0.74927853 </v>
    <v>       0.35998322       0.61239431       0.24981787 </v>
    <v>       0.35887666       0.60867251       0.74902278 </v>
    <v>       0.86246185       0.11123926       0.24953444 </v>
    <v>       0.86289504       0.10740161       0.75039239 </v>
    <v>       0.86199823       0.61066321       0.24718187 </v>
    <v>       0.86335825       0.61384249       0.75174824 </v>
    <v>       0.13858928       0.38956292       0.25005554 </v>
    <v>       0.13752216       0.38812048       0.75083258 </v>
    <v>       0.13927438       0.88861309       0.24686030 </v>
    <v>       0.13772664       0.89076004       0.75269740 </v>
    <v>       0.63898616       0.38604717       0.25086616 </v>
    <v>       0.63888215       0.88817709       0.24944693 </v>
    <v>       0.63812348       0.88434290       0.75019731 </v>
    <v>       0.36020900       0.38987279       0.99798299 </v>
    <v>       0.35901213       0.39090084       0.50252618 </v>
    <v>       0.35635038       0.89378918       0.99956123 </v>
    <v>       0.36000636       0.89028710       0.49948872 </v>
    <v>       0.85491060       0.39583243       0.00288088 </v>
    <v>       0.85903044       0.39158110       0.49839706 </v>
    <v>       0.85543159       0.89506018       0.99976622 </v>
    <v>       0.85934942       0.89097793       0.50028506 </v>
    <v>       0.14032370       0.11027898       0.99983009 </v>
    <v>       0.14070491       0.10969979       0.50045311 </v>
    <v>       0.13965406       0.60968200       0.49809313 </v>
    <v>       0.64484256       0.10583373       0.99912704 </v>
    <v>       0.64097259       0.10980758       0.50016794 </v>
    <v>       0.64235585       0.60834609       0.99902113 </v>
    <v>       0.64122922       0.60898814       0.50021935 </v>
    <v>       0.11366836       0.37075743       0.99980472 </v>
    <v>       0.10902921       0.35990784       0.49980478 </v>
    <v>       0.10538223       0.85322639       0.00215822 </v>
    <v>       0.10969967       0.86000579       0.49813037 </v>
    <v>       0.60761455       0.35641506       0.00485444 </v>
    <v>       0.60937762       0.35814872       0.49478795 </v>
    <v>       0.60615863       0.85633345       0.00097783 </v>
    <v>       0.60975089       0.85887131       0.49910375 </v>
    <v>       0.39152493       0.14146139       0.00111265 </v>
    <v>       0.39025720       0.14059624       0.49859196 </v>
    <v>       0.38469596       0.63570164       0.99388216 </v>
    <v>       0.39168403       0.63852421       0.50703887 </v>
    <v>       0.89248781       0.14593926       0.99578243 </v>
    <v>       0.89028797       0.14140597       0.50429726 </v>
    <v>       0.89936815       0.64597924       0.99929933 </v>
    <v>       0.89051459       0.64037695       0.50103843 </v>
    <v>       0.99814436       0.00321125       0.12404951 </v>
    <v>       0.00227661       0.99760472       0.62504144 </v>
    <v>       0.01721529       0.51519707       0.12093323 </v>
    <v>       0.99803899       0.49634835       0.62444430 </v>
    <v>       0.50092526       0.00225730       0.12424533 </v>
    <v>       0.49940465       0.99781022       0.62328135 </v>
    <v>       0.49939485       0.50265272       0.12262319 </v>
    <v>       0.51696091       0.48379218       0.62980024 </v>
    <v>       0.99970789       0.00171580       0.37534431 </v>
    <v>       0.00069440       0.99928067       0.87554669 </v>
    <v>       0.99633480       0.49770630       0.37388434 </v>
    <v>       0.01278587       0.51157117       0.88003009 </v>
    <v>       0.49866980       0.99679906       0.37371480 </v>
    <v>       0.50141885       0.00113243       0.87785055 </v>
    <v>       0.49690731       0.50205639       0.37762778 </v>
    <v>       0.51509685       0.48562621       0.87014882 </v>
    <v>       0.24954829       0.25118770       0.37549963 </v>
    <v>       0.24836242       0.24945667       0.87515835 </v>
    <v>       0.25574959       0.75171196       0.37457774 </v>
    <v>       0.23108669       0.73120301       0.88184862 </v>
    <v>       0.75611380       0.24891211       0.37434930 </v>
    <v>       0.74074664       0.26193807       0.87518357 </v>
    <v>       0.75203917       0.74900631       0.37508037 </v>
    <v>       0.74924125       0.75054175       0.87558535 </v>
    <v>       0.24861872       0.24942173       0.12456660 </v>
    <v>       0.24856418       0.25145917       0.62490212 </v>
    <v>       0.23867423       0.72976269       0.11911038 </v>
    <v>       0.24864356       0.75322932       0.62367672 </v>
    <v>       0.75064343       0.24661262       0.12394452 </v>
    <v>       0.74486801       0.26387644       0.62661392 </v>
    <v>       0.75047478       0.74990706       0.12424580 </v>
    <v>       0.74939959       0.74935221       0.62485903 </v>
   </varray>
  </structure>
  <varray name="forces" >
   <v>       0.01247794      -0.00676608       0.00184391 </v>
   <v>       0.00011508       0.00551016       0.00082633 </v>
   <v>       0.00829308       0.00015157      -0.01317382 </v>
   <v>       0.00544573      -0.00120433       0.00970411 </v>
   <v>      -0.00513300      -0.00116627      -0.01087767 </v>
   <v>       0.00137645      -0.00525450       0.00448579 </v>
   <v>      -0.00438996      -0.00826979       0.00062455 </v>
   <v>      -0.00412540       0.00232765      -0.00317495 </v>
   <v>       0.00490557      -0.00890783      -0.00217659 </v>
   <v>       0.00218270      -0.00165418       0.00303504 </v>
   <v>      -0.00919289       0.00769670      -0.00385153 </v>
   <v>       0.01128669       0.00325651       0.02033181 </v>
   <v>      -0.00979333      -0.00073366      -0.00024523 </v>
   <v>      -0.00135266      -0.00539535      -0.00244178 </v>
   <v>       0.00375578       0.00008743       0.00077780 </v>
   <v>      -0.00006931      -0.00066674       0.00473484 </v>
   <v>      -0.00431008      -0.01041949      -0.00006847 </v>
   <v>       0.00080102      -0.00236225       0.00015655 </v>
   <v>       0.00191858      -0.00026171      -0.00410803 </v>
   <v>       0.00040771      -0.00164450      -0.00167556 </v>
   <v>       0.00644154      -0.00564604      -0.00507905 </v>
   <v>      -0.00749421       0.00816125      -0.00021754 </v>
   <v>      -0.00425123       0.00418457      -0.00199477 </v>
   <v>       0.00885561       0.00223820       0.00246957 </v>
   <v>      -0.00181802      -0.00558156      -0.00617148 </v>
   <v>      -0.00399316      -0.00205634       0.00467696 </v>
   <v>      -0.00403969       0.00380935      -0.00328374 </v>
   <v>       0.00532660      -0.00232813       0.00461713 </v>
   <v>       0.00220582       0.00173392      -0.00200898 </v>
   <v>       0.00236822       0.00545982       0.00046656 </v>
   <v>       0.00255845      -0.00488263      -0.00069162 </v>
   <v>       0.00436168       0.01467821       0.00602609 </v>
   <v>       0.02054125      -0.02530207       0.01270074 </v>
   <v>       0.00350150      -0.00189650      -0.02561684 </v>
   <v>       0.06360751       0.03332197       0.02539784 </v>
   <v>       0.00584763       0.00294647      -0.01202064 </v>
   <v>      -0.00809623      -0.00285700       0.02148938 </v>
   <v>      -0.00663033       0.00628955      -0.00572465 </v>
   <v>      -0.02026688      -0.00138335      -0.00048432 </v>
   <v>      -0.00611120      -0.00536775       0.00903950 </v>
   <v>      -0.01209158       0.01997389       0.01928844 </v>
   <v>       0.00668037       0.01169977      -0.00537445 </v>
   <v>      -0.04191991      -0.04394685       0.02365418 </v>
   <v>      -0.00185620       0.00774983      -0.01276099 </v>
   <v>      -0.00451010       0.00887379      -0.01438115 </v>
   <v>      -0.00743050      -0.00510169      -0.00323642 </v>
   <v>       0.01642314      -0.00392430       0.01588083 </v>
   <v>       0.01041975       0.01368867      -0.00942246 </v>
   <v>      -0.01385270      -0.00560803       0.00340513 </v>
   <v>       0.00412908       0.00538854      -0.00708219 </v>
   <v>      -0.03210612       0.00964081      -0.00793798 </v>
   <v>       0.00366932      -0.01632843       0.03840398 </v>
   <v>       0.01621783       0.00892332       0.01275690 </v>
   <v>      -0.00035689      -0.00912429      -0.00972033 </v>
   <v>       0.01838804      -0.02098267       0.02329856 </v>
   <v>      -0.00380279       0.00494107      -0.00630938 </v>
   <v>       0.01917776       0.02329564       0.00536483 </v>
   <v>       0.01089935       0.00278566      -0.00991842 </v>
[...]
       <r>   -15.8069     0.0000    32.0000 </r>
       <r>   -15.6549     0.0000    32.0000 </r>
       <r>   -15.5030     0.0000    32.0000 </r>
       <r>   -15.3511     0.0000    32.0000 </r>
       <r>   -15.1992     2.5435    32.3864 </r>
       <r>   -15.0473    17.0134    34.9710 </r>
       <r>   -14.8954    46.7269    42.0696 </r>
       <r>   -14.7434    53.3500    50.1744 </r>
       <r>   -14.5915    32.7553    55.1504 </r>
       <r>   -14.4396    33.2258    60.1980 </r>
       <r>   -14.2877    31.4053    64.9690 </r>
       <r>   -14.1358    77.2761    76.7085 </r>
       <r>   -13.9839   132.9602    96.9074 </r>
       <r>   -13.8319   139.3226   118.0728 </r>
       <r>   -13.6800    37.3991   123.7543 </r>
       <r>   -13.5281     7.4060   124.8794 </r>
       <r>   -13.3762     7.3146   125.9906 </r>
       <r>   -13.2243     0.0618   126.0000 </r>
       <r>   -13.0724     0.0000   126.0000 </r>
       <r>   -12.9204     0.0000   126.0000 </r>
       <r>   -12.7685     0.0063   126.0010 </r>
       <r>   -12.6166    14.5509   128.2115 </r>
       <r>   -12.4647    93.2414   142.3764 </r>
       <r>   -12.3128   167.3638   167.8017 </r>
       <r>   -12.1609   138.4208   188.8301 </r>
       <r>   -12.0089   128.8254   208.4009 </r>
       <r>   -11.8570    76.9863   220.0964 </r>
       <r>   -11.7051    12.2689   221.9602 </r>
       <r>   -11.5532     0.2619   222.0000 </r>
       <r>   -11.4013     0.0000   222.0000 </r>
       <r>   -11.2494     0.0000   222.0000 </r>
       <r>   -11.0974     0.0000   222.0000 </r>
       <r>   -10.9455     0.0000   222.0000 </r>
       <r>   -10.7936     0.0000   222.0000 </r>
       <r>   -10.6417     0.0000   222.0000 </r>
       <r>   -10.4898     0.0000   222.0000 </r>
       <r>   -10.3379     0.0000   222.0000 </r>
       <r>   -10.1859     0.0000   222.0000 </r>
       <r>   -10.0340     0.0000   222.0000 </r>
       <r>    -9.8821     0.0000   222.0000 </r>
       <r>    -9.7302     0.0000   222.0000 </r>
       <r>    -9.5783     0.0000   222.0000 </r>
       <r>    -9.4264     0.0000   222.0000 </r>
       <r>    -9.2744     0.0000   222.0000 </r>
       <r>    -9.1225     0.0000   222.0000 </r>
       <r>    -8.9706     0.0000   222.0000 </r>
       <r>    -8.8187     0.0000   222.0000 </r>
       <r>    -8.6668     0.0000   222.0000 </r>
       <r>    -8.5149     0.0000   222.0000 </r>
       <r>    -8.3629     0.0000   222.0000 </r>
       <r>    -8.2110     0.0000   222.0000 </r>
       <r>    -8.0591     0.0000   222.0000 </r>
       <r>    -7.9072     0.0000   222.0000 </r>
       <r>    -7.7553     0.0000   222.0000 </r>
       <r>    -7.6034     0.0000   222.0000 </r>
       <r>    -7.4514     0.0000   222.0000 </r>
       <r>    -7.2995     0.0000   222.0000 </r>
       <r>    -7.1476     0.0000   222.0000 </r>
       <r>    -6.9957     0.0000   222.0000 </r>
       <r>    -6.8438     0.0000   222.0000 </r>
       <r>    -6.6919     0.0000   222.0000 </r>
       <r>    -6.5399     0.0000   222.0000 </r>
       <r>    -6.3880     0.0000   222.0000 </r>
       <r>    -6.2361     0.0000   222.0000 </r>
       <r>    -6.0842     0.0000   222.0000 </r>
       <r>    -5.9323     0.0000   222.0000 </r>
       <r>    -5.7804     0.0000   222.0000 </r>
       <r>    -5.6284     0.0000   222.0000 </r>
       <r>    -5.4765     0.0000   222.0000 </r>
       <r>    -5.3246     0.0000   222.0000 </r>
       <r>    -5.1727     0.0000   222.0000 </r>
       <r>    -5.0208     0.0000   222.0000 </r>
       <r>    -4.8689     0.0000   222.0000 </r>
       <r>    -4.7169     0.0000   222.0000 </r>
       <r>    -4.5650     0.0000   222.0000 </r>
       <r>    -4.4131     0.0000   222.0000 </r>
       <r>    -4.2612     0.0000   222.0000 </r>
       <r>    -4.1093     0.0000   222.0000 </r>
       <r>    -3.9574     0.0000   222.0000 </r>
       <r>    -3.8054     0.0000   222.0000 </r>
       <r>    -3.6535     0.0000   222.0000 </r>
       <r>    -3.5016     0.0000   222.0000 </r>
       <r>    -3.3497     0.0000   222.0000 </r>
       <r>    -3.1978     0.0000   222.0000 </r>
       <r>    -3.0459     0.0000   222.0000 </r>
       <r>    -2.8939     0.0000   222.0000 </r>
       <r>    -2.7420     0.0000   222.0000 </r>
       <r>    -2.5901     0.0000   222.0000 </r>
       <r>    -2.4382     0.0023   222.0004 </r>
       <r>    -2.2863     5.9021   222.8970 </r>
       <r>    -2.1344    14.3975   225.0842 </r>
       <r>    -1.9824    25.3910   228.9415 </r>
       <r>    -1.8305    45.3096   235.8248 </r>
       <r>    -1.6786    59.6518   244.8869 </r>
       <r>    -1.5267    56.6909   253.4992 </r>
       <r>    -1.3748    59.4870   262.5362 </r>
       <r>    -1.2229    71.5503   273.4059 </r>
       <r>    -1.0709    70.8880   284.1750 </r>
       <r>    -0.9190    74.9432   295.5601 </r>
       <r>    -0.7671    73.9346   306.7920 </r>
       <r>    -0.6152    97.8354   321.6548 </r>
       <r>    -0.4633   128.0292   341.1045 </r>
       <r>    -0.3114    85.5590   354.1024 </r>
       <r>    -0.1595    51.0192   361.8530 </r>
       <r>    -0.0075    51.8283   369.7266 </r>
       <r>     0.1444    42.9916   376.2578 </r>
       <r>     0.2963    43.3549   382.8441 </r>
       <r>     0.4482    49.5994   390.3791 </r>
       <r>     0.6001    62.5237   399.8774 </r>
       <r>     0.7520    42.1022   406.2735 </r>
       <r>     0.9040    48.2847   413.6087 </r>
       <r>     1.0559    56.9086   422.2541 </r>
       <r>     1.2078    83.9537   435.0080 </r>
       <r>     1.3597    87.6316   448.3207 </r>
       <r>     1.5116   101.2679   463.7050 </r>
       <r>     1.6635    78.2690   475.5953 </r>
       <r>     1.8155    73.5090   486.7626 </r>
       <r>     1.9674    50.4261   494.4231 </r>
       <r>     2.1193    40.4154   500.5629 </r>
       <r>     2.2712    21.6608   503.8535 </r>
       <r>     2.4231     0.9641   504.0000 </r>
       <r>     2.5750     0.0000   504.0000 </r>
       <r>     2.7270     0.0000   504.0000 </r>
       <r>     2.8789     0.0000   504.0000 </r>
       <r>     3.0308     0.0000   504.0000 </r>
       <r>     3.1827     0.0000   504.0000 </r>
       <r>     3.3346     0.0000   504.0000 </r>
       <r>     3.4865     0.0000   504.0000 </r>
       <r>     3.6385     0.0000   504.0000 </r>
       <r>     3.7904     0.0000   504.0000 </r>
       <r>     3.9423     0.0000   504.0000 </r>
       <r>     4.0942     0.0000   504.0000 </r>
       <r>     4.2461     0.0000   504.0000 </r>
       <r>     4.3980     0.0050   504.0008 </r>
       <r>     4.5500     8.6374   505.3129 </r>
       <r>     4.7019    26.9112   509.4012 </r>
       <r>     4.8538    39.9009   515.4628 </r>
       <r>     5.0057    24.6356   519.2053 </r>
       <r>     5.1576    31.7907   524.0349 </r>
       <r>     5.3095    48.0237   531.3305 </r>
       <r>     5.4615    71.9710   542.2641 </r>
       <r>     5.6134    59.8779   551.3605 </r>
       <r>     5.7653    66.0394   561.3930 </r>
       <r>     5.9172    90.1701   575.0913 </r>
       <r>     6.0691   104.6333   590.9868 </r>
       <r>     6.2210    72.0945   601.9392 </r>
       <r>     6.3730    53.4532   610.0596 </r>
       <r>     6.5249    40.1701   616.1621 </r>
       <r>     6.6768    22.8446   619.6326 </r>
       <r>     6.8287    24.3387   623.3300 </r>
       <r>     6.9806    21.4637   626.5907 </r>
       <r>     7.1325    20.5181   629.7078 </r>
       <r>     7.2845    14.2994   631.8801 </r>
       <r>     7.4364    19.1627   634.7912 </r>
       <r>     7.5883    12.0594   636.6232 </r>
       <r>     7.7402    11.8436   638.4225 </r>
       <r>     7.8921    15.4462   640.7690 </r>
       <r>     8.0440    29.3135   645.2222 </r>
       <r>     8.1960    21.2517   648.4507 </r>
       <r>     8.3479    24.1180   652.1146 </r>
       <r>     8.4998    29.0494   656.5277 </r>
       <r>     8.6517    24.3395   660.2253 </r>
       <r>     8.8036    20.3364   663.3147 </r>
       <r>     8.9555    28.9695   667.7156 </r>
       <r>     9.1075    38.0135   673.4905 </r>
       <r>     9.2594    39.2234   679.4492 </r>
       <r>     9.4113    39.3109   685.4212 </r>
       <r>     9.5632    44.0616   692.1149 </r>
       <r>     9.7151    40.4594   698.2613 </r>
       <r>     9.8670    55.3523   706.6703 </r>
       <r>    10.0190    69.2989   717.1979 </r>
       <r>    10.1709    73.8962   728.4240 </r>
       <r>    10.3228    70.9175   739.1975 </r>
       <r>    10.4747    57.1771   747.8837 </r>
       <r>    10.6266    55.0184   756.2419 </r>
       <r>    10.7785    56.9220   764.8893 </r>
       <r>    10.9305    20.4585   767.9972 </r>
       <r>    11.0824     0.0181   768.0000 </r>
       <r>    11.2343     0.0000   768.0000 </r>
       <r>    11.3862     0.0000   768.0000 </r>
       <r>    11.5381     0.0000   768.0000 </r>
       <r>    11.6900     0.0000   768.0000 </r>
       <r>    11.8420     0.0000   768.0000 </r>
       <r>    11.9939     0.0000   768.0000 </r>
       <r>    12.1458     0.0000   768.0000 </r>
       <r>    12.2977     0.0000   768.0000 </r>
       <r>    12.4496     0.0000   768.0000 </r>
       <r>    12.6015     0.0000   768.0000 </r>
       <r>    12.7535     0.0000   768.0000 </r>
       <r>    12.9054     0.0000   768.0000 </r>
      </set>
     </set>
    </array>
   </total>
  </dos>
 </calculation>
 <structure name="finalpos" >
  <crystal>
   <varray name="basis" >
    <v>      11.21465298       0.00201292       0.00001141 </v>
    <v>       0.00201266      11.21516209      -0.00020026 </v>
    <v>       0.00001624      -0.00030596      15.94760873 </v>
   </varray>
   <i name="volume">   2005.79688328 </i>
   <varray name="rec_basis" >
    <v>       0.08916906      -0.00001600      -0.00000009 </v>
    <v>      -0.00001600       0.08916501       0.00000171 </v>
    <v>      -0.00000006       0.00000112       0.06270533 </v>
   </varray>
  </crystal>
  <varray name="positions" >
   <v>       0.00066762       0.24513988       0.12623298 </v>
   <v>       0.99897929       0.25235970       0.62611886 </v>
   <v>       0.99835243       0.75280687       0.13050952 </v>
   <v>       0.00176920       0.75143606       0.62442392 </v>
   <v>       0.50034991       0.25104949       0.12866833 </v>
   <v>       0.49965803       0.24448447       0.62307460 </v>
   <v>       0.50315092       0.74475892       0.12723670 </v>
   <v>       0.49780110       0.75874925       0.62752870 </v>
   <v>       0.99825015       0.25045906       0.37490928 </v>
   <v>       0.00177854       0.24871895       0.87179043 </v>
   <v>       0.99963932       0.75078995       0.37657456 </v>
   <v>       0.99958468       0.75278441       0.86936632 </v>
   <v>       0.50065445       0.25122851       0.37300347 </v>
   <v>       0.49882935       0.24522327       0.87535174 </v>
   <v>       0.49855856       0.74758546       0.37488890 </v>
   <v>       0.50461411       0.75527622       0.87197414 </v>
   <v>       0.24985914       0.00602018       0.12808303 </v>
   <v>       0.25213385       0.99709221       0.62641788 </v>
   <v>       0.25890270       0.49294064       0.13150903 </v>
   <v>       0.24263456       0.50183452       0.62289915 </v>
   <v>       0.75039828       0.00029572       0.12774099 </v>
   <v>       0.74742640       0.99930333       0.62572662 </v>
   <v>       0.74046270       0.49968714       0.13007284 </v>
   <v>       0.75583568       0.50474468       0.62133753 </v>
   <v>       0.24973521       0.99887900       0.37575517 </v>
   <v>       0.25227794       0.00311921       0.87003165 </v>
   <v>       0.25242625       0.50007419       0.37463577 </v>
   <v>       0.24981672       0.49469972       0.87145393 </v>
   <v>       0.74978688       0.00112693       0.37466675 </v>
   <v>       0.74874444       0.99851779       0.87166266 </v>
   <v>       0.74706432       0.49960422       0.37416927 </v>
   <v>       0.75076083       0.50499387       0.87449960 </v>
   <v>       0.99915618       0.99956000       0.99934725 </v>
   <v>       0.00011336       0.00080813       0.50064047 </v>
   <v>       0.98673158       0.49311760       0.00144677 </v>
   <v>       0.99928148       0.49963778       0.49883166 </v>
   <v>       0.50439115       0.00253483       0.99932717 </v>
   <v>       0.49991214       0.99989949       0.50050519 </v>
   <v>       0.50118083       0.49783908       0.00060551 </v>
   <v>       0.50078312       0.49892933       0.49957298 </v>
   <v>       0.25108036       0.24983870       0.99991803 </v>
   <v>       0.24992377       0.25003384       0.50018513 </v>
   <v>       0.25774718       0.76214045       0.99918825 </v>
   <v>       0.25074520       0.75061080       0.50221255 </v>
   <v>       0.74635974       0.24685260       0.99846365 </v>
   <v>       0.74932750       0.25156187       0.50190814 </v>
   <v>       0.75084271       0.75146108       0.00036297 </v>
   <v>       0.74928030       0.75052416       0.49981215 </v>
   <v>       0.25101478       0.25068569       0.25144484 </v>
   <v>       0.25147121       0.24765482       0.74872902 </v>
   <v>       0.25076276       0.74684671       0.25061769 </v>
   <v>       0.74988280       0.25099228       0.24989173 </v>
   <v>       0.74880443       0.74860116       0.25061101 </v>
   <v>       0.75017677       0.75134105       0.74921691 </v>
   <v>       0.99989119       0.00031153       0.25051247 </v>
   <v>       0.00263181       0.99843653       0.74936257 </v>
   <v>       0.00108197       0.50125879       0.24993308 </v>
   <v>       0.00069718       0.50279317       0.74984504 </v>
   <v>       0.50000803       0.99890992       0.24980308 </v>
   <v>       0.48730098       0.50769773       0.74889651 </v>
   <v>       0.24638622       0.75356792       0.75053327 </v>
   <v>       0.75798863       0.23777791       0.75044702 </v>
   <v>       0.49891931       0.00125521       0.75032417 </v>
   <v>       0.49969746       0.50005018       0.25167231 </v>
   <v>       0.11138283       0.13877376       0.24985006 </v>
   <v>       0.10947230       0.14045058       0.74992630 </v>
   <v>       0.10982261       0.64032496       0.25623326 </v>
   <v>       0.10939712       0.63743872       0.74428520 </v>
   <v>       0.61200411       0.13722231       0.25052893 </v>
   <v>       0.60855962       0.14893162       0.74953629 </v>
   <v>       0.61353667       0.63897378       0.25011085 </v>
   <v>       0.61759631       0.62608601       0.75067916 </v>
   <v>       0.38635954       0.36066802       0.24888082 </v>
   <v>       0.39471426       0.35811384       0.75096148 </v>
   <v>       0.38735316       0.86008604       0.24266670 </v>
   <v>       0.38683923       0.85836176       0.75649823 </v>
   <v>       0.89075095       0.36304937       0.24299953 </v>
   <v>       0.87908589       0.37011645       0.75587894 </v>
   <v>       0.88875561       0.86196061       0.25061130 </v>
   <v>       0.88821445       0.86119616       0.74917890 </v>
   <v>       0.36090554       0.11081496       0.25056343 </v>
   <v>       0.35737646       0.11156210       0.74927752 </v>
   <v>       0.36000323       0.61239274       0.24982269 </v>
   <v>       0.35897716       0.60870591       0.74898135 </v>
   <v>       0.86244861       0.11126328       0.24955674 </v>
   <v>       0.86294264       0.10746163       0.75034080 </v>
   <v>       0.86199488       0.61069308       0.24718293 </v>
   <v>       0.86343914       0.61393020       0.75173105 </v>
   <v>       0.13853976       0.38951586       0.25006350 </v>
   <v>       0.13747021       0.38809637       0.75082769 </v>
   <v>       0.13924042       0.88858815       0.24686848 </v>
   <v>       0.13762501       0.89074828       0.75272489 </v>
   <v>       0.63897080       0.38603232       0.25087983 </v>
   <v>       0.63882495       0.88811868       0.24945986 </v>
   <v>       0.63810519       0.88432764       0.75019853 </v>
   <v>       0.36024819       0.38986907       0.99798073 </v>
   <v>       0.35901421       0.39092002       0.50252699 </v>
   <v>       0.35645879       0.89384171       0.99957109 </v>
   <v>       0.35997126       0.89027988       0.49950584 </v>
   <v>       0.85480829       0.39572825       0.00291175 </v>
   <v>       0.85905340       0.39156823       0.49842511 </v>
   <v>       0.85550243       0.89498191       0.99976110 </v>
   <v>       0.85933096       0.89097680       0.50028668 </v>
   <v>       0.14028966       0.11030554       0.99982839 </v>
   <v>       0.14068750       0.10969556       0.50043201 </v>
   <v>       0.13967644       0.60964586       0.49807869 </v>
   <v>       0.64482756       0.10587624       0.99911324 </v>
   <v>       0.64097299       0.10981653       0.50011593 </v>
   <v>       0.64235107       0.60836352       0.99903462 </v>
   <v>       0.64123176       0.60898617       0.50019904 </v>
   <v>       0.11370083       0.37076054       0.99978590 </v>
   <v>       0.10902867       0.35989451       0.49979281 </v>
   <v>       0.10541215       0.85321125       0.00213126 </v>
   <v>       0.10969028       0.85999665       0.49814329 </v>
   <v>       0.60760633       0.35638228       0.00485839 </v>
   <v>       0.60934967       0.35816396       0.49474836 </v>
   <v>       0.60621886       0.85635479       0.00096512 </v>
   <v>       0.60973979       0.85887658       0.49908913 </v>
   <v>       0.39152081       0.14145053       0.00110591 </v>
   <v>       0.39024404       0.14058848       0.49859262 </v>
   <v>       0.38473067       0.63566144       0.99388839 </v>
   <v>       0.39167854       0.63850824       0.50706550 </v>
   <v>       0.89245114       0.14588237       0.99579297 </v>
   <v>       0.89026289       0.14138539       0.50427354 </v>
   <v>       0.89939981       0.64596340       0.99929825 </v>
   <v>       0.89049804       0.64036021       0.50106233 </v>
   <v>       0.99813235       0.00317425       0.12403387 </v>
   <v>       0.00229433       0.99764222       0.62504579 </v>
   <v>       0.01715537       0.51512862       0.12092799 </v>
   <v>       0.99815414       0.49636889       0.62445364 </v>
   <v>       0.50098264       0.00228529       0.12423763 </v>
   <v>       0.49940284       0.99786770       0.62328987 </v>
   <v>       0.49942362       0.50264786       0.12261258 </v>
   <v>       0.51700794       0.48379911       0.62981249 </v>
   <v>       0.99971614       0.00166216       0.37534846 </v>
   <v>       0.00068171       0.99932801       0.87556239 </v>
   <v>       0.99631922       0.49771784       0.37389093 </v>
   <v>       0.01277073       0.51152711       0.88003683 </v>
   <v>       0.49861928       0.99681618       0.37371516 </v>
   <v>       0.50142458       0.00110430       0.87786576 </v>
   <v>       0.49686785       0.50207885       0.37763532 </v>
   <v>       0.51515108       0.48564880       0.87015437 </v>
   <v>       0.24958746       0.25120073       0.37549614 </v>
   <v>       0.24836863       0.24945369       0.87515329 </v>
   <v>       0.25573598       0.75170072       0.37458205 </v>
   <v>       0.23114713       0.73119893       0.88184610 </v>
   <v>       0.75613328       0.24895960       0.37434680 </v>
   <v>       0.74079636       0.26194437       0.87520370 </v>
   <v>       0.75204996       0.74896583       0.37509476 </v>
   <v>       0.74928096       0.75055011       0.87560135 </v>
   <v>       0.24862297       0.24944397       0.12454729 </v>
   <v>       0.24854288       0.25144167       0.62491571 </v>
   <v>       0.23867681       0.72979395       0.11907093 </v>
   <v>       0.24856207       0.75324238       0.62371542 </v>
   <v>       0.75062094       0.24657348       0.12393455 </v>
   <v>       0.74476655       0.26383493       0.62660663 </v>
   <v>       0.75045215       0.74991354       0.12424253 </v>
   <v>       0.74941073       0.74936965       0.62486652 </v>
  </varray>
 </structure>
</modeling>
