       N       E                     dE             d eps       ncg     rms          rms(c)
DAV:   1    -0.992752498198E+03   -0.99275E+03   -0.33303E-02 13264   0.437E-01    0.345E-02
RMM:   2    -0.992752497201E+03    0.99726E-06   -0.27124E-05  6902   0.993E-03    0.591E-02
RMM:   3    -0.992752497330E+03   -0.12890E-06   -0.67389E-06  6583   0.520E-03    0.684E-03
RMM:   4    -0.992752497432E+03   -0.10195E-06   -0.72147E-07  3008   0.206E-03    0.384E-03
RMM:   5    -0.992752497534E+03   -0.10192E-06   -0.40062E-07  2794   0.207E-03    0.182E-03
RMM:   6    -0.992752497613E+03   -0.79526E-07   -0.11575E-07  2070   0.181E-03    0.119E-03
RMM:   7    -0.992752497693E+03   -0.80065E-07   -0.16069E-07  1897   0.185E-03    0.774E-04
RMM:   8    -0.992752497763E+03   -0.69340E-07   -0.17953E-07  1868   0.189E-03
   1 F= -.99275250E+03 E0= -.99275250E+03  d E =-.992752E+03  mag=   118.0000
       N       E                     dE             d eps       ncg     rms          rms(c)
DAV:   1    -0.992750007681E+03    0.24900E-02   -0.85110E-01 12640   0.107E+00    0.560E-01
RMM:   2    -0.992754619250E+03   -0.46116E-02   -0.24355E-02 12619   0.226E-01    0.360E-01
RMM:   3    -0.992755220456E+03   -0.60121E-03   -0.14411E-03 12415   0.599E-02    0.184E-01
RMM:   4    -0.992755133283E+03    0.87173E-04   -0.14927E-04  8148   0.179E-02    0.117E-01
RMM:   5    -0.992755104802E+03    0.28481E-04   -0.22238E-04  8044   0.166E-02    0.407E-02
RMM:   6    -0.992755104924E+03   -0.12245E-06   -0.25797E-05  7179   0.969E-03    0.292E-02
RMM:   7    -0.992755105379E+03   -0.45434E-06   -0.99063E-06  6952   0.421E-03    0.138E-02
RMM:   8    -0.992755105583E+03   -0.20479E-06   -0.43265E-06  6463   0.381E-03
   2 F= -.99275511E+03 E0= -.99275511E+03  d E =-.260782E-02  mag=   118.0000
       N       E                     dE             d eps       ncg     rms          rms(c)
DAV:   1    -0.992754522120E+03    0.58326E-03   -0.13865E-01 12640   0.434E-01    0.225E-01
RMM:   2    -0.992755273776E+03   -0.75166E-03   -0.39857E-03 12299   0.912E-02    0.144E-01
RMM:   3    -0.992755366407E+03   -0.92631E-04   -0.18789E-04  8373   0.258E-02    0.796E-02
RMM:   4    -0.992755358662E+03    0.77444E-05   -0.40780E-05  7193   0.111E-02    0.488E-02
RMM:   5    -0.992755353138E+03    0.55246E-05   -0.42078E-05  7103   0.757E-03    0.180E-02
RMM:   6    -0.992755354206E+03   -0.10678E-05   -0.73863E-06  6385   0.484E-03    0.122E-02
RMM:   7    -0.992755354483E+03   -0.27707E-06   -0.27109E-06  4792   0.259E-03    0.601E-03
RMM:   8    -0.992755354694E+03   -0.21144E-06   -0.13038E-06  4099   0.257E-03
   3 F= -.99275535E+03 E0= -.99275535E+03  d E =-.285693E-02  mag=   118.0000
       N       E                     dE             d eps       ncg     rms          rms(c)
DAV:   1    -0.992753792921E+03    0.15616E-02   -0.77560E-01 12720   0.104E+00    0.435E-01
RMM:   2    -0.992757101974E+03   -0.33091E-02   -0.20554E-02 12630   0.201E-01    0.260E-01
RMM:   3    -0.992757483323E+03   -0.38135E-03   -0.12314E-03 12119   0.561E-02    0.123E-01
RMM:   4    -0.992757426014E+03    0.57309E-04   -0.13146E-04  8043   0.162E-02    0.770E-02
RMM:   5    -0.992757402327E+03    0.23687E-04   -0.11755E-04  7392   0.132E-02    0.315E-02
RMM:   6    -0.992757406228E+03   -0.39002E-05   -0.25778E-05  7177   0.892E-03    0.291E-02
RMM:   7    -0.992757407701E+03   -0.14736E-05   -0.11647E-05  7094   0.510E-03    0.128E-02
RMM:   8    -0.992757408743E+03   -0.10417E-05   -0.64114E-06  6673   0.461E-03
   4 F= -.99275741E+03 E0= -.99275741E+03  d E =-.205405E-02  mag=   118.0000
       N       E                     dE             d eps       ncg     rms          rms(c)
DAV:   1    -0.992748964123E+03    0.84436E-02   -0.21031E+00 12712   0.171E+00    0.717E-01
RMM:   2    -0.992757943153E+03   -0.89790E-02   -0.55806E-02 12644   0.331E-01    0.428E-01
RMM:   3    -0.992758976069E+03   -0.10329E-02   -0.33518E-03 12822   0.920E-02    0.203E-01
RMM:   4    -0.992758827071E+03    0.14900E-03   -0.43265E-04 10092   0.262E-02    0.125E-01
RMM:   5    -0.992758761135E+03    0.65936E-04   -0.36438E-04  9373   0.207E-02    0.417E-02
RMM:   6    -0.992758765974E+03   -0.48395E-05   -0.45084E-05  7389   0.120E-02    0.325E-02
RMM:   7    -0.992758768762E+03   -0.27883E-05   -0.21253E-05  7225   0.653E-03    0.185E-02
RMM:   8    -0.992758770778E+03   -0.20158E-05   -0.12031E-05  7158   0.626E-03
   5 F= -.99275877E+03 E0= -.99275877E+03  d E =-.341608E-02  mag=   118.0000
       N       E                     dE             d eps       ncg     rms          rms(c)
DAV:   1    -0.992757884360E+03    0.88440E-03   -0.61634E-01 12696   0.927E-01    0.341E-01
RMM:   2    -0.992760214584E+03   -0.23302E-02   -0.16410E-02 12660   0.177E-01    0.197E-01
RMM:   3    -0.992760440267E+03   -0.22568E-03   -0.96424E-04 11190   0.490E-02    0.984E-02
RMM:   4    -0.992760400107E+03    0.40161E-04   -0.10385E-04  7516   0.144E-02    0.629E-02
RMM:   5    -0.992760379476E+03    0.20631E-04   -0.82945E-05  7246   0.114E-02    0.268E-02
RMM:   6    -0.992760381509E+03   -0.20334E-05   -0.21804E-05  7149   0.772E-03    0.179E-02
RMM:   7    -0.992760382105E+03   -0.59535E-06   -0.96915E-06  7015   0.477E-03    0.110E-02
RMM:   8    -0.992760382050E+03    0.54904E-07   -0.50720E-06  6019   0.394E-03
   6 F= -.99276038E+03 E0= -.99276038E+03  d E =-.161127E-02  mag=   118.0000
       N       E                     dE             d eps       ncg     rms          rms(c)
DAV:   1    -0.992749101644E+03    0.11280E-01   -0.31624E+00 12544   0.210E+00    0.771E-01
RMM:   2    -0.992761024330E+03   -0.11923E-01   -0.83743E-02 12672   0.401E-01    0.445E-01
RMM:   3    -0.992762199088E+03   -0.11748E-02   -0.49991E-03 13040   0.111E-01    0.221E-01
RMM:   4    -0.992761991744E+03    0.20734E-03   -0.60502E-04 11595   0.306E-02    0.140E-01
RMM:   5    -0.992761886985E+03    0.10476E-03   -0.50569E-04 10366   0.235E-02    0.447E-02
RMM:   6    -0.992761888094E+03   -0.11089E-05   -0.51448E-05  7401   0.126E-02    0.335E-02
RMM:   7    -0.992761889583E+03   -0.14890E-05   -0.23721E-05  7241   0.684E-03    0.202E-02
RMM:   8    -0.992761889096E+03    0.48720E-06   -0.13644E-05  7179   0.650E-03
   7 F= -.99276189E+03 E0= -.99276189E+03  d E =-.311832E-02  mag=   118.0000
       N       E                     dE             d eps       ncg     rms          rms(c)
DAV:   1    -0.992760343274E+03    0.15463E-02   -0.83317E-01 12624   0.108E+00    0.361E-01
RMM:   2    -0.992763274502E+03   -0.29312E-02   -0.21975E-02 12678   0.204E-01    0.208E-01
RMM:   3    -0.992763524477E+03   -0.24998E-03   -0.12998E-03 11958   0.559E-02    0.105E-01
RMM:   4    -0.992763471760E+03    0.52718E-04   -0.12311E-04  7665   0.153E-02    0.663E-02
RMM:   5    -0.992763446105E+03    0.25655E-04   -0.10026E-04  7267   0.124E-02    0.294E-02
RMM:   6    -0.992763448795E+03   -0.26898E-05   -0.25365E-05  7169   0.832E-03    0.226E-02
RMM:   7    -0.992763449615E+03   -0.82016E-06   -0.11398E-05  7042   0.510E-03    0.120E-02
RMM:   8    -0.992763449620E+03   -0.50786E-08   -0.63623E-06  6502   0.433E-03
   8 F= -.99276345E+03 E0= -.99276345E+03  d E =-.156052E-02  mag=   118.0000
       N       E                     dE             d eps       ncg     rms          rms(c)
DAV:   1    -0.992744114120E+03    0.19335E-01   -0.56164E+00 12544   0.279E+00    0.936E-01
RMM:   2    -0.992763795400E+03   -0.19681E-01   -0.14722E-01 12676   0.528E-01    0.538E-01
RMM:   3    -0.992765499245E+03   -0.17038E-02   -0.87234E-03 13350   0.145E-01    0.270E-01
RMM:   4    -0.992765160396E+03    0.33885E-03   -0.10080E-03 12865   0.379E-02    0.171E-01
RMM:   5    -0.992764991692E+03    0.16870E-03   -0.79744E-04 11146   0.285E-02    0.536E-02
RMM:   6    -0.992764994678E+03   -0.29857E-05   -0.75354E-05  7426   0.154E-02    0.360E-02
RMM:   7    -0.992764997227E+03   -0.25486E-05   -0.34047E-05  7296   0.780E-03    0.237E-02
RMM:   8    -0.992764996370E+03    0.85638E-06   -0.19049E-05  7214   0.746E-03
   9 F= -.99276500E+03 E0= -.99276500E+03  d E =-.310727E-02  mag=   118.0000
       N       E                     dE             d eps       ncg     rms          rms(c)
DAV:   1    -0.992760242593E+03    0.47546E-02   -0.18568E+00 12696   0.160E+00    0.514E-01
RMM:   2    -0.992766400678E+03   -0.61581E-02   -0.49082E-02 12715   0.303E-01    0.285E-01
RMM:   3    -0.992766860092E+03   -0.45941E-03   -0.28652E-03 12883   0.831E-02    0.148E-01
RMM:   4    -0.992766742126E+03    0.11797E-03   -0.34633E-04  9555   0.230E-02    0.917E-02
RMM:   5    -0.992766696646E+03    0.45480E-04   -0.20441E-04  7670   0.173E-02    0.381E-02
RMM:   6    -0.992766703424E+03   -0.67771E-05   -0.47987E-05  7226   0.121E-02    0.370E-02
RMM:   7    -0.992766706595E+03   -0.31714E-05   -0.22464E-05  7174   0.713E-03    0.168E-02
RMM:   8    -0.992766708825E+03   -0.22301E-05   -0.13023E-05  7122   0.638E-03
  10 F= -.99276671E+03 E0= -.99276671E+03  d E =-.171245E-02  mag=   118.0000
       N       E                     dE             d eps       ncg     rms          rms(c)
DAV:   1    -0.992758526452E+03    0.81801E-02   -0.25627E+00 12736   0.189E+00    0.604E-01
RMM:   2    -0.992767014114E+03   -0.84877E-02   -0.67618E-02 12721   0.355E-01    0.335E-01
RMM:   3    -0.992767650428E+03   -0.63631E-03   -0.39367E-03 12942   0.969E-02    0.174E-01
RMM:   4    -0.992767489904E+03    0.16052E-03   -0.48192E-04 10830   0.267E-02    0.108E-01
RMM:   5    -0.992767428761E+03    0.61143E-04   -0.29940E-04  8552   0.194E-02    0.419E-02
RMM:   6    -0.992767435592E+03   -0.68310E-05   -0.55280E-05  7295   0.127E-02    0.356E-02
RMM:   7    -0.992767439215E+03   -0.36231E-05   -0.24955E-05  7205   0.757E-03    0.190E-02
RMM:   8    -0.992767441665E+03   -0.24507E-05   -0.14571E-05  7124   0.665E-03
  11 F= -.99276744E+03 E0= -.99276744E+03  d E =-.244530E-02  mag=   118.0000
       N       E                     dE             d eps       ncg     rms          rms(c)
DAV:   1    -0.992763551048E+03    0.38882E-02   -0.17673E+00 12704   0.157E+00    0.513E-01
RMM:   2    -0.992769180754E+03   -0.56297E-02   -0.48102E-02 12645   0.305E-01    0.310E-01
RMM:   3    -0.992769579559E+03   -0.39880E-03   -0.29640E-03 12906   0.837E-02    0.180E-01
RMM:   4    -0.992769457237E+03    0.12232E-03   -0.29648E-04  8893   0.227E-02    0.115E-01
RMM:   5    -0.992769386883E+03    0.70353E-04   -0.27639E-04  8338   0.192E-02    0.448E-02
RMM:   6    -0.992769388711E+03   -0.18278E-05   -0.53294E-05  7314   0.129E-02    0.415E-02
RMM:   7    -0.992769390502E+03   -0.17911E-05   -0.24000E-05  7210   0.744E-03    0.173E-02
RMM:   8    -0.992769389381E+03    0.11215E-05   -0.13261E-05  7141   0.653E-03
  12 F= -.99276939E+03 E0= -.99276939E+03  d E =-.194772E-02  mag=   118.0000
       N       E                     dE             d eps       ncg     rms          rms(c)
DAV:   1    -0.992765958892E+03    0.34316E-02   -0.12055E+00 12528   0.130E+00    0.423E-01
RMM:   2    -0.992769809175E+03   -0.38503E-02   -0.32844E-02 12656   0.252E-01    0.255E-01
RMM:   3    -0.992770082071E+03   -0.27290E-03   -0.20148E-03 12820   0.693E-02    0.149E-01
RMM:   4    -0.992769998333E+03    0.83738E-04   -0.17819E-04  8149   0.187E-02    0.951E-02
RMM:   5    -0.992769949858E+03    0.48474E-04   -0.17115E-04  7509   0.161E-02    0.420E-02
RMM:   6    -0.992769952314E+03   -0.24553E-05   -0.42556E-05  7271   0.112E-02    0.398E-02
RMM:   7    -0.992769953528E+03   -0.12142E-05   -0.19078E-05  7175   0.682E-03    0.154E-02
RMM:   8    -0.992769952824E+03    0.70380E-06   -0.10337E-05  7093   0.560E-03
  13 F= -.99276995E+03 E0= -.99276995E+03  d E =-.251116E-02  mag=   118.0000
       N       E                     dE             d eps       ncg     rms          rms(c)
DAV:   1    -0.992766984934E+03    0.29686E-02   -0.93465E-01 12608   0.113E+00    0.432E-01
RMM:   2    -0.992770590919E+03   -0.36060E-02   -0.24790E-02 12674   0.219E-01    0.259E-01
RMM:   3    -0.992770954027E+03   -0.36311E-03   -0.14673E-03 12358   0.591E-02    0.135E-01
RMM:   4    -0.992770885001E+03    0.69026E-04   -0.13864E-04  8058   0.163E-02    0.869E-02
RMM:   5    -0.992770847975E+03    0.37027E-04   -0.16439E-04  7529   0.148E-02    0.287E-02
RMM:   6    -0.992770851439E+03   -0.34643E-05   -0.27866E-05  7205   0.909E-03    0.255E-02
RMM:   7    -0.992770852471E+03   -0.10314E-05   -0.12446E-05  7042   0.491E-03    0.132E-02
RMM:   8    -0.992770852628E+03   -0.15702E-06   -0.69519E-06  6683   0.468E-03
  14 F= -.99277085E+03 E0= -.99277085E+03  d E =-.899804E-03  mag=   118.0000
       N       E                     dE             d eps       ncg     rms          rms(c)
DAV:   1    -0.992770724710E+03    0.12776E-03   -0.38902E-02 12896   0.231E-01    0.878E-02
RMM:   2    -0.992770876209E+03   -0.15150E-03   -0.10463E-03 11949   0.449E-02    0.532E-02
RMM:   3    -0.992770890090E+03   -0.13881E-04   -0.50873E-05  7047   0.141E-02    0.293E-02
RMM:   4    -0.992770889553E+03    0.53702E-06   -0.14099E-05  6568   0.611E-03    0.181E-02
RMM:   5    -0.992770888382E+03    0.11710E-05   -0.88389E-06  6181   0.385E-03    0.106E-02
RMM:   6    -0.992770888626E+03   -0.24408E-06   -0.30562E-06  5071   0.314E-03    0.780E-03
RMM:   7    -0.992770888759E+03   -0.13348E-06   -0.80488E-07  2935   0.195E-03    0.334E-03
RMM:   8    -0.992770888840E+03   -0.80690E-07   -0.49473E-07  2776   0.208E-03
  15 F= -.99277089E+03 E0= -.99277089E+03  d E =-.936016E-03  mag=   118.0000
       N       E                     dE             d eps       ncg     rms          rms(c)
DAV:   1    -0.992768660779E+03    0.22280E-02   -0.71517E-01 12592   0.990E-01    0.369E-01
RMM:   2    -0.992771432638E+03   -0.27719E-02   -0.18626E-02 12710   0.188E-01    0.211E-01
RMM:   3    -0.992771701988E+03   -0.26935E-03   -0.10362E-03 11394   0.515E-02    0.980E-02
RMM:   4    -0.992771650483E+03    0.51505E-04   -0.11939E-04  7679   0.156E-02    0.595E-02
RMM:   5    -0.992771632976E+03    0.17507E-04   -0.92000E-05  7279   0.119E-02    0.281E-02
RMM:   6    -0.992771635554E+03   -0.25782E-05   -0.20443E-05  7116   0.777E-03    0.193E-02
RMM:   7    -0.992771636314E+03   -0.75930E-06   -0.93645E-06  6820   0.432E-03    0.116E-02
RMM:   8    -0.992771636616E+03   -0.30248E-06   -0.51155E-06  6083   0.401E-03
  16 F= -.99277164E+03 E0= -.99277164E+03  d E =-.747776E-03  mag=   118.0000
