<?xml version="1.0" encoding="ISO-8859-1"?>
<modeling>
 <generator>
  <i name="program" type="string">vasp </i>
  <i name="version" type="string">5.4.1  </i>
  <i name="subversion" type="string">05Feb16 (build Jan 25 2017 20:16:33) complex                          parallel </i>
  <i name="platform" type="string">BWXE6 </i>
  <i name="date" type="string">2019 07 09 </i>
  <i name="time" type="string">23:43:58 </i>
 </generator>
 <incar>
  <i type="string" name="SYSTEM"> STF</i>
  <i type="string" name="PREC">normal</i>
  <i type="string" name="ALGO"> Fast</i>
  <i type="int" name="ISPIN">     2</i>
  <i type="int" name="NELM">    40</i>
  <i type="int" name="NELMIN">     8</i>
  <i type="int" name="IBRION">     2</i>
  <i name="EDIFF">      0.00010000</i>
  <i name="EDIFFG">     -0.03000000</i>
  <i type="int" name="NSW">    30</i>
  <i type="int" name="ISIF">     3</i>
  <i name="ENCUT">    520.00000000</i>
  <i type="int" name="NBANDS">   768</i>
  <v name="MAGMOM">      0.60000000      0.60000000      0.60000000      0.60000000      0.60000000      0.60000000      0.60000000      0.60000000      0.60000000      0.60000000      0.60000000      0.60000000      0.60000000      0.60000000      0.60000000      0.60000000      0.60000000      0.60000000      0.60000000      0.60000000
      0.60000000      0.60000000      0.60000000      0.60000000      0.60000000      0.60000000      0.60000000      0.60000000      0.60000000      0.60000000      0.60000000      0.60000000      0.60000000      0.60000000      0.60000000      0.60000000      0.60000000      0.60000000      0.60000000      0.60000000
      5.00000000      5.00000000      5.00000000      5.00000000      5.00000000      5.00000000      5.00000000      5.00000000      5.00000000      5.00000000      5.00000000      5.00000000      5.00000000      5.00000000      5.00000000      5.00000000      5.00000000      5.00000000      5.00000000      5.00000000
      5.00000000      5.00000000      5.00000000      5.00000000      0.60000000      0.60000000      0.60000000      0.60000000      0.60000000      0.60000000      0.60000000      0.60000000      0.60000000      0.60000000      0.60000000      0.60000000      0.60000000      0.60000000      0.60000000      0.60000000
      0.60000000      0.60000000      0.60000000      0.60000000      0.60000000      0.60000000      0.60000000      0.60000000      0.60000000      0.60000000      0.60000000      0.60000000      0.60000000      0.60000000      0.60000000      0.60000000      0.60000000      0.60000000      0.60000000      0.60000000
      0.60000000      0.60000000      0.60000000      0.60000000      0.60000000      0.60000000      0.60000000      0.60000000      0.60000000      0.60000000      0.60000000      0.60000000      0.60000000      0.60000000      0.60000000      0.60000000      0.60000000      0.60000000      0.60000000      0.60000000
      0.60000000      0.60000000      0.60000000      0.60000000      0.60000000      0.60000000      0.60000000      0.60000000      0.60000000      0.60000000      0.60000000      0.60000000      0.60000000      0.60000000      0.60000000      0.60000000      0.60000000      0.60000000      0.60000000      0.60000000
      0.60000000      0.60000000      0.60000000      0.60000000      0.60000000      0.60000000      0.60000000      0.60000000</v>
  <i type="string" name="LREAL"> Auto</i>
  <i type="int" name="ISMEAR">     0</i>
  <i name="SIGMA">      0.05000000</i>
  <i type="int" name="LMAXMIX">     4</i>
  <v type="int" name="KPOINT_BSE">    -1     0     0     0</v>
  <i type="int" name="NELM">    40</i>
  <i type="logical" name="LDAU"> T  </i>
  <v type="int" name="LDAUTYPE">     2</v>
  <v type="int" name="LDAUL">     0     2     2     0</v>
  <v name="LDAUU">      0.00000000      3.00000000      5.00000000      0.00000000</v>
  <v name="LDAUJ">      0.00000000      0.00000000      0.00000000      0.00000000</v>
  <i type="int" name="LDAUPRINT">     1</i>
 </incar>
 <kpoints>
  <generation param="Monkhorst-Pack">
   <v type="int" name="divisions">       2        2        2 </v>
   <v name="usershift">      0.00000000       0.00000000       0.00000000 </v>
   <v name="genvec1">      0.50000000       0.00000000      -0.00000000 </v>
   <v name="genvec2">      0.00000000       0.50000000      -0.00000000 </v>
   <v name="genvec3">      0.00000000       0.00000000       0.50000000 </v>
   <v name="shift">      0.50000000       0.50000000       0.50000000 </v>
  </generation>
  <varray name="kpointlist" >
   <v>       0.25000000       0.25000000       0.25000000 </v>
   <v>      -0.25000000       0.25000000       0.25000000 </v>
   <v>       0.25000000      -0.25000000       0.25000000 </v>
   <v>      -0.25000000      -0.25000000       0.25000000 </v>
  </varray>
  <varray name="weights" >
   <v>       0.25000000 </v>
   <v>       0.25000000 </v>
   <v>       0.25000000 </v>
   <v>       0.25000000 </v>
  </varray>
 </kpoints>
 <parameters>
  <separator name="general" >
   <i type="string" name="SYSTEM">STF</i>
   <i type="logical" name="LCOMPAT"> F  </i>
  </separator>
  <separator name="electronic" >
   <i type="string" name="PREC">normal</i>
   <i name="ENMAX">    520.00000000</i>
   <i name="ENAUG">    605.39200000</i>
   <i name="EDIFF">      0.00010000</i>
   <i type="int" name="IALGO">    68</i>
   <i type="int" name="IWAVPR">    11</i>
   <i type="int" name="NBANDS">   768</i>
   <i name="NELECT">   1048.00000000</i>
   <i type="int" name="TURBO">     0</i>
   <i type="int" name="IRESTART">     0</i>
   <i type="int" name="NREBOOT">     0</i>
   <i type="int" name="NMIN">     0</i>
   <i name="EREF">      0.00000000</i>
   <separator name="electronic smearing" >
    <i type="int" name="ISMEAR">     0</i>
    <i name="SIGMA">      0.05000000</i>
    <i name="KSPACING">      0.50000000</i>
    <i type="logical" name="KGAMMA"> T  </i>
   </separator>
   <separator name="electronic projectors" >
    <i type="logical" name="LREAL"> T  </i>
    <v name="ROPT">     -0.00050000     -0.00050000     -0.00050000     -0.00050000</v>
    <i type="int" name="LMAXPAW">  -100</i>
    <i type="int" name="LMAXMIX">     4</i>
    <i type="logical" name="NLSPLINE"> F  </i>
   </separator>
   <separator name="electronic startup" >
    <i type="int" name="ISTART">     1</i>
    <i type="int" name="ICHARG">     0</i>
    <i type="int" name="INIWAV">     1</i>
   </separator>
   <separator name="electronic spin" >
    <i type="int" name="ISPIN">     2</i>
    <i type="logical" name="LNONCOLLINEAR"> F  </i>
    <v name="MAGMOM">      0.60000000      0.60000000      0.60000000      0.60000000      0.60000000      0.60000000      0.60000000      0.60000000      0.60000000      0.60000000      0.60000000      0.60000000      0.60000000      0.60000000      0.60000000      0.60000000      0.60000000      0.60000000      0.60000000      0.60000000
      0.60000000      0.60000000      0.60000000      0.60000000      0.60000000      0.60000000      0.60000000      0.60000000      0.60000000      0.60000000      0.60000000      0.60000000      0.60000000      0.60000000      0.60000000      0.60000000      0.60000000      0.60000000      0.60000000      0.60000000
      5.00000000      5.00000000      5.00000000      5.00000000      5.00000000      5.00000000      5.00000000      5.00000000      5.00000000      5.00000000      5.00000000      5.00000000      5.00000000      5.00000000      5.00000000      5.00000000      5.00000000      5.00000000      5.00000000      5.00000000
      5.00000000      5.00000000      5.00000000      5.00000000      0.60000000      0.60000000      0.60000000      0.60000000      0.60000000      0.60000000      0.60000000      0.60000000      0.60000000      0.60000000      0.60000000      0.60000000      0.60000000      0.60000000      0.60000000      0.60000000
      0.60000000      0.60000000      0.60000000      0.60000000      0.60000000      0.60000000      0.60000000      0.60000000      0.60000000      0.60000000      0.60000000      0.60000000      0.60000000      0.60000000      0.60000000      0.60000000      0.60000000      0.60000000      0.60000000      0.60000000
      0.60000000      0.60000000      0.60000000      0.60000000      0.60000000      0.60000000      0.60000000      0.60000000      0.60000000      0.60000000      0.60000000      0.60000000      0.60000000      0.60000000      0.60000000      0.60000000      0.60000000      0.60000000      0.60000000      0.60000000
      0.60000000      0.60000000      0.60000000      0.60000000      0.60000000      0.60000000      0.60000000      0.60000000      0.60000000      0.60000000      0.60000000      0.60000000      0.60000000      0.60000000      0.60000000      0.60000000      0.60000000      0.60000000      0.60000000      0.60000000
      0.60000000      0.60000000      0.60000000      0.60000000      0.60000000      0.60000000      0.60000000      0.60000000</v>
    <i name="NUPDOWN">     -1.00000000</i>
    <i type="logical" name="LSORBIT"> F  </i>
    <v name="SAXIS">      0.00000000      0.00000000      1.00000000</v>
    <i type="logical" name="LSPIRAL"> F  </i>
    <v name="QSPIRAL">      0.00000000      0.00000000      0.00000000</v>
    <i type="logical" name="LZEROZ"> F  </i>
   </separator>
   <separator name="electronic exchange-correlation" >
    <i type="logical" name="LASPH"> F  </i>
    <i type="logical" name="LMETAGGA"> F  </i>
   </separator>
   <separator name="electronic convergence" >
    <i type="int" name="NELM">    40</i>
    <i type="int" name="NELMDL">     0</i>
    <i type="int" name="NELMIN">     8</i>
    <i name="ENINI">    520.00000000</i>
    <separator name="electronic convergence detail" >
     <i type="logical" name="LDIAG"> T  </i>
     <i type="logical" name="LSUBROT"> F  </i>
     <i name="WEIMIN">      0.00100000</i>
     <i name="EBREAK">      0.00000003</i>
     <i name="DEPER">      0.30000000</i>
     <i type="int" name="NRMM">     4</i>
     <i name="TIME">      0.40000000</i>
    </separator>
   </separator>
   <separator name="electronic mixer" >
    <i name="AMIX">      0.40000000</i>
    <i name="BMIX">      1.00000000</i>
    <i name="AMIN">      0.10000000</i>
    <i name="AMIX_MAG">      1.60000000</i>
    <i name="BMIX_MAG">      1.00000000</i>
    <separator name="electronic mixer details" >
     <i type="int" name="IMIX">     4</i>
     <i type="logical" name="MIXFIRST"> F  </i>
     <i type="int" name="MAXMIX">   -45</i>
     <i name="WC">    100.00000000</i>
     <i type="int" name="INIMIX">     1</i>
     <i type="int" name="MIXPRE">     1</i>
     <i type="int" name="MREMOVE">     5</i>
    </separator>
   </separator>
   <separator name="electronic dipolcorrection" >
    <i type="logical" name="LDIPOL"> F  </i>
    <i type="logical" name="LMONO"> F  </i>
    <i type="int" name="IDIPOL">     0</i>
    <i name="EPSILON">      1.00000000</i>
    <v name="DIPOL">   -100.00000000   -100.00000000   -100.00000000</v>
    <i name="EFIELD">      0.00000000</i>
   </separator>
  </separator>
  <separator name="grids" >
   <i type="int" name="NGX">    64</i>
   <i type="int" name="NGY">    64</i>
   <i type="int" name="NGZ">    90</i>
   <i type="int" name="NGXF">   128</i>
   <i type="int" name="NGYF">   128</i>
   <i type="int" name="NGZF">   180</i>
   <i type="logical" name="ADDGRID"> F  </i>
  </separator>
  <separator name="ionic" >
   <i type="int" name="NSW">    30</i>
   <i type="int" name="IBRION">     2</i>
   <i type="int" name="ISIF">     3</i>
   <i name="PSTRESS">      0.00000000</i>
   <i name="EDIFFG">     -0.03000000</i>
   <i type="int" name="NFREE">     1</i>
   <i name="POTIM">      0.50000000</i>
   <i name="SMASS">     -3.00000000</i>
   <i name="SCALEE">      1.00000000</i>
  </separator>
  <separator name="ionic md" >
   <i name="TEBEG">      0.00010000</i>
   <i name="TEEND">      0.00010000</i>
   <i type="int" name="NBLOCK">     1</i>
   <i type="int" name="KBLOCK">    30</i>
   <i type="int" name="NPACO">   256</i>
   <i name="APACO">     16.00000000</i>
  </separator>
  <separator name="symmetry" >
   <i type="int" name="ISYM">     2</i>
   <i name="SYMPREC">      0.00001000</i>
  </separator>
  <separator name="dos" >
   <i type="logical" name="LORBIT"> F  </i>
   <v name="RWIGS">     -1.00000000     -1.00000000     -1.00000000     -1.00000000</v>
   <i type="int" name="NEDOS">   301</i>
   <i name="EMIN">     10.00000000</i>
   <i name="EMAX">    -10.00000000</i>
   <i name="EFERMI">      0.00000000</i>
  </separator>
  <separator name="writing" >
   <i type="int" name="NWRITE">     2</i>
   <i type="logical" name="LWAVE"> T  </i>
   <i type="logical" name="LCHARG"> T  </i>
   <i type="logical" name="LPARD"> F  </i>
   <i type="logical" name="LVTOT"> F  </i>
   <i type="logical" name="LVHAR"> F  </i>
   <i type="logical" name="LELF"> F  </i>
   <i type="logical" name="LOPTICS"> F  </i>
   <v name="STM">      0.00000000      0.00000000      0.00000000      0.00000000      0.00000000      0.00000000      0.00000000</v>
  </separator>
  <separator name="performance" >
   <i type="int" name="NPAR">     2</i>
   <i type="int" name="NSIM">     4</i>
   <i type="int" name="NBLK">    -1</i>
   <i type="logical" name="LPLANE"> T  </i>
   <i type="logical" name="LSCALAPACK"> T  </i>
   <i type="logical" name="LSCAAWARE"> F  </i>
   <i type="logical" name="LSCALU"> F  </i>
   <i type="logical" name="LASYNC"> F  </i>
   <i type="logical" name="LORBITALREAL"> F  </i>
  </separator>
  <separator name="miscellaneous" >
   <i type="int" name="IDIOT">     3</i>
   <i type="logical" name="LMUSIC"> F  </i>
   <v name="POMASS">     87.62000000     47.88000000     55.84700000     16.00000000</v>
   <v name="DARWINR">      0.00000000      0.00000000      0.00000000      0.00000000</v>
   <v name="DARWINV">      1.00000000      1.00000000      1.00000000      1.00000000</v>
   <i type="logical" name="LCORR"> T  </i>
  </separator>
  <i type="logical" name="GGA_COMPAT"> T  </i>
  <i type="logical" name="LBERRY"> F  </i>
  <i type="int" name="ICORELEVEL">     0</i>
  <i type="logical" name="LDAU"> T  </i>
  <v type="int" name="LDAUTYPE">     2</v>
  <v type="int" name="LDAUL">     0</v>
  <v name="LDAUU">      0.00000000</v>
  <v name="LDAUJ">      0.00000000</v>
  <i type="int" name="LDAUPRINT">     1</i>
  <i type="int" name="I_CONSTRAINED_M">     0</i>
  <separator name="electronic exchange-correlation" >
   <i type="string" name="GGA">--</i>
   <i type="int" name="VOSKOWN">     0</i>
   <i type="logical" name="LHFCALC"> F  </i>
   <i type="string" name="PRECFOCK"></i>
   <i type="logical" name="LSYMGRAD"> F  </i>
   <i type="logical" name="LHFONE"> F  </i>
   <i type="logical" name="LRHFCALC"> F  </i>
   <i type="logical" name="LTHOMAS"> F  </i>
   <i type="logical" name="LMODELHF"> F  </i>
   <i name="ENCUT4O">     -1.00000000</i>
   <i type="int" name="EXXOEP">     0</i>
   <i type="int" name="FOURORBIT">     0</i>
   <i name="AEXX">      0.00000000</i>
   <i name="HFALPHA">      0.00000000</i>
   <i name="MCALPHA">      0.00000000</i>
   <i name="ALDAX">      1.00000000</i>
   <i name="AGGAX">      1.00000000</i>
   <i name="ALDAC">      1.00000000</i>
   <i name="AGGAC">      1.00000000</i>
   <i type="int" name="NKREDX">     1</i>
   <i type="int" name="NKREDY">     1</i>
   <i type="int" name="NKREDZ">     1</i>
   <i type="logical" name="SHIFTRED"> F  </i>
   <i type="logical" name="ODDONLY"> F  </i>
   <i type="logical" name="EVENONLY"> F  </i>
   <i type="int" name="LMAXFOCK">     0</i>
   <i type="int" name="NMAXFOCKAE">     0</i>
   <i type="logical" name="LFOCKAEDFT"> F  </i>
   <i name="HFSCREEN">      0.00000000</i>
   <i name="HFSCREENC">      0.00000000</i>
   <i type="int" name="NBANDSGWLOW">     0</i>
  </separator>
  <separator name="vdW DFT" >
   <i type="logical" name="LUSE_VDW"> F  </i>
   <i name="Zab_VDW">     -0.84910000</i>
   <i name="PARAM1">      0.12340000</i>
   <i name="PARAM2">      1.00000000</i>
   <i name="PARAM3">      0.00000000</i>
  </separator>
  <separator name="model GW" >
   <i type="int" name="MODEL_GW">     0</i>
   <i name="MODEL_EPS0">      8.05949455</i>
   <i name="MODEL_ALPHA">      1.00000000</i>
  </separator>
  <separator name="linear response parameters" >
   <i type="logical" name="LEPSILON"> F  </i>
   <i type="logical" name="LRPA"> F  </i>
   <i type="logical" name="LNABLA"> F  </i>
   <i type="logical" name="LVEL"> F  </i>
   <i type="int" name="KINTER">     0</i>
   <i name="CSHIFT">      0.10000000</i>
   <i name="OMEGAMAX">     -1.00000000</i>
   <i name="DEG_THRESHOLD">      0.00200000</i>
  </separator>
  <separator name="orbital magnetization" >
   <i type="logical" name="NUCIND"> F  </i>
   <v name="MAGPOS">      0.00000000      0.00000000      0.00000000</v>
   <i type="logical" name="LNICSALL"> T  </i>
   <i type="logical" name="ORBITALMAG"> F  </i>
   <i type="logical" name="LMAGBLOCH"> F  </i>
   <i type="logical" name="LCHIMAG"> F  </i>
   <i type="logical" name="LGAUGE"> T  </i>
   <i type="int" name="MAGATOM">     0</i>
   <v name="MAGDIPOL">      0.00000000      0.00000000      0.00000000</v>
   <v name="AVECCONST">      0.00000000      0.00000000      0.00000000</v>
  </separator>
  <separator name="response functions" >
   <i type="logical" name="LADDER"> F  </i>
   <i type="logical" name="LFXC"> F  </i>
   <i type="logical" name="LHARTREE"> T  </i>
   <i type="int" name="IBSE">     0</i>
   <v type="int" name="KPOINT">    -1     0     0     0</v>
   <i type="logical" name="LTCTE"> F  </i>
   <i type="logical" name="LTETE"> F  </i>
   <i type="logical" name="LTRIPLET"> F  </i>
   <i type="logical" name="LFXCEPS"> F  </i>
   <i type="logical" name="LFXHEG"> F  </i>
   <i type="int" name="NATURALO">     0</i>
   <i type="logical" name="L2ORDER"> F  </i>
   <i type="logical" name="LUSEW"> F  </i>
   <i name="ENCUTGW">     -2.00000000</i>
   <i name="ENCUTGWSOFT">     -2.00000000</i>
   <i name="ENCUTLF">     -1.00000000</i>
   <i type="int" name="LMAXMP2">    -1</i>
   <i name="SCISSOR">      0.00000000</i>
   <i type="int" name="NOMEGA">     0</i>
   <i type="int" name="NOMEGAR">     0</i>
   <i type="int" name="NBANDSGW">    -1</i>
   <i type="int" name="NBANDSO">    -1</i>
   <i type="int" name="NBANDSV">    -1</i>
   <i type="int" name="NELM">    40</i>
   <i type="int" name="NELMHF">     1</i>
   <i type="int" name="DIM">     3</i>
   <i type="int" name="ANTIRES">     0</i>
   <i name="OMEGAMAX">    -30.00000000</i>
   <i name="OMEGAMIN">    -30.00000000</i>
   <i name="OMEGATL">   -200.00000000</i>
   <i type="int" name="OMEGAGRID">     0</i>
   <i name="CSHIFT">     -0.10000000</i>
   <i type="logical" name="SELFENERGY"> F  </i>
   <i type="logical" name="LSPECTRAL"> F  </i>
   <i type="logical" name="LSPECTRALGW"> F  </i>
   <i type="logical" name="LSINGLES"> F  </i>
   <i type="logical" name="LFERMIGW"> F  </i>
   <i type="logical" name="ODDONLYGW"> F  </i>
   <i type="logical" name="EVENONLYGW"> F  </i>
   <i type="int" name="NKREDLFX">     1</i>
   <i type="int" name="NKREDLFY">     1</i>
   <i type="int" name="NKREDLFZ">     1</i>
   <i type="int" name="MAXMEM">  1800</i>
   <i type="int" name="TELESCOPE">     0</i>
   <i type="int" name="TAUPAR">     1</i>
   <i type="int" name="OMEGAPAR">    -1</i>
   <i name="LAMBDA">      1.00000000</i>
  </separator>
  <separator name="External order field" >
   <i name="OFIELD_KAPPA">      0.00000000</i>
   <v name="OFIELD_K">      0.00000000      0.00000000      0.00000000</v>
   <i name="OFIELD_Q6_NEAR">      0.00000000</i>
   <i name="OFIELD_Q6_FAR">      0.00000000</i>
   <i name="OFIELD_A">      0.00000000</i>
  </separator>
 </parameters>
 <atominfo>
  <atoms>     148 </atoms>
  <types>       4 </types>
  <array name="atoms" >
   <dimension dim="1">ion</dimension>
   <field type="string">element</field>
   <field type="int">atomtype</field>
   <set>
    <rc><c>Sr</c><c>   1</c></rc>
    <rc><c>Sr</c><c>   1</c></rc>
    <rc><c>Sr</c><c>   1</c></rc>
    <rc><c>Sr</c><c>   1</c></rc>
    <rc><c>Sr</c><c>   1</c></rc>
    <rc><c>Sr</c><c>   1</c></rc>
    <rc><c>Sr</c><c>   1</c></rc>
    <rc><c>Sr</c><c>   1</c></rc>
    <rc><c>Sr</c><c>   1</c></rc>
    <rc><c>Sr</c><c>   1</c></rc>
    <rc><c>Sr</c><c>   1</c></rc>
    <rc><c>Sr</c><c>   1</c></rc>
    <rc><c>Sr</c><c>   1</c></rc>
    <rc><c>Sr</c><c>   1</c></rc>
    <rc><c>Sr</c><c>   1</c></rc>
    <rc><c>Sr</c><c>   1</c></rc>
    <rc><c>Sr</c><c>   1</c></rc>
    <rc><c>Sr</c><c>   1</c></rc>
    <rc><c>Sr</c><c>   1</c></rc>
    <rc><c>Sr</c><c>   1</c></rc>
    <rc><c>Sr</c><c>   1</c></rc>
    <rc><c>Sr</c><c>   1</c></rc>
    <rc><c>Sr</c><c>   1</c></rc>
    <rc><c>Sr</c><c>   1</c></rc>
    <rc><c>Sr</c><c>   1</c></rc>
    <rc><c>Sr</c><c>   1</c></rc>
    <rc><c>Sr</c><c>   1</c></rc>
    <rc><c>Sr</c><c>   1</c></rc>
    <rc><c>Sr</c><c>   1</c></rc>
    <rc><c>Sr</c><c>   1</c></rc>
    <rc><c>Sr</c><c>   1</c></rc>
    <rc><c>Sr</c><c>   1</c></rc>
    <rc><c>Ti</c><c>   2</c></rc>
    <rc><c>Ti</c><c>   2</c></rc>
    <rc><c>Ti</c><c>   2</c></rc>
    <rc><c>Ti</c><c>   2</c></rc>
    <rc><c>Ti</c><c>   2</c></rc>
    <rc><c>Ti</c><c>   2</c></rc>
    <rc><c>Ti</c><c>   2</c></rc>
    <rc><c>Ti</c><c>   2</c></rc>
    <rc><c>Fe</c><c>   3</c></rc>
    <rc><c>Fe</c><c>   3</c></rc>
    <rc><c>Fe</c><c>   3</c></rc>
    <rc><c>Fe</c><c>   3</c></rc>
    <rc><c>Fe</c><c>   3</c></rc>
    <rc><c>Fe</c><c>   3</c></rc>
    <rc><c>Fe</c><c>   3</c></rc>
    <rc><c>Fe</c><c>   3</c></rc>
    <rc><c>Fe</c><c>   3</c></rc>
    <rc><c>Fe</c><c>   3</c></rc>
    <rc><c>Fe</c><c>   3</c></rc>
    <rc><c>Fe</c><c>   3</c></rc>
    <rc><c>Fe</c><c>   3</c></rc>
    <rc><c>Fe</c><c>   3</c></rc>
    <rc><c>Fe</c><c>   3</c></rc>
    <rc><c>Fe</c><c>   3</c></rc>
    <rc><c>Fe</c><c>   3</c></rc>
    <rc><c>Fe</c><c>   3</c></rc>
    <rc><c>Fe</c><c>   3</c></rc>
    <rc><c>Fe</c><c>   3</c></rc>
    <rc><c>Fe</c><c>   3</c></rc>
    <rc><c>Fe</c><c>   3</c></rc>
    <rc><c>Fe</c><c>   3</c></rc>
    <rc><c>Fe</c><c>   3</c></rc>
    <rc><c>O </c><c>   4</c></rc>
    <rc><c>O </c><c>   4</c></rc>
    <rc><c>O </c><c>   4</c></rc>
    <rc><c>O </c><c>   4</c></rc>
    <rc><c>O </c><c>   4</c></rc>
    <rc><c>O </c><c>   4</c></rc>
    <rc><c>O </c><c>   4</c></rc>
    <rc><c>O </c><c>   4</c></rc>
    <rc><c>O </c><c>   4</c></rc>
    <rc><c>O </c><c>   4</c></rc>
    <rc><c>O </c><c>   4</c></rc>
    <rc><c>O </c><c>   4</c></rc>
    <rc><c>O </c><c>   4</c></rc>
    <rc><c>O </c><c>   4</c></rc>
    <rc><c>O </c><c>   4</c></rc>
    <rc><c>O </c><c>   4</c></rc>
    <rc><c>O </c><c>   4</c></rc>
    <rc><c>O </c><c>   4</c></rc>
    <rc><c>O </c><c>   4</c></rc>
    <rc><c>O </c><c>   4</c></rc>
    <rc><c>O </c><c>   4</c></rc>
    <rc><c>O </c><c>   4</c></rc>
    <rc><c>O </c><c>   4</c></rc>
    <rc><c>O </c><c>   4</c></rc>
    <rc><c>O </c><c>   4</c></rc>
    <rc><c>O </c><c>   4</c></rc>
    <rc><c>O </c><c>   4</c></rc>
    <rc><c>O </c><c>   4</c></rc>
    <rc><c>O </c><c>   4</c></rc>
    <rc><c>O </c><c>   4</c></rc>
    <rc><c>O </c><c>   4</c></rc>
    <rc><c>O </c><c>   4</c></rc>
    <rc><c>O </c><c>   4</c></rc>
    <rc><c>O </c><c>   4</c></rc>
    <rc><c>O </c><c>   4</c></rc>
    <rc><c>O </c><c>   4</c></rc>
    <rc><c>O </c><c>   4</c></rc>
    <rc><c>O </c><c>   4</c></rc>
    <rc><c>O </c><c>   4</c></rc>
    <rc><c>O </c><c>   4</c></rc>
    <rc><c>O </c><c>   4</c></rc>
    <rc><c>O </c><c>   4</c></rc>
    <rc><c>O </c><c>   4</c></rc>
    <rc><c>O </c><c>   4</c></rc>
    <rc><c>O </c><c>   4</c></rc>
    <rc><c>O </c><c>   4</c></rc>
    <rc><c>O </c><c>   4</c></rc>
    <rc><c>O </c><c>   4</c></rc>
    <rc><c>O </c><c>   4</c></rc>
    <rc><c>O </c><c>   4</c></rc>
    <rc><c>O </c><c>   4</c></rc>
    <rc><c>O </c><c>   4</c></rc>
    <rc><c>O </c><c>   4</c></rc>
    <rc><c>O </c><c>   4</c></rc>
    <rc><c>O </c><c>   4</c></rc>
    <rc><c>O </c><c>   4</c></rc>
    <rc><c>O </c><c>   4</c></rc>
    <rc><c>O </c><c>   4</c></rc>
    <rc><c>O </c><c>   4</c></rc>
    <rc><c>O </c><c>   4</c></rc>
    <rc><c>O </c><c>   4</c></rc>
    <rc><c>O </c><c>   4</c></rc>
    <rc><c>O </c><c>   4</c></rc>
    <rc><c>O </c><c>   4</c></rc>
    <rc><c>O </c><c>   4</c></rc>
    <rc><c>O </c><c>   4</c></rc>
    <rc><c>O </c><c>   4</c></rc>
    <rc><c>O </c><c>   4</c></rc>
    <rc><c>O </c><c>   4</c></rc>
    <rc><c>O </c><c>   4</c></rc>
    <rc><c>O </c><c>   4</c></rc>
    <rc><c>O </c><c>   4</c></rc>
    <rc><c>O </c><c>   4</c></rc>
    <rc><c>O </c><c>   4</c></rc>
    <rc><c>O </c><c>   4</c></rc>
    <rc><c>O </c><c>   4</c></rc>
    <rc><c>O </c><c>   4</c></rc>
    <rc><c>O </c><c>   4</c></rc>
    <rc><c>O </c><c>   4</c></rc>
    <rc><c>O </c><c>   4</c></rc>
    <rc><c>O </c><c>   4</c></rc>
    <rc><c>O </c><c>   4</c></rc>
    <rc><c>O </c><c>   4</c></rc>
    <rc><c>O </c><c>   4</c></rc>
   </set>
  </array>
  <array name="atomtypes" >
   <dimension dim="1">type</dimension>
   <field type="int">atomspertype</field>
   <field type="string">element</field>
   <field>mass</field>
   <field>valence</field>
   <field type="string">pseudopotential</field>
   <set>
    <rc><c>  32</c><c>Sr</c><c>     87.62000000</c><c>     10.00000000</c><c>  PAW_PBE Sr_sv 07Sep2000               </c></rc>
    <rc><c>   8</c><c>Ti</c><c>     47.88000000</c><c>      4.00000000</c><c>  PAW_PBE Ti 08Apr2002                  </c></rc>
    <rc><c>  24</c><c>Fe</c><c>     55.84700000</c><c>      8.00000000</c><c>  PAW_PBE Fe 06Sep2000                  </c></rc>
    <rc><c>  84</c><c>O </c><c>     16.00000000</c><c>      6.00000000</c><c>  PAW_PBE O 08Apr2002                   </c></rc>
   </set>
  </array>
 </atominfo>
 <structure name="initialpos" >
  <crystal>
   <varray name="basis" >
    <v>      11.16730153       0.01362248      -0.01360097 </v>
    <v>       0.01350656      11.21663564      -0.00057950 </v>
    <v>      -0.01919901      -0.00045109      15.87116088 </v>
   </varray>
   <i name="volume">   1988.00865619 </i>
   <varray name="rec_basis" >
    <v>       0.08954741      -0.00010782       0.00010832 </v>
    <v>      -0.00010875       0.08915342       0.00000240 </v>
    <v>       0.00007673       0.00000316       0.06300746 </v>
   </varray>
  </crystal>
  <varray name="positions" >
   <v>       0.00334444       0.24974320       0.12715852 </v>
   <v>       0.01088553       0.25320804       0.61812568 </v>
   <v>       0.99928961       0.74757813       0.12187031 </v>
   <v>       0.00282416       0.74774590       0.62311634 </v>
   <v>       0.48589632       0.24204860       0.12923329 </v>
   <v>       0.50011800       0.24920354       0.61278620 </v>
   <v>       0.49722136       0.74703301       0.11999642 </v>
   <v>       0.49806042       0.75830448       0.61579825 </v>
   <v>       0.99863217       0.25523550       0.37958151 </v>
   <v>       0.01411303       0.25083685       0.87037843 </v>
   <v>       0.99456424       0.74809116       0.37542954 </v>
   <v>       0.00059177       0.74329696       0.88205437 </v>
   <v>       0.50204794       0.24953511       0.37624636 </v>
   <v>       0.48907619       0.24329529       0.89008875 </v>
   <v>       0.50119060       0.75483612       0.38387828 </v>
   <v>       0.50294362       0.74285620       0.88296544 </v>
   <v>       0.24648664       0.99184936       0.12066287 </v>
   <v>       0.24754904       0.00405510       0.61879790 </v>
   <v>       0.24215463       0.50685025       0.12600894 </v>
   <v>       0.24304865       0.50199228       0.61371900 </v>
   <v>       0.75701775       0.99395195       0.11779160 </v>
   <v>       0.74382879       0.00346216       0.62227616 </v>
   <v>       0.75259864       0.50915596       0.12725659 </v>
   <v>       0.76922712       0.50267258       0.61620115 </v>
   <v>       0.24232627       0.00000196       0.38298272 </v>
   <v>       0.25459474       0.99756396       0.87837624 </v>
   <v>       0.24828642       0.50549499       0.37317910 </v>
   <v>       0.23616842       0.50017297       0.88772891 </v>
   <v>       0.75011317       0.00813669       0.37889616 </v>
   <v>       0.75055661       0.98560095       0.87542196 </v>
   <v>       0.75353621       0.49489261       0.37935764 </v>
   <v>       0.75662979       0.50420394       0.87549974 </v>
   <v>       0.25011010       0.75068802       0.49917498 </v>
   <v>       0.74705353       0.74598117       0.99971712 </v>
   <v>       0.00169992       0.00431058       0.24943512 </v>
   <v>       0.25025774       0.75178803       0.99907230 </v>
   <v>       0.25611169       0.25379367       0.49734049 </v>
   <v>       0.00467242       0.50690222       0.74927968 </v>
   <v>       0.98867698       0.49962780       0.24972749 </v>
   <v>       0.74899725       0.24908509       0.50444646 </v>
   <v>       0.49997480       0.00314038       0.49355195 </v>
   <v>       0.00763952       0.00890676       0.50130456 </v>
   <v>       0.99367642       0.49738693       0.00275527 </v>
   <v>       0.00223547       0.50285289       0.49696842 </v>
   <v>       0.24195517       0.26150632       0.74920701 </v>
   <v>       0.49170149       0.46972441       0.76599181 </v>
   <v>       0.99527654       0.99091858       0.99636063 </v>
   <v>       0.76164119       0.23920800       0.98062955 </v>
   <v>       0.48992608       0.48430998       0.24576462 </v>
   <v>       0.74933044       0.25169165       0.26008649 </v>
   <v>       0.49212006       0.50937517       0.00559320 </v>
   <v>       0.98601101       0.01696419       0.74994496 </v>
   <v>       0.23435636       0.26169662       0.25153797 </v>
   <v>       0.50304444       0.50348763       0.48491022 </v>
   <v>       0.26556929       0.72979302       0.74795157 </v>
   <v>       0.25935148       0.25654399       0.00384373 </v>
   <v>       0.75749506       0.76054602       0.25198216 </v>
   <v>       0.23822758       0.74156156       0.25091126 </v>
   <v>       0.76240281       0.26859042       0.74602497 </v>
   <v>       0.74030250       0.74150996       0.50308234 </v>
   <v>       0.77093794       0.75917543       0.74857143 </v>
   <v>       0.52954942       0.99110072       0.24967185 </v>
   <v>       0.49563984       0.96522500       0.75280277 </v>
   <v>       0.49785690       0.99939407       0.00501782 </v>
   <v>       0.12560574       0.12806362       0.74047513 </v>
   <v>       0.10183528       0.64175565       0.25428654 </v>
   <v>       0.84114824       0.10903693       0.75566743 </v>
   <v>       0.51914932       0.52251961       0.36621895 </v>
   <v>       0.99691766       0.49537971       0.87641514 </v>
   <v>       0.37958696       0.62655776       0.50909804 </v>
   <v>       0.38658781       0.35079695       0.24821396 </v>
   <v>       0.37473337       0.87965169       0.50954429 </v>
   <v>       0.34037997       0.89343028       0.74888817 </v>
   <v>       0.88376962       0.35992213       0.23653850 </v>
   <v>       0.90424799       0.35763156       0.74487866 </v>
   <v>       0.88572066       0.86955687       0.23759271 </v>
   <v>       0.90112573       0.86487990       0.76700473 </v>
   <v>       0.38410350       0.86862808       0.99155475 </v>
   <v>       0.36363766       0.11359907       0.00051641 </v>
   <v>       0.37061591       0.61842984       0.24155470 </v>
   <v>       0.39735323       0.60997576       0.73454657 </v>
   <v>       0.51139573       0.03359787       0.64685074 </v>
   <v>       0.40804981       0.32456757       0.75052121 </v>
   <v>       0.84433086       0.60948985       0.25373009 </v>
   <v>       0.85722207       0.60732127       0.74790041 </v>
   <v>       0.13515138       0.39642161       0.25022217 </v>
   <v>       0.15196216       0.40379376       0.75375072 </v>
   <v>       0.14821190       0.89675803       0.25295071 </v>
   <v>       0.64226958       0.38692713       0.24655561 </v>
   <v>       0.64317797       0.42287203       0.72941669 </v>
   <v>       0.59378946       0.82941344       0.25131440 </v>
   <v>       0.38608225       0.36934133       0.00778732 </v>
   <v>       0.38089023       0.38184058       0.50123329 </v>
   <v>       0.10957854       0.64936383       0.75412932 </v>
   <v>       0.83388746       0.38364953       0.01124063 </v>
   <v>       0.88214452       0.63801678       0.49891467 </v>
   <v>       0.87300118       0.87571479       0.99774693 </v>
   <v>       0.87778578       0.36872884       0.50981668 </v>
   <v>       0.62875042       0.88481626       0.99694996 </v>
   <v>       0.12547915       0.12815730       0.49695620 </v>
   <v>       0.85591185       0.11636030       0.23478433 </v>
   <v>       0.13319176       0.62271556       0.48733441 </v>
   <v>       0.62778596       0.15407624       0.02249766 </v>
   <v>       0.62148361       0.12869544       0.49004581 </v>
   <v>       0.62475413       0.62271243       0.99854538 </v>
   <v>       0.62185673       0.62144487       0.52207701 </v>
   <v>       0.13459529       0.88396065       0.99763079 </v>
   <v>       0.11468748       0.86908072       0.49322702 </v>
   <v>       0.11023686       0.13874885       0.26327749 </v>
   <v>       0.62606399       0.37795933       0.50231415 </v>
   <v>       0.12697209       0.62502185       0.00195824 </v>
   <v>       0.62972788       0.88266674       0.50293847 </v>
   <v>       0.12959224       0.37441964       0.49357952 </v>
   <v>       0.37598505       0.12510777       0.50299747 </v>
   <v>       0.37053189       0.62270770       0.00151494 </v>
   <v>       0.89228864       0.13575655       0.99681237 </v>
   <v>       0.86558625       0.10926403       0.50675739 </v>
   <v>       0.87657786       0.63043292       0.00020854 </v>
   <v>       0.51618717       0.48663664       0.88218517 </v>
   <v>       0.01708968       0.01313489       0.12056815 </v>
   <v>       0.00053292       0.98144656       0.62640781 </v>
   <v>       0.99929898       0.50777111       0.12590783 </v>
   <v>       0.01226129       0.50569237       0.62510673 </v>
   <v>       0.48680554       0.99203010       0.13375436 </v>
   <v>       0.24421742       0.22366089       0.12891468 </v>
   <v>       0.52258560       0.49996862       0.12496287 </v>
   <v>       0.97755979       0.99076064       0.37538295 </v>
   <v>       0.11448450       0.35606908       0.00239496 </v>
   <v>       0.02660536       0.01416427       0.87583793 </v>
   <v>       0.48351989       0.99622270       0.36498745 </v>
   <v>       0.51400798       0.02793500       0.86261204 </v>
   <v>       0.75351908       0.76432823       0.37815321 </v>
   <v>       0.26744570       0.24081640       0.37264462 </v>
   <v>       0.24765522       0.23568606       0.87622754 </v>
   <v>       0.27275810       0.76015661       0.37235232 </v>
   <v>       0.25490083       0.74204297       0.87188632 </v>
   <v>       0.76342485       0.25239274       0.37873577 </v>
   <v>       0.71722741       0.26257699       0.86563608 </v>
   <v>       0.60944317       0.83907918       0.75048796 </v>
   <v>       0.74191430       0.74012199       0.87327656 </v>
   <v>       0.74020380       0.74719323       0.12574360 </v>
   <v>       0.25374823       0.25281041       0.62391163 </v>
   <v>       0.25616102       0.76121433       0.12612983 </v>
   <v>       0.23885338       0.75091536       0.62598891 </v>
   <v>       0.60607083       0.14423386       0.24904537 </v>
   <v>       0.73195611       0.23789676       0.62896623 </v>
   <v>       0.98624421       0.49013489       0.37243854 </v>
   <v>       0.77108524       0.77147629       0.62434463 </v>
  </varray>
 </structure>
 <calculation>
  <scstep>
   <time name="dav">  296.68  296.80</time>
   <time name="total">  300.47  300.67</time>
   <energy>
    <i name="alphaZ">   5652.59967021 </i>
    <i name="ewald"> -63683.25660184 </i>
    <i name="hartreedc"> -18083.39115666 </i>
    <i name="XCdc">   3407.88355354 </i>
    <i name="pawpsdc"> 116230.37759456 </i>
    <i name="pawaedc">-115736.92388863 </i>
    <i name="eentropy">     -0.00000001 </i>
    <i name="bandstr">  -7096.94612543 </i>
    <i name="atom">  78316.90445604 </i>
    <i name="e_fr_energy">   -992.75249820 </i>
    <i name="e_wo_entrp">   -992.75249819 </i>
    <i name="e_0_energy">   -992.75249819 </i>
   </energy>
  </scstep>
  <scstep>
   <time name="diag">   32.94   32.97</time>
   <time name="diis">   31.09   31.10</time>
   <time name="orth">   18.77   18.77</time>
   <time name="total">   86.61   86.68</time>
   <energy>
    <i name="e_fr_energy">   -992.75249720 </i>
    <i name="e_wo_entrp">   -992.75249719 </i>
    <i name="e_0_energy">   -992.75249720 </i>
   </energy>
  </scstep>
  <scstep>
   <time name="diag">   32.97   32.98</time>
   <time name="diis">   30.07   30.09</time>
   <time name="orth">   18.74   18.75</time>
   <time name="total">   85.57   85.67</time>
   <energy>
    <i name="e_fr_energy">   -992.75249733 </i>
    <i name="e_wo_entrp">   -992.75249732 </i>
    <i name="e_0_energy">   -992.75249733 </i>
   </energy>
  </scstep>
  <scstep>
   <time name="diag">   32.95   32.95</time>
   <time name="diis">   24.62   24.62</time>
   <time name="orth">   18.68   18.68</time>
   <time name="total">   80.03   80.04</time>
   <energy>
    <i name="e_fr_energy">   -992.75249743 </i>
    <i name="e_wo_entrp">   -992.75249742 </i>
    <i name="e_0_energy">   -992.75249743 </i>
   </energy>
  </scstep>
  <scstep>
   <time name="diag">   32.93   32.94</time>
   <time name="diis">   23.96   23.96</time>
   <time name="orth">   18.69   18.70</time>
   <time name="total">   79.35   79.45</time>
   <energy>
    <i name="e_fr_energy">   -992.75249753 </i>
    <i name="e_wo_entrp">   -992.75249753 </i>
    <i name="e_0_energy">   -992.75249753 </i>
   </energy>
  </scstep>
  <scstep>
   <time name="diag">   32.93   32.93</time>
   <time name="diis">   22.76   22.76</time>
   <time name="orth">   18.73   18.73</time>
   <time name="total">   78.19   78.24</time>
   <energy>
    <i name="e_fr_energy">   -992.75249761 </i>
    <i name="e_wo_entrp">   -992.75249761 </i>
    <i name="e_0_energy">   -992.75249761 </i>
   </energy>
  </scstep>
  <scstep>
   <time name="diag">   32.93   32.94</time>
   <time name="diis">   22.35   22.36</time>
   <time name="orth">   18.71   18.72</time>
   <time name="total">   77.77   77.91</time>
   <energy>
    <i name="e_fr_energy">   -992.75249769 </i>
    <i name="e_wo_entrp">   -992.75249769 </i>
    <i name="e_0_energy">   -992.75249769 </i>
   </energy>
  </scstep>
  <scstep>
   <time name="diag">   32.93   32.93</time>
   <time name="diis">   22.25   22.26</time>
   <time name="orth">   18.67   18.67</time>
   <time name="total">   74.43   74.50</time>
   <energy>
    <i name="alphaZ">   5652.59967021 </i>
    <i name="ewald"> -63683.25660184 </i>
    <i name="hartreedc"> -18083.38739048 </i>
    <i name="XCdc">   3407.88434592 </i>
    <i name="pawpsdc"> 116229.17067453 </i>
    <i name="pawaedc">-115735.70821971 </i>
    <i name="eentropy">     -0.00000001 </i>
    <i name="bandstr">  -7096.95943244 </i>
    <i name="atom">  78316.90445604 </i>
    <i name="e_fr_energy">   -992.75249776 </i>
    <i name="e_wo_entrp">   -992.75249776 </i>
    <i name="e_0_energy">   -992.75249776 </i>
   </energy>
  </scstep>
  <structure>
   <crystal>
    <varray name="basis" >
     <v>      11.16730153       0.01362248      -0.01360097 </v>
     <v>       0.01350656      11.21663564      -0.00057950 </v>
     <v>      -0.01919901      -0.00045109      15.87116088 </v>
    </varray>
    <i name="volume">   1988.00865619 </i>
    <varray name="rec_basis" >
     <v>       0.08954741      -0.00010782       0.00010832 </v>
     <v>      -0.00010875       0.08915342       0.00000240 </v>
     <v>       0.00007673       0.00000316       0.06300746 </v>
    </varray>
   </crystal>
   <varray name="positions" >
    <v>       0.00334444       0.24974320       0.12715852 </v>
    <v>       0.01088553       0.25320804       0.61812568 </v>
    <v>       0.99928961       0.74757813       0.12187031 </v>
    <v>       0.00282416       0.74774590       0.62311634 </v>
    <v>       0.48589632       0.24204860       0.12923329 </v>
    <v>       0.50011800       0.24920354       0.61278620 </v>
    <v>       0.49722136       0.74703301       0.11999642 </v>
    <v>       0.49806042       0.75830448       0.61579825 </v>
    <v>       0.99863217       0.25523550       0.37958151 </v>
    <v>       0.01411303       0.25083685       0.87037843 </v>
    <v>       0.99456424       0.74809116       0.37542954 </v>
    <v>       0.00059177       0.74329696       0.88205437 </v>
    <v>       0.50204794       0.24953511       0.37624636 </v>
    <v>       0.48907619       0.24329529       0.89008875 </v>
    <v>       0.50119060       0.75483612       0.38387828 </v>
    <v>       0.50294362       0.74285620       0.88296544 </v>
    <v>       0.24648664       0.99184936       0.12066287 </v>
    <v>       0.24754904       0.00405510       0.61879790 </v>
    <v>       0.24215463       0.50685025       0.12600894 </v>
    <v>       0.24304865       0.50199228       0.61371900 </v>
    <v>       0.75701775       0.99395195       0.11779160 </v>
    <v>       0.74382879       0.00346216       0.62227616 </v>
    <v>       0.75259864       0.50915596       0.12725659 </v>
    <v>       0.76922712       0.50267258       0.61620115 </v>
    <v>       0.24232627       0.00000196       0.38298272 </v>
    <v>       0.25459474       0.99756396       0.87837624 </v>
    <v>       0.24828642       0.50549499       0.37317910 </v>
    <v>       0.23616842       0.50017297       0.88772891 </v>
    <v>       0.75011317       0.00813669       0.37889616 </v>
    <v>       0.75055661       0.98560095       0.87542196 </v>
    <v>       0.75353621       0.49489261       0.37935764 </v>
    <v>       0.75662979       0.50420394       0.87549974 </v>
    <v>       0.25011010       0.75068802       0.49917498 </v>
    <v>       0.74705353       0.74598117       0.99971712 </v>
    <v>       0.00169992       0.00431058       0.24943512 </v>
    <v>       0.25025774       0.75178803       0.99907230 </v>
    <v>       0.25611169       0.25379367       0.49734049 </v>
    <v>       0.00467242       0.50690222       0.74927968 </v>
    <v>       0.98867698       0.49962780       0.24972749 </v>
    <v>       0.74899725       0.24908509       0.50444646 </v>
    <v>       0.49997480       0.00314038       0.49355195 </v>
    <v>       0.00763952       0.00890676       0.50130456 </v>
    <v>       0.99367642       0.49738693       0.00275527 </v>
    <v>       0.00223547       0.50285289       0.49696842 </v>
    <v>       0.24195517       0.26150632       0.74920701 </v>
    <v>       0.49170149       0.46972441       0.76599181 </v>
    <v>       0.99527654       0.99091858       0.99636063 </v>
    <v>       0.76164119       0.23920800       0.98062955 </v>
    <v>       0.48992608       0.48430998       0.24576462 </v>
    <v>       0.74933044       0.25169165       0.26008649 </v>
    <v>       0.49212006       0.50937517       0.00559320 </v>
    <v>       0.98601101       0.01696419       0.74994496 </v>
    <v>       0.23435636       0.26169662       0.25153797 </v>
    <v>       0.50304444       0.50348763       0.48491022 </v>
    <v>       0.26556929       0.72979302       0.74795157 </v>
    <v>       0.25935148       0.25654399       0.00384373 </v>
    <v>       0.75749506       0.76054602       0.25198216 </v>
    <v>       0.23822758       0.74156156       0.25091126 </v>
    <v>       0.76240281       0.26859042       0.74602497 </v>
    <v>       0.74030250       0.74150996       0.50308234 </v>
    <v>       0.77093794       0.75917543       0.74857143 </v>
    <v>       0.52954942       0.99110072       0.24967185 </v>
    <v>       0.49563984       0.96522500       0.75280277 </v>
    <v>       0.49785690       0.99939407       0.00501782 </v>
    <v>       0.12560574       0.12806362       0.74047513 </v>
    <v>       0.10183528       0.64175565       0.25428654 </v>
    <v>       0.84114824       0.10903693       0.75566743 </v>
    <v>       0.51914932       0.52251961       0.36621895 </v>
    <v>       0.99691766       0.49537971       0.87641514 </v>
    <v>       0.37958696       0.62655776       0.50909804 </v>
    <v>       0.38658781       0.35079695       0.24821396 </v>
    <v>       0.37473337       0.87965169       0.50954429 </v>
    <v>       0.34037997       0.89343028       0.74888817 </v>
    <v>       0.88376962       0.35992213       0.23653850 </v>
    <v>       0.90424799       0.35763156       0.74487866 </v>
    <v>       0.88572066       0.86955687       0.23759271 </v>
    <v>       0.90112573       0.86487990       0.76700473 </v>
    <v>       0.38410350       0.86862808       0.99155475 </v>
    <v>       0.36363766       0.11359907       0.00051641 </v>
    <v>       0.37061591       0.61842984       0.24155470 </v>
    <v>       0.39735323       0.60997576       0.73454657 </v>
    <v>       0.51139573       0.03359787       0.64685074 </v>
    <v>       0.40804981       0.32456757       0.75052121 </v>
    <v>       0.84433086       0.60948985       0.25373009 </v>
    <v>       0.85722207       0.60732127       0.74790041 </v>
    <v>       0.13515138       0.39642161       0.25022217 </v>
    <v>       0.15196216       0.40379376       0.75375072 </v>
    <v>       0.14821190       0.89675803       0.25295071 </v>
    <v>       0.64226958       0.38692713       0.24655561 </v>
    <v>       0.64317797       0.42287203       0.72941669 </v>
    <v>       0.59378946       0.82941344       0.25131440 </v>
    <v>       0.38608225       0.36934133       0.00778732 </v>
    <v>       0.38089023       0.38184058       0.50123329 </v>
    <v>       0.10957854       0.64936383       0.75412932 </v>
    <v>       0.83388746       0.38364953       0.01124063 </v>
    <v>       0.88214452       0.63801678       0.49891467 </v>
    <v>       0.87300118       0.87571479       0.99774693 </v>
    <v>       0.87778578       0.36872884       0.50981668 </v>
    <v>       0.62875042       0.88481626       0.99694996 </v>
    <v>       0.12547915       0.12815730       0.49695620 </v>
    <v>       0.85591185       0.11636030       0.23478433 </v>
    <v>       0.13319176       0.62271556       0.48733441 </v>
    <v>       0.62778596       0.15407624       0.02249766 </v>
    <v>       0.62148361       0.12869544       0.49004581 </v>
    <v>       0.62475413       0.62271243       0.99854538 </v>
    <v>       0.62185673       0.62144487       0.52207701 </v>
    <v>       0.13459529       0.88396065       0.99763079 </v>
    <v>       0.11468748       0.86908072       0.49322702 </v>
    <v>       0.11023686       0.13874885       0.26327749 </v>
    <v>       0.62606399       0.37795933       0.50231415 </v>
    <v>       0.12697209       0.62502185       0.00195824 </v>
    <v>       0.62972788       0.88266674       0.50293847 </v>
    <v>       0.12959224       0.37441964       0.49357952 </v>
    <v>       0.37598505       0.12510777       0.50299747 </v>
    <v>       0.37053189       0.62270770       0.00151494 </v>
    <v>       0.89228864       0.13575655       0.99681237 </v>
    <v>       0.86558625       0.10926403       0.50675739 </v>
    <v>       0.87657786       0.63043292       0.00020854 </v>
    <v>       0.51618717       0.48663664       0.88218517 </v>
    <v>       0.01708968       0.01313489       0.12056815 </v>
    <v>       0.00053292       0.98144656       0.62640781 </v>
    <v>       0.99929898       0.50777111       0.12590783 </v>
    <v>       0.01226129       0.50569237       0.62510673 </v>
    <v>       0.48680554       0.99203010       0.13375436 </v>
    <v>       0.24421742       0.22366089       0.12891468 </v>
    <v>       0.52258560       0.49996862       0.12496287 </v>
    <v>       0.97755979       0.99076064       0.37538295 </v>
    <v>       0.11448450       0.35606908       0.00239496 </v>
    <v>       0.02660536       0.01416427       0.87583793 </v>
    <v>       0.48351989       0.99622270       0.36498745 </v>
    <v>       0.51400798       0.02793500       0.86261204 </v>
    <v>       0.75351908       0.76432823       0.37815321 </v>
    <v>       0.26744570       0.24081640       0.37264462 </v>
    <v>       0.24765522       0.23568606       0.87622754 </v>
    <v>       0.27275810       0.76015661       0.37235232 </v>
    <v>       0.25490083       0.74204297       0.87188632 </v>
    <v>       0.76342485       0.25239274       0.37873577 </v>
    <v>       0.71722741       0.26257699       0.86563608 </v>
    <v>       0.60944317       0.83907918       0.75048796 </v>
    <v>       0.74191430       0.74012199       0.87327656 </v>
    <v>       0.74020380       0.74719323       0.12574360 </v>
    <v>       0.25374823       0.25281041       0.62391163 </v>
    <v>       0.25616102       0.76121433       0.12612983 </v>
    <v>       0.23885338       0.75091536       0.62598891 </v>
    <v>       0.60607083       0.14423386       0.24904537 </v>
    <v>       0.73195611       0.23789676       0.62896623 </v>
    <v>       0.98624421       0.49013489       0.37243854 </v>
    <v>       0.77108524       0.77147629       0.62434463 </v>
   </varray>
  </structure>
  <varray name="forces" >
   <v>      -0.00410351       0.00273621      -0.00029848 </v>
   <v>       0.01090959       0.01985525      -0.00204360 </v>
   <v>      -0.00017179      -0.00977710      -0.00411863 </v>
   <v>       0.00803872      -0.00372766      -0.00464767 </v>
   <v>       0.00520738       0.00396796      -0.00254601 </v>
   <v>      -0.00337506       0.00340403       0.00725931 </v>
   <v>      -0.00819372      -0.01293466      -0.00049052 </v>
   <v>       0.00048822      -0.01575702      -0.00651038 </v>
   <v>       0.00707697       0.00358332       0.00431279 </v>
   <v>       0.00504176       0.00778917       0.00181466 </v>
   <v>       0.00613924      -0.00547324       0.00496428 </v>
   <v>      -0.00739946      -0.01860774       0.00382694 </v>
   <v>      -0.00101581       0.00649896       0.00320802 </v>
   <v>      -0.01537619       0.02663633      -0.01601768 </v>
   <v>      -0.01057045       0.00712864      -0.01003324 </v>
   <v>      -0.00374427      -0.00866619       0.01735954 </v>
   <v>       0.00611937      -0.00857595      -0.00700457 </v>
   <v>       0.01315799       0.00112461      -0.00809691 </v>
   <v>      -0.00007723      -0.00420143      -0.00183112 </v>
   <v>       0.00439757      -0.00804945      -0.00076223 </v>
   <v>       0.00007528       0.00821407      -0.01442258 </v>
   <v>      -0.01017401       0.02066208       0.00266008 </v>
   <v>      -0.00008121      -0.00012777       0.00537744 </v>
   <v>       0.01887115       0.01617689      -0.02884449 </v>
   <v>       0.00086953      -0.00945002       0.00998278 </v>
   <v>       0.01056273      -0.00762112       0.01321945 </v>
   <v>       0.00175386      -0.00111361       0.00317389 </v>
   <v>       0.01194655      -0.02221838       0.01457888 </v>
   <v>      -0.00291456       0.00726286       0.00011010 </v>
   <v>      -0.00154847      -0.00926648       0.00632457 </v>
   <v>       0.01249490      -0.00139690      -0.00529725 </v>
   <v>      -0.03120464       0.00131678      -0.00878569 </v>
   <v>      -0.03019784       0.01972678      -0.02391570 </v>
   <v>      -0.01434526      -0.02883657       0.01363084 </v>
   <v>      -0.01091434       0.00530130       0.00219469 </v>
   <v>      -0.00534039       0.00093370       0.01772227 </v>
   <v>      -0.00631856       0.01229937      -0.02005131 </v>
   <v>      -0.00267427      -0.00386259       0.01064403 </v>
   <v>      -0.01423093      -0.00338553       0.00817373 </v>
   <v>       0.00017288       0.00440959       0.00287031 </v>
   <v>      -0.00144054       0.00510519      -0.00725244 </v>
   <v>       0.00243930      -0.02735163       0.02725084 </v>
   <v>      -0.01866231      -0.00645736       0.00761781 </v>
   <v>      -0.00183038      -0.00346380      -0.01089048 </v>
   <v>       0.06177330       0.00037637       0.01071450 </v>
   <v>      -0.00786381       0.06246291      -0.02742197 </v>
   <v>      -0.01287467       0.02717585      -0.01574137 </v>
   <v>      -0.00977135       0.00281418      -0.01902768 </v>
   <v>       0.02030901       0.00636577       0.00613241 </v>
   <v>      -0.00798640       0.01652813      -0.01865174 </v>
   <v>       0.00256242      -0.02874879      -0.03002595 </v>
   <v>      -0.00989476       0.00459465      -0.00404088 </v>
   <v>       0.00805114       0.00537164      -0.00026138 </v>
   <v>       0.00082338      -0.02415955      -0.03784285 </v>
   <v>      -0.01319871       0.01928157       0.00715501 </v>
   <v>       0.00557422      -0.01738650       0.01919222 </v>
   <v>       0.01739180      -0.01010219      -0.00573953 </v>
   <v>       0.00146290      -0.00357881       0.00271873 </v>
   <v>      -0.01057987       0.01546494      -0.00215758 </v>
   <v>      -0.00420820      -0.00848667      -0.01126284 </v>
   <v>       0.02037226      -0.00598948      -0.01136440 </v>
   <v>       0.01253478       0.00530535       0.01826313 </v>
   <v>       0.01298628       0.01056486      -0.01755806 </v>
   <v>      -0.00901475      -0.00707642       0.00445488 </v>
   <v>      -0.02257162      -0.01623792      -0.00934756 </v>
   <v>       0.00596556      -0.00102766      -0.00433570 </v>
   <v>      -0.02676283       0.04612117       0.00437257 </v>
   <v>       0.01467707       0.01337422       0.01785593 </v>
   <v>       0.00224536       0.00082278       0.00222844 </v>
   <v>       0.00684667      -0.00139511      -0.01386765 </v>
   <v>      -0.01830390      -0.01588548       0.00161235 </v>
   <v>       0.00372400      -0.00507165       0.01144909 </v>
   <v>      -0.00527904      -0.01588906      -0.00879728 </v>
   <v>      -0.00456858      -0.00591253       0.00149558 </v>
   <v>      -0.01372033       0.00513144      -0.00429066 </v>
   <v>      -0.00688945       0.00561475      -0.01042525 </v>
   <v>       0.01244242       0.01256950       0.00577505 </v>
   <v>       0.00836243       0.00944214       0.01065377 </v>
   <v>      -0.00340824      -0.04645528       0.00569178 </v>
   <v>      -0.02160224       0.02010071      -0.00110450 </v>
   <v>       0.01794073      -0.00782343      -0.00293438 </v>
   <v>      -0.01385598       0.00375561       0.03606838 </v>
   <v>      -0.01433854      -0.05064055      -0.00215523 </v>
   <v>       0.00210435      -0.00323333      -0.00085833 </v>
   <v>       0.02183002       0.02635053      -0.01795227 </v>
   <v>      -0.00984126       0.01870237      -0.00106601 </v>
   <v>      -0.01758038      -0.02188229       0.00259541 </v>
   <v>      -0.00437423      -0.00046250      -0.00409704 </v>
   <v>       0.00899164      -0.02064581      -0.00704094 </v>
   <v>       0.00704022       0.02304191       0.01579458 </v>
   <v>      -0.01110741      -0.01120261       0.00532215 </v>
   <v>       0.01402541       0.00308136       0.03996417 </v>
   <v>       0.00950845       0.00822445      -0.00739549 </v>
   <v>       0.02825854       0.01794244      -0.00051147 </v>
   <v>       0.01422274      -0.00304978      -0.00979300 </v>
   <v>      -0.00000856       0.00515949       0.00113598 </v>
   <v>       0.01784770       0.01447553       0.00869855 </v>
   <v>       0.00128214       0.00216885       0.00837958 </v>
   <v>       0.00349204       0.01184206       0.00564508 </v>
   <v>       0.01641499       0.00806549       0.01635741 </v>
   <v>       0.00388609      -0.00672776      -0.00227141 </v>
   <v>       0.00712368      -0.00151445       0.00772074 </v>
   <v>      -0.00194475       0.01145632      -0.01101773 </v>
   <v>      -0.00975053      -0.01440487       0.00624005 </v>
   <v>      -0.02447181      -0.00434011       0.01041858 </v>
   <v>       0.03093578       0.03027815      -0.01056013 </v>
   <v>       0.01009720      -0.01123541      -0.02134698 </v>
   <v>      -0.00576401       0.00620650       0.01558504 </v>
   <v>      -0.01243234      -0.01077309      -0.00681955 </v>
   <v>       0.00170478      -0.00205845      -0.01834230 </v>
   <v>      -0.00946647       0.00021215      -0.00338308 </v>
   <v>       0.00389852       0.00276968       0.00503835 </v>
   <v>       0.00490904      -0.00408307       0.01605954 </v>
   <v>       0.00973255      -0.00016972       0.00092419 </v>
   <v>      -0.01345823      -0.01146463       0.03953463 </v>
   <v>      -0.00901412      -0.02313322      -0.02592304 </v>
   <v>      -0.00170437      -0.00588110       0.02077529 </v>
   <v>       0.02442865      -0.00731366       0.00513559 </v>
   <v>      -0.00197577      -0.00084381      -0.00395551 </v>
   <v>      -0.00312577       0.00204799      -0.01257631 </v>
   <v>       0.00785758      -0.00281962       0.02323056 </v>
   <v>       0.00229058      -0.01022975      -0.00479969 </v>
   <v>       0.00164556       0.00473130      -0.00144892 </v>
   <v>       0.00846174       0.00843213      -0.02718305 </v>
   <v>       0.00030166      -0.01068508       0.01396413 </v>
   <v>       0.01001026       0.01493100       0.02039522 </v>
   <v>       0.00237467       0.00760592       0.00743474 </v>
   <v>      -0.01072596       0.00979490      -0.00544940 </v>
   <v>       0.00905102       0.01132568      -0.01631245 </v>
   <v>       0.00395705      -0.00435097      -0.00188063 </v>
   <v>      -0.00430835      -0.02671424       0.00928648 </v>
   <v>      -0.00342056       0.01148444       0.00005486 </v>
   <v>      -0.00982387      -0.00254017       0.01172493 </v>
   <v>      -0.02397690      -0.02078031      -0.00322364 </v>
   <v>      -0.00587651       0.00105665      -0.00573321 </v>
   <v>      -0.00254043      -0.03230485      -0.02835512 </v>
   <v>       0.00556932      -0.01041694       0.01006587 </v>
   <v>      -0.02363272       0.03439128      -0.01507594 </v>
   <v>       0.00581981      -0.00391485      -0.02415084 </v>
   <v>       0.00735565       0.01350695       0.00150549 </v>
   <v>      -0.00134680      -0.00524304       0.00935619 </v>
   <v>       0.01596867       0.00175718       0.00698816 </v>
   <v>      -0.01067890       0.00102133       0.01915151 </v>
   <v>      -0.01202900      -0.01129697       0.01831491 </v>
   <v>       0.00415228       0.00055185       0.00386178 </v>
   <v>      -0.01512971       0.00784976       0.01615590 </v>
   <v>       0.00448808      -0.00499043      -0.00106934 </v>
   <v>       0.00926099       0.00505886      -0.01511843 </v>
  </varray>
  <varray name="stress" >
   <v>      -0.02949669      -0.10985563       0.10124168 </v>
   <v>      -0.10985554       0.08590997      -0.03161705 </v>
   <v>       0.10124157      -0.03161709      -0.06158326 </v>
  </varray>
  <energy>
   <i name="e_fr_energy">   -992.75249776 </i>
   <i name="e_wo_entrp">   -992.75249776 </i>
   <i name="e_0_energy">     -0.00000001 </i>
  </energy>
  <time name="totalsc"> 1014.23 1016.62</time>
 </calculation>
 <calculation>
  <scstep>
   <time name="dav">  285.53  285.54</time>
   <time name="total">  289.29  289.34</time>
   <energy>
    <i name="alphaZ">   5652.61151726 </i>
    <i name="ewald"> -63683.29299782 </i>
    <i name="hartreedc"> -18083.43347945 </i>
    <i name="XCdc">   3407.88795970 </i>
    <i name="pawpsdc"> 116229.16231236 </i>
    <i name="pawaedc">-115735.69981167 </i>
    <i name="eentropy">     -0.00000001 </i>
    <i name="bandstr">  -7096.88996410 </i>
    <i name="atom">  78316.90445604 </i>
    <i name="e_fr_energy">   -992.75000768 </i>
    <i name="e_wo_entrp">   -992.75000767 </i>
    <i name="e_0_energy">   -992.75000768 </i>
   </energy>
  </scstep>
  <scstep>
   <time name="diag">   32.89   32.89</time>
   <time name="diis">   52.41   52.44</time>
   <time name="orth">   18.76   18.76</time>
   <time name="total">  107.82  107.86</time>
   <energy>
    <i name="e_fr_energy">   -992.75461925 </i>
    <i name="e_wo_entrp">   -992.75461924 </i>
    <i name="e_0_energy">   -992.75461925 </i>
   </energy>
  </scstep>
  <scstep>
   <time name="diag">   32.84   32.88</time>
   <time name="diis">   51.96   51.98</time>
   <time name="orth">   18.76   18.76</time>
   <time name="total">  107.32  107.43</time>
   <energy>
    <i name="e_fr_energy">   -992.75522046 </i>
    <i name="e_wo_entrp">   -992.75522045 </i>
    <i name="e_0_energy">   -992.75522045 </i>
   </energy>
  </scstep>
  <scstep>
   <time name="diag">   32.89   32.91</time>
   <time name="diis">   35.33   35.34</time>
   <time name="orth">   18.71   18.71</time>
   <time name="total">   90.69   90.74</time>
   <energy>
    <i name="e_fr_energy">   -992.75513328 </i>
    <i name="e_wo_entrp">   -992.75513327 </i>
    <i name="e_0_energy">   -992.75513328 </i>
   </energy>
  </scstep>
  <scstep>
   <time name="diag">   32.89   32.90</time>
   <time name="diis">   34.86   34.89</time>
   <time name="orth">   18.72   18.73</time>
   <time name="total">   90.24   90.34</time>
   <energy>
    <i name="e_fr_energy">   -992.75510480 </i>
    <i name="e_wo_entrp">   -992.75510479 </i>
    <i name="e_0_energy">   -992.75510480 </i>
   </energy>
  </scstep>
  <scstep>
   <time name="diag">   32.88   32.88</time>
   <time name="diis">   31.80   31.80</time>
   <time name="orth">   18.75   18.75</time>
   <time name="total">   87.19   87.27</time>
   <energy>
    <i name="e_fr_energy">   -992.75510492 </i>
    <i name="e_wo_entrp">   -992.75510492 </i>
    <i name="e_0_energy">   -992.75510492 </i>
   </energy>
  </scstep>
  <scstep>
   <time name="diag">   32.96   32.98</time>
   <time name="diis">   31.34   31.36</time>
   <time name="orth">   18.78   18.78</time>
   <time name="total">   86.89   86.97</time>
   <energy>
    <i name="e_fr_energy">   -992.75510538 </i>
    <i name="e_wo_entrp">   -992.75510537 </i>
    <i name="e_0_energy">   -992.75510537 </i>
   </energy>
  </scstep>
  <scstep>
   <time name="diag">   32.94   32.94</time>
   <time name="diis">   30.55   30.57</time>
   <time name="orth">   18.75   18.75</time>
   <time name="total">   82.82   82.92</time>
   <energy>
    <i name="alphaZ">   5652.61151726 </i>
    <i name="ewald"> -63683.29299782 </i>
    <i name="hartreedc"> -18083.40929644 </i>
    <i name="XCdc">   3407.88392908 </i>
    <i name="pawpsdc"> 116226.97766895 </i>
    <i name="pawaedc">-115733.51498047 </i>
    <i name="eentropy">     -0.00000001 </i>
    <i name="bandstr">  -7096.91540218 </i>
    <i name="atom">  78316.90445604 </i>
    <i name="e_fr_energy">   -992.75510558 </i>
    <i name="e_wo_entrp">   -992.75510557 </i>
    <i name="e_0_energy">   -992.75510558 </i>
   </energy>
  </scstep>
  <structure>
   <crystal>
    <varray name="basis" >
     <v>      11.16716714       0.01312694      -0.01314352 </v>
     <v>       0.01300799      11.21702480      -0.00072237 </v>
     <v>      -0.01854886      -0.00065321      15.87076478 </v>
    </varray>
    <i name="volume">   1988.00448961 </i>
    <varray name="rec_basis" >
     <v>       0.08954847      -0.00010384       0.00010465 </v>
     <v>      -0.00010479       0.08915032       0.00000355 </v>
     <v>       0.00007416       0.00000397       0.06300902 </v>
    </varray>
   </crystal>
   <varray name="positions" >
    <v>       0.00332670       0.24975499       0.12715759 </v>
    <v>       0.01093254       0.25329338       0.61811951 </v>
    <v>       0.99928890       0.74753608       0.12185779 </v>
    <v>       0.00285888       0.74772982       0.62310224 </v>
    <v>       0.48591878       0.24206564       0.12922557 </v>
    <v>       0.50010344       0.24921820       0.61280825 </v>
    <v>       0.49718603       0.74697742       0.11999489 </v>
    <v>       0.49806258       0.75823671       0.61577846 </v>
    <v>       0.99866275       0.25525088       0.37959464 </v>
    <v>       0.01413478       0.25087032       0.87038397 </v>
    <v>       0.99459082       0.74806759       0.37544465 </v>
    <v>       0.00055992       0.74321697       0.88206597 </v>
    <v>       0.50204353       0.24956306       0.37625611 </v>
    <v>       0.48900954       0.24340993       0.89004001 </v>
    <v>       0.50114485       0.75486684       0.38384774 </v>
    <v>       0.50292758       0.74281895       0.88301819 </v>
    <v>       0.24651308       0.99181245       0.12064160 </v>
    <v>       0.24760584       0.00405987       0.61877334 </v>
    <v>       0.24215431       0.50683218       0.12600338 </v>
    <v>       0.24306768       0.50195764       0.61371670 </v>
    <v>       0.75701796       0.99398728       0.11774776 </v>
    <v>       0.74378474       0.00355109       0.62228421 </v>
    <v>       0.75259831       0.50915541       0.12727293 </v>
    <v>       0.76930841       0.50274206       0.61611354 </v>
    <v>       0.24233013      -0.00003869       0.38301306 </v>
    <v>       0.25464048       0.99753113       0.87841646 </v>
    <v>       0.24829402       0.50549019       0.37318875 </v>
    <v>       0.23622022       0.50007735       0.88777327 </v>
    <v>       0.75010054       0.00816794       0.37889649 </v>
    <v>       0.75055000       0.98556111       0.87544117 </v>
    <v>       0.75359017       0.49488653       0.37934158 </v>
    <v>       0.75649493       0.50420977       0.87547292 </v>
    <v>       0.24997941       0.75077302       0.49910218 </v>
    <v>       0.74699178       0.74585722       0.99975850 </v>
    <v>       0.00165275       0.00433344       0.24944175 </v>
    <v>       0.25023476       0.75179208       0.99912614 </v>
    <v>       0.25608423       0.25384660       0.49727952 </v>
    <v>       0.00466094       0.50688562       0.74931202 </v>
    <v>       0.98861557       0.49961331       0.24975228 </v>
    <v>       0.74899799       0.24910406       0.50445519 </v>
    <v>       0.49996851       0.00316234       0.49352990 </v>
    <v>       0.00765034       0.00878911       0.50138739 </v>
    <v>       0.99359587       0.49735926       0.00277835 </v>
    <v>       0.00222753       0.50283800       0.49693531 </v>
    <v>       0.24222208       0.26150762       0.74923980 </v>
    <v>       0.49166705       0.46999310       0.76590844 </v>
    <v>       0.99522070       0.99103552       0.99631274 </v>
    <v>       0.76159887       0.23922015       0.98057168 </v>
    <v>       0.49001381       0.48433725       0.24578334 </v>
    <v>       0.74929575       0.25176277       0.26002977 </v>
    <v>       0.49213112       0.50925151       0.00550194 </v>
    <v>       0.98596822       0.01698401       0.74993264 </v>
    <v>       0.23439111       0.26171968       0.25153720 </v>
    <v>       0.50304792       0.50338371       0.48479519 </v>
    <v>       0.26551221       0.72987602       0.74797327 </v>
    <v>       0.25937575       0.25646919       0.00390208 </v>
    <v>       0.75757021       0.76050248       0.25196478 </v>
    <v>       0.23823393       0.74154616       0.25091953 </v>
    <v>       0.76235701       0.26865699       0.74601838 </v>
    <v>       0.74028431       0.74147348       0.50304809 </v>
    <v>       0.77102592       0.75914956       0.74853696 </v>
    <v>       0.52960364       0.99112347       0.24972741 </v>
    <v>       0.49569580       0.96527037       0.75274945 </v>
    <v>       0.49781801       0.99936368       0.00503133 </v>
    <v>       0.12550827       0.12799390       0.74044664 </v>
    <v>       0.10186104       0.64175120       0.25427338 </v>
    <v>       0.84103241       0.10923544       0.75568063 </v>
    <v>       0.51921275       0.52257706       0.36627329 </v>
    <v>       0.99692737       0.49538323       0.87642192 </v>
    <v>       0.37961648       0.62655172       0.50905591 </v>
    <v>       0.38650882       0.35072872       0.24821879 </v>
    <v>       0.37474954       0.87962986       0.50957911 </v>
    <v>       0.34035720       0.89336197       0.74886141 </v>
    <v>       0.88374992       0.35989672       0.23654303 </v>
    <v>       0.90418867       0.35765370       0.74486556 </v>
    <v>       0.88569082       0.86958106       0.23756099 </v>
    <v>       0.90117944       0.86493390       0.76702233 </v>
    <v>       0.38413963       0.86866864       0.99158717 </v>
    <v>       0.36362321       0.11339929       0.00053369 </v>
    <v>       0.37052248       0.61851641       0.24155127 </v>
    <v>       0.39743076       0.60994202       0.73453772 </v>
    <v>       0.51133604       0.03361410       0.64696033 </v>
    <v>       0.40798812       0.32434984       0.75051459 </v>
    <v>       0.84433997       0.60947594       0.25372748 </v>
    <v>       0.85731614       0.60743449       0.74784592 </v>
    <v>       0.13510876       0.39650210       0.25021890 </v>
    <v>       0.15188634       0.40369973       0.75375854 </v>
    <v>       0.14819299       0.89675606       0.25293824 </v>
    <v>       0.64230849       0.38683829       0.24653423 </v>
    <v>       0.64320834       0.42297110       0.72946473 </v>
    <v>       0.59374156       0.82936531       0.25133053 </v>
    <v>       0.38614303       0.36935451       0.00790885 </v>
    <v>       0.38093123       0.38187591       0.50121085 </v>
    <v>       0.10970052       0.64944085       0.75412788 </v>
    <v>       0.83394887       0.38363634       0.01121092 </v>
    <v>       0.88214446       0.63803897       0.49891812 </v>
    <v>       0.87307825       0.87577695       0.99777344 </v>
    <v>       0.87779135       0.36873816       0.50984215 </v>
    <v>       0.62876548       0.88486717       0.99696713 </v>
    <v>       0.12555011       0.12819190       0.49700598 </v>
    <v>       0.85592866       0.11633134       0.23477744 </v>
    <v>       0.13322259       0.62270901       0.48735790 </v>
    <v>       0.62777744       0.15412553       0.02246416 </v>
    <v>       0.62144159       0.12863353       0.49006474 </v>
    <v>       0.62464849       0.62269389       0.99857696 </v>
    <v>       0.62199016       0.62157493       0.52204503 </v>
    <v>       0.13463886       0.88391227       0.99756594 </v>
    <v>       0.11466263       0.86910745       0.49327438 </v>
    <v>       0.11018318       0.13870258       0.26325671 </v>
    <v>       0.62607127       0.37795047       0.50225840 </v>
    <v>       0.12693118       0.62502281       0.00194792 </v>
    <v>       0.62974474       0.88267863       0.50295380 </v>
    <v>       0.12961356       0.37440205       0.49362835 </v>
    <v>       0.37602710       0.12510699       0.50300032 </v>
    <v>       0.37047402       0.62265847       0.00163506 </v>
    <v>       0.89224968       0.13565710       0.99673353 </v>
    <v>       0.86557903       0.10923875       0.50682054 </v>
    <v>       0.87668346       0.63040134       0.00022424 </v>
    <v>       0.51617862       0.48663302       0.88217314 </v>
    <v>       0.01707610       0.01314372       0.12052991 </v>
    <v>       0.00056700       0.98143439       0.62647845 </v>
    <v>       0.99930890       0.50772710       0.12589325 </v>
    <v>       0.01226837       0.50571271       0.62510233 </v>
    <v>       0.48684191       0.99206632       0.13367177 </v>
    <v>       0.24421885       0.22361493       0.12895713 </v>
    <v>       0.52262887       0.50003279       0.12502490 </v>
    <v>       0.97757005       0.99079334       0.37540556 </v>
    <v>       0.11443809       0.35611126       0.00237836 </v>
    <v>       0.02664432       0.01421293       0.87578839 </v>
    <v>       0.48353699       0.99620397       0.36498175 </v>
    <v>       0.51398955       0.02782012       0.86264025 </v>
    <v>       0.75350424       0.76437764       0.37815337 </v>
    <v>       0.26740334       0.24080553       0.37268022 </v>
    <v>       0.24755173       0.23559681       0.87621765 </v>
    <v>       0.27273268       0.76016118       0.37233487 </v>
    <v>       0.25488988       0.74190403       0.87180011 </v>
    <v>       0.76344901       0.25234791       0.37876638 </v>
    <v>       0.71712506       0.26272503       0.86559017 </v>
    <v>       0.60946821       0.83906231       0.75041457 </v>
    <v>       0.74194601       0.74018004       0.87328117 </v>
    <v>       0.74019805       0.74717069       0.12577204 </v>
    <v>       0.25381724       0.25281789       0.62393293 </v>
    <v>       0.25611498       0.76121878       0.12618800 </v>
    <v>       0.23880157       0.75086683       0.62604453 </v>
    <v>       0.60608878       0.14423621       0.24905712 </v>
    <v>       0.73189079       0.23793060       0.62901528 </v>
    <v>       0.98626362       0.49011340       0.37243531 </v>
    <v>       0.77112514       0.77149800       0.62429871 </v>
   </varray>
  </structure>
  <varray name="forces" >
   <v>      -0.00316914       0.00000776      -0.00214046 </v>
   <v>       0.01653222       0.01626739       0.00881280 </v>
   <v>       0.00437173      -0.00239966      -0.00657403 </v>
   <v>       0.00694858      -0.00533597       0.00457024 </v>
   <v>       0.00813542      -0.00403602       0.00018129 </v>
   <v>      -0.00584310      -0.00164326       0.00352759 </v>
   <v>      -0.01019889      -0.00822862       0.00248874 </v>
   <v>      -0.00111567      -0.01306482      -0.00586141 </v>
   <v>       0.00194978      -0.00650755       0.00346500 </v>
   <v>       0.00453979       0.00148751      -0.00798136 </v>
   <v>       0.00192090      -0.00151992      -0.00011849 </v>
   <v>       0.00002957      -0.01203748       0.00211151 </v>
   <v>       0.00147131      -0.00013524       0.00580151 </v>
   <v>      -0.00910352       0.00935074      -0.01673188 </v>
   <v>      -0.00636800       0.00491834      -0.00143735 </v>
   <v>      -0.00622557       0.00257580       0.00736675 </v>
   <v>       0.00223927      -0.01076906      -0.00470532 </v>
   <v>       0.01127413       0.00524162       0.00303192 </v>
   <v>      -0.00289947       0.00032050      -0.00120367 </v>
   <v>       0.00278289      -0.00093932       0.00115724 </v>
   <v>       0.00213659       0.00470903      -0.01496168 </v>
   <v>      -0.00867348       0.01651937       0.00399246 </v>
   <v>       0.00313172      -0.00492924       0.00065734 </v>
   <v>       0.01325495       0.01727553      -0.01841729 </v>
   <v>      -0.00080374      -0.00493257       0.00344619 </v>
   <v>       0.00851060      -0.00973418       0.00280500 </v>
   <v>       0.00149635       0.00360132       0.00191504 </v>
   <v>       0.00255090      -0.01216601       0.01351142 </v>
   <v>      -0.00043781       0.00524883       0.00306052 </v>
   <v>      -0.00139430      -0.01061989       0.00400186 </v>
   <v>       0.00883937      -0.00041201      -0.00056561 </v>
   <v>      -0.02096953      -0.00049883      -0.01393944 </v>
   <v>       0.01659610      -0.00381819       0.00898806 </v>
   <v>       0.00630685       0.00569623      -0.00334036 </v>
   <v>       0.00021192      -0.00436586      -0.00362440 </v>
   <v>      -0.00366706      -0.00511106       0.00076689 </v>
   <v>       0.00665117      -0.01299463       0.01716118 </v>
   <v>       0.01350302       0.00212400       0.00822791 </v>
   <v>       0.01086867      -0.00235500      -0.01223203 </v>
   <v>       0.00046684      -0.00928431       0.00601204 </v>
   <v>       0.00069557      -0.00273781      -0.00262936 </v>
   <v>      -0.00381090       0.00986768       0.02742834 </v>
   <v>      -0.00946959      -0.00994285       0.00091726 </v>
   <v>      -0.00032642       0.00345418       0.00427638 </v>
   <v>       0.00392865      -0.01168256      -0.00065680 </v>
   <v>      -0.00785867       0.00614017      -0.02701008 </v>
   <v>       0.00646181       0.00636862      -0.01981338 </v>
   <v>      -0.00202464      -0.00121476      -0.02461812 </v>
   <v>      -0.00255921       0.00055900       0.00240378 </v>
   <v>       0.00525679      -0.01288996       0.00171991 </v>
   <v>      -0.01679636       0.00196965       0.00426751 </v>
   <v>      -0.00887601       0.02074244       0.00425829 </v>
   <v>      -0.01541823       0.00476103       0.00121326 </v>
   <v>       0.00917441       0.01173521      -0.00014179 </v>
   <v>      -0.00746749       0.01799613       0.00181652 </v>
   <v>       0.00048670      -0.01674686       0.01392025 </v>
   <v>      -0.00053781       0.00502488       0.00325012 </v>
   <v>      -0.00563828       0.00384778      -0.00267214 </v>
   <v>      -0.00905647       0.01011305       0.00142698 </v>
   <v>       0.00262371       0.01651817      -0.00940742 </v>
   <v>       0.01253139       0.01171345      -0.01229204 </v>
   <v>       0.00755069      -0.00900879      -0.01465765 </v>
   <v>      -0.00299361      -0.01585670       0.01796283 </v>
   <v>       0.00563402      -0.00737044      -0.00178139 </v>
   <v>      -0.00567429       0.00162421      -0.01101401 </v>
   <v>      -0.00552385      -0.00711064      -0.00069092 </v>
   <v>      -0.01043142       0.01807177       0.01004106 </v>
   <v>       0.01640372       0.00973077      -0.02256675 </v>
   <v>      -0.00161938       0.00255142      -0.00167248 </v>
   <v>       0.00251773       0.00162265      -0.01862004 </v>
   <v>       0.00446399       0.00788503       0.00559754 </v>
   <v>      -0.00306271      -0.00420889       0.00553996 </v>
   <v>       0.00811104      -0.00257634      -0.00658343 </v>
   <v>      -0.00388664      -0.00126198       0.00164302 </v>
   <v>      -0.00471500       0.02087157      -0.00327380 </v>
   <v>      -0.00640448       0.00040979      -0.00643334 </v>
   <v>       0.00039732       0.00526628       0.00530376 </v>
   <v>      -0.00335776      -0.01714223       0.00783052 </v>
   <v>      -0.02116660      -0.01014634       0.00496848 </v>
   <v>      -0.00052754       0.00160519       0.00520819 </v>
   <v>       0.01054517      -0.00286857      -0.00912640 </v>
   <v>      -0.00982341       0.02241756       0.00561276 </v>
   <v>       0.03062689       0.00791117       0.00731746 </v>
   <v>       0.00214074      -0.00715094       0.00093249 </v>
   <v>       0.02074387       0.01568925      -0.00825741 </v>
   <v>       0.00170361      -0.00272575       0.00105802 </v>
   <v>      -0.00944224      -0.02334006       0.00456049 </v>
   <v>      -0.00410892       0.00047008       0.00166916 </v>
   <v>      -0.00372580      -0.00623031      -0.00588578 </v>
   <v>      -0.00987401       0.03368679       0.01258572 </v>
   <v>      -0.00672517      -0.00690921       0.00173121 </v>
   <v>       0.00233851      -0.01489099       0.02928529 </v>
   <v>       0.00268966      -0.00105477      -0.01328765 </v>
   <v>       0.00025387      -0.01119959      -0.00079984 </v>
   <v>       0.00616083      -0.00217533      -0.00786555 </v>
   <v>       0.01096881      -0.00421249      -0.00600606 </v>
   <v>      -0.00517425      -0.00915001       0.00917827 </v>
   <v>       0.00198984       0.00324048       0.00373790 </v>
   <v>       0.01105516      -0.00751099       0.00468735 </v>
   <v>      -0.00047444      -0.00668076       0.01186996 </v>
   <v>      -0.00535117       0.00336077      -0.00488479 </v>
   <v>      -0.00235451      -0.00455299      -0.00058870 </v>
   <v>      -0.00249590       0.01634338      -0.00777744 </v>
   <v>       0.00463272       0.00011890       0.00756893 </v>
   <v>      -0.01473499      -0.00475116       0.00748622 </v>
   <v>      -0.00145209      -0.00801641      -0.01406002 </v>
   <v>       0.00215158      -0.00519666      -0.01404861 </v>
   <v>      -0.00295066      -0.00077332       0.00610364 </v>
   <v>       0.00002521       0.00666681      -0.00356121 </v>
[...]
       <r>   -17.7500     0.0000    32.0000 </r>
       <r>   -17.5953     0.0000    32.0000 </r>
       <r>   -17.4406     0.0000    32.0000 </r>
       <r>   -17.2859     0.0000    32.0000 </r>
       <r>   -17.1312     0.0000    32.0000 </r>
       <r>   -16.9765     0.0000    32.0000 </r>
       <r>   -16.8218     0.0000    32.0000 </r>
       <r>   -16.6672     0.0000    32.0000 </r>
       <r>   -16.5125     0.0000    32.0000 </r>
       <r>   -16.3578     0.0000    32.0000 </r>
       <r>   -16.2031     0.0000    32.0000 </r>
       <r>   -16.0484     0.0000    32.0000 </r>
       <r>   -15.8937     0.0000    32.0000 </r>
       <r>   -15.7390     0.0000    32.0000 </r>
       <r>   -15.5843     0.0000    32.0000 </r>
       <r>   -15.4297     0.0000    32.0000 </r>
       <r>   -15.2750     0.0000    32.0000 </r>
       <r>   -15.1203     0.4332    32.0670 </r>
       <r>   -14.9656    13.9893    34.2310 </r>
       <r>   -14.8109    39.1305    40.2839 </r>
       <r>   -14.6562    45.4439    47.3135 </r>
       <r>   -14.5015    41.1935    53.6855 </r>
       <r>   -14.3469    35.9146    59.2410 </r>
       <r>   -14.1922    51.1284    67.1499 </r>
       <r>   -14.0375    76.9670    79.0556 </r>
       <r>   -13.8828    72.2644    90.2339 </r>
       <r>   -13.7281    70.9943   101.2158 </r>
       <r>   -13.5734    59.6409   110.4414 </r>
       <r>   -13.4187    24.3428   114.2069 </r>
       <r>   -13.2641    11.5846   115.9989 </r>
       <r>   -13.1094     0.0072   116.0000 </r>
       <r>   -12.9547     0.0071   116.0011 </r>
       <r>   -12.8000    11.9352   117.8473 </r>
       <r>   -12.6453    50.7418   125.6964 </r>
       <r>   -12.4906    92.7662   140.0460 </r>
       <r>   -12.3359   115.9288   157.9786 </r>
       <r>   -12.1812   104.1361   174.0870 </r>
       <r>   -12.0266    97.1804   189.1195 </r>
       <r>   -11.8719    76.6992   200.9838 </r>
       <r>   -11.7172    58.0577   209.9646 </r>
       <r>   -11.5625    13.1412   211.9973 </r>
       <r>   -11.4078     0.0172   212.0000 </r>
       <r>   -11.2531     0.0000   212.0000 </r>
       <r>   -11.0984     0.0000   212.0000 </r>
       <r>   -10.9438     0.0000   212.0000 </r>
       <r>   -10.7891     0.0000   212.0000 </r>
       <r>   -10.6344     0.0000   212.0000 </r>
       <r>   -10.4797     0.0000   212.0000 </r>
       <r>   -10.3250     0.0000   212.0000 </r>
       <r>   -10.1703     0.0000   212.0000 </r>
       <r>   -10.0156     0.0000   212.0000 </r>
       <r>    -9.8610     0.0000   212.0000 </r>
       <r>    -9.7063     0.0000   212.0000 </r>
       <r>    -9.5516     0.0000   212.0000 </r>
       <r>    -9.3969     0.0000   212.0000 </r>
       <r>    -9.2422     0.0000   212.0000 </r>
       <r>    -9.0875     0.0000   212.0000 </r>
       <r>    -8.9328     0.0000   212.0000 </r>
       <r>    -8.7782     0.0000   212.0000 </r>
       <r>    -8.6235     0.0000   212.0000 </r>
       <r>    -8.4688     0.0000   212.0000 </r>
       <r>    -8.3141     0.0000   212.0000 </r>
       <r>    -8.1594     0.0000   212.0000 </r>
       <r>    -8.0047     0.0000   212.0000 </r>
       <r>    -7.8500     0.0000   212.0000 </r>
       <r>    -7.6953     0.0000   212.0000 </r>
       <r>    -7.5407     0.0000   212.0000 </r>
       <r>    -7.3860     0.0000   212.0000 </r>
       <r>    -7.2313     0.0000   212.0000 </r>
       <r>    -7.0766     0.0000   212.0000 </r>
       <r>    -6.9219     0.0000   212.0000 </r>
       <r>    -6.7672     0.0000   212.0000 </r>
       <r>    -6.6125     0.0000   212.0000 </r>
       <r>    -6.4579     0.0000   212.0000 </r>
       <r>    -6.3032     0.0000   212.0000 </r>
       <r>    -6.1485     0.0000   212.0000 </r>
       <r>    -5.9938     0.0000   212.0000 </r>
       <r>    -5.8391     0.0000   212.0000 </r>
       <r>    -5.6844     0.0000   212.0000 </r>
       <r>    -5.5297     0.0000   212.0000 </r>
       <r>    -5.3751     0.0000   212.0000 </r>
       <r>    -5.2204     0.0000   212.0000 </r>
       <r>    -5.0657     0.0000   212.0000 </r>
       <r>    -4.9110     0.0000   212.0000 </r>
       <r>    -4.7563     0.0000   212.0000 </r>
       <r>    -4.6016     0.0000   212.0000 </r>
       <r>    -4.4469     0.0000   212.0000 </r>
       <r>    -4.2922     0.0000   212.0000 </r>
       <r>    -4.1376     0.0000   212.0000 </r>
       <r>    -3.9829     0.0000   212.0000 </r>
       <r>    -3.8282     0.0000   212.0000 </r>
       <r>    -3.6735     0.0000   212.0000 </r>
       <r>    -3.5188     0.0000   212.0000 </r>
       <r>    -3.3641     0.0000   212.0000 </r>
       <r>    -3.2094     0.0000   212.0000 </r>
       <r>    -3.0548     0.0000   212.0000 </r>
       <r>    -2.9001     0.0000   212.0000 </r>
       <r>    -2.7454     0.0000   212.0000 </r>
       <r>    -2.5907     0.0058   212.0009 </r>
       <r>    -2.4360     5.5065   212.8527 </r>
       <r>    -2.2813    11.5588   214.6407 </r>
       <r>    -2.1266    21.7543   218.0058 </r>
       <r>    -1.9720    26.9452   222.1738 </r>
       <r>    -1.8173    26.9829   226.3477 </r>
       <r>    -1.6626    17.0914   228.9915 </r>
       <r>    -1.5079    32.9379   234.0866 </r>
       <r>    -1.3532    30.2972   238.7731 </r>
       <r>    -1.1985    52.0788   246.8290 </r>
       <r>    -1.0438    56.6821   255.5969 </r>
       <r>    -0.8892    75.8284   267.3266 </r>
       <r>    -0.7345    88.1328   280.9595 </r>
       <r>    -0.5798    96.1248   295.8287 </r>
       <r>    -0.4251    97.3474   310.8870 </r>
       <r>    -0.2704    70.9806   321.8667 </r>
       <r>    -0.1157    56.8189   330.6558 </r>
       <r>     0.0390    57.2290   339.5083 </r>
       <r>     0.1937    52.0846   347.5651 </r>
       <r>     0.3483    59.1868   356.7205 </r>
       <r>     0.5030    56.5286   365.4647 </r>
       <r>     0.6577    55.9792   374.1239 </r>
       <r>     0.8124    56.7928   382.9090 </r>
       <r>     0.9671    54.7369   391.3760 </r>
       <r>     1.1218    54.9886   399.8820 </r>
       <r>     1.2765    57.7673   408.8178 </r>
       <r>     1.4311    68.4825   419.4111 </r>
       <r>     1.5858    74.8842   430.9947 </r>
       <r>     1.7405    69.2141   441.7011 </r>
       <r>     1.8952    56.9426   450.5094 </r>
       <r>     2.0499    40.5784   456.7863 </r>
       <r>     2.2046    25.6124   460.7482 </r>
       <r>     2.3593    21.9762   464.1476 </r>
       <r>     2.5139     5.5100   464.9999 </r>
       <r>     2.6686     0.0005   465.0000 </r>
       <r>     2.8233     0.0000   465.0000 </r>
       <r>     2.9780     0.0000   465.0000 </r>
       <r>     3.1327     0.0000   465.0000 </r>
       <r>     3.2874     0.0000   465.0000 </r>
       <r>     3.4421     0.0000   465.0000 </r>
       <r>     3.5968     0.0000   465.0000 </r>
       <r>     3.7514     0.0000   465.0000 </r>
       <r>     3.9061     0.0000   465.0000 </r>
       <r>     4.0608     0.0000   465.0000 </r>
       <r>     4.2155     0.0276   465.0043 </r>
       <r>     4.3702    14.8940   467.3082 </r>
       <r>     4.5249    42.1515   473.8284 </r>
       <r>     4.6796    74.9895   485.4283 </r>
       <r>     4.8342    68.8835   496.0836 </r>
       <r>     4.9889    69.1595   506.7816 </r>
       <r>     5.1436    72.5136   517.9985 </r>
       <r>     5.2983    82.5595   530.7693 </r>
       <r>     5.4530    78.3751   542.8929 </r>
       <r>     5.6077    73.4252   554.2507 </r>
       <r>     5.7624    62.5125   563.9206 </r>
       <r>     5.9170    51.5295   571.8915 </r>
       <r>     6.0717    78.7286   584.0697 </r>
       <r>     6.2264    70.7885   595.0197 </r>
       <r>     6.3811    34.6536   600.3801 </r>
       <r>     6.5358    13.5844   602.4815 </r>
       <r>     6.6905    13.3944   604.5534 </r>
       <r>     6.8452    20.9912   607.8004 </r>
       <r>     6.9999     6.5712   608.8169 </r>
       <r>     7.1545     6.4824   609.8197 </r>
       <r>     7.3092    11.3368   611.5733 </r>
       <r>     7.4639    16.1795   614.0760 </r>
       <r>     7.6186    12.7598   616.0498 </r>
       <r>     7.7733    17.3663   618.7361 </r>
       <r>     7.9280    24.6371   622.5472 </r>
       <r>     8.0827    25.7686   626.5332 </r>
       <r>     8.2373    26.5658   630.6426 </r>
       <r>     8.3920    25.5150   634.5894 </r>
       <r>     8.5467    28.3829   638.9798 </r>
       <r>     8.7014    25.4492   642.9165 </r>
       <r>     8.8561    21.8384   646.2946 </r>
       <r>     9.0108    30.4157   650.9995 </r>
       <r>     9.1655    35.2020   656.4447 </r>
       <r>     9.3201    37.5456   662.2525 </r>
       <r>     9.4748    43.9619   669.0528 </r>
       <r>     9.6295    47.6365   676.4215 </r>
       <r>     9.7842    53.9485   684.7666 </r>
       <r>     9.9389    52.1309   692.8306 </r>
       <r>    10.0936    56.7104   701.6029 </r>
       <r>    10.2483    53.3406   709.8539 </r>
       <r>    10.4029    49.5405   717.5172 </r>
       <r>    10.5576    54.9565   726.0182 </r>
       <r>    10.7123    53.3390   734.2690 </r>
       <r>    10.8670    48.3519   741.7484 </r>
       <r>    11.0217    49.2438   749.3657 </r>
       <r>    11.1764    51.3353   757.3066 </r>
       <r>    11.3311    50.8181   765.1674 </r>
       <r>    11.4858    18.3043   767.9989 </r>
       <r>    11.6404     0.0074   768.0000 </r>
       <r>    11.7951     0.0000   768.0000 </r>
       <r>    11.9498     0.0000   768.0000 </r>
       <r>    12.1045     0.0000   768.0000 </r>
       <r>    12.2592     0.0000   768.0000 </r>
       <r>    12.4139     0.0000   768.0000 </r>
       <r>    12.5686     0.0000   768.0000 </r>
       <r>    12.7232     0.0000   768.0000 </r>
       <r>    12.8779     0.0000   768.0000 </r>
       <r>    13.0326     0.0000   768.0000 </r>
       <r>    13.1873     0.0000   768.0000 </r>
       <r>    13.3420     0.0000   768.0000 </r>
       <r>    13.4967     0.0000   768.0000 </r>
      </set>
     </set>
    </array>
   </total>
  </dos>
 </calculation>
 <structure name="finalpos" >
  <crystal>
   <varray name="basis" >
    <v>      11.16943783       0.01316727      -0.01431397 </v>
    <v>       0.01304445      11.22086828      -0.00262950 </v>
    <v>      -0.02021715      -0.00335056      15.86693879 </v>
   </varray>
   <i name="volume">   1988.60991404 </i>
   <varray name="rec_basis" >
    <v>       0.08953029      -0.00010405       0.00011405 </v>
    <v>      -0.00010504       0.08911979       0.00001869 </v>
    <v>       0.00008075       0.00001468       0.06302424 </v>
   </varray>
  </crystal>
  <varray name="positions" >
   <v>       0.00294724       0.24949862       0.12707476 </v>
   <v>       0.01231446       0.25534351       0.61852282 </v>
   <v>       0.99918049       0.74731566       0.12164404 </v>
   <v>       0.00360458       0.74782116       0.62319948 </v>
   <v>       0.48664940       0.24141755       0.12989939 </v>
   <v>       0.49947908       0.24977802       0.61256613 </v>
   <v>       0.49680901       0.74598646       0.12032786 </v>
   <v>       0.49820654       0.75732917       0.61543087 </v>
   <v>       0.99914103       0.25482007       0.37997980 </v>
   <v>       0.01459693       0.25109963       0.86976896 </v>
   <v>       0.99469823       0.74832043       0.37543274 </v>
   <v>      -0.00006717       0.74189430       0.88214580 </v>
   <v>       0.50205967       0.24924581       0.37645818 </v>
   <v>       0.48796868       0.24285716       0.89015948 </v>
   <v>       0.50056990       0.75481249       0.38365764 </v>
   <v>       0.50275896       0.74241210       0.88331991 </v>
   <v>       0.24635673       0.99129382       0.12038125 </v>
   <v>       0.24866921       0.00455353       0.61918147 </v>
   <v>       0.24151955       0.50663355       0.12621492 </v>
   <v>       0.24365348       0.50223688       0.61358994 </v>
   <v>       0.75735993       0.99451166       0.11674057 </v>
   <v>       0.74244789       0.00452656       0.62273014 </v>
   <v>       0.75273340       0.50859105       0.12735231 </v>
   <v>       0.77010797       0.50417074       0.61570387 </v>
   <v>       0.24162290       0.00001964       0.38320226 </v>
   <v>       0.25481479       0.99666610       0.87860101 </v>
   <v>       0.24841214       0.50549770       0.37315691 </v>
   <v>       0.23601063       0.49897628       0.88854290 </v>
   <v>       0.75058704       0.00850908       0.37932373 </v>
   <v>       0.75103174       0.98435789       0.87565181 </v>
   <v>       0.75424195       0.49443581       0.37913399 </v>
   <v>       0.75538159       0.50502496       0.87448592 </v>
   <v>       0.24991288       0.75090885       0.49912811 </v>
   <v>       0.74671575       0.74537769       0.99993246 </v>
   <v>       0.00144438       0.00444266       0.24942564 </v>
   <v>       0.24983799       0.75090486       0.99931862 </v>
   <v>       0.25645935       0.25392062       0.49736810 </v>
   <v>       0.00506618       0.50707546       0.74934421 </v>
   <v>       0.98861475       0.49936847       0.24976740 </v>
   <v>       0.74912310       0.24934798       0.50474936 </v>
   <v>       0.49997955       0.00303278       0.49268665 </v>
   <v>       0.00773248       0.00914630       0.50251902 </v>
   <v>       0.99266746       0.49667802       0.00275752 </v>
   <v>       0.00261047       0.50302737       0.49680858 </v>
   <v>       0.24317874       0.26126850       0.74941290 </v>
   <v>       0.49119811       0.47068815       0.76574338 </v>
   <v>       0.99534432       0.99100097       0.99566006 </v>
   <v>       0.76076943       0.23978058       0.97919412 </v>
   <v>       0.49005765       0.48430848       0.24581442 </v>
   <v>       0.74954789       0.25127897       0.26020568 </v>
   <v>       0.49145005       0.50854767       0.00587781 </v>
   <v>       0.98557260       0.01822003       0.74995692 </v>
   <v>       0.23410504       0.26163895       0.25160459 </v>
   <v>       0.50370259       0.50364544       0.48406092 </v>
   <v>       0.26624949       0.72918676       0.74804251 </v>
   <v>       0.25948074       0.25531814       0.00458853 </v>
   <v>       0.75759111       0.76067657       0.25181009 </v>
   <v>       0.23767623       0.74159316       0.25091353 </v>
   <v>       0.76154391       0.27007094       0.74592916 </v>
   <v>       0.74075349       0.74210921       0.50257395 </v>
   <v>       0.77170438       0.76003076       0.74805805 </v>
   <v>       0.53055148       0.99051729       0.24956729 </v>
   <v>       0.49552782       0.96452854       0.75344263 </v>
   <v>       0.49765406       0.99846464       0.00478362 </v>
   <v>       0.12555441       0.12875580       0.73966318 </v>
   <v>       0.10145638       0.64162238       0.25424789 </v>
   <v>       0.84046122       0.11083349       0.75631159 </v>
   <v>       0.52083276       0.52361708       0.36560643 </v>
   <v>       0.99674288       0.49576544       0.87637239 </v>
   <v>       0.38001061       0.62665423       0.50797841 </v>
   <v>       0.38631239       0.35098882       0.24860916 </v>
   <v>       0.37479651       0.87967249       0.50978637 </v>
   <v>       0.34034599       0.89237942       0.74911189 </v>
   <v>       0.88361262       0.35978074       0.23676246 </v>
   <v>       0.90328918       0.35902192       0.74460457 </v>
   <v>       0.88543883       0.86999175       0.23699506 </v>
   <v>       0.90092546       0.86622347       0.76789641 </v>
   <v>       0.38454116       0.86693855       0.99231504 </v>
   <v>       0.36222475       0.11145530       0.00080403 </v>
   <v>       0.36991544       0.61869221       0.24192375 </v>
   <v>       0.39801046       0.61000294       0.73300398 </v>
   <v>       0.51018159       0.03568376       0.64875322 </v>
   <v>       0.40879651       0.32441076       0.75074658 </v>
   <v>       0.84444589       0.60943831       0.25393329 </v>
   <v>       0.85897448       0.60907475       0.74748654 </v>
   <v>       0.13513927       0.39647573       0.25009312 </v>
   <v>       0.15100708       0.40219407       0.75401346 </v>
   <v>       0.14723865       0.89695746       0.25290955 </v>
   <v>       0.64210204       0.38549871       0.24638898 </v>
   <v>       0.64345631       0.42770000       0.72923711 </v>
   <v>       0.59313871       0.82854998       0.25132681 </v>
   <v>       0.38697286       0.36758443       0.00913751 </v>
   <v>       0.38121909       0.38209547       0.50004874 </v>
   <v>       0.11078189       0.64881337       0.75427716 </v>
   <v>       0.83442372       0.38344901       0.01054014 </v>
   <v>       0.88258976       0.63794880       0.49844319 </v>
   <v>       0.87354322       0.87508236       0.99798388 </v>
   <v>       0.87793333       0.36884341       0.51012431 </v>
   <v>       0.62927819       0.88476088       0.99720969 </v>
   <v>       0.12612683       0.12805304       0.49814277 </v>
   <v>       0.85584077       0.11625658       0.23415699 </v>
   <v>       0.13361342       0.62258940       0.48717433 </v>
   <v>       0.62715396       0.15529280       0.02170394 </v>
   <v>       0.62163401       0.12847833       0.49043754 </v>
   <v>       0.62375308       0.62264284       0.99810091 </v>
   <v>       0.62258987       0.62192121       0.52133953 </v>
   <v>       0.13456632       0.88311714       0.99644485 </v>
   <v>       0.11433020       0.86906715       0.49373473 </v>
   <v>       0.10952702       0.13899015       0.26314303 </v>
   <v>       0.62630363       0.37798980       0.50088524 </v>
   <v>       0.12597566       0.62488050       0.00208410 </v>
   <v>       0.62950170       0.88301764       0.50328972 </v>
   <v>       0.12989495       0.37430743       0.49424572 </v>
   <v>       0.37638425       0.12516162       0.50259735 </v>
   <v>       0.36879195       0.62066029       0.00385517 </v>
   <v>       0.89015055       0.13467721       0.99458639 </v>
   <v>       0.86587990       0.10966553       0.50812524 </v>
   <v>       0.87608352       0.62989179       0.00046365 </v>
   <v>       0.51310791       0.48750841       0.88231528 </v>
   <v>       0.01730064       0.01403823       0.11957093 </v>
   <v>       0.00079686       0.98084754       0.62717153 </v>
   <v>       0.99892816       0.50686973       0.12592817 </v>
   <v>       0.01309294       0.50578196       0.62505021 </v>
   <v>       0.48821274       0.99255666       0.13358523 </v>
   <v>       0.24421412       0.22274340       0.12933775 </v>
   <v>       0.52346510       0.50107726       0.12551713 </v>
   <v>       0.97780112       0.99167351       0.37568645 </v>
   <v>       0.11483173       0.35560795       0.00231695 </v>
   <v>       0.02772083       0.01533891       0.87548417 </v>
   <v>       0.48346306       0.99587577       0.36480152 </v>
   <v>       0.51350044       0.02606944       0.86379083 </v>
   <v>       0.75415731       0.76586097       0.37807410 </v>
   <v>       0.26655028       0.24038257       0.37270585 </v>
   <v>       0.24808140       0.23473133       0.87632200 </v>
   <v>       0.27198038       0.76100084       0.37229271 </v>
   <v>       0.25708167       0.73914313       0.87215081 </v>
   <v>       0.76449547       0.25113809       0.37894094 </v>
   <v>       0.71430394       0.26634020       0.86486482 </v>
   <v>       0.61003285       0.83912519       0.74973721 </v>
   <v>       0.74224967       0.74056851       0.87328340 </v>
   <v>       0.73976899       0.74619217       0.12583654 </v>
   <v>       0.25595496       0.25362242       0.62401247 </v>
   <v>       0.25469652       0.76151977       0.12648580 </v>
   <v>       0.23912170       0.75000931       0.62582829 </v>
   <v>       0.60625390       0.14359482       0.24964764 </v>
   <v>       0.72992548       0.23937746       0.62924458 </v>
   <v>       0.98691311       0.48941684       0.37247494 </v>
   <v>       0.77251006       0.77230774       0.62375794 </v>
  </varray>
 </structure>
</modeling>
