       N       E                     dE             d eps       ncg     rms          rms(c)
DAV:   1    -0.111945009455E+04   -0.11195E+04   -0.13038E-02 13720   0.266E-01    0.331E-02
RMM:   2    -0.111945009276E+04    0.17922E-05   -0.29933E-05  6790   0.825E-03    0.556E-02
RMM:   3    -0.111945009311E+04   -0.35088E-06   -0.86093E-06  6355   0.525E-03    0.456E-03
RMM:   4    -0.111945009335E+04   -0.24219E-06   -0.36686E-06  3776   0.237E-03    0.447E-03
RMM:   5    -0.111945009342E+04   -0.74404E-07   -0.21895E-06  3631   0.276E-03    0.412E-03
RMM:   6    -0.111945009354E+04   -0.12049E-06   -0.13218E-06  2597   0.189E-03    0.922E-04
RMM:   7    -0.111945009357E+04   -0.30181E-07   -0.71599E-07  2453   0.203E-03    0.851E-04
RMM:   8    -0.111945009361E+04   -0.31840E-07   -0.36205E-07  2024   0.178E-03
   1 F= -.11194501E+04 E0= -.11194501E+04  d E =-.111945E+04  mag=    40.0000
       N       E                     dE             d eps       ncg     rms          rms(c)
DAV:   1    -0.111945009630E+04   -0.27224E-05   -0.51942E-01 12792   0.849E-01    0.293E-01
RMM:   2    -0.111945139282E+04   -0.12965E-02   -0.15737E-02 12304   0.170E-01    0.243E-01
RMM:   3    -0.111945140287E+04   -0.10057E-04   -0.85198E-04 11653   0.517E-02    0.146E-01
RMM:   4    -0.111945129985E+04    0.10302E-03   -0.23421E-04  8354   0.195E-02    0.842E-02
RMM:   5    -0.111945127582E+04    0.24034E-04   -0.12112E-04  7437   0.141E-02    0.528E-02
RMM:   6    -0.111945127772E+04   -0.19094E-05   -0.30214E-05  7164   0.949E-03    0.249E-02
RMM:   7    -0.111945127818E+04   -0.45594E-06   -0.12274E-05  6709   0.466E-03    0.128E-02
RMM:   8    -0.111945127889E+04   -0.70647E-06   -0.59590E-06  6144   0.423E-03
   2 F= -.11194513E+04 E0= -.11194513E+04  d E =-.118528E-02  mag=    40.0000
       N       E                     dE             d eps       ncg     rms          rms(c)
DAV:   1    -0.111945128725E+04   -0.90736E-05   -0.83071E-03 13408   0.107E-01    0.380E-02
RMM:   2    -0.111945130544E+04   -0.18185E-04   -0.22199E-04  7815   0.218E-02    0.366E-02
RMM:   3    -0.111945130786E+04   -0.24209E-05   -0.22141E-05  6466   0.937E-03    0.189E-02
RMM:   4    -0.111945130702E+04    0.84132E-06   -0.57730E-06  5793   0.378E-03    0.149E-02
RMM:   5    -0.111945130644E+04    0.57714E-06   -0.25385E-06  4162   0.292E-03    0.712E-03
RMM:   6    -0.111945130639E+04    0.47512E-07   -0.66961E-07  2720   0.196E-03    0.371E-03
RMM:   7    -0.111945130637E+04    0.24316E-07   -0.11982E-08  1307   0.174E-03    0.250E-03
RMM:   8    -0.111945130633E+04    0.41677E-07   -0.28228E-08  1190   0.176E-03
   3 F= -.11194513E+04 E0= -.11194513E+04  d E =-.121272E-02  mag=    40.0000
       N       E                     dE             d eps       ncg     rms          rms(c)
DAV:   1    -0.111945144055E+04   -0.13418E-03   -0.43820E-01 12912   0.785E-01    0.214E-01
RMM:   2    -0.111945248382E+04   -0.10433E-02   -0.11787E-02 12374   0.144E-01    0.158E-01
RMM:   3    -0.111945247221E+04    0.11611E-04   -0.60484E-04 10664   0.466E-02    0.988E-02
RMM:   4    -0.111945243258E+04    0.39634E-04   -0.15995E-04  7302   0.165E-02    0.550E-02
RMM:   5    -0.111945242920E+04    0.33787E-05   -0.59278E-05  7103   0.111E-02    0.376E-02
RMM:   6    -0.111945243164E+04   -0.24471E-05   -0.19439E-05  7023   0.766E-03    0.173E-02
RMM:   7    -0.111945243350E+04   -0.18591E-05   -0.10187E-05  6463   0.434E-03    0.881E-03
RMM:   8    -0.111945243523E+04   -0.17273E-05   -0.58057E-06  6046   0.423E-03
   4 F= -.11194524E+04 E0= -.11194524E+04  d E =-.112890E-02  mag=    40.0000
