       N       E                     dE             d eps       ncg     rms          rms(c)
DAV:   1    -0.105146701757E+04   -0.10515E+04   -0.12287E-02 14504   0.265E-01    0.543E-02
RMM:   2    -0.105146701442E+04    0.31541E-05   -0.75700E-05  7253   0.135E-02    0.932E-02
RMM:   3    -0.105146701436E+04    0.59386E-07   -0.21562E-05  6804   0.810E-03    0.101E-02
RMM:   4    -0.105146701524E+04   -0.88059E-06   -0.10208E-05  5072   0.353E-03    0.107E-02
RMM:   5    -0.105146701577E+04   -0.53350E-06   -0.60487E-06  4886   0.405E-03    0.899E-03
RMM:   6    -0.105146701640E+04   -0.62773E-06   -0.42695E-06  3744   0.264E-03    0.298E-03
RMM:   7    -0.105146701680E+04   -0.39957E-06   -0.23449E-06  3350   0.276E-03    0.391E-03
RMM:   8    -0.105146701713E+04   -0.33605E-06   -0.17472E-06  2998   0.227E-03
   1 F= -.10514670E+04 E0= -.10514661E+04  d E =-.105147E+04  mag=    80.0000
       N       E                     dE             d eps       ncg     rms          rms(c)
DAV:   1    -0.105146547318E+04    0.15436E-02   -0.15083E+00 12544   0.144E+00    0.639E-01
RMM:   2    -0.105147113216E+04   -0.56590E-02   -0.46499E-02 12339   0.303E-01    0.494E-01
RMM:   3    -0.105147151745E+04   -0.38529E-03   -0.27003E-03 12987   0.887E-02    0.274E-01
RMM:   4    -0.105147127148E+04    0.24597E-03   -0.47417E-04 10438   0.290E-02    0.171E-01
RMM:   5    -0.105147116732E+04    0.10416E-03   -0.45320E-04 10469   0.249E-02    0.627E-02
RMM:   6    -0.105147116701E+04    0.30659E-06   -0.41704E-05  7332   0.121E-02    0.362E-02
RMM:   7    -0.105147116610E+04    0.90926E-06   -0.19084E-05  7229   0.584E-03    0.203E-02
RMM:   8    -0.105147116479E+04    0.13108E-05   -0.93363E-06  6995   0.528E-03
   2 F= -.10514712E+04 E0= -.10514703E+04  d E =-.414766E-02  mag=    80.0000
       N       E                     dE             d eps       ncg     rms          rms(c)
DAV:   1    -0.105147116274E+04    0.33608E-05   -0.53900E-05  7904   0.107E-02    0.207E-02
RMM:   2    -0.105147116377E+04   -0.10219E-05   -0.11265E-05  6602   0.718E-03    0.320E-02
RMM:   3    -0.105147116403E+04   -0.26442E-06   -0.35425E-06  4906   0.272E-03    0.354E-03
RMM:   4    -0.105147116400E+04    0.25932E-07   -0.56533E-07  3078   0.233E-03    0.328E-03
RMM:   5    -0.105147116394E+04    0.60434E-07   -0.48346E-08  1962   0.179E-03    0.142E-03
RMM:   6    -0.105147116389E+04    0.49011E-07   -0.22078E-08  1838   0.179E-03    0.104E-03
RMM:   7    -0.105147116387E+04    0.26557E-07   -0.69433E-09  1741   0.178E-03    0.527E-04
RMM:   8    -0.105147116386E+04    0.12573E-07   -0.18706E-09  1399   0.178E-03
   3 F= -.10514712E+04 E0= -.10514703E+04  d E =-.414672E-02  mag=    80.0000
       N       E                     dE             d eps       ncg     rms          rms(c)
DAV:   1    -0.105146992712E+04    0.12367E-02   -0.12632E+00 12848   0.135E+00    0.492E-01
RMM:   2    -0.105147404978E+04   -0.41227E-02   -0.35627E-02 12362   0.262E-01    0.330E-01
RMM:   3    -0.105147431337E+04   -0.26360E-03   -0.20887E-03 12672   0.807E-02    0.181E-01
RMM:   4    -0.105147418269E+04    0.13068E-03   -0.40135E-04 10124   0.256E-02    0.106E-01
RMM:   5    -0.105147414180E+04    0.40887E-04   -0.19050E-04  7538   0.188E-02    0.547E-02
RMM:   6    -0.105147414861E+04   -0.68034E-05   -0.50916E-05  7232   0.131E-02    0.427E-02
RMM:   7    -0.105147415185E+04   -0.32426E-05   -0.23598E-05  7116   0.697E-03    0.166E-02
RMM:   8    -0.105147415420E+04   -0.23456E-05   -0.13159E-05  7052   0.661E-03
   4 F= -.10514742E+04 E0= -.10514733E+04  d E =-.299034E-02  mag=    80.0000
       N       E                     dE             d eps       ncg     rms          rms(c)
DAV:   1    -0.105147378889E+04    0.36295E-03   -0.18022E-01 12592   0.509E-01    0.186E-01
RMM:   2    -0.105147438874E+04   -0.59984E-03   -0.51571E-03 12353   0.995E-02    0.125E-01
RMM:   3    -0.105147442170E+04   -0.32959E-04   -0.24406E-04  8456   0.313E-02    0.711E-02
RMM:   4    -0.105147440940E+04    0.12294E-04   -0.68910E-05  7186   0.129E-02    0.423E-02
RMM:   5    -0.105147440671E+04    0.26978E-05   -0.42416E-05  7113   0.921E-03    0.343E-02
RMM:   6    -0.105147440821E+04   -0.15048E-05   -0.16262E-05  6938   0.678E-03    0.185E-02
RMM:   7    -0.105147440941E+04   -0.11982E-05   -0.72420E-06  6252   0.393E-03    0.745E-03
RMM:   8    -0.105147441018E+04   -0.77262E-06   -0.43577E-06  5582   0.350E-03
   5 F= -.10514744E+04 E0= -.10514736E+04  d E =-.324633E-02  mag=    80.0000
       N       E                     dE             d eps       ncg     rms          rms(c)
DAV:   1    -0.105147266399E+04    0.17454E-02   -0.13924E+00 12624   0.141E+00    0.422E-01
RMM:   2    -0.105147674407E+04   -0.40801E-02   -0.37532E-02 12422   0.260E-01    0.278E-01
RMM:   3    -0.105147693765E+04   -0.19357E-03   -0.20949E-03 12463   0.838E-02    0.161E-01
RMM:   4    -0.105147683764E+04    0.10001E-03   -0.45207E-04 10440   0.258E-02    0.987E-02
RMM:   5    -0.105147680099E+04    0.36650E-04   -0.16271E-04  7447   0.176E-02    0.555E-02
RMM:   6    -0.105147680549E+04   -0.45019E-05   -0.47081E-05  7221   0.116E-02    0.332E-02
RMM:   7    -0.105147680688E+04   -0.13908E-05   -0.22367E-05  7125   0.701E-03    0.167E-02
RMM:   8    -0.105147680701E+04   -0.12670E-06   -0.12423E-05  6851   0.586E-03
   6 F= -.10514768E+04 E0= -.10514760E+04  d E =-.239683E-02  mag=    80.0000
       N       E                     dE             d eps       ncg     rms          rms(c)
DAV:   1    -0.105147616179E+04    0.64510E-03   -0.31385E-01 12704   0.670E-01    0.201E-01
RMM:   2    -0.105147709390E+04   -0.93211E-03   -0.85814E-03 12428   0.124E-01    0.133E-01
RMM:   3    -0.105147713404E+04   -0.40140E-04   -0.44240E-04 10006   0.400E-02    0.781E-02
RMM:   4    -0.105147711398E+04    0.20057E-04   -0.96156E-05  7240   0.135E-02    0.492E-02
RMM:   5    -0.105147710732E+04    0.66614E-05   -0.48013E-05  7146   0.970E-03    0.250E-02
RMM:   6    -0.105147710881E+04   -0.14887E-05   -0.17456E-05  7036   0.645E-03    0.147E-02
RMM:   7    -0.105147710940E+04   -0.58932E-06   -0.89596E-06  6421   0.446E-03    0.909E-03
RMM:   8    -0.105147710958E+04   -0.18362E-06   -0.49809E-06  5205   0.359E-03
   7 F= -.10514771E+04 E0= -.10514764E+04  d E =-.269940E-02  mag=    80.0000
       N       E                     dE             d eps       ncg     rms          rms(c)
DAV:   1    -0.105147627119E+04    0.83821E-03   -0.11370E+00 12528   0.126E+00    0.325E-01
RMM:   2    -0.105147927813E+04   -0.30069E-02   -0.29855E-02 12519   0.227E-01    0.207E-01
RMM:   3    -0.105147935719E+04   -0.79060E-04   -0.15872E-03 12119   0.732E-02    0.124E-01
RMM:   4    -0.105147929039E+04    0.66793E-04   -0.31362E-04  8813   0.220E-02    0.753E-02
RMM:   5    -0.105147926743E+04    0.22963E-04   -0.12377E-04  7274   0.155E-02    0.470E-02
RMM:   6    -0.105147927081E+04   -0.33765E-05   -0.36044E-05  7137   0.103E-02    0.256E-02
RMM:   7    -0.105147927230E+04   -0.14944E-05   -0.19169E-05  7038   0.601E-03    0.141E-02
RMM:   8    -0.105147927245E+04   -0.15179E-06   -0.11109E-05  6811   0.575E-03
   8 F= -.10514793E+04 E0= -.10514785E+04  d E =-.216287E-02  mag=    80.0000
       N       E                     dE             d eps       ncg     rms          rms(c)
DAV:   1    -0.105147522703E+04    0.40453E-02   -0.19279E+00 12512   0.165E+00    0.423E-01
RMM:   2    -0.105148033859E+04   -0.51116E-02   -0.50725E-02 12530   0.297E-01    0.270E-01
RMM:   3    -0.105148047907E+04   -0.14048E-03   -0.27423E-03 12582   0.949E-02    0.162E-01
RMM:   4    -0.105148036717E+04    0.11190E-03   -0.56105E-04 11406   0.285E-02    0.959E-02
RMM:   5    -0.105148032787E+04    0.39294E-04   -0.21932E-04  7796   0.193E-02    0.545E-02
RMM:   6    -0.105148033212E+04   -0.42462E-05   -0.54804E-05  7214   0.128E-02    0.330E-02
RMM:   7    -0.105148033449E+04   -0.23726E-05   -0.28345E-05  7136   0.730E-03    0.161E-02
RMM:   8    -0.105148033470E+04   -0.20405E-06   -0.16639E-05  7070   0.704E-03
   9 F= -.10514803E+04 E0= -.10514796E+04  d E =-.322512E-02  mag=    80.0000
       N       E                     dE             d eps       ncg     rms          rms(c)
DAV:   1    -0.105147799542E+04    0.23391E-02   -0.16680E+00 12512   0.152E+00    0.384E-01
RMM:   2    -0.105148248246E+04   -0.44870E-02   -0.43310E-02 12484   0.272E-01    0.242E-01
RMM:   3    -0.105148262936E+04   -0.14689E-03   -0.23332E-03 12427   0.880E-02    0.143E-01
RMM:   4    -0.105148253900E+04    0.90357E-04   -0.45708E-04 10561   0.255E-02    0.871E-02
RMM:   5    -0.105148250339E+04    0.35609E-04   -0.18452E-04  7477   0.180E-02    0.491E-02
RMM:   6    -0.105148250927E+04   -0.58801E-05   -0.51161E-05  7196   0.122E-02    0.341E-02
RMM:   7    -0.105148251241E+04   -0.31419E-05   -0.25788E-05  7127   0.711E-03    0.155E-02
RMM:   8    -0.105148251408E+04   -0.16659E-05   -0.15075E-05  7005   0.660E-03
  10 F= -.10514825E+04 E0= -.10514817E+04  d E =-.217938E-02  mag=    80.0000
       N       E                     dE             d eps       ncg     rms          rms(c)
DAV:   1    -0.105147827068E+04    0.42417E-02   -0.18590E+00 12512   0.160E+00    0.406E-01
RMM:   2    -0.105148328100E+04   -0.50103E-02   -0.48352E-02 12505   0.288E-01    0.257E-01
RMM:   3    -0.105148344384E+04   -0.16284E-03   -0.25942E-03 12497   0.922E-02    0.152E-01
RMM:   4    -0.105148334483E+04    0.99017E-04   -0.51002E-04 11051   0.268E-02    0.925E-02
RMM:   5    -0.105148330513E+04    0.39692E-04   -0.21970E-04  7816   0.188E-02    0.499E-02
RMM:   6    -0.105148331075E+04   -0.56154E-05   -0.54947E-05  7216   0.126E-02    0.365E-02
RMM:   7    -0.105148331400E+04   -0.32497E-05   -0.26968E-05  7141   0.733E-03    0.159E-02
RMM:   8    -0.105148331572E+04   -0.17229E-05   -0.15825E-05  7059   0.676E-03
  11 F= -.10514833E+04 E0= -.10514825E+04  d E =-.298102E-02  mag=    80.0000
       N       E                     dE             d eps       ncg     rms          rms(c)
DAV:   1    -0.105148056396E+04    0.27500E-02   -0.18807E+00 12480   0.160E+00    0.372E-01
RMM:   2    -0.105148538590E+04   -0.48219E-02   -0.48499E-02 12588   0.285E-01    0.239E-01
RMM:   3    -0.105148546685E+04   -0.80946E-04   -0.25501E-03 12442   0.900E-02    0.143E-01
RMM:   4    -0.105148536755E+04    0.99299E-04   -0.50207E-04 10997   0.266E-02    0.886E-02
RMM:   5    -0.105148533672E+04    0.30828E-04   -0.19768E-04  7720   0.181E-02    0.455E-02
RMM:   6    -0.105148534255E+04   -0.58300E-05   -0.50100E-05  7188   0.120E-02    0.317E-02
RMM:   7    -0.105148534563E+04   -0.30765E-05   -0.25929E-05  7111   0.694E-03    0.161E-02
RMM:   8    -0.105148534719E+04   -0.15639E-05   -0.15133E-05  6974   0.661E-03
  12 F= -.10514853E+04 E0= -.10514846E+04  d E =-.203147E-02  mag=    80.0000
       N       E                     dE             d eps       ncg     rms          rms(c)
DAV:   1    -0.105148006889E+04    0.52767E-02   -0.23979E+00 12480   0.181E+00    0.421E-01
RMM:   2    -0.105148621196E+04   -0.61431E-02   -0.61777E-02 12561   0.322E-01    0.270E-01
RMM:   3    -0.105148632303E+04   -0.11107E-03   -0.32708E-03 12597   0.102E-01    0.162E-01
RMM:   4    -0.105148619880E+04    0.12423E-03   -0.66124E-04 12166   0.302E-02    0.992E-02
RMM:   5    -0.105148616141E+04    0.37387E-04   -0.26778E-04  8565   0.193E-02    0.494E-02
RMM:   6    -0.105148616676E+04   -0.53468E-05   -0.55541E-05  7217   0.121E-02    0.314E-02
RMM:   7    -0.105148617006E+04   -0.33066E-05   -0.27919E-05  7143   0.720E-03    0.170E-02
RMM:   8    -0.105148617173E+04   -0.16663E-05   -0.16637E-05  7019   0.671E-03
  13 F= -.10514862E+04 E0= -.10514855E+04  d E =-.285601E-02  mag=    80.0000
       N       E                     dE             d eps       ncg     rms          rms(c)
DAV:   1    -0.105148263164E+04    0.35384E-02   -0.21261E+00 12640   0.169E+00    0.383E-01
RMM:   2    -0.105148815634E+04   -0.55247E-02   -0.54133E-02 12548   0.299E-01    0.238E-01
RMM:   3    -0.105148827952E+04   -0.12319E-03   -0.28100E-03 12381   0.957E-02    0.141E-01
RMM:   4    -0.105148817509E+04    0.10443E-03   -0.56690E-04 11505   0.276E-02    0.839E-02
RMM:   5    -0.105148814315E+04    0.31948E-04   -0.20954E-04  7841   0.179E-02    0.425E-02
RMM:   6    -0.105148814783E+04   -0.46782E-05   -0.48530E-05  7198   0.113E-02    0.262E-02
RMM:   7    -0.105148815018E+04   -0.23579E-05   -0.25244E-05  7093   0.674E-03    0.141E-02
RMM:   8    -0.105148815073E+04   -0.54683E-06   -0.14923E-05  6857   0.625E-03
  14 F= -.10514882E+04 E0= -.10514875E+04  d E =-.197900E-02  mag=    80.0000
       N       E                     dE             d eps       ncg     rms          rms(c)
DAV:   1    -0.105148099556E+04    0.71546E-02   -0.31005E+00 12632   0.204E+00    0.462E-01
RMM:   2    -0.105148904566E+04   -0.80501E-02   -0.78872E-02 12548   0.361E-01    0.288E-01
RMM:   3    -0.105148922887E+04   -0.18320E-03   -0.40976E-03 12527   0.115E-01    0.170E-01
RMM:   4    -0.105148907822E+04    0.15065E-03   -0.83349E-04 12777   0.333E-02    0.102E-01
RMM:   5    -0.105148903372E+04    0.44497E-04   -0.33302E-04  9638   0.201E-02    0.465E-02
RMM:   6    -0.105148903788E+04   -0.41608E-05   -0.56989E-05  7245   0.111E-02    0.263E-02
RMM:   7    -0.105148904044E+04   -0.25535E-05   -0.28897E-05  7132   0.720E-03    0.146E-02
RMM:   8    -0.105148904097E+04   -0.53218E-06   -0.17923E-05  6983   0.628E-03
  15 F= -.10514890E+04 E0= -.10514884E+04  d E =-.286924E-02  mag=    80.0000
       N       E                     dE             d eps       ncg     rms          rms(c)
DAV:   1    -0.105148357280E+04    0.54676E-02   -0.27712E+00 12560   0.192E+00    0.467E-01
RMM:   2    -0.105149099199E+04   -0.74192E-02   -0.70364E-02 12475   0.342E-01    0.300E-01
RMM:   3    -0.105149122501E+04   -0.23302E-03   -0.36859E-03 12517   0.109E-01    0.177E-01
RMM:   4    -0.105149109376E+04    0.13125E-03   -0.70072E-04 12403   0.307E-02    0.110E-01
RMM:   5    -0.105149103487E+04    0.58889E-04   -0.37524E-04  9754   0.207E-02    0.493E-02
RMM:   6    -0.105149103891E+04   -0.40441E-05   -0.56346E-05  7237   0.116E-02    0.353E-02
RMM:   7    -0.105149104137E+04   -0.24609E-05   -0.26055E-05  7090   0.723E-03    0.158E-02
RMM:   8    -0.105149104198E+04   -0.60943E-06   -0.16621E-05  6841   0.616E-03
  16 F= -.10514910E+04 E0= -.10514904E+04  d E =-.200101E-02  mag=    80.0000
       N       E                     dE             d eps       ncg     rms          rms(c)
DAV:   1    -0.105148895266E+04    0.20887E-02   -0.90591E-01 12784   0.110E+00    0.268E-01
RMM:   2    -0.105149139304E+04   -0.24404E-02   -0.23134E-02 12492   0.196E-01    0.173E-01
RMM:   3    -0.105149146705E+04   -0.74006E-04   -0.12024E-03 11640   0.622E-02    0.102E-01
RMM:   4    -0.105149142344E+04    0.43610E-04   -0.19984E-04  7919   0.179E-02    0.653E-02
RMM:   5    -0.105149140410E+04    0.19338E-04   -0.11323E-04  7251   0.136E-02    0.373E-02
RMM:   6    -0.105149140777E+04   -0.36709E-05   -0.31674E-05  7045   0.930E-03    0.259E-02
RMM:   7    -0.105149140939E+04   -0.16129E-05   -0.16102E-05  6737   0.533E-03    0.119E-02
RMM:   8    -0.105149140995E+04   -0.56476E-06   -0.92867E-06  6244   0.509E-03
  17 F= -.10514914E+04 E0= -.10514908E+04  d E =-.236898E-02  mag=    80.0000
       N       E                     dE             d eps       ncg     rms          rms(c)
DAV:   1    -0.105148935694E+04    0.20524E-02   -0.13652E+00 12480   0.134E+00    0.325E-01
RMM:   2    -0.105149288722E+04   -0.35303E-02   -0.34773E-02 12522   0.239E-01    0.212E-01
RMM:   3    -0.105149295355E+04   -0.66331E-04   -0.18071E-03 11956   0.763E-02    0.127E-01
RMM:   4    -0.105149287056E+04    0.82991E-04   -0.38217E-04  9808   0.229E-02    0.735E-02
RMM:   5    -0.105149284692E+04    0.23643E-04   -0.13577E-04  7341   0.156E-02    0.369E-02
RMM:   6    -0.105149285044E+04   -0.35210E-05   -0.35474E-05  7097   0.991E-03    0.265E-02
RMM:   7    -0.105149285203E+04   -0.15948E-05   -0.17874E-05  6853   0.571E-03    0.120E-02
RMM:   8    -0.105149285248E+04   -0.45125E-06   -0.10385E-05  6463   0.526E-03
  18 F= -.10514929E+04 E0= -.10514922E+04  d E =-.144253E-02  mag=    80.0000
       N       E                     dE             d eps       ncg     rms          rms(c)
DAV:   1    -0.105149184904E+04    0.10030E-02   -0.48193E-01 12544   0.798E-01    0.193E-01
RMM:   2    -0.105149310914E+04   -0.12601E-02   -0.12419E-02 12600   0.143E-01    0.127E-01
RMM:   3    -0.105149312578E+04   -0.16638E-04   -0.60926E-04 10295   0.444E-02    0.760E-02
RMM:   4    -0.105149309585E+04    0.29933E-04   -0.11534E-04  7265   0.144E-02    0.451E-02
RMM:   5    -0.105149308967E+04    0.61790E-05   -0.57572E-05  7129   0.102E-02    0.150E-02
RMM:   6    -0.105149309163E+04   -0.19621E-05   -0.17191E-05  6862   0.638E-03    0.112E-02
RMM:   7    -0.105149309244E+04   -0.81504E-06   -0.92911E-06  6014   0.409E-03    0.606E-03
RMM:   8    -0.105149309272E+04   -0.27873E-06   -0.52811E-06  5219   0.363E-03
  19 F= -.10514931E+04 E0= -.10514925E+04  d E =-.168277E-02  mag=    80.0000
       N       E                     dE             d eps       ncg     rms          rms(c)
DAV:   1    -0.105149166398E+04    0.14285E-02   -0.99333E-01 12624   0.115E+00    0.265E-01
RMM:   2    -0.105149423863E+04   -0.25746E-02   -0.25174E-02 12487   0.203E-01    0.167E-01
RMM:   3    -0.105149429659E+04   -0.57967E-04   -0.12907E-03 11525   0.660E-02    0.100E-01
RMM:   4    -0.105149424613E+04    0.50463E-04   -0.23750E-04  8145   0.191E-02    0.604E-02
RMM:   5    -0.105149423428E+04    0.11853E-04   -0.98272E-05  7207   0.134E-02    0.265E-02
RMM:   6    -0.105149423778E+04   -0.34985E-05   -0.27205E-05  7055   0.843E-03    0.192E-02
RMM:   7    -0.105149423929E+04   -0.15086E-05   -0.14515E-05  6516   0.508E-03    0.905E-03
RMM:   8    -0.105149423999E+04   -0.70533E-06   -0.84361E-06  6087   0.469E-03
  20 F= -.10514942E+04 E0= -.10514936E+04  d E =-.114727E-02  mag=    80.0000
       N       E                     dE             d eps       ncg     rms          rms(c)
DAV:   1    -0.105148909960E+04    0.51397E-02   -0.22369E+00 12568   0.172E+00    0.398E-01
RMM:   2    -0.105149489914E+04   -0.57995E-02   -0.56695E-02 12488   0.305E-01    0.251E-01
RMM:   3    -0.105149503844E+04   -0.13929E-03   -0.29490E-03 12300   0.989E-02    0.151E-01
RMM:   4    -0.105149493187E+04    0.10656E-03   -0.59858E-04 11721   0.281E-02    0.888E-02
RMM:   5    -0.105149489990E+04    0.31968E-04   -0.22471E-04  7979   0.183E-02    0.377E-02
RMM:   6    -0.105149490517E+04   -0.52699E-05   -0.48631E-05  7191   0.113E-02    0.311E-02
RMM:   7    -0.105149490774E+04   -0.25641E-05   -0.24463E-05  7054   0.682E-03    0.140E-02
RMM:   8    -0.105149490876E+04   -0.10253E-05   -0.14845E-05  6858   0.624E-03
  21 F= -.10514949E+04 E0= -.10514943E+04  d E =-.181604E-02  mag=    80.0000
       N       E                     dE             d eps       ncg     rms          rms(c)
DAV:   1    -0.105149408191E+04    0.82583E-03   -0.72414E-01 12576   0.977E-01    0.231E-01
RMM:   2    -0.105149595057E+04   -0.18687E-02   -0.18636E-02 12435   0.175E-01    0.150E-01
RMM:   3    -0.105149599052E+04   -0.39950E-04   -0.98446E-04 11486   0.563E-02    0.887E-02
RMM:   4    -0.105149594440E+04    0.46112E-04   -0.17387E-04  7633   0.170E-02    0.546E-02
RMM:   5    -0.105149593053E+04    0.13876E-04   -0.84443E-05  7189   0.122E-02    0.364E-02
RMM:   6    -0.105149593316E+04   -0.26270E-05   -0.25049E-05  7016   0.812E-03    0.174E-02
RMM:   7    -0.105149593436E+04   -0.12055E-05   -0.12975E-05  6537   0.483E-03    0.107E-02
RMM:   8    -0.105149593480E+04   -0.43945E-06   -0.73989E-06  5911   0.447E-03
  22 F= -.10514959E+04 E0= -.10514954E+04  d E =-.102604E-02  mag=    80.0000
       N       E                     dE             d eps       ncg     rms          rms(c)
DAV:   1    -0.105149475019E+04    0.11842E-02   -0.58228E-01 12624   0.876E-01    0.208E-01
RMM:   2    -0.105149624642E+04   -0.14962E-02   -0.14928E-02 12412   0.157E-01    0.135E-01
RMM:   3    -0.105149627664E+04   -0.30224E-04   -0.77430E-04 11060   0.509E-02    0.794E-02
RMM:   4    -0.105149623980E+04    0.36846E-04   -0.13891E-04  7403   0.155E-02    0.487E-02
RMM:   5    -0.105149622898E+04    0.10812E-04   -0.67300E-05  7160   0.111E-02    0.363E-02
RMM:   6    -0.105149623113E+04   -0.21456E-05   -0.21358E-05  6954   0.749E-03    0.158E-02
RMM:   7    -0.105149623214E+04   -0.10077E-05   -0.10691E-05  6321   0.453E-03    0.999E-03
RMM:   8    -0.105149623250E+04   -0.36821E-06   -0.60497E-06  5548   0.406E-03
  23 F= -.10514962E+04 E0= -.10514957E+04  d E =-.132374E-02  mag=    80.0000
       N       E                     dE             d eps       ncg     rms          rms(c)
DAV:   1    -0.105149511543E+04    0.11167E-02   -0.80368E-01 12576   0.103E+00    0.235E-01
RMM:   2    -0.105149718407E+04   -0.20686E-02   -0.20248E-02 12463   0.181E-01    0.145E-01
RMM:   3    -0.105149722550E+04   -0.41436E-04   -0.10279E-03 11375   0.593E-02    0.863E-02
RMM:   4    -0.105149718133E+04    0.44174E-04   -0.18036E-04  7626   0.174E-02    0.534E-02
RMM:   5    -0.105149717101E+04    0.10316E-04   -0.79976E-05  7169   0.123E-02    0.335E-02
RMM:   6    -0.105149717369E+04   -0.26764E-05   -0.23740E-05  7006   0.789E-03    0.161E-02
RMM:   7    -0.105149717492E+04   -0.12276E-05   -0.12246E-05  6311   0.473E-03    0.906E-03
RMM:   8    -0.105149717539E+04   -0.47560E-06   -0.69844E-06  5718   0.432E-03
  24 F= -.10514972E+04 E0= -.10514966E+04  d E =-.942886E-03  mag=    80.0000
       N       E                     dE             d eps       ncg     rms          rms(c)
DAV:   1    -0.105149146475E+04    0.57102E-02   -0.24145E+00 12496   0.178E+00    0.407E-01
RMM:   2    -0.105149766744E+04   -0.62027E-02   -0.60712E-02 12470   0.313E-01    0.251E-01
RMM:   3    -0.105149780094E+04   -0.13350E-03   -0.31174E-03 12394   0.103E-01    0.150E-01
RMM:   4    -0.105149767812E+04    0.12282E-03   -0.65410E-04 11984   0.294E-02    0.889E-02
RMM:   5    -0.105149763982E+04    0.38302E-04   -0.23593E-04  8144   0.185E-02    0.488E-02
RMM:   6    -0.105149764455E+04   -0.47333E-05   -0.48688E-05  7190   0.111E-02    0.272E-02
RMM:   7    -0.105149764700E+04   -0.24482E-05   -0.23586E-05  7070   0.668E-03    0.144E-02
RMM:   8    -0.105149764766E+04   -0.66457E-06   -0.14481E-05  6876   0.608E-03
  25 F= -.10514976E+04 E0= -.10514971E+04  d E =-.141516E-02  mag=    80.0000
       N       E                     dE             d eps       ncg     rms          rms(c)
DAV:   1    -0.105149654439E+04    0.11026E-02   -0.76298E-01 12656   0.100E+00    0.218E-01
RMM:   2    -0.105149847876E+04   -0.19344E-02   -0.19635E-02 12455   0.178E-01    0.143E-01
RMM:   3    -0.105149850661E+04   -0.27850E-04   -0.10097E-03 11416   0.582E-02    0.871E-02
RMM:   4    -0.105149846587E+04    0.40732E-04   -0.17767E-04  7660   0.170E-02    0.573E-02
RMM:   5    -0.105149845275E+04    0.13123E-04   -0.83543E-05  7188   0.122E-02    0.307E-02
RMM:   6    -0.105149845589E+04   -0.31351E-05   -0.25053E-05  7033   0.789E-03    0.165E-02
RMM:   7    -0.105149845710E+04   -0.12130E-05   -0.13417E-05  6405   0.490E-03    0.984E-03
RMM:   8    -0.105149845749E+04   -0.39219E-06   -0.76123E-06  5834   0.447E-03
  26 F= -.10514985E+04 E0= -.10514979E+04  d E =-.809827E-03  mag=    80.0000
       N       E                     dE             d eps       ncg     rms          rms(c)
DAV:   1    -0.105149681496E+04    0.16421E-02   -0.78322E-01 12624   0.102E+00    0.221E-01
RMM:   2    -0.105149879088E+04   -0.19759E-02   -0.20060E-02 12446   0.179E-01    0.144E-01
RMM:   3    -0.105149881838E+04   -0.27509E-04   -0.10257E-03 11417   0.592E-02    0.881E-02
RMM:   4    -0.105149877599E+04    0.42390E-04   -0.18256E-04  7698   0.172E-02    0.570E-02
RMM:   5    -0.105149876324E+04    0.12751E-04   -0.82103E-05  7195   0.123E-02    0.341E-02
RMM:   6    -0.105149876617E+04   -0.29321E-05   -0.25027E-05  7048   0.794E-03    0.169E-02
RMM:   7    -0.105149876735E+04   -0.11758E-05   -0.13032E-05  6468   0.491E-03    0.102E-02
RMM:   8    -0.105149876773E+04   -0.37701E-06   -0.73914E-06  5881   0.441E-03
  27 F= -.10514988E+04 E0= -.10514983E+04  d E =-.112006E-02  mag=    80.0000
       N       E                     dE             d eps       ncg     rms          rms(c)
DAV:   1    -0.105149880472E+04   -0.37374E-04   -0.24055E-01 12864   0.572E-01    0.163E-01
RMM:   2    -0.105149948735E+04   -0.68262E-03   -0.63964E-03 12344   0.105E-01    0.111E-01
RMM:   3    -0.105149950969E+04   -0.22346E-04   -0.30419E-04  8939   0.333E-02    0.643E-02
RMM:   4    -0.105149949439E+04    0.15303E-04   -0.69727E-05  7126   0.121E-02    0.390E-02
RMM:   5    -0.105149948829E+04    0.60961E-05   -0.40406E-05  7012   0.922E-03    0.384E-02
RMM:   6    -0.105149948919E+04   -0.89934E-06   -0.16569E-05  6573   0.667E-03    0.150E-02
RMM:   7    -0.105149948973E+04   -0.53721E-06   -0.66078E-06  5737   0.383E-03    0.756E-03
RMM:   8    -0.105149948987E+04   -0.13714E-06   -0.37543E-06  4954   0.326E-03
  28 F= -.10514995E+04 E0= -.10514990E+04  d E =-.722140E-03  mag=    80.0000
