<?xml version="1.0" encoding="ISO-8859-1"?>
<modeling>
 <generator>
  <i name="program" type="string">vasp </i>
  <i name="version" type="string">5.4.1  </i>
  <i name="subversion" type="string">05Feb16 (build Jan 25 2017 20:16:33) complex                          parallel </i>
  <i name="platform" type="string">BWXE6 </i>
  <i name="date" type="string">2019 07 25 </i>
  <i name="time" type="string">12:25:18 </i>
 </generator>
 <incar>
  <i type="string" name="SYSTEM"> STF</i>
  <i type="string" name="PREC">normal</i>
  <i type="string" name="ALGO"> Fast</i>
  <i type="int" name="ISPIN">     2</i>
  <i type="int" name="NELM">    40</i>
  <i type="int" name="NELMIN">     8</i>
  <i type="int" name="IBRION">     2</i>
  <i name="EDIFF">      0.00010000</i>
  <i name="EDIFFG">     -0.03000000</i>
  <i type="int" name="NSW">    30</i>
  <i type="int" name="ISIF">     3</i>
  <i name="ENCUT">    520.00000000</i>
  <i type="int" name="NBANDS">   768</i>
  <v name="MAGMOM">      0.60000000      0.60000000      0.60000000      0.60000000      0.60000000      0.60000000      0.60000000      0.60000000      0.60000000      0.60000000      0.60000000      0.60000000      0.60000000      0.60000000      0.60000000      0.60000000      0.60000000      0.60000000      0.60000000      0.60000000
      0.60000000      0.60000000      0.60000000      0.60000000      0.60000000      0.60000000      0.60000000      0.60000000      0.60000000      0.60000000      0.60000000      0.60000000      0.60000000      0.60000000      0.60000000      0.60000000      0.60000000      0.60000000      0.60000000      0.60000000
      5.00000000      5.00000000      5.00000000      5.00000000      5.00000000      5.00000000      5.00000000      5.00000000      5.00000000      5.00000000      5.00000000      5.00000000      5.00000000      5.00000000      5.00000000      5.00000000      5.00000000      5.00000000      5.00000000      5.00000000
      5.00000000      5.00000000      5.00000000      5.00000000      0.60000000      0.60000000      0.60000000      0.60000000      0.60000000      0.60000000      0.60000000      0.60000000      0.60000000      0.60000000      0.60000000      0.60000000      0.60000000      0.60000000      0.60000000      0.60000000
      0.60000000      0.60000000      0.60000000      0.60000000      0.60000000      0.60000000      0.60000000      0.60000000      0.60000000      0.60000000      0.60000000      0.60000000      0.60000000      0.60000000      0.60000000      0.60000000      0.60000000      0.60000000      0.60000000      0.60000000
      0.60000000      0.60000000      0.60000000      0.60000000      0.60000000      0.60000000      0.60000000      0.60000000      0.60000000      0.60000000      0.60000000      0.60000000      0.60000000      0.60000000      0.60000000      0.60000000      0.60000000      0.60000000      0.60000000      0.60000000
      0.60000000      0.60000000      0.60000000      0.60000000      0.60000000      0.60000000      0.60000000      0.60000000      0.60000000      0.60000000      0.60000000      0.60000000      0.60000000      0.60000000      0.60000000      0.60000000      0.60000000      0.60000000      0.60000000      0.60000000
      0.60000000      0.60000000      0.60000000      0.60000000      0.60000000      0.60000000      0.60000000      0.60000000</v>
  <i type="string" name="LREAL"> Auto</i>
  <i type="int" name="ISMEAR">     0</i>
  <i name="SIGMA">      0.05000000</i>
  <i type="int" name="LMAXMIX">     4</i>
  <v type="int" name="KPOINT_BSE">    -1     0     0     0</v>
  <i type="int" name="NELM">    40</i>
  <i type="logical" name="LDAU"> T  </i>
  <v type="int" name="LDAUTYPE">     2</v>
  <v type="int" name="LDAUL">     0     2     2     0</v>
  <v name="LDAUU">      0.00000000      3.00000000      5.00000000      0.00000000</v>
  <v name="LDAUJ">      0.00000000      0.00000000      0.00000000      0.00000000</v>
  <i type="int" name="LDAUPRINT">     1</i>
 </incar>
 <kpoints>
  <generation param="Monkhorst-Pack">
   <v type="int" name="divisions">       2        2        2 </v>
   <v name="usershift">      0.00000000       0.00000000       0.00000000 </v>
   <v name="genvec1">      0.50000000      -0.00000000      -0.00000000 </v>
   <v name="genvec2">      0.00000000       0.50000000      -0.00000000 </v>
   <v name="genvec3">      0.00000000       0.00000000       0.50000000 </v>
   <v name="shift">      0.50000000       0.50000000       0.50000000 </v>
  </generation>
  <varray name="kpointlist" >
   <v>       0.25000000       0.25000000       0.25000000 </v>
   <v>      -0.25000000       0.25000000       0.25000000 </v>
   <v>       0.25000000      -0.25000000       0.25000000 </v>
   <v>      -0.25000000      -0.25000000       0.25000000 </v>
  </varray>
  <varray name="weights" >
   <v>       0.25000000 </v>
   <v>       0.25000000 </v>
   <v>       0.25000000 </v>
   <v>       0.25000000 </v>
  </varray>
 </kpoints>
 <parameters>
  <separator name="general" >
   <i type="string" name="SYSTEM">STF</i>
   <i type="logical" name="LCOMPAT"> F  </i>
  </separator>
  <separator name="electronic" >
   <i type="string" name="PREC">normal</i>
   <i name="ENMAX">    520.00000000</i>
   <i name="ENAUG">    605.39200000</i>
   <i name="EDIFF">      0.00010000</i>
   <i type="int" name="IALGO">    68</i>
   <i type="int" name="IWAVPR">    11</i>
   <i type="int" name="NBANDS">   768</i>
   <i name="NELECT">   1048.00000000</i>
   <i type="int" name="TURBO">     0</i>
   <i type="int" name="IRESTART">     0</i>
   <i type="int" name="NREBOOT">     0</i>
   <i type="int" name="NMIN">     0</i>
   <i name="EREF">      0.00000000</i>
   <separator name="electronic smearing" >
    <i type="int" name="ISMEAR">     0</i>
    <i name="SIGMA">      0.05000000</i>
    <i name="KSPACING">      0.50000000</i>
    <i type="logical" name="KGAMMA"> T  </i>
   </separator>
   <separator name="electronic projectors" >
    <i type="logical" name="LREAL"> T  </i>
    <v name="ROPT">     -0.00050000     -0.00050000     -0.00050000     -0.00050000</v>
    <i type="int" name="LMAXPAW">  -100</i>
    <i type="int" name="LMAXMIX">     4</i>
    <i type="logical" name="NLSPLINE"> F  </i>
   </separator>
   <separator name="electronic startup" >
    <i type="int" name="ISTART">     1</i>
    <i type="int" name="ICHARG">     0</i>
    <i type="int" name="INIWAV">     1</i>
   </separator>
   <separator name="electronic spin" >
    <i type="int" name="ISPIN">     2</i>
    <i type="logical" name="LNONCOLLINEAR"> F  </i>
    <v name="MAGMOM">      0.60000000      0.60000000      0.60000000      0.60000000      0.60000000      0.60000000      0.60000000      0.60000000      0.60000000      0.60000000      0.60000000      0.60000000      0.60000000      0.60000000      0.60000000      0.60000000      0.60000000      0.60000000      0.60000000      0.60000000
      0.60000000      0.60000000      0.60000000      0.60000000      0.60000000      0.60000000      0.60000000      0.60000000      0.60000000      0.60000000      0.60000000      0.60000000      0.60000000      0.60000000      0.60000000      0.60000000      0.60000000      0.60000000      0.60000000      0.60000000
      5.00000000      5.00000000      5.00000000      5.00000000      5.00000000      5.00000000      5.00000000      5.00000000      5.00000000      5.00000000      5.00000000      5.00000000      5.00000000      5.00000000      5.00000000      5.00000000      5.00000000      5.00000000      5.00000000      5.00000000
      5.00000000      5.00000000      5.00000000      5.00000000      0.60000000      0.60000000      0.60000000      0.60000000      0.60000000      0.60000000      0.60000000      0.60000000      0.60000000      0.60000000      0.60000000      0.60000000      0.60000000      0.60000000      0.60000000      0.60000000
      0.60000000      0.60000000      0.60000000      0.60000000      0.60000000      0.60000000      0.60000000      0.60000000      0.60000000      0.60000000      0.60000000      0.60000000      0.60000000      0.60000000      0.60000000      0.60000000      0.60000000      0.60000000      0.60000000      0.60000000
      0.60000000      0.60000000      0.60000000      0.60000000      0.60000000      0.60000000      0.60000000      0.60000000      0.60000000      0.60000000      0.60000000      0.60000000      0.60000000      0.60000000      0.60000000      0.60000000      0.60000000      0.60000000      0.60000000      0.60000000
      0.60000000      0.60000000      0.60000000      0.60000000      0.60000000      0.60000000      0.60000000      0.60000000      0.60000000      0.60000000      0.60000000      0.60000000      0.60000000      0.60000000      0.60000000      0.60000000      0.60000000      0.60000000      0.60000000      0.60000000
      0.60000000      0.60000000      0.60000000      0.60000000      0.60000000      0.60000000      0.60000000      0.60000000</v>
    <i name="NUPDOWN">     -1.00000000</i>
    <i type="logical" name="LSORBIT"> F  </i>
    <v name="SAXIS">      0.00000000      0.00000000      1.00000000</v>
    <i type="logical" name="LSPIRAL"> F  </i>
    <v name="QSPIRAL">      0.00000000      0.00000000      0.00000000</v>
    <i type="logical" name="LZEROZ"> F  </i>
   </separator>
   <separator name="electronic exchange-correlation" >
    <i type="logical" name="LASPH"> F  </i>
    <i type="logical" name="LMETAGGA"> F  </i>
   </separator>
   <separator name="electronic convergence" >
    <i type="int" name="NELM">    40</i>
    <i type="int" name="NELMDL">     0</i>
    <i type="int" name="NELMIN">     8</i>
    <i name="ENINI">    520.00000000</i>
    <separator name="electronic convergence detail" >
     <i type="logical" name="LDIAG"> T  </i>
     <i type="logical" name="LSUBROT"> F  </i>
     <i name="WEIMIN">      0.00100000</i>
     <i name="EBREAK">      0.00000003</i>
     <i name="DEPER">      0.30000000</i>
     <i type="int" name="NRMM">     4</i>
     <i name="TIME">      0.40000000</i>
    </separator>
   </separator>
   <separator name="electronic mixer" >
    <i name="AMIX">      0.40000000</i>
    <i name="BMIX">      1.00000000</i>
    <i name="AMIN">      0.10000000</i>
    <i name="AMIX_MAG">      1.60000000</i>
    <i name="BMIX_MAG">      1.00000000</i>
    <separator name="electronic mixer details" >
     <i type="int" name="IMIX">     4</i>
     <i type="logical" name="MIXFIRST"> F  </i>
     <i type="int" name="MAXMIX">   -45</i>
     <i name="WC">    100.00000000</i>
     <i type="int" name="INIMIX">     1</i>
     <i type="int" name="MIXPRE">     1</i>
     <i type="int" name="MREMOVE">     5</i>
    </separator>
   </separator>
   <separator name="electronic dipolcorrection" >
    <i type="logical" name="LDIPOL"> F  </i>
    <i type="logical" name="LMONO"> F  </i>
    <i type="int" name="IDIPOL">     0</i>
    <i name="EPSILON">      1.00000000</i>
    <v name="DIPOL">   -100.00000000   -100.00000000   -100.00000000</v>
    <i name="EFIELD">      0.00000000</i>
   </separator>
  </separator>
  <separator name="grids" >
   <i type="int" name="NGX">    64</i>
   <i type="int" name="NGY">    64</i>
   <i type="int" name="NGZ">    90</i>
   <i type="int" name="NGXF">   128</i>
   <i type="int" name="NGYF">   128</i>
   <i type="int" name="NGZF">   180</i>
   <i type="logical" name="ADDGRID"> F  </i>
  </separator>
  <separator name="ionic" >
   <i type="int" name="NSW">    30</i>
   <i type="int" name="IBRION">     2</i>
   <i type="int" name="ISIF">     3</i>
   <i name="PSTRESS">      0.00000000</i>
   <i name="EDIFFG">     -0.03000000</i>
   <i type="int" name="NFREE">     1</i>
   <i name="POTIM">      0.50000000</i>
   <i name="SMASS">     -3.00000000</i>
   <i name="SCALEE">      1.00000000</i>
  </separator>
  <separator name="ionic md" >
   <i name="TEBEG">      0.00010000</i>
   <i name="TEEND">      0.00010000</i>
   <i type="int" name="NBLOCK">     1</i>
   <i type="int" name="KBLOCK">    30</i>
   <i type="int" name="NPACO">   256</i>
   <i name="APACO">     16.00000000</i>
  </separator>
  <separator name="symmetry" >
   <i type="int" name="ISYM">     2</i>
   <i name="SYMPREC">      0.00001000</i>
  </separator>
  <separator name="dos" >
   <i type="logical" name="LORBIT"> F  </i>
   <v name="RWIGS">     -1.00000000     -1.00000000     -1.00000000     -1.00000000</v>
   <i type="int" name="NEDOS">   301</i>
   <i name="EMIN">     10.00000000</i>
   <i name="EMAX">    -10.00000000</i>
   <i name="EFERMI">      0.00000000</i>
  </separator>
  <separator name="writing" >
   <i type="int" name="NWRITE">     2</i>
   <i type="logical" name="LWAVE"> T  </i>
   <i type="logical" name="LCHARG"> T  </i>
   <i type="logical" name="LPARD"> F  </i>
   <i type="logical" name="LVTOT"> F  </i>
   <i type="logical" name="LVHAR"> F  </i>
   <i type="logical" name="LELF"> F  </i>
   <i type="logical" name="LOPTICS"> F  </i>
   <v name="STM">      0.00000000      0.00000000      0.00000000      0.00000000      0.00000000      0.00000000      0.00000000</v>
  </separator>
  <separator name="performance" >
   <i type="int" name="NPAR">     2</i>
   <i type="int" name="NSIM">     4</i>
   <i type="int" name="NBLK">    -1</i>
   <i type="logical" name="LPLANE"> T  </i>
   <i type="logical" name="LSCALAPACK"> T  </i>
   <i type="logical" name="LSCAAWARE"> F  </i>
   <i type="logical" name="LSCALU"> F  </i>
   <i type="logical" name="LASYNC"> F  </i>
   <i type="logical" name="LORBITALREAL"> F  </i>
  </separator>
  <separator name="miscellaneous" >
   <i type="int" name="IDIOT">     3</i>
   <i type="logical" name="LMUSIC"> F  </i>
   <v name="POMASS">     87.62000000     47.88000000     55.84700000     16.00000000</v>
   <v name="DARWINR">      0.00000000      0.00000000      0.00000000      0.00000000</v>
   <v name="DARWINV">      1.00000000      1.00000000      1.00000000      1.00000000</v>
   <i type="logical" name="LCORR"> T  </i>
  </separator>
  <i type="logical" name="GGA_COMPAT"> T  </i>
  <i type="logical" name="LBERRY"> F  </i>
  <i type="int" name="ICORELEVEL">     0</i>
  <i type="logical" name="LDAU"> T  </i>
  <v type="int" name="LDAUTYPE">     2</v>
  <v type="int" name="LDAUL">     0</v>
  <v name="LDAUU">      0.00000000</v>
  <v name="LDAUJ">      0.00000000</v>
  <i type="int" name="LDAUPRINT">     1</i>
  <i type="int" name="I_CONSTRAINED_M">     0</i>
  <separator name="electronic exchange-correlation" >
   <i type="string" name="GGA">--</i>
   <i type="int" name="VOSKOWN">     0</i>
   <i type="logical" name="LHFCALC"> F  </i>
   <i type="string" name="PRECFOCK"></i>
   <i type="logical" name="LSYMGRAD"> F  </i>
   <i type="logical" name="LHFONE"> F  </i>
   <i type="logical" name="LRHFCALC"> F  </i>
   <i type="logical" name="LTHOMAS"> F  </i>
   <i type="logical" name="LMODELHF"> F  </i>
   <i name="ENCUT4O">     -1.00000000</i>
   <i type="int" name="EXXOEP">     0</i>
   <i type="int" name="FOURORBIT">     0</i>
   <i name="AEXX">      0.00000000</i>
   <i name="HFALPHA">      0.00000000</i>
   <i name="MCALPHA">      0.00000000</i>
   <i name="ALDAX">      1.00000000</i>
   <i name="AGGAX">      1.00000000</i>
   <i name="ALDAC">      1.00000000</i>
   <i name="AGGAC">      1.00000000</i>
   <i type="int" name="NKREDX">     1</i>
   <i type="int" name="NKREDY">     1</i>
   <i type="int" name="NKREDZ">     1</i>
   <i type="logical" name="SHIFTRED"> F  </i>
   <i type="logical" name="ODDONLY"> F  </i>
   <i type="logical" name="EVENONLY"> F  </i>
   <i type="int" name="LMAXFOCK">     0</i>
   <i type="int" name="NMAXFOCKAE">     0</i>
   <i type="logical" name="LFOCKAEDFT"> F  </i>
   <i name="HFSCREEN">      0.00000000</i>
   <i name="HFSCREENC">      0.00000000</i>
   <i type="int" name="NBANDSGWLOW">     0</i>
  </separator>
  <separator name="vdW DFT" >
   <i type="logical" name="LUSE_VDW"> F  </i>
   <i name="Zab_VDW">     -0.84910000</i>
   <i name="PARAM1">      0.12340000</i>
   <i name="PARAM2">      1.00000000</i>
   <i name="PARAM3">      0.00000000</i>
  </separator>
  <separator name="model GW" >
   <i type="int" name="MODEL_GW">     0</i>
   <i name="MODEL_EPS0">      8.12115031</i>
   <i name="MODEL_ALPHA">      1.00000000</i>
  </separator>
  <separator name="linear response parameters" >
   <i type="logical" name="LEPSILON"> F  </i>
   <i type="logical" name="LRPA"> F  </i>
   <i type="logical" name="LNABLA"> F  </i>
   <i type="logical" name="LVEL"> F  </i>
   <i type="int" name="KINTER">     0</i>
   <i name="CSHIFT">      0.10000000</i>
   <i name="OMEGAMAX">     -1.00000000</i>
   <i name="DEG_THRESHOLD">      0.00200000</i>
  </separator>
  <separator name="orbital magnetization" >
   <i type="logical" name="NUCIND"> F  </i>
   <v name="MAGPOS">      0.00000000      0.00000000      0.00000000</v>
   <i type="logical" name="LNICSALL"> T  </i>
   <i type="logical" name="ORBITALMAG"> F  </i>
   <i type="logical" name="LMAGBLOCH"> F  </i>
   <i type="logical" name="LCHIMAG"> F  </i>
   <i type="logical" name="LGAUGE"> T  </i>
   <i type="int" name="MAGATOM">     0</i>
   <v name="MAGDIPOL">      0.00000000      0.00000000      0.00000000</v>
   <v name="AVECCONST">      0.00000000      0.00000000      0.00000000</v>
  </separator>
  <separator name="response functions" >
   <i type="logical" name="LADDER"> F  </i>
   <i type="logical" name="LFXC"> F  </i>
   <i type="logical" name="LHARTREE"> T  </i>
   <i type="int" name="IBSE">     0</i>
   <v type="int" name="KPOINT">    -1     0     0     0</v>
   <i type="logical" name="LTCTE"> F  </i>
   <i type="logical" name="LTETE"> F  </i>
   <i type="logical" name="LTRIPLET"> F  </i>
   <i type="logical" name="LFXCEPS"> F  </i>
   <i type="logical" name="LFXHEG"> F  </i>
   <i type="int" name="NATURALO">     0</i>
   <i type="logical" name="L2ORDER"> F  </i>
   <i type="logical" name="LUSEW"> F  </i>
   <i name="ENCUTGW">     -2.00000000</i>
   <i name="ENCUTGWSOFT">     -2.00000000</i>
   <i name="ENCUTLF">     -1.00000000</i>
   <i type="int" name="LMAXMP2">    -1</i>
   <i name="SCISSOR">      0.00000000</i>
   <i type="int" name="NOMEGA">     0</i>
   <i type="int" name="NOMEGAR">     0</i>
   <i type="int" name="NBANDSGW">    -1</i>
   <i type="int" name="NBANDSO">    -1</i>
   <i type="int" name="NBANDSV">    -1</i>
   <i type="int" name="NELM">    40</i>
   <i type="int" name="NELMHF">     1</i>
   <i type="int" name="DIM">     3</i>
   <i type="int" name="ANTIRES">     0</i>
   <i name="OMEGAMAX">    -30.00000000</i>
   <i name="OMEGAMIN">    -30.00000000</i>
   <i name="OMEGATL">   -200.00000000</i>
   <i type="int" name="OMEGAGRID">     0</i>
   <i name="CSHIFT">     -0.10000000</i>
   <i type="logical" name="SELFENERGY"> F  </i>
   <i type="logical" name="LSPECTRAL"> F  </i>
   <i type="logical" name="LSPECTRALGW"> F  </i>
   <i type="logical" name="LSINGLES"> F  </i>
   <i type="logical" name="LFERMIGW"> F  </i>
   <i type="logical" name="ODDONLYGW"> F  </i>
   <i type="logical" name="EVENONLYGW"> F  </i>
   <i type="int" name="NKREDLFX">     1</i>
   <i type="int" name="NKREDLFY">     1</i>
   <i type="int" name="NKREDLFZ">     1</i>
   <i type="int" name="MAXMEM">  1800</i>
   <i type="int" name="TELESCOPE">     0</i>
   <i type="int" name="TAUPAR">     1</i>
   <i type="int" name="OMEGAPAR">    -1</i>
   <i name="LAMBDA">      1.00000000</i>
  </separator>
  <separator name="External order field" >
   <i name="OFIELD_KAPPA">      0.00000000</i>
   <v name="OFIELD_K">      0.00000000      0.00000000      0.00000000</v>
   <i name="OFIELD_Q6_NEAR">      0.00000000</i>
   <i name="OFIELD_Q6_FAR">      0.00000000</i>
   <i name="OFIELD_A">      0.00000000</i>
  </separator>
 </parameters>
 <atominfo>
  <atoms>     148 </atoms>
  <types>       4 </types>
  <array name="atoms" >
   <dimension dim="1">ion</dimension>
   <field type="string">element</field>
   <field type="int">atomtype</field>
   <set>
    <rc><c>Sr</c><c>   1</c></rc>
    <rc><c>Sr</c><c>   1</c></rc>
    <rc><c>Sr</c><c>   1</c></rc>
    <rc><c>Sr</c><c>   1</c></rc>
    <rc><c>Sr</c><c>   1</c></rc>
    <rc><c>Sr</c><c>   1</c></rc>
    <rc><c>Sr</c><c>   1</c></rc>
    <rc><c>Sr</c><c>   1</c></rc>
    <rc><c>Sr</c><c>   1</c></rc>
    <rc><c>Sr</c><c>   1</c></rc>
    <rc><c>Sr</c><c>   1</c></rc>
    <rc><c>Sr</c><c>   1</c></rc>
    <rc><c>Sr</c><c>   1</c></rc>
    <rc><c>Sr</c><c>   1</c></rc>
    <rc><c>Sr</c><c>   1</c></rc>
    <rc><c>Sr</c><c>   1</c></rc>
    <rc><c>Sr</c><c>   1</c></rc>
    <rc><c>Sr</c><c>   1</c></rc>
    <rc><c>Sr</c><c>   1</c></rc>
    <rc><c>Sr</c><c>   1</c></rc>
    <rc><c>Sr</c><c>   1</c></rc>
    <rc><c>Sr</c><c>   1</c></rc>
    <rc><c>Sr</c><c>   1</c></rc>
    <rc><c>Sr</c><c>   1</c></rc>
    <rc><c>Sr</c><c>   1</c></rc>
    <rc><c>Sr</c><c>   1</c></rc>
    <rc><c>Sr</c><c>   1</c></rc>
    <rc><c>Sr</c><c>   1</c></rc>
    <rc><c>Sr</c><c>   1</c></rc>
    <rc><c>Sr</c><c>   1</c></rc>
    <rc><c>Sr</c><c>   1</c></rc>
    <rc><c>Sr</c><c>   1</c></rc>
    <rc><c>Ti</c><c>   2</c></rc>
    <rc><c>Ti</c><c>   2</c></rc>
    <rc><c>Ti</c><c>   2</c></rc>
    <rc><c>Ti</c><c>   2</c></rc>
    <rc><c>Ti</c><c>   2</c></rc>
    <rc><c>Ti</c><c>   2</c></rc>
    <rc><c>Ti</c><c>   2</c></rc>
    <rc><c>Ti</c><c>   2</c></rc>
    <rc><c>Fe</c><c>   3</c></rc>
    <rc><c>Fe</c><c>   3</c></rc>
    <rc><c>Fe</c><c>   3</c></rc>
    <rc><c>Fe</c><c>   3</c></rc>
    <rc><c>Fe</c><c>   3</c></rc>
    <rc><c>Fe</c><c>   3</c></rc>
    <rc><c>Fe</c><c>   3</c></rc>
    <rc><c>Fe</c><c>   3</c></rc>
    <rc><c>Fe</c><c>   3</c></rc>
    <rc><c>Fe</c><c>   3</c></rc>
    <rc><c>Fe</c><c>   3</c></rc>
    <rc><c>Fe</c><c>   3</c></rc>
    <rc><c>Fe</c><c>   3</c></rc>
    <rc><c>Fe</c><c>   3</c></rc>
    <rc><c>Fe</c><c>   3</c></rc>
    <rc><c>Fe</c><c>   3</c></rc>
    <rc><c>Fe</c><c>   3</c></rc>
    <rc><c>Fe</c><c>   3</c></rc>
    <rc><c>Fe</c><c>   3</c></rc>
    <rc><c>Fe</c><c>   3</c></rc>
    <rc><c>Fe</c><c>   3</c></rc>
    <rc><c>Fe</c><c>   3</c></rc>
    <rc><c>Fe</c><c>   3</c></rc>
    <rc><c>Fe</c><c>   3</c></rc>
    <rc><c>O </c><c>   4</c></rc>
    <rc><c>O </c><c>   4</c></rc>
    <rc><c>O </c><c>   4</c></rc>
    <rc><c>O </c><c>   4</c></rc>
    <rc><c>O </c><c>   4</c></rc>
    <rc><c>O </c><c>   4</c></rc>
    <rc><c>O </c><c>   4</c></rc>
    <rc><c>O </c><c>   4</c></rc>
    <rc><c>O </c><c>   4</c></rc>
    <rc><c>O </c><c>   4</c></rc>
    <rc><c>O </c><c>   4</c></rc>
    <rc><c>O </c><c>   4</c></rc>
    <rc><c>O </c><c>   4</c></rc>
    <rc><c>O </c><c>   4</c></rc>
    <rc><c>O </c><c>   4</c></rc>
    <rc><c>O </c><c>   4</c></rc>
    <rc><c>O </c><c>   4</c></rc>
    <rc><c>O </c><c>   4</c></rc>
    <rc><c>O </c><c>   4</c></rc>
    <rc><c>O </c><c>   4</c></rc>
    <rc><c>O </c><c>   4</c></rc>
    <rc><c>O </c><c>   4</c></rc>
    <rc><c>O </c><c>   4</c></rc>
    <rc><c>O </c><c>   4</c></rc>
    <rc><c>O </c><c>   4</c></rc>
    <rc><c>O </c><c>   4</c></rc>
    <rc><c>O </c><c>   4</c></rc>
    <rc><c>O </c><c>   4</c></rc>
    <rc><c>O </c><c>   4</c></rc>
    <rc><c>O </c><c>   4</c></rc>
    <rc><c>O </c><c>   4</c></rc>
    <rc><c>O </c><c>   4</c></rc>
    <rc><c>O </c><c>   4</c></rc>
    <rc><c>O </c><c>   4</c></rc>
    <rc><c>O </c><c>   4</c></rc>
    <rc><c>O </c><c>   4</c></rc>
    <rc><c>O </c><c>   4</c></rc>
    <rc><c>O </c><c>   4</c></rc>
    <rc><c>O </c><c>   4</c></rc>
    <rc><c>O </c><c>   4</c></rc>
    <rc><c>O </c><c>   4</c></rc>
    <rc><c>O </c><c>   4</c></rc>
    <rc><c>O </c><c>   4</c></rc>
    <rc><c>O </c><c>   4</c></rc>
    <rc><c>O </c><c>   4</c></rc>
    <rc><c>O </c><c>   4</c></rc>
    <rc><c>O </c><c>   4</c></rc>
    <rc><c>O </c><c>   4</c></rc>
    <rc><c>O </c><c>   4</c></rc>
    <rc><c>O </c><c>   4</c></rc>
    <rc><c>O </c><c>   4</c></rc>
    <rc><c>O </c><c>   4</c></rc>
    <rc><c>O </c><c>   4</c></rc>
    <rc><c>O </c><c>   4</c></rc>
    <rc><c>O </c><c>   4</c></rc>
    <rc><c>O </c><c>   4</c></rc>
    <rc><c>O </c><c>   4</c></rc>
    <rc><c>O </c><c>   4</c></rc>
    <rc><c>O </c><c>   4</c></rc>
    <rc><c>O </c><c>   4</c></rc>
    <rc><c>O </c><c>   4</c></rc>
    <rc><c>O </c><c>   4</c></rc>
    <rc><c>O </c><c>   4</c></rc>
    <rc><c>O </c><c>   4</c></rc>
    <rc><c>O </c><c>   4</c></rc>
    <rc><c>O </c><c>   4</c></rc>
    <rc><c>O </c><c>   4</c></rc>
    <rc><c>O </c><c>   4</c></rc>
    <rc><c>O </c><c>   4</c></rc>
    <rc><c>O </c><c>   4</c></rc>
    <rc><c>O </c><c>   4</c></rc>
    <rc><c>O </c><c>   4</c></rc>
    <rc><c>O </c><c>   4</c></rc>
    <rc><c>O </c><c>   4</c></rc>
    <rc><c>O </c><c>   4</c></rc>
    <rc><c>O </c><c>   4</c></rc>
    <rc><c>O </c><c>   4</c></rc>
    <rc><c>O </c><c>   4</c></rc>
    <rc><c>O </c><c>   4</c></rc>
    <rc><c>O </c><c>   4</c></rc>
    <rc><c>O </c><c>   4</c></rc>
    <rc><c>O </c><c>   4</c></rc>
    <rc><c>O </c><c>   4</c></rc>
    <rc><c>O </c><c>   4</c></rc>
   </set>
  </array>
  <array name="atomtypes" >
   <dimension dim="1">type</dimension>
   <field type="int">atomspertype</field>
   <field type="string">element</field>
   <field>mass</field>
   <field>valence</field>
   <field type="string">pseudopotential</field>
   <set>
    <rc><c>  32</c><c>Sr</c><c>     87.62000000</c><c>     10.00000000</c><c>  PAW_PBE Sr_sv 07Sep2000               </c></rc>
    <rc><c>   8</c><c>Ti</c><c>     47.88000000</c><c>      4.00000000</c><c>  PAW_PBE Ti 08Apr2002                  </c></rc>
    <rc><c>  24</c><c>Fe</c><c>     55.84700000</c><c>      8.00000000</c><c>  PAW_PBE Fe 06Sep2000                  </c></rc>
    <rc><c>  84</c><c>O </c><c>     16.00000000</c><c>      6.00000000</c><c>  PAW_PBE O 08Apr2002                   </c></rc>
   </set>
  </array>
 </atominfo>
 <structure name="initialpos" >
  <crystal>
   <varray name="basis" >
    <v>      11.38116255       0.00277152       0.00210380 </v>
    <v>       0.00277286      11.37807897       0.00024593 </v>
    <v>       0.00311079       0.00035628      15.46936497 </v>
   </varray>
   <i name="volume">   2003.21707669 </i>
   <varray name="rec_basis" >
    <v>       0.08786449      -0.00002141      -0.00001767 </v>
    <v>      -0.00002140       0.08788830      -0.00000202 </v>
    <v>      -0.00001195      -0.00000139       0.06464390 </v>
   </varray>
  </crystal>
  <varray name="positions" >
   <v>       0.00495250       0.25160446       0.12286110 </v>
   <v>       0.00349741       0.25189971       0.62316356 </v>
   <v>       0.98141499       0.74104015       0.12531271 </v>
   <v>       0.98612485       0.74427342       0.62387097 </v>
   <v>       0.49185639       0.23379559       0.12392378 </v>
   <v>       0.48635756       0.23658788       0.62441321 </v>
   <v>       0.51719863       0.76689346       0.12624261 </v>
   <v>       0.51731971       0.76715482       0.62561750 </v>
   <v>       0.00288578       0.25123019       0.37386870 </v>
   <v>       0.00745054       0.25123306       0.87993825 </v>
   <v>       0.98651265       0.74321844       0.37191638 </v>
   <v>       0.98379984       0.74258723       0.87890042 </v>
   <v>       0.49418804       0.23501199       0.37645397 </v>
   <v>       0.48574850       0.23490269       0.87504366 </v>
   <v>       0.51567256       0.76705106       0.37593449 </v>
   <v>       0.51715168       0.76720324       0.87235307 </v>
   <v>       0.24015302       0.01476944       0.12281366 </v>
   <v>       0.24413904       0.01924594       0.62544225 </v>
   <v>       0.23344430       0.48942357       0.12285407 </v>
   <v>       0.24000547       0.48564829       0.62516115 </v>
   <v>       0.76579261       0.00388096       0.12555852 </v>
   <v>       0.75655553       0.00902049       0.62212458 </v>
   <v>       0.76631890       0.49465775       0.12566430 </v>
   <v>       0.76087785       0.49234593       0.62320406 </v>
   <v>       0.24390625       0.01485648       0.37517869 </v>
   <v>       0.24323238       0.01970970       0.87627700 </v>
   <v>       0.23956635       0.48889021       0.37460606 </v>
   <v>       0.23703475       0.48607397       0.87740767 </v>
   <v>       0.76020505       0.00890115       0.37478401 </v>
   <v>       0.75906104       0.00413066       0.87832820 </v>
   <v>       0.76375792       0.49230831       0.37368216 </v>
   <v>       0.76150652       0.49420125       0.87703395 </v>
   <v>       0.00079598       0.00447908       0.49832450 </v>
   <v>       0.99887749       0.49591576       0.49805443 </v>
   <v>       0.75481332       0.24840085       0.25134533 </v>
   <v>       0.75127086       0.24837196       0.74889523 </v>
   <v>       0.00080593       0.00243350       0.75167789 </v>
   <v>       0.75352878       0.24791749       0.00029385 </v>
   <v>       0.99736162       0.49661650       0.75164041 </v>
   <v>       0.24668079       0.24973254       0.24969319 </v>
   <v>       0.50372698       0.00927655       0.74906883 </v>
   <v>       0.24570598       0.25007697       0.99962047 </v>
   <v>       0.00247618       0.00146765       0.24888754 </v>
   <v>       0.75879582       0.75486598       0.74914313 </v>
   <v>       0.75275463       0.25052176       0.49968453 </v>
   <v>       0.50365139       0.48406643       0.00071670 </v>
   <v>       0.23484047       0.75052649       0.99921691 </v>
   <v>       0.50530458       0.00760442       0.25025019 </v>
   <v>       0.23311106       0.74985417       0.50141727 </v>
   <v>       0.75615475       0.75524707       0.00016253 </v>
   <v>       0.75780294       0.75617980       0.49928869 </v>
   <v>       0.50471874       0.00693862       0.00029492 </v>
   <v>       0.50550411       0.00848186       0.50044531 </v>
   <v>       0.23496875       0.75222071       0.24883387 </v>
   <v>       0.23078847       0.75176604       0.74965150 </v>
   <v>       0.50238055       0.48525523       0.49957696 </v>
   <v>       0.00295697       0.00251894       0.00137788 </v>
   <v>       0.75736074       0.75446418       0.25163440 </v>
   <v>       0.24776616       0.24984109       0.50043040 </v>
   <v>       0.50545447       0.48391892       0.75047023 </v>
   <v>       0.24547309       0.25036365       0.75014258 </v>
   <v>       0.99767696       0.49652653       0.00115025 </v>
   <v>       0.99854240       0.49682695       0.24890883 </v>
   <v>       0.50328341       0.48285123       0.24937070 </v>
   <v>       0.46838487       0.97872226       0.62490510 </v>
   <v>       0.13503310       0.62700804       0.25131519 </v>
   <v>       0.12226828       0.63099264       0.74769202 </v>
   <v>       0.62048666       0.12608277       0.25061714 </v>
   <v>       0.87184038       0.87263214       0.99877505 </v>
   <v>       0.12220410       0.12516893       0.50019993 </v>
   <v>       0.50616965       0.54362356       0.12589100 </v>
   <v>       0.37546080       0.38455904       0.24963390 </v>
   <v>       0.37622986       0.38895078       0.75074812 </v>
   <v>       0.86590451       0.62107096       0.99969187 </v>
   <v>       0.60890584       0.85943450       0.25185710 </v>
   <v>       0.87886409       0.36645340       0.25068186 </v>
   <v>       0.88160567       0.36488825       0.75302400 </v>
   <v>       0.87554432       0.86942950       0.25413513 </v>
   <v>       0.88233508       0.86482992       0.74902946 </v>
   <v>       0.37179647       0.12364205       0.25084842 </v>
   <v>       0.36925847       0.11968215       0.74931898 </v>
   <v>       0.86891734       0.12038137       0.25080002 </v>
   <v>       0.86672727       0.61944944       0.25111045 </v>
   <v>       0.75282172       0.25043000       0.62516172 </v>
   <v>       0.61735135       0.13062679       0.74569320 </v>
   <v>       0.12925093       0.37739250       0.24998304 </v>
   <v>       0.63600082       0.39093492       0.25062866 </v>
   <v>       0.15167251       0.88876665       0.25070751 </v>
   <v>       0.14512017       0.88958089       0.74910654 </v>
   <v>       0.63857464       0.39122466       0.74833897 </v>
   <v>       0.11236357       0.13170246       0.74952824 </v>
   <v>       0.61377079       0.86357319       0.74816795 </v>
   <v>       0.37101247       0.39430070       0.99901783 </v>
   <v>       0.37168795       0.39213548       0.50117290 </v>
   <v>       0.86457345       0.61379067       0.74919543 </v>
   <v>       0.12068005       0.12854874       0.00098464 </v>
   <v>       0.87392717       0.36911643       0.99895144 </v>
   <v>       0.87808873       0.37482908       0.49750268 </v>
   <v>       0.87271749       0.87531820       0.49842649 </v>
   <v>       0.37489762       0.12419150       0.50020411 </v>
   <v>       0.13406852       0.62574772       0.99832545 </v>
   <v>       0.13670945       0.61992536       0.50233969 </v>
   <v>       0.62506339       0.12244290       0.50291658 </v>
   <v>       0.12136152       0.13252455       0.24935298 </v>
   <v>       0.12381367       0.37642516       0.00001415 </v>
   <v>       0.12320014       0.37601379       0.49949281 </v>
   <v>       0.14934301       0.88568476       0.99654571 </v>
   <v>       0.13758026       0.88014725       0.50384195 </v>
   <v>       0.73221832       0.72642190       0.12598309 </v>
   <v>       0.63446149       0.39404366       0.49946558 </v>
   <v>       0.00386731       0.50463674       0.37434901 </v>
   <v>       0.60849195       0.85903561       0.50063016 </v>
   <v>       0.51117727       0.54357115       0.87494223 </v>
   <v>       0.87071948       0.12389049       0.99986424 </v>
   <v>       0.87637514       0.12285189       0.49830500 </v>
   <v>       0.63095578       0.38509772       0.00120083 </v>
   <v>       0.87756902       0.62553125       0.49977286 </v>
   <v>       0.99805702       0.98950512       0.12550030 </v>
   <v>       0.99567985       0.99462653       0.62515496 </v>
   <v>       0.00065949       0.50426938       0.12528359 </v>
   <v>       0.99912457       0.50027589       0.62502528 </v>
   <v>       0.47048085       0.98094762       0.12618613 </v>
   <v>       0.25422444       0.25434791       0.37520475 </v>
   <v>       0.12644383       0.38298942       0.75047002 </v>
   <v>       0.50524210       0.54452037       0.62631987 </v>
   <v>       0.00322787       0.99359696       0.37482396 </v>
   <v>       0.99721996       0.99350752       0.87473358 </v>
   <v>       0.00013276       0.50524369       0.87509462 </v>
   <v>       0.47096841       0.98162960       0.37509755 </v>
   <v>       0.47312119       0.98143929       0.87386313 </v>
   <v>       0.49884400       0.54368057       0.37289716 </v>
   <v>       0.62526660       0.11996021       0.00063612 </v>
   <v>       0.37615802       0.12375183       0.99966365 </v>
   <v>       0.25229611       0.25317449       0.87421596 </v>
   <v>       0.29311842       0.74860313       0.37954061 </v>
   <v>       0.29476206       0.74193845       0.86965138 </v>
   <v>       0.74257039       0.24736280       0.37510938 </v>
   <v>       0.73973484       0.24638906       0.87438151 </v>
   <v>       0.86377960       0.11396476       0.75107593 </v>
   <v>       0.73246612       0.72556213       0.87306353 </v>
   <v>       0.25655867       0.25426211       0.12518561 </v>
   <v>       0.25111296       0.25442482       0.62537233 </v>
   <v>       0.29493491       0.74507977       0.12410796 </v>
   <v>       0.29336054       0.74467659       0.62652989 </v>
   <v>       0.74233066       0.24738777       0.12539335 </v>
   <v>       0.72838096       0.71864165       0.37736076 </v>
   <v>       0.60436945       0.85544812       0.99928696 </v>
   <v>       0.73292646       0.72205558       0.62377761 </v>
  </varray>
 </structure>
 <calculation>
  <scstep>
   <time name="dav">  297.37  297.39</time>
   <time name="total">  301.14  301.27</time>
   <energy>
    <i name="alphaZ">   5609.68514352 </i>
    <i name="ewald"> -62686.34771184 </i>
    <i name="hartreedc"> -19002.05950582 </i>
    <i name="XCdc">   3407.56936339 </i>
    <i name="pawpsdc"> 116223.45019544 </i>
    <i name="pawaedc">-115730.31703338 </i>
    <i name="eentropy">     -0.00000000 </i>
    <i name="bandstr">  -7128.76335915 </i>
    <i name="atom">  78316.90445604 </i>
    <i name="e_fr_energy">   -989.87845179 </i>
    <i name="e_wo_entrp">   -989.87845179 </i>
    <i name="e_0_energy">   -989.87845179 </i>
   </energy>
  </scstep>
  <scstep>
   <time name="diag">   33.15   33.16</time>
   <time name="diis">   30.15   30.15</time>
   <time name="orth">   18.84   18.84</time>
   <time name="total">   85.90   85.97</time>
   <energy>
    <i name="e_fr_energy">   -989.87845212 </i>
    <i name="e_wo_entrp">   -989.87845212 </i>
    <i name="e_0_energy">   -989.87845212 </i>
   </energy>
  </scstep>
  <scstep>
   <time name="diag">   33.19   33.19</time>
   <time name="diis">   27.22   27.22</time>
   <time name="orth">   18.79   18.79</time>
   <time name="total">   82.95   82.98</time>
   <energy>
    <i name="e_fr_energy">   -989.87845222 </i>
    <i name="e_wo_entrp">   -989.87845222 </i>
    <i name="e_0_energy">   -989.87845222 </i>
   </energy>
  </scstep>
  <scstep>
   <time name="diag">   33.17   33.18</time>
   <time name="diis">   23.43   23.43</time>
   <time name="orth">   18.81   18.81</time>
   <time name="total">   79.18   79.24</time>
   <energy>
    <i name="e_fr_energy">   -989.87845231 </i>
    <i name="e_wo_entrp">   -989.87845231 </i>
    <i name="e_0_energy">   -989.87845231 </i>
   </energy>
  </scstep>
  <scstep>
   <time name="diag">   33.21   33.21</time>
   <time name="diis">   22.25   22.25</time>
   <time name="orth">   18.80   18.80</time>
   <time name="total">   78.01   78.04</time>
   <energy>
    <i name="e_fr_energy">   -989.87845237 </i>
    <i name="e_wo_entrp">   -989.87845237 </i>
    <i name="e_0_energy">   -989.87845237 </i>
   </energy>
  </scstep>
  <scstep>
   <time name="diag">   33.21   33.21</time>
   <time name="diis">   21.81   21.81</time>
   <time name="orth">   18.81   18.81</time>
   <time name="total">   77.58   77.60</time>
   <energy>
    <i name="e_fr_energy">   -989.87845238 </i>
    <i name="e_wo_entrp">   -989.87845238 </i>
    <i name="e_0_energy">   -989.87845238 </i>
   </energy>
  </scstep>
  <scstep>
   <time name="diag">   33.23   33.23</time>
   <time name="diis">   21.64   21.64</time>
   <time name="orth">   18.81   18.81</time>
   <time name="total">   77.40   77.47</time>
   <energy>
    <i name="e_fr_energy">   -989.87845239 </i>
    <i name="e_wo_entrp">   -989.87845239 </i>
    <i name="e_0_energy">   -989.87845239 </i>
   </energy>
  </scstep>
  <scstep>
   <time name="diag">   33.27   33.27</time>
   <time name="diis">   21.47   21.47</time>
   <time name="orth">   18.83   18.83</time>
   <time name="total">   74.14   74.16</time>
   <energy>
    <i name="alphaZ">   5609.68514352 </i>
    <i name="ewald"> -62686.34771184 </i>
    <i name="hartreedc"> -19002.05318751 </i>
    <i name="XCdc">   3407.56877286 </i>
    <i name="pawpsdc"> 116222.77428012 </i>
    <i name="pawaedc">-115729.63667569 </i>
    <i name="eentropy">     -0.00000000 </i>
    <i name="bandstr">  -7128.77352990 </i>
    <i name="atom">  78316.90445604 </i>
    <i name="e_fr_energy">   -989.87845239 </i>
    <i name="e_wo_entrp">   -989.87845239 </i>
    <i name="e_0_energy">   -989.87845239 </i>
   </energy>
  </scstep>
  <structure>
   <crystal>
    <varray name="basis" >
     <v>      11.38116255       0.00277152       0.00210380 </v>
     <v>       0.00277286      11.37807897       0.00024593 </v>
     <v>       0.00311079       0.00035628      15.46936497 </v>
    </varray>
    <i name="volume">   2003.21707669 </i>
    <varray name="rec_basis" >
     <v>       0.08786449      -0.00002141      -0.00001767 </v>
     <v>      -0.00002140       0.08788830      -0.00000202 </v>
     <v>      -0.00001195      -0.00000139       0.06464390 </v>
    </varray>
   </crystal>
   <varray name="positions" >
    <v>       0.00495250       0.25160446       0.12286110 </v>
    <v>       0.00349741       0.25189971       0.62316356 </v>
    <v>       0.98141499       0.74104015       0.12531271 </v>
    <v>       0.98612485       0.74427342       0.62387097 </v>
    <v>       0.49185639       0.23379559       0.12392378 </v>
    <v>       0.48635756       0.23658788       0.62441321 </v>
    <v>       0.51719863       0.76689346       0.12624261 </v>
    <v>       0.51731971       0.76715482       0.62561750 </v>
    <v>       0.00288578       0.25123019       0.37386870 </v>
    <v>       0.00745054       0.25123306       0.87993825 </v>
    <v>       0.98651265       0.74321844       0.37191638 </v>
    <v>       0.98379984       0.74258723       0.87890042 </v>
    <v>       0.49418804       0.23501199       0.37645397 </v>
    <v>       0.48574850       0.23490269       0.87504366 </v>
    <v>       0.51567256       0.76705106       0.37593449 </v>
    <v>       0.51715168       0.76720324       0.87235307 </v>
    <v>       0.24015302       0.01476944       0.12281366 </v>
    <v>       0.24413904       0.01924594       0.62544225 </v>
    <v>       0.23344430       0.48942357       0.12285407 </v>
    <v>       0.24000547       0.48564829       0.62516115 </v>
    <v>       0.76579261       0.00388096       0.12555852 </v>
    <v>       0.75655553       0.00902049       0.62212458 </v>
    <v>       0.76631890       0.49465775       0.12566430 </v>
    <v>       0.76087785       0.49234593       0.62320406 </v>
    <v>       0.24390625       0.01485648       0.37517869 </v>
    <v>       0.24323238       0.01970970       0.87627700 </v>
    <v>       0.23956635       0.48889021       0.37460606 </v>
    <v>       0.23703475       0.48607397       0.87740767 </v>
    <v>       0.76020505       0.00890115       0.37478401 </v>
    <v>       0.75906104       0.00413066       0.87832820 </v>
    <v>       0.76375792       0.49230831       0.37368216 </v>
    <v>       0.76150652       0.49420125       0.87703395 </v>
    <v>       0.00079598       0.00447908       0.49832450 </v>
    <v>       0.99887749       0.49591576       0.49805443 </v>
    <v>       0.75481332       0.24840085       0.25134533 </v>
    <v>       0.75127086       0.24837196       0.74889523 </v>
    <v>       0.00080593       0.00243350       0.75167789 </v>
    <v>       0.75352878       0.24791749       0.00029385 </v>
    <v>       0.99736162       0.49661650       0.75164041 </v>
    <v>       0.24668079       0.24973254       0.24969319 </v>
    <v>       0.50372698       0.00927655       0.74906883 </v>
    <v>       0.24570598       0.25007697       0.99962047 </v>
    <v>       0.00247618       0.00146765       0.24888754 </v>
    <v>       0.75879582       0.75486598       0.74914313 </v>
    <v>       0.75275463       0.25052176       0.49968453 </v>
    <v>       0.50365139       0.48406643       0.00071670 </v>
    <v>       0.23484047       0.75052649       0.99921691 </v>
    <v>       0.50530458       0.00760442       0.25025019 </v>
    <v>       0.23311106       0.74985417       0.50141727 </v>
    <v>       0.75615475       0.75524707       0.00016253 </v>
    <v>       0.75780294       0.75617980       0.49928869 </v>
    <v>       0.50471874       0.00693862       0.00029492 </v>
    <v>       0.50550411       0.00848186       0.50044531 </v>
    <v>       0.23496875       0.75222071       0.24883387 </v>
    <v>       0.23078847       0.75176604       0.74965150 </v>
    <v>       0.50238055       0.48525523       0.49957696 </v>
    <v>       0.00295697       0.00251894       0.00137788 </v>
    <v>       0.75736074       0.75446418       0.25163440 </v>
    <v>       0.24776616       0.24984109       0.50043040 </v>
    <v>       0.50545447       0.48391892       0.75047023 </v>
    <v>       0.24547309       0.25036365       0.75014258 </v>
    <v>       0.99767696       0.49652653       0.00115025 </v>
    <v>       0.99854240       0.49682695       0.24890883 </v>
    <v>       0.50328341       0.48285123       0.24937070 </v>
    <v>       0.46838487       0.97872226       0.62490510 </v>
    <v>       0.13503310       0.62700804       0.25131519 </v>
    <v>       0.12226828       0.63099264       0.74769202 </v>
    <v>       0.62048666       0.12608277       0.25061714 </v>
    <v>       0.87184038       0.87263214       0.99877505 </v>
    <v>       0.12220410       0.12516893       0.50019993 </v>
    <v>       0.50616965       0.54362356       0.12589100 </v>
    <v>       0.37546080       0.38455904       0.24963390 </v>
    <v>       0.37622986       0.38895078       0.75074812 </v>
    <v>       0.86590451       0.62107096       0.99969187 </v>
    <v>       0.60890584       0.85943450       0.25185710 </v>
    <v>       0.87886409       0.36645340       0.25068186 </v>
    <v>       0.88160567       0.36488825       0.75302400 </v>
    <v>       0.87554432       0.86942950       0.25413513 </v>
    <v>       0.88233508       0.86482992       0.74902946 </v>
    <v>       0.37179647       0.12364205       0.25084842 </v>
    <v>       0.36925847       0.11968215       0.74931898 </v>
    <v>       0.86891734       0.12038137       0.25080002 </v>
    <v>       0.86672727       0.61944944       0.25111045 </v>
    <v>       0.75282172       0.25043000       0.62516172 </v>
    <v>       0.61735135       0.13062679       0.74569320 </v>
    <v>       0.12925093       0.37739250       0.24998304 </v>
    <v>       0.63600082       0.39093492       0.25062866 </v>
    <v>       0.15167251       0.88876665       0.25070751 </v>
    <v>       0.14512017       0.88958089       0.74910654 </v>
    <v>       0.63857464       0.39122466       0.74833897 </v>
    <v>       0.11236357       0.13170246       0.74952824 </v>
    <v>       0.61377079       0.86357319       0.74816795 </v>
    <v>       0.37101247       0.39430070       0.99901783 </v>
    <v>       0.37168795       0.39213548       0.50117290 </v>
    <v>       0.86457345       0.61379067       0.74919543 </v>
    <v>       0.12068005       0.12854874       0.00098464 </v>
    <v>       0.87392717       0.36911643       0.99895144 </v>
    <v>       0.87808873       0.37482908       0.49750268 </v>
    <v>       0.87271749       0.87531820       0.49842649 </v>
    <v>       0.37489762       0.12419150       0.50020411 </v>
    <v>       0.13406852       0.62574772       0.99832545 </v>
    <v>       0.13670945       0.61992536       0.50233969 </v>
    <v>       0.62506339       0.12244290       0.50291658 </v>
    <v>       0.12136152       0.13252455       0.24935298 </v>
    <v>       0.12381367       0.37642516       0.00001415 </v>
    <v>       0.12320014       0.37601379       0.49949281 </v>
    <v>       0.14934301       0.88568476       0.99654571 </v>
    <v>       0.13758026       0.88014725       0.50384195 </v>
    <v>       0.73221832       0.72642190       0.12598309 </v>
    <v>       0.63446149       0.39404366       0.49946558 </v>
    <v>       0.00386731       0.50463674       0.37434901 </v>
    <v>       0.60849195       0.85903561       0.50063016 </v>
    <v>       0.51117727       0.54357115       0.87494223 </v>
    <v>       0.87071948       0.12389049       0.99986424 </v>
    <v>       0.87637514       0.12285189       0.49830500 </v>
    <v>       0.63095578       0.38509772       0.00120083 </v>
    <v>       0.87756902       0.62553125       0.49977286 </v>
    <v>       0.99805702       0.98950512       0.12550030 </v>
    <v>       0.99567985       0.99462653       0.62515496 </v>
    <v>       0.00065949       0.50426938       0.12528359 </v>
    <v>       0.99912457       0.50027589       0.62502528 </v>
    <v>       0.47048085       0.98094762       0.12618613 </v>
    <v>       0.25422444       0.25434791       0.37520475 </v>
    <v>       0.12644383       0.38298942       0.75047002 </v>
    <v>       0.50524210       0.54452037       0.62631987 </v>
    <v>       0.00322787       0.99359696       0.37482396 </v>
    <v>       0.99721996       0.99350752       0.87473358 </v>
    <v>       0.00013276       0.50524369       0.87509462 </v>
    <v>       0.47096841       0.98162960       0.37509755 </v>
    <v>       0.47312119       0.98143929       0.87386313 </v>
    <v>       0.49884400       0.54368057       0.37289716 </v>
    <v>       0.62526660       0.11996021       0.00063612 </v>
    <v>       0.37615802       0.12375183       0.99966365 </v>
    <v>       0.25229611       0.25317449       0.87421596 </v>
    <v>       0.29311842       0.74860313       0.37954061 </v>
    <v>       0.29476206       0.74193845       0.86965138 </v>
    <v>       0.74257039       0.24736280       0.37510938 </v>
    <v>       0.73973484       0.24638906       0.87438151 </v>
    <v>       0.86377960       0.11396476       0.75107593 </v>
    <v>       0.73246612       0.72556213       0.87306353 </v>
    <v>       0.25655867       0.25426211       0.12518561 </v>
    <v>       0.25111296       0.25442482       0.62537233 </v>
    <v>       0.29493491       0.74507977       0.12410796 </v>
    <v>       0.29336054       0.74467659       0.62652989 </v>
    <v>       0.74233066       0.24738777       0.12539335 </v>
    <v>       0.72838096       0.71864165       0.37736076 </v>
    <v>       0.60436945       0.85544812       0.99928696 </v>
    <v>       0.73292646       0.72205558       0.62377761 </v>
   </varray>
  </structure>
  <varray name="forces" >
   <v>      -0.00878944      -0.00111485       0.00257385 </v>
   <v>      -0.00191169      -0.00389872       0.00986810 </v>
   <v>       0.00324763       0.00029557      -0.01036489 </v>
   <v>      -0.00600400      -0.01099924      -0.00042102 </v>
   <v>       0.00419325       0.00431075      -0.00590736 </v>
   <v>      -0.00394828       0.00458105      -0.00157758 </v>
   <v>       0.00942183       0.00396436      -0.00959619 </v>
   <v>       0.01038511       0.01089503      -0.00765789 </v>
   <v>      -0.00503390      -0.01200367      -0.00190684 </v>
   <v>      -0.00047950      -0.00470248      -0.00625589 </v>
   <v>       0.00289474      -0.00322555       0.00964610 </v>
   <v>      -0.00380768      -0.00689808      -0.00133261 </v>
   <v>      -0.00725188      -0.00263661       0.00346165 </v>
   <v>       0.00765454       0.00347467       0.00946855 </v>
   <v>       0.01773775       0.01663435       0.00807421 </v>
   <v>       0.01202312       0.00347939       0.00712133 </v>
   <v>      -0.00441907       0.01489959      -0.00043611 </v>
   <v>       0.00096280       0.01117859       0.00063218 </v>
   <v>      -0.00454797      -0.00441125       0.00470546 </v>
   <v>      -0.00665522      -0.00565400       0.00072580 </v>
   <v>      -0.00708960       0.00056975       0.00062511 </v>
   <v>      -0.00521125      -0.00834363       0.01218551 </v>
   <v>      -0.00158742      -0.00337951       0.00194462 </v>
   <v>       0.00890728      -0.00087714      -0.00241247 </v>
   <v>      -0.00985474       0.00875850       0.00068183 </v>
   <v>      -0.00235695       0.00598997      -0.00014725 </v>
   <v>      -0.00677697      -0.00040802       0.00195072 </v>
   <v>      -0.01180613      -0.00733902      -0.00316707 </v>
   <v>      -0.01073002      -0.02267036      -0.01252570 </v>
   <v>      -0.00185509      -0.00722745      -0.00502570 </v>
   <v>      -0.00086028      -0.00105342      -0.00396291 </v>
   <v>       0.01106166       0.00034414      -0.00015368 </v>
   <v>       0.00444843      -0.00217590      -0.00653216 </v>
   <v>      -0.00598045       0.00256805       0.00281351 </v>
   <v>      -0.00583203      -0.00164537      -0.01196084 </v>
   <v>       0.00432019      -0.01527253       0.00798712 </v>
   <v>      -0.00119766       0.00400683       0.00735238 </v>
   <v>       0.00298552      -0.00648733      -0.01346062 </v>
   <v>       0.00363794      -0.00618123       0.00677094 </v>
   <v>      -0.00675901      -0.00069546      -0.00117384 </v>
   <v>       0.00395678       0.01360558      -0.01051916 </v>
   <v>      -0.01219758       0.00716385       0.01158303 </v>
   <v>       0.00450683       0.00228717      -0.00211376 </v>
   <v>       0.02181770      -0.00752690      -0.00680617 </v>
   <v>       0.00324331      -0.00478475      -0.00427771 </v>
   <v>      -0.00461365      -0.01238751      -0.00136607 </v>
   <v>      -0.01579950      -0.00905519      -0.00403740 </v>
   <v>      -0.00065802       0.01496559      -0.00066452 </v>
   <v>      -0.00988420      -0.00237577      -0.00546527 </v>
   <v>       0.01701353      -0.00404564      -0.00932293 </v>
   <v>      -0.00230526      -0.00438205       0.00824566 </v>
   <v>       0.01303115       0.00915707       0.01622023 </v>
   <v>       0.00029189      -0.00820924      -0.00471363 </v>
   <v>      -0.00203208      -0.00313243       0.00843110 </v>
   <v>      -0.00548698       0.00041083       0.01126211 </v>
   <v>       0.00645660      -0.00508681      -0.00666138 </v>
   <v>      -0.00786800      -0.00097757      -0.00013772 </v>
   <v>       0.00316036       0.00815291       0.01066096 </v>
   <v>      -0.01287209       0.00266580      -0.00528936 </v>
   <v>       0.00590098      -0.00029688      -0.00042445 </v>
   <v>      -0.00183965       0.01962847      -0.00270623 </v>
   <v>      -0.00968578      -0.00901186      -0.00874775 </v>
   <v>       0.00845091       0.00454837       0.00691323 </v>
   <v>       0.01156593      -0.01502454       0.00431340 </v>
   <v>       0.00747825      -0.01036880       0.00426469 </v>
   <v>      -0.00624844      -0.00661922      -0.00970679 </v>
   <v>       0.00139170      -0.00500155       0.00250066 </v>
   <v>       0.01302154      -0.00785781      -0.01837711 </v>
   <v>      -0.00119250       0.00364766       0.00661940 </v>
   <v>      -0.00782016       0.00039979       0.00653939 </v>
   <v>       0.00893529       0.00487177      -0.00465733 </v>
   <v>      -0.00652781       0.01310683       0.00201939 </v>
   <v>      -0.00581353       0.00726708      -0.00242334 </v>
   <v>      -0.01977146      -0.02079776       0.00321227 </v>
   <v>      -0.00670269      -0.00163360       0.00023328 </v>
   <v>      -0.00961138      -0.00404426       0.01264026 </v>
   <v>       0.00661441       0.01566461       0.00403023 </v>
   <v>      -0.00359782       0.01586564       0.00595088 </v>
   <v>       0.00539649       0.01712505       0.00416097 </v>
   <v>       0.00301816       0.00236815       0.00338150 </v>
   <v>       0.00749721       0.01609892      -0.00195414 </v>
   <v>       0.00910781       0.00870439      -0.00084541 </v>
   <v>       0.00826223      -0.00984843       0.00446217 </v>
   <v>       0.00959348      -0.00654070       0.00672479 </v>
   <v>       0.02970240       0.00706694      -0.00293786 </v>
   <v>      -0.00593885       0.01668937      -0.00033567 </v>
   <v>       0.00092293      -0.00966953      -0.00773549 </v>
   <v>      -0.00049697       0.01706383      -0.00295272 </v>
   <v>       0.00300092       0.02382956      -0.00091740 </v>
   <v>       0.01023307      -0.00671854      -0.00512282 </v>
   <v>      -0.00140284      -0.01439964       0.00102512 </v>
   <v>      -0.01178149      -0.00512363       0.00786973 </v>
   <v>       0.01350478       0.01712675       0.00329726 </v>
   <v>       0.00063921      -0.00516291      -0.00099910 </v>
   <v>       0.00308666       0.00764680      -0.01261146 </v>
   <v>       0.00808398      -0.00504381      -0.00312368 </v>
   <v>      -0.02011099      -0.00119106      -0.00031256 </v>
   <v>      -0.00750431      -0.00555806      -0.00821427 </v>
   <v>       0.00784302      -0.01327476       0.00500392 </v>
   <v>      -0.01288805       0.00089758       0.00042109 </v>
   <v>      -0.00359006       0.01624297       0.01109073 </v>
   <v>      -0.01690490       0.01292799       0.00379844 </v>
   <v>      -0.00186054      -0.00011060      -0.00281795 </v>
   <v>      -0.00427480      -0.00440826       0.00074026 </v>
   <v>      -0.00498636       0.00723431       0.00468652 </v>
   <v>       0.01674834      -0.01115765      -0.00264739 </v>
   <v>      -0.00558588      -0.00284598       0.00434295 </v>
   <v>      -0.00601349       0.01582889      -0.00644467 </v>
   <v>      -0.00281767       0.00801284      -0.00252281 </v>
   <v>       0.00013576      -0.02359656       0.00226837 </v>
   <v>       0.00501148       0.00698565       0.00009912 </v>
   <v>      -0.00873971      -0.00544402       0.00224938 </v>
   <v>       0.00920449       0.00710682       0.00400354 </v>
   <v>      -0.00451298      -0.00892055      -0.00397051 </v>
   <v>      -0.02172705      -0.01137168      -0.00288539 </v>
   <v>      -0.00508583      -0.00914414       0.00003100 </v>
   <v>      -0.02079032      -0.02032030       0.00219358 </v>
   <v>      -0.00424976       0.00762481       0.01304059 </v>
   <v>       0.00041024       0.00632193       0.00339234 </v>
   <v>      -0.00976278      -0.00411737       0.00819458 </v>
   <v>      -0.00267124      -0.00599936       0.00174715 </v>
   <v>      -0.00910045      -0.01618899      -0.00873924 </v>
   <v>       0.00023832      -0.00076674       0.00141424 </v>
   <v>       0.01570096       0.00875805       0.00305645 </v>
   <v>       0.00767549       0.00119991      -0.00687840 </v>
   <v>      -0.00121685       0.01500954      -0.00114821 </v>
   <v>       0.00986870       0.00452839      -0.02017939 </v>
   <v>       0.00152298      -0.00179387      -0.01244994 </v>
   <v>       0.00439735      -0.00206308      -0.00600165 </v>
   <v>       0.00032984      -0.00984230       0.00453078 </v>
   <v>       0.01401803      -0.00386806       0.00022236 </v>
   <v>       0.01005354       0.00982958       0.00095334 </v>
   <v>      -0.01335676      -0.00516408      -0.00041886 </v>
   <v>       0.00661710       0.00414112      -0.00482864 </v>
   <v>       0.00684507      -0.00586826       0.00308476 </v>
   <v>      -0.00144614      -0.00021197       0.00644733 </v>
   <v>      -0.00203866      -0.01169891       0.00282938 </v>
   <v>      -0.00126272      -0.00220864      -0.00874277 </v>
   <v>       0.01131946       0.00500076       0.00731308 </v>
   <v>      -0.01313299       0.00565259      -0.00185305 </v>
   <v>      -0.00047442      -0.00055081       0.00119292 </v>
   <v>       0.00450482       0.00725903       0.00927356 </v>
   <v>       0.01261722      -0.00068064      -0.00703955 </v>
   <v>       0.00598974       0.00047626      -0.00343976 </v>
   <v>       0.02340352       0.00442666       0.00681187 </v>
   <v>      -0.00191962       0.01029801      -0.00523057 </v>
   <v>      -0.00827528      -0.01054019       0.00137684 </v>
   <v>      -0.00802823       0.00449200      -0.00026315 </v>
  </varray>
  <varray name="stress" >
   <v>      -0.04995072      -0.11445674       0.06288685 </v>
   <v>      -0.11445694      -0.06322921      -0.00460283 </v>
   <v>       0.06288647      -0.00460293       0.31253784 </v>
  </varray>
  <energy>
   <i name="e_fr_energy">   -989.87845239 </i>
   <i name="e_wo_entrp">   -989.87845239 </i>
   <i name="e_0_energy">     -0.00000000 </i>
  </energy>
  <time name="totalsc"> 1007.28 1009.11</time>
 </calculation>
 <calculation>
  <scstep>
   <time name="dav">  283.38  283.39</time>
   <time name="total">  287.08  287.13</time>
   <energy>
    <i name="alphaZ">   5609.22944269 </i>
    <i name="ewald"> -62683.30491597 </i>
    <i name="hartreedc"> -19002.90179742 </i>
    <i name="XCdc">   3407.46150298 </i>
    <i name="pawpsdc"> 116222.77836964 </i>
    <i name="pawaedc">-115729.64086065 </i>
    <i name="eentropy">     -0.00000000 </i>
    <i name="bandstr">  -7130.40433038 </i>
    <i name="atom">  78316.90445604 </i>
    <i name="e_fr_energy">   -989.87813306 </i>
    <i name="e_wo_entrp">   -989.87813306 </i>
    <i name="e_0_energy">   -989.87813306 </i>
   </energy>
  </scstep>
  <scstep>
   <time name="diag">   33.10   33.10</time>
   <time name="diis">   52.08   52.09</time>
   <time name="orth">   18.79   18.78</time>
   <time name="total">  107.73  107.75</time>
   <energy>
    <i name="e_fr_energy">   -989.87944225 </i>
    <i name="e_wo_entrp">   -989.87944225 </i>
    <i name="e_0_energy">   -989.87944225 </i>
   </energy>
  </scstep>
  <scstep>
   <time name="diag">   33.13   33.13</time>
   <time name="diis">   42.20   42.20</time>
   <time name="orth">   18.80   18.80</time>
   <time name="total">   97.90   98.00</time>
   <energy>
    <i name="e_fr_energy">   -989.87956887 </i>
    <i name="e_wo_entrp">   -989.87956887 </i>
    <i name="e_0_energy">   -989.87956887 </i>
   </energy>
  </scstep>
  <scstep>
   <time name="diag">   33.13   33.12</time>
   <time name="diis">   32.33   32.34</time>
   <time name="orth">   18.79   18.79</time>
   <time name="total">   88.03   88.11</time>
   <energy>
    <i name="e_fr_energy">   -989.87953588 </i>
    <i name="e_wo_entrp">   -989.87953588 </i>
    <i name="e_0_energy">   -989.87953588 </i>
   </energy>
  </scstep>
  <scstep>
   <time name="diag">   33.10   33.10</time>
   <time name="diis">   31.83   31.83</time>
   <time name="orth">   18.81   18.81</time>
   <time name="total">   87.49   87.55</time>
   <energy>
    <i name="e_fr_energy">   -989.87951875 </i>
    <i name="e_wo_entrp">   -989.87951875 </i>
    <i name="e_0_energy">   -989.87951875 </i>
   </energy>
  </scstep>
  <scstep>
   <time name="diag">   33.12   33.12</time>
   <time name="diis">   31.45   31.45</time>
   <time name="orth">   18.78   18.78</time>
   <time name="total">   87.12   87.22</time>
   <energy>
    <i name="e_fr_energy">   -989.87952009 </i>
    <i name="e_wo_entrp">   -989.87952009 </i>
    <i name="e_0_energy">   -989.87952009 </i>
   </energy>
  </scstep>
  <scstep>
   <time name="diag">   33.13   33.13</time>
   <time name="diis">   30.11   30.11</time>
   <time name="orth">   18.77   18.77</time>
   <time name="total">   85.73   85.78</time>
   <energy>
    <i name="e_fr_energy">   -989.87952023 </i>
    <i name="e_wo_entrp">   -989.87952023 </i>
    <i name="e_0_energy">   -989.87952023 </i>
   </energy>
  </scstep>
  <scstep>
   <time name="diag">   33.11   33.11</time>
   <time name="diis">   27.71   27.71</time>
   <time name="orth">   18.79   18.79</time>
   <time name="total">   80.18   80.25</time>
   <energy>
    <i name="alphaZ">   5609.22944269 </i>
    <i name="ewald"> -62683.30491597 </i>
    <i name="hartreedc"> -19003.94484028 </i>
    <i name="XCdc">   3407.54841087 </i>
    <i name="pawpsdc"> 116222.07153986 </i>
    <i name="pawaedc">-115728.91753417 </i>
    <i name="eentropy">     -0.00000000 </i>
    <i name="bandstr">  -7129.46607911 </i>
    <i name="atom">  78316.90445604 </i>
    <i name="e_fr_energy">   -989.87952007 </i>
    <i name="e_wo_entrp">   -989.87952007 </i>
    <i name="e_0_energy">   -989.87952007 </i>
   </energy>
  </scstep>
  <structure>
   <crystal>
    <varray name="basis" >
     <v>      11.38093078       0.00224054       0.00239576 </v>
     <v>       0.00224205      11.37778564       0.00022468 </v>
     <v>       0.00350719       0.00032710      15.47133548 </v>
    </varray>
    <i name="volume">   2003.37982056 </i>
    <varray name="rec_basis" >
     <v>       0.08786628      -0.00001731      -0.00001992 </v>
     <v>      -0.00001730       0.08789057      -0.00000185 </v>
     <v>      -0.00001361      -0.00000127       0.06463566 </v>
    </varray>
   </crystal>
   <varray name="positions" >
    <v>       0.00491525       0.25159974       0.12286913 </v>
    <v>       0.00348930       0.25188318       0.62319433 </v>
    <v>       0.98142876       0.74104140       0.12528039 </v>
    <v>       0.98609941       0.74422679       0.62386966 </v>
    <v>       0.49187416       0.23381386       0.12390535 </v>
    <v>       0.48634082       0.23660731       0.62440829 </v>
    <v>       0.51723857       0.76691026       0.12621268 </v>
    <v>       0.51736372       0.76720100       0.62559361 </v>
    <v>       0.00286445       0.25117930       0.37386275 </v>
    <v>       0.00744851       0.25121312       0.87991874 </v>
    <v>       0.98652492       0.74320476       0.37194646 </v>
    <v>       0.98378371       0.74255799       0.87889627 </v>
    <v>       0.49415730       0.23500082       0.37646477 </v>
    <v>       0.48578094       0.23491741       0.87507319 </v>
    <v>       0.51574772       0.76712157       0.37595966 </v>
    <v>       0.51720263       0.76721798       0.87237527 </v>
    <v>       0.24013427       0.01483262       0.12281230 </v>
    <v>       0.24414311       0.01929334       0.62544422 </v>
    <v>       0.23342502       0.48940487       0.12286875 </v>
    <v>       0.23997727       0.48562432       0.62516342 </v>
    <v>       0.76576256       0.00388339       0.12556047 </v>
    <v>       0.75653343       0.00898512       0.62216259 </v>
    <v>       0.76631217       0.49464342       0.12567037 </v>
    <v>       0.76091561       0.49234220       0.62319653 </v>
    <v>       0.24386447       0.01489362       0.37518082 </v>
    <v>       0.24322239       0.01973510       0.87627654 </v>
    <v>       0.23953762       0.48888849       0.37461215 </v>
    <v>       0.23698471       0.48604286       0.87739780 </v>
    <v>       0.76015960       0.00880504       0.37474496 </v>
    <v>       0.75905319       0.00410002       0.87831253 </v>
    <v>       0.76375428       0.49230384       0.37366980 </v>
    <v>       0.76155341       0.49420269       0.87703346 </v>
    <v>       0.00081484       0.00446985       0.49830413 </v>
    <v>       0.99885214       0.49592665       0.49806321 </v>
    <v>       0.75478861       0.24839388       0.25130803 </v>
    <v>       0.75128918       0.24830720       0.74892014 </v>
    <v>       0.00080085       0.00245049       0.75170082 </v>
    <v>       0.75354146       0.24788998       0.00025187 </v>
    <v>       0.99737704       0.49659028       0.75166153 </v>
    <v>       0.24665214       0.24972960       0.24968953 </v>
    <v>       0.50374375       0.00933423       0.74903602 </v>
    <v>       0.24565426       0.25010736       0.99965660 </v>
    <v>       0.00249528       0.00147734       0.24888095 </v>
    <v>       0.75888831       0.75483405       0.74912189 </v>
    <v>       0.75276839       0.25050147       0.49967119 </v>
    <v>       0.50363185       0.48401391       0.00071244 </v>
    <v>       0.23477351       0.75048812       0.99920433 </v>
    <v>       0.50530177       0.00766787       0.25024812 </v>
    <v>       0.23306917       0.74984411       0.50140023 </v>
    <v>       0.75622688       0.75522990       0.00013345 </v>
    <v>       0.75779316       0.75616122       0.49931440 </v>
    <v>       0.50477396       0.00697743       0.00034550 </v>
    <v>       0.50550536       0.00844705       0.50043061 </v>
    <v>       0.23496013       0.75220743       0.24886017 </v>
    <v>       0.23076520       0.75176779       0.74968662 </v>
    <v>       0.50240793       0.48523365       0.49955618 </v>
    <v>       0.00292362       0.00251480       0.00137745 </v>
    <v>       0.75737412       0.75449874       0.25166765 </v>
    <v>       0.24771160       0.24985241       0.50041391 </v>
    <v>       0.50547949       0.48391765       0.75046891 </v>
    <v>       0.24546528       0.25044688       0.75013414 </v>
    <v>       0.99763592       0.49648833       0.00112297 </v>
    <v>       0.99857821       0.49684622       0.24893039 </v>
    <v>       0.50333245       0.48278751       0.24938414 </v>
    <v>       0.46841657       0.97867829       0.62491840 </v>
    <v>       0.13500663       0.62697998       0.25128492 </v>
    <v>       0.12227418       0.63097143       0.74769982 </v>
    <v>       0.62054188       0.12604944       0.25055982 </v>
    <v>       0.87183531       0.87264761       0.99879569 </v>
    <v>       0.12217095       0.12517064       0.50022032 </v>
    <v>       0.50620752       0.54364421       0.12587647 </v>
    <v>       0.37543311       0.38461461       0.24964020 </v>
    <v>       0.37620521       0.38898160       0.75074056 </v>
    <v>       0.86582072       0.62098280       0.99970190 </v>
    <v>       0.60887743       0.85942758       0.25185784 </v>
    <v>       0.87882334       0.36643626       0.25072128 </v>
    <v>       0.88163369       0.36495466       0.75303656 </v>
    <v>       0.87552905       0.86949678       0.25415369 </v>
    <v>       0.88235793       0.86490253       0.74904243 </v>
    <v>       0.37180926       0.12365208       0.25085896 </v>
    <v>       0.36929023       0.11975040       0.74931288 </v>
    <v>       0.86895594       0.12041827       0.25079738 </v>
    <v>       0.86676230       0.61940767       0.25112436 </v>
    <v>       0.75286238       0.25040225       0.62518269 </v>
    <v>       0.61747725       0.13065672       0.74568402 </v>
    <v>       0.12922574       0.37746327       0.24998200 </v>
    <v>       0.63600475       0.39089393       0.25060454 </v>
    <v>       0.15167039       0.88883901       0.25069830 </v>
    <v>       0.14513287       0.88968193       0.74910367 </v>
    <v>       0.63861803       0.39119616       0.74832298 </v>
    <v>       0.11235764       0.13164141       0.74953144 </v>
    <v>       0.61372085       0.86355148       0.74819250 </v>
    <v>       0.37106969       0.39437331       0.99902810 </v>
    <v>       0.37169066       0.39211359       0.50116978 </v>
    <v>       0.86458654       0.61382309       0.74915610 </v>
    <v>       0.12071433       0.12852735       0.00097490 </v>
    <v>       0.87384192       0.36911140       0.99895048 </v>
    <v>       0.87805694       0.37480552       0.49747707 </v>
    <v>       0.87275074       0.87526191       0.49844209 </v>
    <v>       0.37484299       0.12419532       0.50020543 </v>
    <v>       0.13405328       0.62581659       0.99836004 </v>
    <v>       0.13663777       0.61998020       0.50235154 </v>
    <v>       0.62505551       0.12244243       0.50290779 </v>
    <v>       0.12134340       0.13250587       0.24935530 </v>
    <v>       0.12379252       0.37645584       0.00002877 </v>
    <v>       0.12327114       0.37596647       0.49948455 </v>
    <v>       0.14931934       0.88567270       0.99655926 </v>
    <v>       0.13755476       0.88021437       0.50382186 </v>
    <v>       0.73220637       0.72645587       0.12597522 </v>
    <v>       0.63446209       0.39394361       0.49947266 </v>
    <v>       0.00388854       0.50466635       0.37434932 </v>
    <v>       0.60845491       0.85901254       0.50063718 </v>
    <v>       0.51121628       0.54360128       0.87495471 </v>
    <v>       0.87070036       0.12385267       0.99985186 </v>
    <v>       0.87628306       0.12280370       0.49829602 </v>
    <v>       0.63093423       0.38505895       0.00120093 </v>
    <v>       0.87748092       0.62544512       0.49977971 </v>
    <v>       0.99803899       0.98953745       0.12554097 </v>
    <v>       0.99568158       0.99465333       0.62516554 </v>
    <v>       0.00061810       0.50425193       0.12530915 </v>
    <v>       0.99911325       0.50025046       0.62503073 </v>
    <v>       0.47044230       0.98087899       0.12615888 </v>
    <v>       0.25422545       0.25434465       0.37520916 </v>
    <v>       0.12651037       0.38302654       0.75047954 </v>
    <v>       0.50527464       0.54452545       0.62629841 </v>
    <v>       0.00322270       0.99366060       0.37482038 </v>
    <v>       0.99726181       0.99352671       0.87467064 </v>
    <v>       0.00013923       0.50523608       0.87505579 </v>
    <v>       0.47098706       0.98162085       0.37507883 </v>
    <v>       0.47312259       0.98139756       0.87387726 </v>
    <v>       0.49890342       0.54366416       0.37289785 </v>
    <v>       0.62530921       0.12000187       0.00063908 </v>
    <v>       0.37610141       0.12372995       0.99966235 </v>
    <v>       0.25232416       0.25319204       0.87420090 </v>
    <v>       0.29314744       0.74857824       0.37955023 </v>
    <v>       0.29475593       0.74193755       0.86967149 </v>
    <v>       0.74256176       0.24731320       0.37511821 </v>
    <v>       0.73972950       0.24637969       0.87435424 </v>
    <v>       0.86382757       0.11398595       0.75109873 </v>
    <v>       0.73241045       0.72558611       0.87305776 </v>
    <v>       0.25655666       0.25425978       0.12518933 </v>
    <v>       0.25113204       0.25445559       0.62540125 </v>
    <v>       0.29498840       0.74507687       0.12408600 </v>
    <v>       0.29338593       0.74467861       0.62651916 </v>
    <v>       0.74242985       0.24740652       0.12541458 </v>
    <v>       0.72837282       0.71868532       0.37734444 </v>
    <v>       0.60433438       0.85540344       0.99929126 </v>
    <v>       0.73289242       0.72207464       0.62377680 </v>
   </varray>
  </structure>
  <varray name="forces" >
   <v>      -0.01360979      -0.00107362       0.00653736 </v>
   <v>      -0.00439116      -0.00776987       0.00303527 </v>
   <v>       0.00290173      -0.00028995      -0.00630405 </v>
   <v>      -0.00255045      -0.00603571       0.00083825 </v>
   <v>       0.00372256       0.00664356      -0.00487195 </v>
   <v>      -0.00253394       0.00710409      -0.00422393 </v>
   <v>       0.00536047      -0.00243635      -0.00681139 </v>
   <v>       0.00224198       0.00223172       0.00008256 </v>
   <v>      -0.01165860      -0.01232271      -0.00165035 </v>
   <v>      -0.00019228      -0.00771678      -0.00555128 </v>
   <v>       0.00077831      -0.00164839       0.00560873 </v>
   <v>      -0.00059921      -0.00267036      -0.00138544 </v>
   <v>      -0.00509888      -0.00199132       0.00752100 </v>
   <v>       0.00198824       0.00230241       0.00658641 </v>
   <v>       0.00618051       0.00513347       0.00119920 </v>
   <v>       0.00569679       0.00271404       0.00534134 </v>
   <v>      -0.00194193       0.00682567      -0.00292549 </v>
   <v>       0.00045913       0.00794260       0.00213277 </v>
   <v>      -0.00332312       0.00135366       0.00502049 </v>
   <v>      -0.00090665      -0.00136498      -0.00255266 </v>
   <v>      -0.00515022      -0.00157721       0.00438941 </v>
   <v>      -0.00228658      -0.00347218       0.00614263 </v>
   <v>      -0.00217983      -0.00080210       0.00375669 </v>
   <v>       0.00451700      -0.00601064      -0.00081266 </v>
   <v>      -0.00810447       0.00618741       0.00196668 </v>
   <v>       0.00123041       0.00439747       0.00160124 </v>
   <v>      -0.00448905      -0.00127409       0.00221102 </v>
   <v>      -0.00501926      -0.00372744      -0.00411296 </v>
   <v>      -0.00568316      -0.01103421      -0.00893923 </v>
   <v>      -0.00310243      -0.01008226      -0.00569915 </v>
   <v>      -0.00179022      -0.00463892      -0.00444655 </v>
   <v>       0.00178703      -0.00019582      -0.00273719 </v>
   <v>      -0.00755617       0.00139075       0.00646771 </v>
   <v>      -0.00599610      -0.01135430      -0.00090929 </v>
   <v>       0.00942156      -0.00159349       0.01985049 </v>
   <v>       0.00439652      -0.00372554      -0.01446041 </v>
   <v>       0.00387794      -0.00227408      -0.01433856 </v>
   <v>      -0.01138028       0.00041402       0.00259347 </v>
   <v>       0.00434656      -0.00740930      -0.00983057 </v>
   <v>      -0.00606595       0.00472755      -0.00191629 </v>
   <v>       0.00219448       0.00886483      -0.00000137 </v>
   <v>      -0.00321314       0.00122916      -0.00465265 </v>
   <v>      -0.00318857       0.00162697       0.00342563 </v>
   <v>       0.00849673      -0.00064014      -0.00174849 </v>
   <v>       0.00035236      -0.01037012      -0.00232414 </v>
   <v>       0.01470060       0.01065805       0.00069082 </v>
   <v>       0.01064855       0.01387263      -0.00317274 </v>
   <v>      -0.00238281       0.00201983      -0.00471750 </v>
   <v>      -0.00540166       0.01255052       0.00301761 </v>
   <v>      -0.00323611      -0.00549736       0.00080470 </v>
   <v>      -0.00135853      -0.00330562       0.00259701 </v>
   <v>      -0.00067727      -0.00144990       0.00326328 </v>
   <v>      -0.00103298       0.00313672      -0.00206712 </v>
   <v>      -0.00478973       0.00691017       0.00053029 </v>
   <v>      -0.00151390       0.01622881       0.00766211 </v>
   <v>       0.00924471      -0.00712221      -0.00223239 </v>
   <v>      -0.00256280      -0.00353584       0.00045825 </v>
   <v>       0.00465048       0.00227150       0.00005562 </v>
   <v>      -0.00753700       0.00209461       0.00292730 </v>
   <v>       0.00965804      -0.00031890      -0.00089612 </v>
   <v>       0.00494733       0.00911597      -0.00009309 </v>
   <v>      -0.00813398      -0.00466637       0.00863300 </v>
   <v>      -0.00130732       0.00118917       0.00360687 </v>
   <v>       0.00727632      -0.00193006       0.00010032 </v>
   <v>       0.00711944      -0.00301863       0.00090825 </v>
   <v>      -0.00023475       0.00024810      -0.00692146 </v>
   <v>      -0.00196655      -0.00324284       0.00195742 </v>
   <v>       0.00960683      -0.00829458      -0.01810909 </v>
   <v>       0.00728853       0.00527682       0.00251214 </v>
   <v>      -0.00550264       0.00545351       0.00525866 </v>
   <v>       0.00877526      -0.00218107      -0.00100026 </v>
   <v>      -0.01072382       0.00605049       0.00025207 </v>
   <v>      -0.00281663       0.01066283      -0.00163214 </v>
   <v>      -0.01418623      -0.02026398      -0.00132615 </v>
   <v>      -0.00275411       0.00208714       0.00137741 </v>
   <v>      -0.00190561       0.00236198       0.01148765 </v>
   <v>       0.00569591       0.00842271       0.00656697 </v>
   <v>      -0.00483137       0.00917425       0.00621992 </v>
   <v>      -0.00489534       0.00522399       0.00345087 </v>
   <v>       0.00140311       0.00600217       0.00100547 </v>
   <v>       0.01150231       0.01456104      -0.00167214 </v>
   <v>       0.00777725       0.00681221      -0.00143270 </v>
   <v>       0.00183519       0.00019660       0.00492192 </v>
   <v>       0.01280426      -0.00596201       0.00785391 </v>
   <v>       0.01326076      -0.00439552      -0.00238464 </v>
   <v>       0.00245087       0.00064599      -0.00124696 </v>
   <v>       0.00141525      -0.01133915      -0.00828340 </v>
   <v>       0.00780669       0.00177985      -0.00115310 </v>
   <v>       0.01301015       0.00338577      -0.00184859 </v>
   <v>       0.00345987      -0.00174783      -0.00297982 </v>
   <v>       0.00918418       0.00492129       0.00293924 </v>
   <v>      -0.00469011      -0.00318298       0.00440772 </v>
   <v>      -0.01506893      -0.00372226       0.00149469 </v>
   <v>       0.00145390      -0.00308217      -0.00200181 </v>
   <v>       0.00611034       0.00893210      -0.00571186 </v>
   <v>       0.00158415      -0.00283664      -0.00257961 </v>
   <v>      -0.00448847       0.00339988      -0.00563044 </v>
   <v>       0.00373463       0.00127512      -0.00745127 </v>
   <v>       0.00552747      -0.01621343       0.00228330 </v>
   <v>      -0.00823879      -0.00535553       0.00038107 </v>
   <v>      -0.02516477      -0.00901518       0.00581543 </v>
   <v>      -0.02209699       0.00355057       0.00306152 </v>
   <v>      -0.00953514      -0.00722299      -0.00105587 </v>
   <v>       0.00486819       0.00750358      -0.00068245 </v>
   <v>      -0.00453966       0.00661691       0.00285738 </v>
   <v>      -0.00058414       0.00389960      -0.00197067 </v>
   <v>      -0.01032839       0.00174708       0.00413434 </v>
   <v>       0.00446633       0.00274504      -0.00818515 </v>
   <v>       0.00685682       0.00827652      -0.00062833 </v>
[...]
       <r>   -17.8193     0.0000    32.0000 </r>
       <r>   -17.6647     0.0000    32.0000 </r>
       <r>   -17.5101     0.0000    32.0000 </r>
       <r>   -17.3555     0.0000    32.0000 </r>
       <r>   -17.2009     0.0000    32.0000 </r>
       <r>   -17.0463     0.0000    32.0000 </r>
       <r>   -16.8918     0.0000    32.0000 </r>
       <r>   -16.7372     0.0000    32.0000 </r>
       <r>   -16.5826     0.0000    32.0000 </r>
       <r>   -16.4280     0.0000    32.0000 </r>
       <r>   -16.2734     0.0000    32.0000 </r>
       <r>   -16.1188     0.0000    32.0000 </r>
       <r>   -15.9642     0.0000    32.0000 </r>
       <r>   -15.8096     0.0000    32.0000 </r>
       <r>   -15.6550     0.0000    32.0000 </r>
       <r>   -15.5004     0.0000    32.0000 </r>
       <r>   -15.3458     0.0000    32.0000 </r>
       <r>   -15.1912     0.0000    32.0000 </r>
       <r>   -15.0367     1.7356    32.2683 </r>
       <r>   -14.8821    29.6680    36.8547 </r>
       <r>   -14.7275    40.3770    43.0966 </r>
       <r>   -14.5729    42.6310    49.6870 </r>
       <r>   -14.4183    35.4249    55.1634 </r>
       <r>   -14.2637    45.7981    62.2434 </r>
       <r>   -14.1091    67.7054    72.7100 </r>
       <r>   -13.9545    84.8322    85.8243 </r>
       <r>   -13.7999    78.5966    97.9746 </r>
       <r>   -13.6453    60.8626   107.3834 </r>
       <r>   -13.4907    36.3857   113.0083 </r>
       <r>   -13.3362    16.8216   115.6088 </r>
       <r>   -13.1816     2.5306   116.0000 </r>
       <r>   -13.0270     0.0011   116.0002 </r>
       <r>   -12.8724    13.7741   118.1295 </r>
       <r>   -12.7178    82.1920   130.8357 </r>
       <r>   -12.5632    81.4470   143.4266 </r>
       <r>   -12.4086    87.1424   156.8981 </r>
       <r>   -12.2540   100.9068   172.4974 </r>
       <r>   -12.0994    85.2799   185.6809 </r>
       <r>   -11.9448    68.2488   196.2315 </r>
       <r>   -11.7902    44.8692   203.1679 </r>
       <r>   -11.6357    30.0976   207.8207 </r>
       <r>   -11.4811    22.5633   211.3088 </r>
       <r>   -11.3265     4.4713   212.0000 </r>
       <r>   -11.1719     0.0000   212.0000 </r>
       <r>   -11.0173     0.0000   212.0000 </r>
       <r>   -10.8627     0.0000   212.0000 </r>
       <r>   -10.7081     0.0000   212.0000 </r>
       <r>   -10.5535     0.0000   212.0000 </r>
       <r>   -10.3989     0.0000   212.0000 </r>
       <r>   -10.2443     0.0000   212.0000 </r>
       <r>   -10.0897     0.0000   212.0000 </r>
       <r>    -9.9352     0.0000   212.0000 </r>
       <r>    -9.7806     0.0000   212.0000 </r>
       <r>    -9.6260     0.0000   212.0000 </r>
       <r>    -9.4714     0.0000   212.0000 </r>
       <r>    -9.3168     0.0000   212.0000 </r>
       <r>    -9.1622     0.0000   212.0000 </r>
       <r>    -9.0076     0.0000   212.0000 </r>
       <r>    -8.8530     0.0000   212.0000 </r>
       <r>    -8.6984     0.0000   212.0000 </r>
       <r>    -8.5438     0.0000   212.0000 </r>
       <r>    -8.3892     0.0000   212.0000 </r>
       <r>    -8.2347     0.0000   212.0000 </r>
       <r>    -8.0801     0.0000   212.0000 </r>
       <r>    -7.9255     0.0000   212.0000 </r>
       <r>    -7.7709     0.0000   212.0000 </r>
       <r>    -7.6163     0.0000   212.0000 </r>
       <r>    -7.4617     0.0000   212.0000 </r>
       <r>    -7.3071     0.0000   212.0000 </r>
       <r>    -7.1525     0.0000   212.0000 </r>
       <r>    -6.9979     0.0000   212.0000 </r>
       <r>    -6.8433     0.0000   212.0000 </r>
       <r>    -6.6887     0.0000   212.0000 </r>
       <r>    -6.5342     0.0000   212.0000 </r>
       <r>    -6.3796     0.0000   212.0000 </r>
       <r>    -6.2250     0.0000   212.0000 </r>
       <r>    -6.0704     0.0000   212.0000 </r>
       <r>    -5.9158     0.0000   212.0000 </r>
       <r>    -5.7612     0.0000   212.0000 </r>
       <r>    -5.6066     0.0000   212.0000 </r>
       <r>    -5.4520     0.0000   212.0000 </r>
       <r>    -5.2974     0.0000   212.0000 </r>
       <r>    -5.1428     0.0000   212.0000 </r>
       <r>    -4.9882     0.0000   212.0000 </r>
       <r>    -4.8337     0.0000   212.0000 </r>
       <r>    -4.6791     0.0000   212.0000 </r>
       <r>    -4.5245     0.0000   212.0000 </r>
       <r>    -4.3699     0.0000   212.0000 </r>
       <r>    -4.2153     0.0000   212.0000 </r>
       <r>    -4.0607     0.0000   212.0000 </r>
       <r>    -3.9061     0.0000   212.0000 </r>
       <r>    -3.7515     0.0000   212.0000 </r>
       <r>    -3.5969     0.0000   212.0000 </r>
       <r>    -3.4423     0.0000   212.0000 </r>
       <r>    -3.2877     0.0000   212.0000 </r>
       <r>    -3.1332     0.0000   212.0000 </r>
       <r>    -2.9786     0.0000   212.0000 </r>
       <r>    -2.8240     0.0000   212.0000 </r>
       <r>    -2.6694     0.0015   212.0002 </r>
       <r>    -2.5148     3.8475   212.5950 </r>
       <r>    -2.3602     9.1168   214.0044 </r>
       <r>    -2.2056    14.9712   216.3188 </r>
       <r>    -2.0510    15.8021   218.7617 </r>
       <r>    -1.8964    23.4835   222.3920 </r>
       <r>    -1.7418    27.4688   226.6385 </r>
       <r>    -1.5872    32.9729   231.7358 </r>
       <r>    -1.4327    40.0362   237.9250 </r>
       <r>    -1.2781    39.3035   244.0010 </r>
       <r>    -1.1235    48.8073   251.5461 </r>
       <r>    -0.9689    64.2384   261.4768 </r>
       <r>    -0.8143    68.8886   272.1263 </r>
       <r>    -0.6597    83.8020   285.0814 </r>
       <r>    -0.5051   102.9799   301.0012 </r>
       <r>    -0.3505   100.7160   316.5709 </r>
       <r>    -0.1959    61.1197   326.0195 </r>
       <r>    -0.0413    51.5731   333.9922 </r>
       <r>     0.1133    63.4293   343.7978 </r>
       <r>     0.2678    58.6218   352.8602 </r>
       <r>     0.4224    65.3148   362.9573 </r>
       <r>     0.5770    64.6121   372.9458 </r>
       <r>     0.7316    46.9227   380.1996 </r>
       <r>     0.8862    45.9463   387.3025 </r>
       <r>     1.0408    55.4806   395.8793 </r>
       <r>     1.1954    54.4944   404.3036 </r>
       <r>     1.3500    65.0118   414.3538 </r>
       <r>     1.5046    71.9797   425.4812 </r>
       <r>     1.6592    65.4140   435.5937 </r>
       <r>     1.8138    53.4716   443.8599 </r>
       <r>     1.9683    53.8483   452.1843 </r>
       <r>     2.1229    38.1602   458.0836 </r>
       <r>     2.2775    21.0356   461.3355 </r>
       <r>     2.4321     8.6011   462.6651 </r>
       <r>     2.5867     6.0876   463.6062 </r>
       <r>     2.7413     2.5470   463.9999 </r>
       <r>     2.8959     0.0004   464.0000 </r>
       <r>     3.0505     0.0000   464.0000 </r>
       <r>     3.2051     0.0000   464.0000 </r>
       <r>     3.3597     0.0000   464.0000 </r>
       <r>     3.5143     0.0000   464.0000 </r>
       <r>     3.6688     0.0000   464.0000 </r>
       <r>     3.8234     1.0732   464.1659 </r>
       <r>     3.9780    11.5083   465.9450 </r>
       <r>     4.1326     5.0736   466.7293 </r>
       <r>     4.2872    17.2350   469.3937 </r>
       <r>     4.4418    27.8712   473.7023 </r>
       <r>     4.5964    62.2426   483.3245 </r>
       <r>     4.7510    81.0327   495.8514 </r>
       <r>     4.9056    52.9106   504.0309 </r>
       <r>     5.0602    60.1527   513.3299 </r>
       <r>     5.2148    76.9953   525.2327 </r>
       <r>     5.3693    97.0175   540.2308 </r>
       <r>     5.5239    72.8510   551.4929 </r>
       <r>     5.6785    64.0780   561.3988 </r>
       <r>     5.8331    64.5516   571.3779 </r>
       <r>     5.9877    52.3946   579.4776 </r>
       <r>     6.1423    60.7831   588.8741 </r>
       <r>     6.2969    43.1230   595.5405 </r>
       <r>     6.4515    49.0341   603.1207 </r>
       <r>     6.6061    17.7949   605.8717 </r>
       <r>     6.7607     9.7917   607.3854 </r>
       <r>     6.9153     8.4372   608.6897 </r>
       <r>     7.0699    16.9736   611.3137 </r>
       <r>     7.2244     9.8238   612.8324 </r>
       <r>     7.3790    10.3328   614.4297 </r>
       <r>     7.5336    12.1228   616.3038 </r>
       <r>     7.6882    17.6536   619.0329 </r>
       <r>     7.8428    22.2454   622.4718 </r>
       <r>     7.9974    18.0583   625.2634 </r>
       <r>     8.1520    25.8641   629.2618 </r>
       <r>     8.3066    27.0734   633.4471 </r>
       <r>     8.4612    19.3959   636.4455 </r>
       <r>     8.6158    29.7254   641.0408 </r>
       <r>     8.7704    26.3967   645.1215 </r>
       <r>     8.9249    35.4780   650.6061 </r>
       <r>     9.0795    48.2632   658.0672 </r>
       <r>     9.2341    42.4826   664.6346 </r>
       <r>     9.3887    39.8114   670.7891 </r>
       <r>     9.5433    40.6123   677.0674 </r>
       <r>     9.6979    50.5688   684.8848 </r>
       <r>     9.8525    48.9380   692.4502 </r>
       <r>    10.0071    52.6237   700.5854 </r>
       <r>    10.1617    48.9309   708.1496 </r>
       <r>    10.3163    46.0358   715.2663 </r>
       <r>    10.4709    63.0854   725.0188 </r>
       <r>    10.6254    56.0937   733.6903 </r>
       <r>    10.7800    47.8829   741.0926 </r>
       <r>    10.9346    53.1509   749.3093 </r>
       <r>    11.0892    51.4753   757.2669 </r>
       <r>    11.2438    54.2745   765.6572 </r>
       <r>    11.3984    15.1478   767.9990 </r>
       <r>    11.5530     0.0068   768.0000 </r>
       <r>    11.7076     0.0000   768.0000 </r>
       <r>    11.8622     0.0000   768.0000 </r>
       <r>    12.0168     0.0000   768.0000 </r>
       <r>    12.1714     0.0000   768.0000 </r>
       <r>    12.3259     0.0000   768.0000 </r>
       <r>    12.4805     0.0000   768.0000 </r>
       <r>    12.6351     0.0000   768.0000 </r>
       <r>    12.7897     0.0000   768.0000 </r>
       <r>    12.9443     0.0000   768.0000 </r>
       <r>    13.0989     0.0000   768.0000 </r>
       <r>    13.2535     0.0000   768.0000 </r>
       <r>    13.4081     0.0000   768.0000 </r>
      </set>
     </set>
    </array>
   </total>
  </dos>
 </calculation>
 <structure name="finalpos" >
  <crystal>
   <varray name="basis" >
    <v>      11.38093078       0.00224054       0.00239576 </v>
    <v>       0.00224205      11.37778564       0.00022468 </v>
    <v>       0.00350719       0.00032710      15.47133548 </v>
   </varray>
   <i name="volume">   2003.37982056 </i>
   <varray name="rec_basis" >
    <v>       0.08786628      -0.00001731      -0.00001992 </v>
    <v>      -0.00001730       0.08789057      -0.00000185 </v>
    <v>      -0.00001361      -0.00000127       0.06463566 </v>
   </varray>
  </crystal>
  <varray name="positions" >
   <v>       0.00491525       0.25159974       0.12286913 </v>
   <v>       0.00348930       0.25188318       0.62319433 </v>
   <v>       0.98142876       0.74104140       0.12528039 </v>
   <v>       0.98609941       0.74422679       0.62386966 </v>
   <v>       0.49187416       0.23381386       0.12390535 </v>
   <v>       0.48634082       0.23660731       0.62440829 </v>
   <v>       0.51723857       0.76691026       0.12621268 </v>
   <v>       0.51736372       0.76720100       0.62559361 </v>
   <v>       0.00286445       0.25117930       0.37386275 </v>
   <v>       0.00744851       0.25121312       0.87991874 </v>
   <v>       0.98652492       0.74320476       0.37194646 </v>
   <v>       0.98378371       0.74255799       0.87889627 </v>
   <v>       0.49415730       0.23500082       0.37646477 </v>
   <v>       0.48578094       0.23491741       0.87507319 </v>
   <v>       0.51574772       0.76712157       0.37595966 </v>
   <v>       0.51720263       0.76721798       0.87237527 </v>
   <v>       0.24013427       0.01483262       0.12281230 </v>
   <v>       0.24414311       0.01929334       0.62544422 </v>
   <v>       0.23342502       0.48940487       0.12286875 </v>
   <v>       0.23997727       0.48562432       0.62516342 </v>
   <v>       0.76576256       0.00388339       0.12556047 </v>
   <v>       0.75653343       0.00898512       0.62216259 </v>
   <v>       0.76631217       0.49464342       0.12567037 </v>
   <v>       0.76091561       0.49234220       0.62319653 </v>
   <v>       0.24386447       0.01489362       0.37518082 </v>
   <v>       0.24322239       0.01973510       0.87627654 </v>
   <v>       0.23953762       0.48888849       0.37461215 </v>
   <v>       0.23698471       0.48604286       0.87739780 </v>
   <v>       0.76015960       0.00880504       0.37474496 </v>
   <v>       0.75905319       0.00410002       0.87831253 </v>
   <v>       0.76375428       0.49230384       0.37366980 </v>
   <v>       0.76155341       0.49420269       0.87703346 </v>
   <v>       0.00081484       0.00446985       0.49830413 </v>
   <v>       0.99885214       0.49592665       0.49806321 </v>
   <v>       0.75478861       0.24839388       0.25130803 </v>
   <v>       0.75128918       0.24830720       0.74892014 </v>
   <v>       0.00080085       0.00245049       0.75170082 </v>
   <v>       0.75354146       0.24788998       0.00025187 </v>
   <v>       0.99737704       0.49659028       0.75166153 </v>
   <v>       0.24665214       0.24972960       0.24968953 </v>
   <v>       0.50374375       0.00933423       0.74903602 </v>
   <v>       0.24565426       0.25010736       0.99965660 </v>
   <v>       0.00249528       0.00147734       0.24888095 </v>
   <v>       0.75888831       0.75483405       0.74912189 </v>
   <v>       0.75276839       0.25050147       0.49967119 </v>
   <v>       0.50363185       0.48401391       0.00071244 </v>
   <v>       0.23477351       0.75048812       0.99920433 </v>
   <v>       0.50530177       0.00766787       0.25024812 </v>
   <v>       0.23306917       0.74984411       0.50140023 </v>
   <v>       0.75622688       0.75522990       0.00013345 </v>
   <v>       0.75779316       0.75616122       0.49931440 </v>
   <v>       0.50477396       0.00697743       0.00034550 </v>
   <v>       0.50550536       0.00844705       0.50043061 </v>
   <v>       0.23496013       0.75220743       0.24886017 </v>
   <v>       0.23076520       0.75176779       0.74968662 </v>
   <v>       0.50240793       0.48523365       0.49955618 </v>
   <v>       0.00292362       0.00251480       0.00137745 </v>
   <v>       0.75737412       0.75449874       0.25166765 </v>
   <v>       0.24771160       0.24985241       0.50041391 </v>
   <v>       0.50547949       0.48391765       0.75046891 </v>
   <v>       0.24546528       0.25044688       0.75013414 </v>
   <v>       0.99763592       0.49648833       0.00112297 </v>
   <v>       0.99857821       0.49684622       0.24893039 </v>
   <v>       0.50333245       0.48278751       0.24938414 </v>
   <v>       0.46841657       0.97867829       0.62491840 </v>
   <v>       0.13500663       0.62697998       0.25128492 </v>
   <v>       0.12227418       0.63097143       0.74769982 </v>
   <v>       0.62054188       0.12604944       0.25055982 </v>
   <v>       0.87183531       0.87264761       0.99879569 </v>
   <v>       0.12217095       0.12517064       0.50022032 </v>
   <v>       0.50620752       0.54364421       0.12587647 </v>
   <v>       0.37543311       0.38461461       0.24964020 </v>
   <v>       0.37620521       0.38898160       0.75074056 </v>
   <v>       0.86582072       0.62098280       0.99970190 </v>
   <v>       0.60887743       0.85942758       0.25185784 </v>
   <v>       0.87882334       0.36643626       0.25072128 </v>
   <v>       0.88163369       0.36495466       0.75303656 </v>
   <v>       0.87552905       0.86949678       0.25415369 </v>
   <v>       0.88235793       0.86490253       0.74904243 </v>
   <v>       0.37180926       0.12365208       0.25085896 </v>
   <v>       0.36929023       0.11975040       0.74931288 </v>
   <v>       0.86895594       0.12041827       0.25079738 </v>
   <v>       0.86676230       0.61940767       0.25112436 </v>
   <v>       0.75286238       0.25040225       0.62518269 </v>
   <v>       0.61747725       0.13065672       0.74568402 </v>
   <v>       0.12922574       0.37746327       0.24998200 </v>
   <v>       0.63600475       0.39089393       0.25060454 </v>
   <v>       0.15167039       0.88883901       0.25069830 </v>
   <v>       0.14513287       0.88968193       0.74910367 </v>
   <v>       0.63861803       0.39119616       0.74832298 </v>
   <v>       0.11235764       0.13164141       0.74953144 </v>
   <v>       0.61372085       0.86355148       0.74819250 </v>
   <v>       0.37106969       0.39437331       0.99902810 </v>
   <v>       0.37169066       0.39211359       0.50116978 </v>
   <v>       0.86458654       0.61382309       0.74915610 </v>
   <v>       0.12071433       0.12852735       0.00097490 </v>
   <v>       0.87384192       0.36911140       0.99895048 </v>
   <v>       0.87805694       0.37480552       0.49747707 </v>
   <v>       0.87275074       0.87526191       0.49844209 </v>
   <v>       0.37484299       0.12419532       0.50020543 </v>
   <v>       0.13405328       0.62581659       0.99836004 </v>
   <v>       0.13663777       0.61998020       0.50235154 </v>
   <v>       0.62505551       0.12244243       0.50290779 </v>
   <v>       0.12134340       0.13250587       0.24935530 </v>
   <v>       0.12379252       0.37645584       0.00002877 </v>
   <v>       0.12327114       0.37596647       0.49948455 </v>
   <v>       0.14931934       0.88567270       0.99655926 </v>
   <v>       0.13755476       0.88021437       0.50382186 </v>
   <v>       0.73220637       0.72645587       0.12597522 </v>
   <v>       0.63446209       0.39394361       0.49947266 </v>
   <v>       0.00388854       0.50466635       0.37434932 </v>
   <v>       0.60845491       0.85901254       0.50063718 </v>
   <v>       0.51121628       0.54360128       0.87495471 </v>
   <v>       0.87070036       0.12385267       0.99985186 </v>
   <v>       0.87628306       0.12280370       0.49829602 </v>
   <v>       0.63093423       0.38505895       0.00120093 </v>
   <v>       0.87748092       0.62544512       0.49977971 </v>
   <v>       0.99803899       0.98953745       0.12554097 </v>
   <v>       0.99568158       0.99465333       0.62516554 </v>
   <v>       0.00061810       0.50425193       0.12530915 </v>
   <v>       0.99911325       0.50025046       0.62503073 </v>
   <v>       0.47044230       0.98087899       0.12615888 </v>
   <v>       0.25422545       0.25434465       0.37520916 </v>
   <v>       0.12651037       0.38302654       0.75047954 </v>
   <v>       0.50527464       0.54452545       0.62629841 </v>
   <v>       0.00322270       0.99366060       0.37482038 </v>
   <v>       0.99726181       0.99352671       0.87467064 </v>
   <v>       0.00013923       0.50523608       0.87505579 </v>
   <v>       0.47098706       0.98162085       0.37507883 </v>
   <v>       0.47312259       0.98139756       0.87387726 </v>
   <v>       0.49890342       0.54366416       0.37289785 </v>
   <v>       0.62530921       0.12000187       0.00063908 </v>
   <v>       0.37610141       0.12372995       0.99966235 </v>
   <v>       0.25232416       0.25319204       0.87420090 </v>
   <v>       0.29314744       0.74857824       0.37955023 </v>
   <v>       0.29475593       0.74193755       0.86967149 </v>
   <v>       0.74256176       0.24731320       0.37511821 </v>
   <v>       0.73972950       0.24637969       0.87435424 </v>
   <v>       0.86382757       0.11398595       0.75109873 </v>
   <v>       0.73241045       0.72558611       0.87305776 </v>
   <v>       0.25655666       0.25425978       0.12518933 </v>
   <v>       0.25113204       0.25445559       0.62540125 </v>
   <v>       0.29498840       0.74507687       0.12408600 </v>
   <v>       0.29338593       0.74467861       0.62651916 </v>
   <v>       0.74242985       0.24740652       0.12541458 </v>
   <v>       0.72837282       0.71868532       0.37734444 </v>
   <v>       0.60433438       0.85540344       0.99929126 </v>
   <v>       0.73289242       0.72207464       0.62377680 </v>
  </varray>
 </structure>
</modeling>
