       N       E                     dE             d eps       ncg     rms          rms(c)
DAV:   1    -0.108937865465E+04   -0.10894E+04   -0.18009E-02 13840   0.315E-01    0.266E-02
RMM:   2    -0.108937865455E+04    0.99943E-07   -0.39380E-05  6807   0.974E-03    0.509E-02
RMM:   3    -0.108937865538E+04   -0.83235E-06   -0.14625E-05  6579   0.630E-03    0.559E-03
RMM:   4    -0.108937865610E+04   -0.72004E-06   -0.83952E-06  4454   0.308E-03    0.686E-03
RMM:   5    -0.108937865641E+04   -0.30914E-06   -0.49616E-06  4147   0.343E-03    0.656E-03
RMM:   6    -0.108937865676E+04   -0.35639E-06   -0.34699E-06  3203   0.243E-03    0.183E-03
RMM:   7    -0.108937865693E+04   -0.16394E-06   -0.21622E-06  3053   0.252E-03    0.291E-03
RMM:   8    -0.108937865708E+04   -0.15277E-06   -0.16071E-06  2892   0.210E-03
   1 F= -.10893787E+04 E0= -.10893787E+04  d E =-.108938E+04  mag=    60.0000
       N       E                     dE             d eps       ncg     rms          rms(c)
DAV:   1    -0.108937844194E+04    0.21499E-03   -0.76479E-01 12488   0.103E+00    0.449E-01
RMM:   2    -0.108938111687E+04   -0.26749E-02   -0.21674E-02 12357   0.203E-01    0.305E-01
RMM:   3    -0.108938131144E+04   -0.19457E-03   -0.12610E-03 12207   0.638E-02    0.164E-01
RMM:   4    -0.108938119201E+04    0.11943E-03   -0.36940E-04 10154   0.239E-02    0.891E-02
RMM:   5    -0.108938116385E+04    0.28156E-04   -0.11531E-04  7428   0.158E-02    0.556E-02
RMM:   6    -0.108938116527E+04   -0.14184E-05   -0.30514E-05  7173   0.952E-03    0.302E-02
RMM:   7    -0.108938116501E+04    0.26272E-06   -0.13419E-05  7067   0.535E-03    0.147E-02
RMM:   8    -0.108938116414E+04    0.86047E-06   -0.74410E-06  6817   0.443E-03
   2 F= -.10893812E+04 E0= -.10893812E+04  d E =-.250706E-02  mag=    60.0000
       N       E                     dE             d eps       ncg     rms          rms(c)
DAV:   1    -0.108938107701E+04    0.88000E-04   -0.64940E-02 12768   0.300E-01    0.131E-01
RMM:   2    -0.108938130604E+04   -0.22904E-03   -0.18729E-03 12207   0.595E-02    0.891E-02
RMM:   3    -0.108938132040E+04   -0.14361E-04   -0.84802E-05  7365   0.191E-02    0.493E-02
RMM:   4    -0.108938131246E+04    0.79403E-05   -0.35600E-05  7100   0.863E-03    0.277E-02
RMM:   5    -0.108938130963E+04    0.28320E-05   -0.17479E-05  6829   0.621E-03    0.269E-02
RMM:   6    -0.108938130971E+04   -0.75277E-07   -0.66877E-06  6131   0.424E-03    0.100E-02
RMM:   7    -0.108938130952E+04    0.18645E-06   -0.23656E-06  4533   0.262E-03    0.442E-03
RMM:   8    -0.108938130928E+04    0.24520E-06   -0.13157E-06  3730   0.242E-03
   3 F= -.10893813E+04 E0= -.10893813E+04  d E =-.265219E-02  mag=    60.0000
       N       E                     dE             d eps       ncg     rms          rms(c)
DAV:   1    -0.108938147090E+04   -0.16138E-03   -0.57516E-01 12856   0.900E-01    0.267E-01
RMM:   2    -0.108938306584E+04   -0.15949E-02   -0.15173E-02 12417   0.166E-01    0.175E-01
RMM:   3    -0.108938313293E+04   -0.67089E-04   -0.84822E-04 11154   0.532E-02    0.102E-01
RMM:   4    -0.108938308502E+04    0.47906E-04   -0.16283E-04  7395   0.173E-02    0.562E-02
RMM:   5    -0.108938307853E+04    0.64887E-05   -0.73044E-05  7166   0.117E-02    0.255E-02
RMM:   6    -0.108938308189E+04   -0.33522E-05   -0.22469E-05  7085   0.790E-03    0.203E-02
RMM:   7    -0.108938308371E+04   -0.18199E-05   -0.12626E-05  6722   0.493E-03    0.972E-03
RMM:   8    -0.108938308532E+04   -0.16131E-05   -0.72520E-06  6434   0.463E-03
   4 F= -.10893831E+04 E0= -.10893831E+04  d E =-.177604E-02  mag=    60.0000
       N       E                     dE             d eps       ncg     rms          rms(c)
DAV:   1    -0.108938142993E+04    0.16538E-02   -0.89106E-01 12688   0.112E+00    0.332E-01
RMM:   2    -0.108938390236E+04   -0.24724E-02   -0.23534E-02 12411   0.206E-01    0.218E-01
RMM:   3    -0.108938400852E+04   -0.10616E-03   -0.13563E-03 12325   0.668E-02    0.126E-01
RMM:   4    -0.108938393582E+04    0.72705E-04   -0.28279E-04  8631   0.210E-02    0.697E-02
RMM:   5    -0.108938392199E+04    0.13821E-04   -0.10780E-04  7271   0.146E-02    0.378E-02
RMM:   6    -0.108938392632E+04   -0.43294E-05   -0.32989E-05  7145   0.100E-02    0.303E-02
RMM:   7    -0.108938392903E+04   -0.27080E-05   -0.18938E-05  7021   0.600E-03    0.127E-02
RMM:   8    -0.108938393114E+04   -0.21089E-05   -0.10999E-05  6911   0.591E-03
   5 F= -.10893839E+04 E0= -.10893839E+04  d E =-.262187E-02  mag=    60.0000
       N       E                     dE             d eps       ncg     rms          rms(c)
DAV:   1    -0.108938333856E+04    0.59048E-03   -0.90910E-01 12744   0.112E+00    0.285E-01
RMM:   2    -0.108938562503E+04   -0.22865E-02   -0.23708E-02 12419   0.205E-01    0.192E-01
RMM:   3    -0.108938568189E+04   -0.56855E-04   -0.13671E-03 12173   0.659E-02    0.118E-01
RMM:   4    -0.108938561453E+04    0.67360E-04   -0.26123E-04  8266   0.201E-02    0.696E-02
RMM:   5    -0.108938559360E+04    0.20929E-04   -0.11182E-04  7279   0.141E-02    0.300E-02
RMM:   6    -0.108938559645E+04   -0.28515E-05   -0.32937E-05  7136   0.976E-03    0.314E-02
RMM:   7    -0.108938559785E+04   -0.14043E-05   -0.18329E-05  6998   0.587E-03    0.122E-02
RMM:   8    -0.108938559801E+04   -0.15770E-06   -0.10358E-05  6728   0.557E-03
   6 F= -.10893856E+04 E0= -.10893856E+04  d E =-.166687E-02  mag=    60.0000
       N       E                     dE             d eps       ncg     rms          rms(c)
DAV:   1    -0.108938449180E+04    0.11061E-02   -0.63116E-01 12784   0.934E-01    0.238E-01
RMM:   2    -0.108938608592E+04   -0.15941E-02   -0.16517E-02 12412   0.171E-01    0.160E-01
RMM:   3    -0.108938612513E+04   -0.39201E-04   -0.94898E-04 11503   0.550E-02    0.996E-02
RMM:   4    -0.108938607727E+04    0.47857E-04   -0.16042E-04  7416   0.171E-02    0.591E-02
RMM:   5    -0.108938606388E+04    0.13388E-04   -0.84534E-05  7208   0.120E-02    0.221E-02
RMM:   6    -0.108938606610E+04   -0.22223E-05   -0.25286E-05  7111   0.819E-03    0.205E-02
RMM:   7    -0.108938606722E+04   -0.11125E-05   -0.14252E-05  6830   0.508E-03    0.102E-02
RMM:   8    -0.108938606728E+04   -0.61977E-07   -0.81062E-06  6451   0.489E-03
   7 F= -.10893861E+04 E0= -.10893861E+04  d E =-.213614E-02  mag=    60.0000
       N       E                     dE             d eps       ncg     rms          rms(c)
DAV:   1    -0.108938523508E+04    0.83214E-03   -0.92315E-01 12688   0.112E+00    0.250E-01
RMM:   2    -0.108938752458E+04   -0.22895E-02   -0.23603E-02 12456   0.202E-01    0.162E-01
RMM:   3    -0.108938756623E+04   -0.41654E-04   -0.13064E-03 11879   0.653E-02    0.989E-02
RMM:   4    -0.108938751242E+04    0.53806E-04   -0.25482E-04  8237   0.196E-02    0.562E-02
RMM:   5    -0.108938750064E+04    0.11783E-04   -0.95753E-05  7202   0.132E-02    0.262E-02
RMM:   6    -0.108938750432E+04   -0.36761E-05   -0.28390E-05  7107   0.862E-03    0.207E-02
RMM:   7    -0.108938750634E+04   -0.20180E-05   -0.16045E-05  6792   0.534E-03    0.925E-03
RMM:   8    -0.108938750761E+04   -0.12751E-05   -0.93014E-06  6460   0.500E-03
   8 F= -.10893875E+04 E0= -.10893875E+04  d E =-.144033E-02  mag=    60.0000
