       N       E                     dE             d eps       ncg     rms          rms(c)
DAV:   1    -0.105362295160E+04   -0.10536E+04   -0.54006E-03 13680   0.174E-01    0.532E-02
RMM:   2    -0.105362295324E+04   -0.16351E-05   -0.37924E-05  6815   0.112E-02    0.119E-01
RMM:   3    -0.105362295141E+04    0.18306E-05   -0.10306E-05  6578   0.656E-03    0.267E-02
RMM:   4    -0.105362295158E+04   -0.17382E-06   -0.49849E-06  5405   0.323E-03    0.867E-03
RMM:   5    -0.105362295173E+04   -0.15000E-06   -0.25173E-06  4757   0.327E-03    0.580E-03
RMM:   6    -0.105362295186E+04   -0.13103E-06   -0.14594E-06  3327   0.228E-03    0.715E-03
RMM:   7    -0.105362295192E+04   -0.60158E-07   -0.99461E-07  3316   0.248E-03    0.263E-03
RMM:   8    -0.105362295194E+04   -0.17433E-07   -0.27294E-07  2142   0.199E-03
   1 F= -.10536230E+04 E0= -.10536156E+04  d E =-.105362E+04  mag=    70.0000
       N       E                     dE             d eps       ncg     rms          rms(c)
DAV:   1    -0.105362251724E+04    0.43468E-03   -0.33637E-01 12624   0.682E-01    0.296E-01
RMM:   2    -0.105362360107E+04   -0.10838E-02   -0.11131E-02 12338   0.148E-01    0.249E-01
RMM:   3    -0.105362363693E+04   -0.35859E-04   -0.63482E-04 10986   0.516E-02    0.150E-01
RMM:   4    -0.105362356963E+04    0.67301E-04   -0.16430E-04  7716   0.193E-02    0.903E-02
RMM:   5    -0.105362355262E+04    0.17014E-04   -0.10868E-04  7498   0.153E-02    0.390E-02
RMM:   6    -0.105362355456E+04   -0.19386E-05   -0.24539E-05  7172   0.108E-02    0.167E-02
RMM:   7    -0.105362355508E+04   -0.52704E-06   -0.10639E-05  6862   0.446E-03    0.126E-02
RMM:   8    -0.105362355548E+04   -0.39501E-06   -0.47923E-06  6394   0.464E-03
   2 F= -.10536236E+04 E0= -.10536162E+04  d E =-.603540E-03  mag=    70.0000
       N       E                     dE             d eps       ncg     rms          rms(c)
DAV:   1    -0.105362358548E+04   -0.30394E-04   -0.27767E-02 12448   0.196E-01    0.847E-02
RMM:   2    -0.105362367226E+04   -0.86780E-04   -0.90282E-04 11507   0.432E-02    0.713E-02
RMM:   3    -0.105362367490E+04   -0.26425E-05   -0.44414E-05  6576   0.156E-02    0.427E-02
RMM:   4    -0.105362366973E+04    0.51747E-05   -0.19257E-05  6358   0.727E-03    0.269E-02
RMM:   5    -0.105362366886E+04    0.86203E-06   -0.11368E-05  6059   0.541E-03    0.281E-02
RMM:   6    -0.105362366850E+04    0.36944E-06   -0.35854E-06  5002   0.379E-03    0.516E-03
RMM:   7    -0.105362366840E+04    0.97119E-07   -0.33269E-07  2406   0.191E-03    0.281E-03
RMM:   8    -0.105362366835E+04    0.45606E-07   -0.12251E-08  1777   0.177E-03
   3 F= -.10536237E+04 E0= -.10536163E+04  d E =-.716413E-03  mag=    70.0000
       N       E                     dE             d eps       ncg     rms          rms(c)
DAV:   1    -0.105362348725E+04    0.18115E-03   -0.23262E-01 12600   0.577E-01    0.207E-01
RMM:   2    -0.105362423540E+04   -0.74815E-03   -0.63082E-03 12349   0.111E-01    0.150E-01
RMM:   3    -0.105362428633E+04   -0.50930E-04   -0.36741E-04  9315   0.467E-02    0.839E-02
RMM:   4    -0.105362427087E+04    0.15458E-04   -0.89032E-05  7174   0.152E-02    0.579E-02
RMM:   5    -0.105362426295E+04    0.79179E-05   -0.40992E-05  7033   0.111E-02    0.403E-02
RMM:   6    -0.105362426349E+04   -0.53497E-06   -0.19047E-05  6899   0.771E-03    0.135E-02
RMM:   7    -0.105362426405E+04   -0.55837E-06   -0.75563E-06  6651   0.518E-03    0.678E-03
RMM:   8    -0.105362426422E+04   -0.16882E-06   -0.39885E-06  5780   0.334E-03
   4 F= -.10536243E+04 E0= -.10536169E+04  d E =-.595864E-03  mag=    70.0000
       N       E                     dE             d eps       ncg     rms          rms(c)
DAV:   1    -0.105362409892E+04    0.16513E-03   -0.72408E-02 12416   0.322E-01    0.116E-01
RMM:   2    -0.105362433628E+04   -0.23736E-03   -0.20070E-03 12302   0.629E-02    0.854E-02
RMM:   3    -0.105362435155E+04   -0.15273E-04   -0.10725E-04  7179   0.263E-02    0.473E-02
RMM:   4    -0.105362434845E+04    0.31017E-05   -0.35375E-05  6993   0.946E-03    0.333E-02
RMM:   5    -0.105362434601E+04    0.24350E-05   -0.15497E-05  6833   0.697E-03    0.255E-02
RMM:   6    -0.105362434611E+04   -0.95359E-07   -0.83688E-06  6594   0.480E-03    0.754E-03
RMM:   7    -0.105362434634E+04   -0.23338E-06   -0.33568E-06  5826   0.352E-03    0.468E-03
RMM:   8    -0.105362434641E+04   -0.62893E-07   -0.14812E-06  3869   0.242E-03
   5 F= -.10536243E+04 E0= -.10536170E+04  d E =-.678053E-03  mag=    70.0000
       N       E                     dE             d eps       ncg     rms          rms(c)
DAV:   1    -0.105362437822E+04   -0.31872E-04   -0.11744E-01 12696   0.410E-01    0.123E-01
RMM:   2    -0.105362472044E+04   -0.34223E-03   -0.31410E-03 12447   0.779E-02    0.920E-02
RMM:   3    -0.105362473932E+04   -0.18872E-04   -0.17136E-04  7527   0.323E-02    0.523E-02
RMM:   4    -0.105362473685E+04    0.24660E-05   -0.46338E-05  6991   0.113E-02    0.377E-02
RMM:   5    -0.105362473420E+04    0.26542E-05   -0.20950E-05  6872   0.770E-03    0.309E-02
RMM:   6    -0.105362473484E+04   -0.64724E-06   -0.12120E-05  6670   0.583E-03    0.892E-03
RMM:   7    -0.105362473577E+04   -0.92268E-06   -0.50328E-06  6446   0.411E-03    0.612E-03
RMM:   8    -0.105362473610E+04   -0.33590E-06   -0.22067E-06  4418   0.278E-03
   6 F= -.10536247E+04 E0= -.10536174E+04  d E =-.389696E-03  mag=    70.0000
       N       E                     dE             d eps       ncg     rms          rms(c)
DAV:   1    -0.105362397894E+04    0.75682E-03   -0.33295E-01 12752   0.690E-01    0.207E-01
RMM:   2    -0.105362494458E+04   -0.96564E-03   -0.88825E-03 12443   0.131E-01    0.154E-01
RMM:   3    -0.105362500824E+04   -0.63658E-04   -0.57483E-04 10870   0.542E-02    0.874E-02
RMM:   4    -0.105362499411E+04    0.14126E-04   -0.96834E-05  7261   0.154E-02    0.616E-02
RMM:   5    -0.105362498352E+04    0.10594E-04   -0.49696E-05  7128   0.118E-02    0.387E-02
RMM:   6    -0.105362498611E+04   -0.25945E-05   -0.25681E-05  7033   0.878E-03    0.209E-02
RMM:   7    -0.105362498771E+04   -0.16015E-05   -0.11048E-05  6965   0.622E-03    0.824E-03
RMM:   8    -0.105362498856E+04   -0.84449E-06   -0.61859E-06  6548   0.417E-03
   7 F= -.10536250E+04 E0= -.10536177E+04  d E =-.642154E-03  mag=    70.0000
       N       E                     dE             d eps       ncg     rms          rms(c)
DAV:   1    -0.105362499958E+04   -0.11865E-04   -0.13390E-01 12512   0.437E-01    0.135E-01
RMM:   2    -0.105362538121E+04   -0.38163E-03   -0.36146E-03 12344   0.826E-02    0.929E-02
RMM:   3    -0.105362539874E+04   -0.17529E-04   -0.19036E-04  7755   0.339E-02    0.509E-02
RMM:   4    -0.105362539272E+04    0.60274E-05   -0.58356E-05  7056   0.124E-02    0.370E-02
RMM:   5    -0.105362539015E+04    0.25611E-05   -0.24935E-05  6940   0.899E-03    0.358E-02
RMM:   6    -0.105362538991E+04    0.24457E-06   -0.13771E-05  6706   0.607E-03    0.873E-03
RMM:   7    -0.105362539015E+04   -0.23528E-06   -0.56019E-06  6505   0.444E-03    0.586E-03
RMM:   8    -0.105362539023E+04   -0.83659E-07   -0.28962E-06  4853   0.294E-03
   8 F= -.10536254E+04 E0= -.10536181E+04  d E =-.401670E-03  mag=    70.0000
