       N       E                     dE             d eps       ncg     rms          rms(c)
DAV:   1    -0.115206008998E+04   -0.11521E+04   -0.45845E-02 13096   0.491E-01    0.197E-02
RMM:   2    -0.115206009085E+04   -0.86788E-06   -0.18021E-05  6992   0.717E-03    0.284E-02
RMM:   3    -0.115206009156E+04   -0.70858E-06   -0.71172E-06  6349   0.498E-03    0.529E-03
RMM:   4    -0.115206009245E+04   -0.88586E-06   -0.37608E-06  4124   0.280E-03    0.291E-03
RMM:   5    -0.115206009314E+04   -0.69184E-06   -0.21646E-06  3774   0.285E-03    0.402E-03
RMM:   6    -0.115206009349E+04   -0.34973E-06   -0.13650E-06  2994   0.219E-03    0.746E-04
RMM:   7    -0.115206009362E+04   -0.12896E-06   -0.69810E-07  2451   0.222E-03    0.503E-04
RMM:   8    -0.115206009369E+04   -0.72425E-07   -0.23245E-07  1718   0.189E-03
   1 F= -.11520601E+04 E0= -.11520601E+04  d E =-.115206E+04  mag=    20.0000
       N       E                     dE             d eps       ncg     rms          rms(c)
DAV:   1    -0.115206026510E+04   -0.17148E-03   -0.67363E-01 12896   0.959E-01    0.304E-01
RMM:   2    -0.115206156939E+04   -0.13043E-02   -0.21735E-02 12294   0.188E-01    0.323E-01
RMM:   3    -0.115206140395E+04    0.16544E-03   -0.97912E-04 11883   0.532E-02    0.225E-01
RMM:   4    -0.115206126995E+04    0.13400E-03   -0.61978E-04 10610   0.269E-02    0.134E-01
RMM:   5    -0.115206119048E+04    0.79468E-04   -0.12903E-04  8171   0.160E-02    0.419E-02
RMM:   6    -0.115206119008E+04    0.40482E-06   -0.38614E-05  7150   0.917E-03    0.241E-02
RMM:   7    -0.115206118998E+04    0.95606E-07   -0.15899E-05  6872   0.631E-03    0.229E-02
RMM:   8    -0.115206118942E+04    0.56066E-06   -0.86446E-06  6667   0.437E-03
   2 F= -.11520612E+04 E0= -.11520612E+04  d E =-.109573E-02  mag=    20.0000
       N       E                     dE             d eps       ncg     rms          rms(c)
DAV:   1    -0.115206132880E+04   -0.13882E-03   -0.54663E-02 12816   0.273E-01    0.862E-02
RMM:   2    -0.115206143433E+04   -0.10553E-03   -0.17443E-03 12126   0.541E-02    0.917E-02
RMM:   3    -0.115206141944E+04    0.14890E-04   -0.61171E-05  6814   0.158E-02    0.656E-02
RMM:   4    -0.115206140904E+04    0.10401E-04   -0.43867E-05  6728   0.887E-03    0.530E-02
RMM:   5    -0.115206140453E+04    0.45112E-05   -0.14096E-05  5966   0.564E-03    0.176E-02
RMM:   6    -0.115206140396E+04    0.57157E-06   -0.47259E-06  4938   0.320E-03    0.901E-03
RMM:   7    -0.115206140408E+04   -0.11650E-06   -0.14866E-06  3581   0.251E-03    0.569E-03
RMM:   8    -0.115206140416E+04   -0.86176E-07   -0.25201E-07  2126   0.192E-03
   3 F= -.11520614E+04 E0= -.11520614E+04  d E =-.131047E-02  mag=    20.0000
       N       E                     dE             d eps       ncg     rms          rms(c)
DAV:   1    -0.115206149148E+04   -0.87402E-04   -0.64108E-01 12800   0.944E-01    0.210E-01
RMM:   2    -0.115206295239E+04   -0.14609E-02   -0.16277E-02 12312   0.163E-01    0.148E-01
RMM:   3    -0.115206294148E+04    0.10913E-04   -0.78241E-04 11225   0.539E-02    0.964E-02
RMM:   4    -0.115206289680E+04    0.44682E-04   -0.22768E-04  7778   0.179E-02    0.587E-02
RMM:   5    -0.115206289384E+04    0.29626E-05   -0.54962E-05  7063   0.112E-02    0.392E-02
RMM:   6    -0.115206289619E+04   -0.23583E-05   -0.20766E-05  6913   0.698E-03    0.121E-02
RMM:   7    -0.115206289694E+04   -0.74317E-06   -0.11055E-05  6375   0.497E-03    0.110E-02
RMM:   8    -0.115206289736E+04   -0.42350E-06   -0.67053E-06  5682   0.402E-03
   4 F= -.11520629E+04 E0= -.11520629E+04  d E =-.149320E-02  mag=    20.0000
       N       E                     dE             d eps       ncg     rms          rms(c)
DAV:   1    -0.115206235367E+04    0.54327E-03   -0.42840E-01 12832   0.772E-01    0.172E-01
RMM:   2    -0.115206334381E+04   -0.99014E-03   -0.11018E-02 12347   0.134E-01    0.121E-01
RMM:   3    -0.115206333277E+04    0.11037E-04   -0.51716E-04 10221   0.430E-02    0.792E-02
RMM:   4    -0.115206330353E+04    0.29244E-04   -0.16255E-04  7373   0.151E-02    0.483E-02
RMM:   5    -0.115206330284E+04    0.68836E-06   -0.43361E-05  7047   0.961E-03    0.374E-02
RMM:   6    -0.115206330476E+04   -0.19208E-05   -0.18690E-05  6854   0.640E-03    0.107E-02
RMM:   7    -0.115206330552E+04   -0.76137E-06   -0.10267E-05  6394   0.472E-03    0.114E-02
RMM:   8    -0.115206330595E+04   -0.43573E-06   -0.64202E-06  5517   0.387E-03
   5 F= -.11520633E+04 E0= -.11520633E+04  d E =-.190179E-02  mag=    20.0000
       N       E                     dE             d eps       ncg     rms          rms(c)
DAV:   1    -0.115206340526E+04   -0.99742E-04   -0.47658E-01 12816   0.799E-01    0.157E-01
RMM:   2    -0.115206445003E+04   -0.10448E-02   -0.11853E-02 12326   0.136E-01    0.125E-01
RMM:   3    -0.115206442515E+04    0.24884E-04   -0.56043E-04 10349   0.449E-02    0.814E-02
RMM:   4    -0.115206439657E+04    0.28582E-04   -0.16816E-04  7420   0.151E-02    0.588E-02
RMM:   5    -0.115206439029E+04    0.62732E-05   -0.43492E-05  7035   0.954E-03    0.318E-02
RMM:   6    -0.115206439262E+04   -0.23283E-05   -0.20839E-05  6946   0.651E-03    0.125E-02
RMM:   7    -0.115206439428E+04   -0.16560E-05   -0.10914E-05  6533   0.491E-03    0.113E-02
RMM:   8    -0.115206439527E+04   -0.99749E-06   -0.63459E-06  5238   0.382E-03
   6 F= -.11520644E+04 E0= -.11520644E+04  d E =-.108932E-02  mag=    20.0000
       N       E                     dE             d eps       ncg     rms          rms(c)
DAV:   1    -0.115206360255E+04    0.79173E-03   -0.61425E-01 12800   0.907E-01    0.179E-01
RMM:   2    -0.115206494946E+04   -0.13469E-02   -0.15281E-02 12329   0.154E-01    0.142E-01
RMM:   3    -0.115206491851E+04    0.30946E-04   -0.73081E-04 10913   0.504E-02    0.922E-02
RMM:   4    -0.115206488236E+04    0.36152E-04   -0.22722E-04  7830   0.169E-02    0.657E-02
RMM:   5    -0.115206487231E+04    0.10051E-04   -0.51966E-05  7087   0.106E-02    0.369E-02
RMM:   6    -0.115206487529E+04   -0.29826E-05   -0.25284E-05  7015   0.711E-03    0.134E-02
RMM:   7    -0.115206487720E+04   -0.19042E-05   -0.12736E-05  6738   0.548E-03    0.121E-02
RMM:   8    -0.115206487840E+04   -0.12028E-05   -0.79215E-06  5820   0.409E-03
   7 F= -.11520649E+04 E0= -.11520649E+04  d E =-.157245E-02  mag=    20.0000
       N       E                     dE             d eps       ncg     rms          rms(c)
DAV:   1    -0.115206462992E+04    0.24728E-03   -0.56330E-01 12608   0.864E-01    0.180E-01
RMM:   2    -0.115206585269E+04   -0.12228E-02   -0.13778E-02 12358   0.146E-01    0.119E-01
RMM:   3    -0.115206583079E+04    0.21905E-04   -0.66695E-04 10695   0.483E-02    0.760E-02
RMM:   4    -0.115206578946E+04    0.41330E-04   -0.19936E-04  7638   0.162E-02    0.540E-02
RMM:   5    -0.115206578426E+04    0.51984E-05   -0.44712E-05  7052   0.100E-02    0.384E-02
RMM:   6    -0.115206578560E+04   -0.13341E-05   -0.24048E-05  6887   0.666E-03    0.119E-02
RMM:   7    -0.115206578630E+04   -0.70961E-06   -0.11391E-05  6456   0.520E-03    0.122E-02
RMM:   8    -0.115206578673E+04   -0.42673E-06   -0.71366E-06  5338   0.371E-03
   8 F= -.11520658E+04 E0= -.11520658E+04  d E =-.908331E-03  mag=    20.0000
       N       E                     dE             d eps       ncg     rms          rms(c)
DAV:   1    -0.115206566111E+04    0.12520E-03   -0.11885E-01 12528   0.397E-01    0.829E-02
RMM:   2    -0.115206592517E+04   -0.26406E-03   -0.29682E-03 12375   0.676E-02    0.557E-02
RMM:   3    -0.115206591631E+04    0.88601E-05   -0.11197E-04  7136   0.206E-02    0.350E-02
RMM:   4    -0.115206590914E+04    0.71735E-05   -0.46716E-05  6968   0.864E-03    0.279E-02
RMM:   5    -0.115206590867E+04    0.46151E-06   -0.13284E-05  6316   0.576E-03    0.210E-02
RMM:   6    -0.115206590868E+04   -0.98662E-08   -0.88849E-06  5854   0.365E-03    0.511E-03
RMM:   7    -0.115206590888E+04   -0.20066E-06   -0.37736E-06  4708   0.339E-03    0.658E-03
RMM:   8    -0.115206590899E+04   -0.10087E-06   -0.21897E-06  3449   0.230E-03
   9 F= -.11520659E+04 E0= -.11520659E+04  d E =-.103058E-02  mag=    20.0000
       N       E                     dE             d eps       ncg     rms          rms(c)
DAV:   1    -0.115206546075E+04    0.44813E-03   -0.61624E-01 12368   0.907E-01    0.186E-01
RMM:   2    -0.115206685049E+04   -0.13897E-02   -0.14970E-02 12322   0.153E-01    0.131E-01
RMM:   3    -0.115206684665E+04    0.38394E-05   -0.72730E-04 10800   0.515E-02    0.822E-02
RMM:   4    -0.115206680840E+04    0.38257E-04   -0.18927E-04  7567   0.160E-02    0.500E-02
RMM:   5    -0.115206680216E+04    0.62338E-05   -0.55457E-05  7043   0.107E-02    0.427E-02
RMM:   6    -0.115206680431E+04   -0.21480E-05   -0.22335E-05  6821   0.710E-03    0.121E-02
RMM:   7    -0.115206680519E+04   -0.88071E-06   -0.11703E-05  6406   0.492E-03    0.125E-02
RMM:   8    -0.115206680561E+04   -0.41617E-06   -0.68167E-06  5596   0.408E-03
  10 F= -.11520668E+04 E0= -.11520668E+04  d E =-.896623E-03  mag=    20.0000
       N       E                     dE             d eps       ncg     rms          rms(c)
DAV:   1    -0.115206576827E+04    0.10369E-02   -0.60874E-01 12336   0.902E-01    0.185E-01
RMM:   2    -0.115206715016E+04   -0.13819E-02   -0.14875E-02 12340   0.152E-01    0.131E-01
RMM:   3    -0.115206714217E+04    0.79842E-05   -0.70692E-04 10791   0.497E-02    0.820E-02
RMM:   4    -0.115206710406E+04    0.38115E-04   -0.18888E-04  7582   0.158E-02    0.516E-02
RMM:   5    -0.115206709775E+04    0.63081E-05   -0.53743E-05  7066   0.105E-02    0.453E-02
RMM:   6    -0.115206709994E+04   -0.21864E-05   -0.24307E-05  6862   0.719E-03    0.122E-02
RMM:   7    -0.115206710090E+04   -0.95951E-06   -0.12442E-05  6510   0.512E-03    0.133E-02
RMM:   8    -0.115206710139E+04   -0.48990E-06   -0.74625E-06  5702   0.413E-03
  11 F= -.11520671E+04 E0= -.11520671E+04  d E =-.119240E-02  mag=    20.0000
       N       E                     dE             d eps       ncg     rms          rms(c)
DAV:   1    -0.115206679187E+04    0.30903E-03   -0.43666E-01 12496   0.766E-01    0.150E-01
RMM:   2    -0.115206780431E+04   -0.10124E-02   -0.10660E-02 12390   0.128E-01    0.977E-02
RMM:   3    -0.115206780059E+04    0.37213E-05   -0.48787E-04  9530   0.418E-02    0.617E-02
RMM:   4    -0.115206777665E+04    0.23944E-04   -0.12822E-04  7211   0.136E-02    0.381E-02
RMM:   5    -0.115206777680E+04   -0.15323E-06   -0.37676E-05  6947   0.882E-03    0.350E-02
RMM:   6    -0.115206777890E+04   -0.20982E-05   -0.18983E-05  6765   0.622E-03    0.966E-03
RMM:   7    -0.115206778008E+04   -0.11859E-05   -0.10027E-05  6221   0.458E-03    0.106E-02
RMM:   8    -0.115206778067E+04   -0.58075E-06   -0.59450E-06  4944   0.369E-03
  12 F= -.11520678E+04 E0= -.11520678E+04  d E =-.679280E-03  mag=    20.0000
       N       E                     dE             d eps       ncg     rms          rms(c)
DAV:   1    -0.115206604084E+04    0.17392E-02   -0.94369E-01 12432   0.113E+00    0.220E-01
RMM:   2    -0.115206821247E+04   -0.21716E-02   -0.22883E-02 12326   0.188E-01    0.144E-01
RMM:   3    -0.115206821500E+04   -0.25243E-05   -0.11074E-03 11531   0.624E-02    0.901E-02
RMM:   4    -0.115206816565E+04    0.49348E-04   -0.29789E-04  8394   0.189E-02    0.551E-02
RMM:   5    -0.115206815970E+04    0.59491E-05   -0.69566E-05  7113   0.122E-02    0.469E-02
RMM:   6    -0.115206816347E+04   -0.37751E-05   -0.31547E-05  6976   0.829E-03    0.136E-02
RMM:   7    -0.115206816540E+04   -0.19209E-05   -0.16353E-05  6659   0.600E-03    0.130E-02
RMM:   8    -0.115206816646E+04   -0.10671E-05   -0.10585E-05  6332   0.479E-03
  13 F= -.11520682E+04 E0= -.11520682E+04  d E =-.106508E-02  mag=    20.0000
       N       E                     dE             d eps       ncg     rms          rms(c)
DAV:   1    -0.115206823483E+04   -0.69434E-04   -0.23666E-01 12560   0.565E-01    0.118E-01
RMM:   2    -0.115206876968E+04   -0.53486E-03   -0.60043E-03 12380   0.972E-02    0.927E-02
RMM:   3    -0.115206875629E+04    0.13399E-04   -0.25028E-04  8285   0.299E-02    0.588E-02
RMM:   4    -0.115206873866E+04    0.17623E-04   -0.83253E-05  7054   0.112E-02    0.332E-02
RMM:   5    -0.115206873685E+04    0.18159E-05   -0.30211E-05  6905   0.781E-03    0.284E-02
RMM:   6    -0.115206873843E+04   -0.15827E-05   -0.12904E-05  6501   0.527E-03    0.916E-03
RMM:   7    -0.115206873932E+04   -0.89315E-06   -0.68723E-06  5605   0.378E-03    0.763E-03
RMM:   8    -0.115206873994E+04   -0.61421E-06   -0.42372E-06  4948   0.320E-03
  14 F= -.11520687E+04 E0= -.11520687E+04  d E =-.573474E-03  mag=    20.0000
