       N       E                     dE             d eps       ncg     rms          rms(c)
DAV:   1    -0.108923084703E+04   -0.10892E+04   -0.22263E-02 13328   0.350E-01    0.174E-02
RMM:   2    -0.108923084803E+04   -0.10021E-05   -0.17897E-05  6854   0.767E-03    0.297E-02
RMM:   3    -0.108923084849E+04   -0.46028E-06   -0.69266E-06  6354   0.518E-03    0.457E-03
RMM:   4    -0.108923084886E+04   -0.36524E-06   -0.38933E-06  4841   0.297E-03    0.371E-03
RMM:   5    -0.108923084900E+04   -0.14677E-06   -0.23750E-06  4397   0.313E-03    0.163E-03
RMM:   6    -0.108923084912E+04   -0.11406E-06   -0.14452E-06  3059   0.219E-03    0.749E-04
RMM:   7    -0.108923084916E+04   -0.37602E-07   -0.90795E-07  2894   0.236E-03    0.473E-04
RMM:   8    -0.108923084919E+04   -0.28653E-07   -0.33566E-07  2096   0.195E-03
   1 F= -.10892308E+04 E0= -.10892308E+04  d E =-.108923E+04  mag=    50.0000
       N       E                     dE             d eps       ncg     rms          rms(c)
DAV:   1    -0.108923062247E+04    0.22669E-03   -0.38935E-01 12544   0.728E-01    0.287E-01
RMM:   2    -0.108923188826E+04   -0.12658E-02   -0.11422E-02 12352   0.148E-01    0.208E-01
RMM:   3    -0.108923196303E+04   -0.74774E-04   -0.64050E-04 11012   0.512E-02    0.116E-01
RMM:   4    -0.108923190559E+04    0.57439E-04   -0.16915E-04  7555   0.184E-02    0.775E-02
RMM:   5    -0.108923189291E+04    0.12679E-04   -0.65557E-05  7243   0.131E-02    0.515E-02
RMM:   6    -0.108923189588E+04   -0.29658E-05   -0.27687E-05  7108   0.940E-03    0.142E-02
RMM:   7    -0.108923189773E+04   -0.18490E-05   -0.11026E-05  6965   0.585E-03    0.110E-02
RMM:   8    -0.108923189903E+04   -0.12969E-05   -0.63922E-06  6534   0.420E-03
   2 F= -.10892319E+04 E0= -.10892319E+04  d E =-.104984E-02  mag=    50.0000
       N       E                     dE             d eps       ncg     rms          rms(c)
DAV:   1    -0.108923189989E+04   -0.21633E-05   -0.87158E-04 12352   0.348E-02    0.140E-02
RMM:   2    -0.108923190318E+04   -0.32828E-05   -0.27984E-05  6443   0.885E-03    0.123E-02
RMM:   3    -0.108923190404E+04   -0.86315E-06   -0.54670E-06  6200   0.474E-03    0.707E-03
RMM:   4    -0.108923190421E+04   -0.17091E-06   -0.16289E-06  4322   0.256E-03    0.486E-03
RMM:   5    -0.108923190439E+04   -0.18143E-06   -0.86765E-07  3510   0.232E-03    0.204E-03
RMM:   6    -0.108923190447E+04   -0.80341E-07   -0.22798E-07  2045   0.199E-03    0.662E-04
RMM:   7    -0.108923190450E+04   -0.29831E-07   -0.10877E-07  1881   0.196E-03    0.246E-04
RMM:   8    -0.108923190451E+04   -0.10827E-07   -0.16856E-08  1440   0.192E-03
   3 F= -.10892319E+04 E0= -.10892319E+04  d E =-.105533E-02  mag=    50.0000
       N       E                     dE             d eps       ncg     rms          rms(c)
DAV:   1    -0.108923197788E+04   -0.73380E-04   -0.28380E-01 12528   0.624E-01    0.174E-01
RMM:   2    -0.108923276553E+04   -0.78765E-03   -0.72519E-03 12420   0.114E-01    0.110E-01
RMM:   3    -0.108923279744E+04   -0.31903E-04   -0.36767E-04  9080   0.416E-02    0.619E-02
RMM:   4    -0.108923277796E+04    0.19477E-04   -0.96289E-05  7119   0.144E-02    0.381E-02
RMM:   5    -0.108923277623E+04    0.17284E-05   -0.34810E-05  6995   0.105E-02    0.357E-02
RMM:   6    -0.108923277775E+04   -0.15202E-05   -0.18029E-05  6777   0.683E-03    0.780E-03
RMM:   7    -0.108923277854E+04   -0.78704E-06   -0.78603E-06  6593   0.522E-03    0.642E-03
RMM:   8    -0.108923277898E+04   -0.44442E-06   -0.49715E-06  5376   0.339E-03
   4 F= -.10892328E+04 E0= -.10892328E+04  d E =-.874471E-03  mag=    50.0000
