<?xml version="1.0" encoding="ISO-8859-1"?>
<modeling>
 <generator>
  <i name="program" type="string">vasp </i>
  <i name="version" type="string">5.4.1  </i>
  <i name="subversion" type="string">05Feb16 (build Jan 25 2017 20:16:33) complex                          parallel </i>
  <i name="platform" type="string">BWXE6 </i>
  <i name="date" type="string">2019 08 12 </i>
  <i name="time" type="string">20:39:07 </i>
 </generator>
 <incar>
  <i type="string" name="SYSTEM"> STF</i>
  <i type="string" name="PREC">normal</i>
  <i type="string" name="ALGO"> Fast</i>
  <i type="int" name="ISPIN">     2</i>
  <i type="int" name="NELM">    40</i>
  <i type="int" name="NELMIN">     8</i>
  <i type="int" name="IBRION">     2</i>
  <i name="EDIFF">      0.00010000</i>
  <i name="EDIFFG">     -0.03000000</i>
  <i type="int" name="NSW">    30</i>
  <i type="int" name="ISIF">     3</i>
  <i name="ENCUT">    520.00000000</i>
  <i type="int" name="NBANDS">   768</i>
  <v name="MAGMOM">      0.60000000      0.60000000      0.60000000      0.60000000      0.60000000      0.60000000      0.60000000      0.60000000      0.60000000      0.60000000      0.60000000      0.60000000      0.60000000      0.60000000      0.60000000      0.60000000      0.60000000      0.60000000      0.60000000      0.60000000
      0.60000000      0.60000000      0.60000000      0.60000000      0.60000000      0.60000000      0.60000000      0.60000000      0.60000000      0.60000000      0.60000000      0.60000000      0.60000000      0.60000000      0.60000000      0.60000000      0.60000000      0.60000000      0.60000000      0.60000000
      0.60000000      0.60000000      0.60000000      0.60000000      0.60000000      0.60000000      0.60000000      0.60000000      0.60000000      0.60000000      0.60000000      0.60000000      5.00000000      5.00000000      5.00000000      5.00000000      5.00000000      5.00000000      5.00000000      5.00000000
      5.00000000      5.00000000      5.00000000      5.00000000      0.60000000      0.60000000      0.60000000      0.60000000      0.60000000      0.60000000      0.60000000      0.60000000      0.60000000      0.60000000      0.60000000      0.60000000      0.60000000      0.60000000      0.60000000      0.60000000
      0.60000000      0.60000000      0.60000000      0.60000000      0.60000000      0.60000000      0.60000000      0.60000000      0.60000000      0.60000000      0.60000000      0.60000000      0.60000000      0.60000000      0.60000000      0.60000000      0.60000000      0.60000000      0.60000000      0.60000000
      0.60000000      0.60000000      0.60000000      0.60000000      0.60000000      0.60000000      0.60000000      0.60000000      0.60000000      0.60000000      0.60000000      0.60000000      0.60000000      0.60000000      0.60000000      0.60000000      0.60000000      0.60000000      0.60000000      0.60000000
      0.60000000      0.60000000      0.60000000      0.60000000      0.60000000      0.60000000      0.60000000      0.60000000      0.60000000      0.60000000      0.60000000      0.60000000      0.60000000      0.60000000      0.60000000      0.60000000      0.60000000      0.60000000      0.60000000      0.60000000
      0.60000000      0.60000000      0.60000000      0.60000000      0.60000000      0.60000000      0.60000000      0.60000000      0.60000000      0.60000000      0.60000000      0.60000000      0.60000000      0.60000000</v>
  <i type="string" name="LREAL"> Auto</i>
  <i type="int" name="ISMEAR">     0</i>
  <i name="SIGMA">      0.05000000</i>
  <i type="int" name="LMAXMIX">     4</i>
  <v type="int" name="KPOINT_BSE">    -1     0     0     0</v>
  <i type="int" name="NELM">    40</i>
  <i type="logical" name="LDAU"> T  </i>
  <v type="int" name="LDAUTYPE">     2</v>
  <v type="int" name="LDAUL">     0     2     2     0</v>
  <v name="LDAUU">      0.00000000      3.00000000      5.00000000      0.00000000</v>
  <v name="LDAUJ">      0.00000000      0.00000000      0.00000000      0.00000000</v>
  <i type="int" name="LDAUPRINT">     1</i>
 </incar>
 <kpoints>
  <generation param="Monkhorst-Pack">
   <v type="int" name="divisions">       2        2        2 </v>
   <v name="usershift">      0.00000000       0.00000000       0.00000000 </v>
   <v name="genvec1">      0.50000000       0.00000000       0.00000000 </v>
   <v name="genvec2">     -0.00000000       0.50000000       0.00000000 </v>
   <v name="genvec3">      0.00000000       0.00000000       0.50000000 </v>
   <v name="shift">      0.50000000       0.50000000       0.50000000 </v>
  </generation>
  <varray name="kpointlist" >
   <v>       0.25000000       0.25000000       0.25000000 </v>
   <v>      -0.25000000       0.25000000       0.25000000 </v>
   <v>       0.25000000      -0.25000000       0.25000000 </v>
   <v>      -0.25000000      -0.25000000       0.25000000 </v>
  </varray>
  <varray name="weights" >
   <v>       0.25000000 </v>
   <v>       0.25000000 </v>
   <v>       0.25000000 </v>
   <v>       0.25000000 </v>
  </varray>
 </kpoints>
 <parameters>
  <separator name="general" >
   <i type="string" name="SYSTEM">STF</i>
   <i type="logical" name="LCOMPAT"> F  </i>
  </separator>
  <separator name="electronic" >
   <i type="string" name="PREC">normal</i>
   <i name="ENMAX">    520.00000000</i>
   <i name="ENAUG">    605.39200000</i>
   <i name="EDIFF">      0.00010000</i>
   <i type="int" name="IALGO">    68</i>
   <i type="int" name="IWAVPR">    11</i>
   <i type="int" name="NBANDS">   768</i>
   <i name="NELECT">   1036.00000000</i>
   <i type="int" name="TURBO">     0</i>
   <i type="int" name="IRESTART">     0</i>
   <i type="int" name="NREBOOT">     0</i>
   <i type="int" name="NMIN">     0</i>
   <i name="EREF">      0.00000000</i>
   <separator name="electronic smearing" >
    <i type="int" name="ISMEAR">     0</i>
    <i name="SIGMA">      0.05000000</i>
    <i name="KSPACING">      0.50000000</i>
    <i type="logical" name="KGAMMA"> T  </i>
   </separator>
   <separator name="electronic projectors" >
    <i type="logical" name="LREAL"> T  </i>
    <v name="ROPT">     -0.00050000     -0.00050000     -0.00050000     -0.00050000</v>
    <i type="int" name="LMAXPAW">  -100</i>
    <i type="int" name="LMAXMIX">     4</i>
    <i type="logical" name="NLSPLINE"> F  </i>
   </separator>
   <separator name="electronic startup" >
    <i type="int" name="ISTART">     1</i>
    <i type="int" name="ICHARG">     0</i>
    <i type="int" name="INIWAV">     1</i>
   </separator>
   <separator name="electronic spin" >
    <i type="int" name="ISPIN">     2</i>
    <i type="logical" name="LNONCOLLINEAR"> F  </i>
    <v name="MAGMOM">      0.60000000      0.60000000      0.60000000      0.60000000      0.60000000      0.60000000      0.60000000      0.60000000      0.60000000      0.60000000      0.60000000      0.60000000      0.60000000      0.60000000      0.60000000      0.60000000      0.60000000      0.60000000      0.60000000      0.60000000
      0.60000000      0.60000000      0.60000000      0.60000000      0.60000000      0.60000000      0.60000000      0.60000000      0.60000000      0.60000000      0.60000000      0.60000000      0.60000000      0.60000000      0.60000000      0.60000000      0.60000000      0.60000000      0.60000000      0.60000000
      0.60000000      0.60000000      0.60000000      0.60000000      0.60000000      0.60000000      0.60000000      0.60000000      0.60000000      0.60000000      0.60000000      0.60000000      5.00000000      5.00000000      5.00000000      5.00000000      5.00000000      5.00000000      5.00000000      5.00000000
      5.00000000      5.00000000      5.00000000      5.00000000      0.60000000      0.60000000      0.60000000      0.60000000      0.60000000      0.60000000      0.60000000      0.60000000      0.60000000      0.60000000      0.60000000      0.60000000      0.60000000      0.60000000      0.60000000      0.60000000
      0.60000000      0.60000000      0.60000000      0.60000000      0.60000000      0.60000000      0.60000000      0.60000000      0.60000000      0.60000000      0.60000000      0.60000000      0.60000000      0.60000000      0.60000000      0.60000000      0.60000000      0.60000000      0.60000000      0.60000000
      0.60000000      0.60000000      0.60000000      0.60000000      0.60000000      0.60000000      0.60000000      0.60000000      0.60000000      0.60000000      0.60000000      0.60000000      0.60000000      0.60000000      0.60000000      0.60000000      0.60000000      0.60000000      0.60000000      0.60000000
      0.60000000      0.60000000      0.60000000      0.60000000      0.60000000      0.60000000      0.60000000      0.60000000      0.60000000      0.60000000      0.60000000      0.60000000      0.60000000      0.60000000      0.60000000      0.60000000      0.60000000      0.60000000      0.60000000      0.60000000
      0.60000000      0.60000000      0.60000000      0.60000000      0.60000000      0.60000000      0.60000000      0.60000000      0.60000000      0.60000000      0.60000000      0.60000000      0.60000000      0.60000000</v>
    <i name="NUPDOWN">     -1.00000000</i>
    <i type="logical" name="LSORBIT"> F  </i>
    <v name="SAXIS">      0.00000000      0.00000000      1.00000000</v>
    <i type="logical" name="LSPIRAL"> F  </i>
    <v name="QSPIRAL">      0.00000000      0.00000000      0.00000000</v>
    <i type="logical" name="LZEROZ"> F  </i>
   </separator>
   <separator name="electronic exchange-correlation" >
    <i type="logical" name="LASPH"> F  </i>
    <i type="logical" name="LMETAGGA"> F  </i>
   </separator>
   <separator name="electronic convergence" >
    <i type="int" name="NELM">    40</i>
    <i type="int" name="NELMDL">     0</i>
    <i type="int" name="NELMIN">     8</i>
    <i name="ENINI">    520.00000000</i>
    <separator name="electronic convergence detail" >
     <i type="logical" name="LDIAG"> T  </i>
     <i type="logical" name="LSUBROT"> F  </i>
     <i name="WEIMIN">      0.00100000</i>
     <i name="EBREAK">      0.00000003</i>
     <i name="DEPER">      0.30000000</i>
     <i type="int" name="NRMM">     4</i>
     <i name="TIME">      0.40000000</i>
    </separator>
   </separator>
   <separator name="electronic mixer" >
    <i name="AMIX">      0.40000000</i>
    <i name="BMIX">      1.00000000</i>
    <i name="AMIN">      0.10000000</i>
    <i name="AMIX_MAG">      1.60000000</i>
    <i name="BMIX_MAG">      1.00000000</i>
    <separator name="electronic mixer details" >
     <i type="int" name="IMIX">     4</i>
     <i type="logical" name="MIXFIRST"> F  </i>
     <i type="int" name="MAXMIX">   -45</i>
     <i name="WC">    100.00000000</i>
     <i type="int" name="INIMIX">     1</i>
     <i type="int" name="MIXPRE">     1</i>
     <i type="int" name="MREMOVE">     5</i>
    </separator>
   </separator>
   <separator name="electronic dipolcorrection" >
    <i type="logical" name="LDIPOL"> F  </i>
    <i type="logical" name="LMONO"> F  </i>
    <i type="int" name="IDIPOL">     0</i>
    <i name="EPSILON">      1.00000000</i>
    <v name="DIPOL">   -100.00000000   -100.00000000   -100.00000000</v>
    <i name="EFIELD">      0.00000000</i>
   </separator>
  </separator>
  <separator name="grids" >
   <i type="int" name="NGX">    64</i>
   <i type="int" name="NGY">    64</i>
   <i type="int" name="NGZ">    90</i>
   <i type="int" name="NGXF">   128</i>
   <i type="int" name="NGYF">   128</i>
   <i type="int" name="NGZF">   180</i>
   <i type="logical" name="ADDGRID"> F  </i>
  </separator>
  <separator name="ionic" >
   <i type="int" name="NSW">    30</i>
   <i type="int" name="IBRION">     2</i>
   <i type="int" name="ISIF">     3</i>
   <i name="PSTRESS">      0.00000000</i>
   <i name="EDIFFG">     -0.03000000</i>
   <i type="int" name="NFREE">     1</i>
   <i name="POTIM">      0.50000000</i>
   <i name="SMASS">     -3.00000000</i>
   <i name="SCALEE">      1.00000000</i>
  </separator>
  <separator name="ionic md" >
   <i name="TEBEG">      0.00010000</i>
   <i name="TEEND">      0.00010000</i>
   <i type="int" name="NBLOCK">     1</i>
   <i type="int" name="KBLOCK">    30</i>
   <i type="int" name="NPACO">   256</i>
   <i name="APACO">     16.00000000</i>
  </separator>
  <separator name="symmetry" >
   <i type="int" name="ISYM">     2</i>
   <i name="SYMPREC">      0.00001000</i>
  </separator>
  <separator name="dos" >
   <i type="logical" name="LORBIT"> F  </i>
   <v name="RWIGS">     -1.00000000     -1.00000000     -1.00000000     -1.00000000</v>
   <i type="int" name="NEDOS">   301</i>
   <i name="EMIN">     10.00000000</i>
   <i name="EMAX">    -10.00000000</i>
   <i name="EFERMI">      0.00000000</i>
  </separator>
  <separator name="writing" >
   <i type="int" name="NWRITE">     2</i>
   <i type="logical" name="LWAVE"> T  </i>
   <i type="logical" name="LCHARG"> T  </i>
   <i type="logical" name="LPARD"> F  </i>
   <i type="logical" name="LVTOT"> F  </i>
   <i type="logical" name="LVHAR"> F  </i>
   <i type="logical" name="LELF"> F  </i>
   <i type="logical" name="LOPTICS"> F  </i>
   <v name="STM">      0.00000000      0.00000000      0.00000000      0.00000000      0.00000000      0.00000000      0.00000000</v>
  </separator>
  <separator name="performance" >
   <i type="int" name="NPAR">     2</i>
   <i type="int" name="NSIM">     4</i>
   <i type="int" name="NBLK">    -1</i>
   <i type="logical" name="LPLANE"> T  </i>
   <i type="logical" name="LSCALAPACK"> T  </i>
   <i type="logical" name="LSCAAWARE"> F  </i>
   <i type="logical" name="LSCALU"> F  </i>
   <i type="logical" name="LASYNC"> F  </i>
   <i type="logical" name="LORBITALREAL"> F  </i>
  </separator>
  <separator name="miscellaneous" >
   <i type="int" name="IDIOT">     3</i>
   <i type="logical" name="LMUSIC"> F  </i>
   <v name="POMASS">     87.62000000     47.88000000     55.84700000     16.00000000</v>
   <v name="DARWINR">      0.00000000      0.00000000      0.00000000      0.00000000</v>
   <v name="DARWINV">      1.00000000      1.00000000      1.00000000      1.00000000</v>
   <i type="logical" name="LCORR"> T  </i>
  </separator>
  <i type="logical" name="GGA_COMPAT"> T  </i>
  <i type="logical" name="LBERRY"> F  </i>
  <i type="int" name="ICORELEVEL">     0</i>
  <i type="logical" name="LDAU"> T  </i>
  <v type="int" name="LDAUTYPE">     2</v>
  <v type="int" name="LDAUL">     0</v>
  <v name="LDAUU">      0.00000000</v>
  <v name="LDAUJ">      0.00000000</v>
  <i type="int" name="LDAUPRINT">     1</i>
  <i type="int" name="I_CONSTRAINED_M">     0</i>
  <separator name="electronic exchange-correlation" >
   <i type="string" name="GGA">--</i>
   <i type="int" name="VOSKOWN">     0</i>
   <i type="logical" name="LHFCALC"> F  </i>
   <i type="string" name="PRECFOCK"></i>
   <i type="logical" name="LSYMGRAD"> F  </i>
   <i type="logical" name="LHFONE"> F  </i>
   <i type="logical" name="LRHFCALC"> F  </i>
   <i type="logical" name="LTHOMAS"> F  </i>
   <i type="logical" name="LMODELHF"> F  </i>
   <i name="ENCUT4O">     -1.00000000</i>
   <i type="int" name="EXXOEP">     0</i>
   <i type="int" name="FOURORBIT">     0</i>
   <i name="AEXX">      0.00000000</i>
   <i name="HFALPHA">      0.00000000</i>
   <i name="MCALPHA">      0.00000000</i>
   <i name="ALDAX">      1.00000000</i>
   <i name="AGGAX">      1.00000000</i>
   <i name="ALDAC">      1.00000000</i>
   <i name="AGGAC">      1.00000000</i>
   <i type="int" name="NKREDX">     1</i>
   <i type="int" name="NKREDY">     1</i>
   <i type="int" name="NKREDZ">     1</i>
   <i type="logical" name="SHIFTRED"> F  </i>
   <i type="logical" name="ODDONLY"> F  </i>
   <i type="logical" name="EVENONLY"> F  </i>
   <i type="int" name="LMAXFOCK">     0</i>
   <i type="int" name="NMAXFOCKAE">     0</i>
   <i type="logical" name="LFOCKAEDFT"> F  </i>
   <i name="HFSCREEN">      0.00000000</i>
   <i name="HFSCREENC">      0.00000000</i>
   <i type="int" name="NBANDSGWLOW">     0</i>
  </separator>
  <separator name="vdW DFT" >
   <i type="logical" name="LUSE_VDW"> F  </i>
   <i name="Zab_VDW">     -0.84910000</i>
   <i name="PARAM1">      0.12340000</i>
   <i name="PARAM2">      1.00000000</i>
   <i name="PARAM3">      0.00000000</i>
  </separator>
  <separator name="model GW" >
   <i type="int" name="MODEL_GW">     0</i>
   <i name="MODEL_EPS0">      7.82472062</i>
   <i name="MODEL_ALPHA">      1.00000000</i>
  </separator>
  <separator name="linear response parameters" >
   <i type="logical" name="LEPSILON"> F  </i>
   <i type="logical" name="LRPA"> F  </i>
   <i type="logical" name="LNABLA"> F  </i>
   <i type="logical" name="LVEL"> F  </i>
   <i type="int" name="KINTER">     0</i>
   <i name="CSHIFT">      0.10000000</i>
   <i name="OMEGAMAX">     -1.00000000</i>
   <i name="DEG_THRESHOLD">      0.00200000</i>
  </separator>
  <separator name="orbital magnetization" >
   <i type="logical" name="NUCIND"> F  </i>
   <v name="MAGPOS">      0.00000000      0.00000000      0.00000000</v>
   <i type="logical" name="LNICSALL"> T  </i>
   <i type="logical" name="ORBITALMAG"> F  </i>
   <i type="logical" name="LMAGBLOCH"> F  </i>
   <i type="logical" name="LCHIMAG"> F  </i>
   <i type="logical" name="LGAUGE"> T  </i>
   <i type="int" name="MAGATOM">     0</i>
   <v name="MAGDIPOL">      0.00000000      0.00000000      0.00000000</v>
   <v name="AVECCONST">      0.00000000      0.00000000      0.00000000</v>
  </separator>
  <separator name="response functions" >
   <i type="logical" name="LADDER"> F  </i>
   <i type="logical" name="LFXC"> F  </i>
   <i type="logical" name="LHARTREE"> T  </i>
   <i type="int" name="IBSE">     0</i>
   <v type="int" name="KPOINT">    -1     0     0     0</v>
   <i type="logical" name="LTCTE"> F  </i>
   <i type="logical" name="LTETE"> F  </i>
   <i type="logical" name="LTRIPLET"> F  </i>
   <i type="logical" name="LFXCEPS"> F  </i>
   <i type="logical" name="LFXHEG"> F  </i>
   <i type="int" name="NATURALO">     0</i>
   <i type="logical" name="L2ORDER"> F  </i>
   <i type="logical" name="LUSEW"> F  </i>
   <i name="ENCUTGW">     -2.00000000</i>
   <i name="ENCUTGWSOFT">     -2.00000000</i>
   <i name="ENCUTLF">     -1.00000000</i>
   <i type="int" name="LMAXMP2">    -1</i>
   <i name="SCISSOR">      0.00000000</i>
   <i type="int" name="NOMEGA">     0</i>
   <i type="int" name="NOMEGAR">     0</i>
   <i type="int" name="NBANDSGW">    -1</i>
   <i type="int" name="NBANDSO">    -1</i>
   <i type="int" name="NBANDSV">    -1</i>
   <i type="int" name="NELM">    40</i>
   <i type="int" name="NELMHF">     1</i>
   <i type="int" name="DIM">     3</i>
   <i type="int" name="ANTIRES">     0</i>
   <i name="OMEGAMAX">    -30.00000000</i>
   <i name="OMEGAMIN">    -30.00000000</i>
   <i name="OMEGATL">   -200.00000000</i>
   <i type="int" name="OMEGAGRID">     0</i>
   <i name="CSHIFT">     -0.10000000</i>
   <i type="logical" name="SELFENERGY"> F  </i>
   <i type="logical" name="LSPECTRAL"> F  </i>
   <i type="logical" name="LSPECTRALGW"> F  </i>
   <i type="logical" name="LSINGLES"> F  </i>
   <i type="logical" name="LFERMIGW"> F  </i>
   <i type="logical" name="ODDONLYGW"> F  </i>
   <i type="logical" name="EVENONLYGW"> F  </i>
   <i type="int" name="NKREDLFX">     1</i>
   <i type="int" name="NKREDLFY">     1</i>
   <i type="int" name="NKREDLFZ">     1</i>
   <i type="int" name="MAXMEM">  1800</i>
   <i type="int" name="TELESCOPE">     0</i>
   <i type="int" name="TAUPAR">     1</i>
   <i type="int" name="OMEGAPAR">    -1</i>
   <i name="LAMBDA">      1.00000000</i>
  </separator>
  <separator name="External order field" >
   <i name="OFIELD_KAPPA">      0.00000000</i>
   <v name="OFIELD_K">      0.00000000      0.00000000      0.00000000</v>
   <i name="OFIELD_Q6_NEAR">      0.00000000</i>
   <i name="OFIELD_Q6_FAR">      0.00000000</i>
   <i name="OFIELD_A">      0.00000000</i>
  </separator>
 </parameters>
 <atominfo>
  <atoms>     154 </atoms>
  <types>       4 </types>
  <array name="atoms" >
   <dimension dim="1">ion</dimension>
   <field type="string">element</field>
   <field type="int">atomtype</field>
   <set>
    <rc><c>Sr</c><c>   1</c></rc>
    <rc><c>Sr</c><c>   1</c></rc>
    <rc><c>Sr</c><c>   1</c></rc>
    <rc><c>Sr</c><c>   1</c></rc>
    <rc><c>Sr</c><c>   1</c></rc>
    <rc><c>Sr</c><c>   1</c></rc>
    <rc><c>Sr</c><c>   1</c></rc>
    <rc><c>Sr</c><c>   1</c></rc>
    <rc><c>Sr</c><c>   1</c></rc>
    <rc><c>Sr</c><c>   1</c></rc>
    <rc><c>Sr</c><c>   1</c></rc>
    <rc><c>Sr</c><c>   1</c></rc>
    <rc><c>Sr</c><c>   1</c></rc>
    <rc><c>Sr</c><c>   1</c></rc>
    <rc><c>Sr</c><c>   1</c></rc>
    <rc><c>Sr</c><c>   1</c></rc>
    <rc><c>Sr</c><c>   1</c></rc>
    <rc><c>Sr</c><c>   1</c></rc>
    <rc><c>Sr</c><c>   1</c></rc>
    <rc><c>Sr</c><c>   1</c></rc>
    <rc><c>Sr</c><c>   1</c></rc>
    <rc><c>Sr</c><c>   1</c></rc>
    <rc><c>Sr</c><c>   1</c></rc>
    <rc><c>Sr</c><c>   1</c></rc>
    <rc><c>Sr</c><c>   1</c></rc>
    <rc><c>Sr</c><c>   1</c></rc>
    <rc><c>Sr</c><c>   1</c></rc>
    <rc><c>Sr</c><c>   1</c></rc>
    <rc><c>Sr</c><c>   1</c></rc>
    <rc><c>Sr</c><c>   1</c></rc>
    <rc><c>Sr</c><c>   1</c></rc>
    <rc><c>Sr</c><c>   1</c></rc>
    <rc><c>Ti</c><c>   2</c></rc>
    <rc><c>Ti</c><c>   2</c></rc>
    <rc><c>Ti</c><c>   2</c></rc>
    <rc><c>Ti</c><c>   2</c></rc>
    <rc><c>Ti</c><c>   2</c></rc>
    <rc><c>Ti</c><c>   2</c></rc>
    <rc><c>Ti</c><c>   2</c></rc>
    <rc><c>Ti</c><c>   2</c></rc>
    <rc><c>Ti</c><c>   2</c></rc>
    <rc><c>Ti</c><c>   2</c></rc>
    <rc><c>Ti</c><c>   2</c></rc>
    <rc><c>Ti</c><c>   2</c></rc>
    <rc><c>Ti</c><c>   2</c></rc>
    <rc><c>Ti</c><c>   2</c></rc>
    <rc><c>Ti</c><c>   2</c></rc>
    <rc><c>Ti</c><c>   2</c></rc>
    <rc><c>Ti</c><c>   2</c></rc>
    <rc><c>Ti</c><c>   2</c></rc>
    <rc><c>Ti</c><c>   2</c></rc>
    <rc><c>Ti</c><c>   2</c></rc>
    <rc><c>Fe</c><c>   3</c></rc>
    <rc><c>Fe</c><c>   3</c></rc>
    <rc><c>Fe</c><c>   3</c></rc>
    <rc><c>Fe</c><c>   3</c></rc>
    <rc><c>Fe</c><c>   3</c></rc>
    <rc><c>Fe</c><c>   3</c></rc>
    <rc><c>Fe</c><c>   3</c></rc>
    <rc><c>Fe</c><c>   3</c></rc>
    <rc><c>Fe</c><c>   3</c></rc>
    <rc><c>Fe</c><c>   3</c></rc>
    <rc><c>Fe</c><c>   3</c></rc>
    <rc><c>Fe</c><c>   3</c></rc>
    <rc><c>O </c><c>   4</c></rc>
    <rc><c>O </c><c>   4</c></rc>
    <rc><c>O </c><c>   4</c></rc>
    <rc><c>O </c><c>   4</c></rc>
    <rc><c>O </c><c>   4</c></rc>
    <rc><c>O </c><c>   4</c></rc>
    <rc><c>O </c><c>   4</c></rc>
    <rc><c>O </c><c>   4</c></rc>
    <rc><c>O </c><c>   4</c></rc>
    <rc><c>O </c><c>   4</c></rc>
    <rc><c>O </c><c>   4</c></rc>
    <rc><c>O </c><c>   4</c></rc>
    <rc><c>O </c><c>   4</c></rc>
    <rc><c>O </c><c>   4</c></rc>
    <rc><c>O </c><c>   4</c></rc>
    <rc><c>O </c><c>   4</c></rc>
    <rc><c>O </c><c>   4</c></rc>
    <rc><c>O </c><c>   4</c></rc>
    <rc><c>O </c><c>   4</c></rc>
    <rc><c>O </c><c>   4</c></rc>
    <rc><c>O </c><c>   4</c></rc>
    <rc><c>O </c><c>   4</c></rc>
    <rc><c>O </c><c>   4</c></rc>
    <rc><c>O </c><c>   4</c></rc>
    <rc><c>O </c><c>   4</c></rc>
    <rc><c>O </c><c>   4</c></rc>
    <rc><c>O </c><c>   4</c></rc>
    <rc><c>O </c><c>   4</c></rc>
    <rc><c>O </c><c>   4</c></rc>
    <rc><c>O </c><c>   4</c></rc>
    <rc><c>O </c><c>   4</c></rc>
    <rc><c>O </c><c>   4</c></rc>
    <rc><c>O </c><c>   4</c></rc>
    <rc><c>O </c><c>   4</c></rc>
    <rc><c>O </c><c>   4</c></rc>
    <rc><c>O </c><c>   4</c></rc>
    <rc><c>O </c><c>   4</c></rc>
    <rc><c>O </c><c>   4</c></rc>
    <rc><c>O </c><c>   4</c></rc>
    <rc><c>O </c><c>   4</c></rc>
    <rc><c>O </c><c>   4</c></rc>
    <rc><c>O </c><c>   4</c></rc>
    <rc><c>O </c><c>   4</c></rc>
    <rc><c>O </c><c>   4</c></rc>
    <rc><c>O </c><c>   4</c></rc>
    <rc><c>O </c><c>   4</c></rc>
    <rc><c>O </c><c>   4</c></rc>
    <rc><c>O </c><c>   4</c></rc>
    <rc><c>O </c><c>   4</c></rc>
    <rc><c>O </c><c>   4</c></rc>
    <rc><c>O </c><c>   4</c></rc>
    <rc><c>O </c><c>   4</c></rc>
    <rc><c>O </c><c>   4</c></rc>
    <rc><c>O </c><c>   4</c></rc>
    <rc><c>O </c><c>   4</c></rc>
    <rc><c>O </c><c>   4</c></rc>
    <rc><c>O </c><c>   4</c></rc>
    <rc><c>O </c><c>   4</c></rc>
    <rc><c>O </c><c>   4</c></rc>
    <rc><c>O </c><c>   4</c></rc>
    <rc><c>O </c><c>   4</c></rc>
    <rc><c>O </c><c>   4</c></rc>
    <rc><c>O </c><c>   4</c></rc>
    <rc><c>O </c><c>   4</c></rc>
    <rc><c>O </c><c>   4</c></rc>
    <rc><c>O </c><c>   4</c></rc>
    <rc><c>O </c><c>   4</c></rc>
    <rc><c>O </c><c>   4</c></rc>
    <rc><c>O </c><c>   4</c></rc>
    <rc><c>O </c><c>   4</c></rc>
    <rc><c>O </c><c>   4</c></rc>
    <rc><c>O </c><c>   4</c></rc>
    <rc><c>O </c><c>   4</c></rc>
    <rc><c>O </c><c>   4</c></rc>
    <rc><c>O </c><c>   4</c></rc>
    <rc><c>O </c><c>   4</c></rc>
    <rc><c>O </c><c>   4</c></rc>
    <rc><c>O </c><c>   4</c></rc>
    <rc><c>O </c><c>   4</c></rc>
    <rc><c>O </c><c>   4</c></rc>
    <rc><c>O </c><c>   4</c></rc>
    <rc><c>O </c><c>   4</c></rc>
    <rc><c>O </c><c>   4</c></rc>
    <rc><c>O </c><c>   4</c></rc>
    <rc><c>O </c><c>   4</c></rc>
    <rc><c>O </c><c>   4</c></rc>
    <rc><c>O </c><c>   4</c></rc>
    <rc><c>O </c><c>   4</c></rc>
    <rc><c>O </c><c>   4</c></rc>
    <rc><c>O </c><c>   4</c></rc>
   </set>
  </array>
  <array name="atomtypes" >
   <dimension dim="1">type</dimension>
   <field type="int">atomspertype</field>
   <field type="string">element</field>
   <field>mass</field>
   <field>valence</field>
   <field type="string">pseudopotential</field>
   <set>
    <rc><c>  32</c><c>Sr</c><c>     87.62000000</c><c>     10.00000000</c><c>  PAW_PBE Sr_sv 07Sep2000               </c></rc>
    <rc><c>  20</c><c>Ti</c><c>     47.88000000</c><c>      4.00000000</c><c>  PAW_PBE Ti 08Apr2002                  </c></rc>
    <rc><c>  12</c><c>Fe</c><c>     55.84700000</c><c>      8.00000000</c><c>  PAW_PBE Fe 06Sep2000                  </c></rc>
    <rc><c>  90</c><c>O </c><c>     16.00000000</c><c>      6.00000000</c><c>  PAW_PBE O 08Apr2002                   </c></rc>
   </set>
  </array>
 </atominfo>
 <structure name="initialpos" >
  <crystal>
   <varray name="basis" >
    <v>      11.20951470       0.02842696       0.01187720 </v>
    <v>       0.02834136      11.21927996      -0.01403686 </v>
    <v>       0.01707095      -0.01993886      15.96946881 </v>
   </varray>
   <i name="volume">   2008.34496015 </i>
   <varray name="rec_basis" >
    <v>       0.08921060      -0.00022548      -0.00009565 </v>
    <v>      -0.00022616       0.08913299       0.00011153 </v>
    <v>      -0.00006655       0.00007851       0.06261966 </v>
   </varray>
  </crystal>
  <varray name="positions" >
   <v>       0.00066608       0.25135875       0.12757612 </v>
   <v>       0.00050443       0.26493541       0.62216034 </v>
   <v>       0.99344706       0.74443388       0.13350343 </v>
   <v>       0.00544330       0.74271404       0.61606317 </v>
   <v>       0.50129214       0.25820280       0.13009591 </v>
   <v>       0.50042621       0.24926824       0.62324251 </v>
   <v>       0.49696657       0.74712265       0.13350567 </v>
   <v>       0.50085071       0.74621394       0.61366931 </v>
   <v>       0.00145480       0.25327767       0.37256712 </v>
   <v>       0.00306720       0.26055162       0.88075800 </v>
   <v>       0.00450588       0.74589162       0.37204760 </v>
   <v>       0.99792050       0.74069068       0.88722564 </v>
   <v>       0.49981081       0.24975996       0.37115433 </v>
   <v>       0.49623832       0.25564551       0.88037126 </v>
   <v>       0.49866699       0.74827356       0.37385485 </v>
   <v>       0.50523884       0.73702100       0.86975743 </v>
   <v>       0.24646220       0.00565988       0.12941316 </v>
   <v>       0.25674967       0.00524922       0.61697596 </v>
   <v>       0.25018684       0.48843656       0.12983479 </v>
   <v>       0.25177214       0.49357079       0.61856704 </v>
   <v>       0.75302462       0.00378753       0.13256926 </v>
   <v>       0.74936715       0.00165351       0.61948177 </v>
   <v>       0.75011038       0.49686622       0.12807400 </v>
   <v>       0.75191766       0.49273623       0.62277400 </v>
   <v>       0.25054665       0.00024214       0.37133341 </v>
   <v>       0.23660866       0.01739606       0.87226081 </v>
   <v>       0.24825751       0.49849125       0.37036161 </v>
   <v>       0.25032751       0.48858478       0.88000687 </v>
   <v>       0.75086456       0.00313678       0.37228834 </v>
   <v>       0.75253921       0.01117920       0.87971338 </v>
   <v>       0.75390783       0.49593498       0.37272234 </v>
   <v>       0.75267611       0.49150442       0.87886382 </v>
   <v>       0.99809971       0.49863753       0.00339418 </v>
   <v>       0.50127782       0.99932120       0.49689440 </v>
   <v>       0.49857567       0.49483383       0.74865268 </v>
   <v>       0.75129226       0.24962339       0.49963391 </v>
   <v>       0.00269305       0.50671159       0.75340299 </v>
   <v>       0.24816708       0.25108212       0.49742809 </v>
   <v>       0.00144500       0.99374563       0.99762463 </v>
   <v>       0.74436440       0.24989326       0.75118326 </v>
   <v>       0.50108849       0.49814606       0.49894541 </v>
   <v>       0.75334264       0.74861071       0.49772827 </v>
   <v>       0.75183590       0.25107027       0.00195952 </v>
   <v>       0.00226168       0.00026963       0.25229583 </v>
   <v>       0.49865066       0.00054051       0.25103610 </v>
   <v>       0.74882352       0.75032968       0.25261546 </v>
   <v>       0.00207426       0.49777814       0.25118650 </v>
   <v>       0.24962356       0.74863607       0.49573433 </v>
   <v>       0.25409815       0.25163042       0.74946528 </v>
   <v>       0.50065332       0.50395322       0.99837053 </v>
   <v>       0.49914447       0.50035871       0.25062726 </v>
   <v>       0.00056306       0.99916088       0.50053794 </v>
   <v>       0.24030468       0.73920485       0.01456546 </v>
   <v>       0.49757888       0.99831091       0.74399935 </v>
   <v>       0.51413947       0.00576986       0.01036140 </v>
   <v>       0.00078033       0.50242834       0.49896648 </v>
   <v>       0.25115349       0.75012804       0.25151416 </v>
   <v>       0.24797415       0.24887371       0.00086742 </v>
   <v>       0.74605568       0.75181320       0.00968954 </v>
   <v>       0.25105332       0.24657293       0.24661861 </v>
   <v>       0.26294189       0.74004880       0.74042445 </v>
   <v>       0.75104377       0.24885931       0.24959559 </v>
   <v>       0.73275324       0.74304077       0.73825358 </v>
   <v>       0.99511737       0.02702410       0.74554179 </v>
   <v>       0.11333033       0.13148007       0.23991356 </v>
   <v>       0.11082213       0.14616325       0.74701742 </v>
   <v>       0.11481940       0.63322604       0.24121910 </v>
   <v>       0.63525429       0.11241665       0.50957021 </v>
   <v>       0.61408828       0.13372362       0.24080484 </v>
   <v>       0.60482553       0.13365400       0.76010432 </v>
   <v>       0.61509758       0.63667348       0.24577675 </v>
   <v>       0.60695866       0.63491521       0.74133441 </v>
   <v>       0.88656146       0.13317083       0.51406261 </v>
   <v>       0.39156403       0.35770127       0.75412417 </v>
   <v>       0.38943953       0.86507400       0.26270405 </v>
   <v>       0.75047858       0.25135701       0.87461878 </v>
   <v>       0.88540074       0.36572737       0.25501801 </v>
   <v>       0.88611854       0.37290172       0.75393712 </v>
   <v>       0.88612467       0.86323093       0.25663712 </v>
   <v>       0.49695024       0.97785878       0.62830820 </v>
   <v>       0.36045877       0.10871942       0.75174661 </v>
   <v>       0.36616000       0.61302060       0.24812940 </v>
   <v>       0.35994515       0.60659506       0.75561986 </v>
   <v>       0.86692221       0.11060812       0.24464050 </v>
   <v>       0.85000838       0.10810880       0.74613766 </v>
   <v>       0.86388874       0.61612514       0.24732161 </v>
   <v>       0.86021315       0.64767262       0.77629483 </v>
   <v>       0.13485290       0.38275331       0.24543862 </v>
   <v>       0.14095783       0.40218279       0.74708499 </v>
   <v>       0.13344712       0.88568460       0.25539335 </v>
   <v>       0.11202183       0.66870310       0.76081476 </v>
   <v>       0.63774443       0.38834036       0.75067036 </v>
   <v>       0.63798475       0.88705188       0.25528594 </v>
   <v>       0.36032485       0.86573060       0.78795569 </v>
   <v>       0.37477739       0.38075654       0.99638428 </v>
   <v>       0.36422490       0.38593567       0.49222451 </v>
   <v>       0.36512483       0.88665610       0.49082315 </v>
   <v>       0.87313636       0.37626011       0.99483898 </v>
   <v>       0.86382974       0.38394216       0.50156045 </v>
   <v>       0.86733027       0.87288691       0.98338701 </v>
   <v>       0.86329297       0.88873607       0.49271782 </v>
   <v>       0.12190381       0.11722309       0.99484290 </v>
   <v>       0.13327198       0.11363916       0.51106912 </v>
   <v>       0.12616533       0.62062902       0.00309231 </v>
   <v>       0.13857968       0.61662880       0.51006206 </v>
   <v>       0.62961639       0.12464757       0.99811711 </v>
   <v>       0.38683383       0.36609574       0.25212594 </v>
   <v>       0.62996598       0.62618862       0.98935711 </v>
   <v>       0.63742554       0.61337359       0.51149475 </v>
   <v>       0.12022408       0.37092530       0.00444149 </v>
   <v>       0.11485254       0.36557482       0.50494612 </v>
   <v>       0.14526623       0.87091942       0.97926063 </v>
   <v>       0.11363088       0.86448920       0.49472650 </v>
   <v>       0.62380893       0.37501071       0.00113051 </v>
   <v>       0.61342541       0.36243737       0.49905199 </v>
   <v>       0.63419266       0.38619738       0.24673752 </v>
   <v>       0.61320933       0.86162779       0.49767424 </v>
   <v>       0.37958154       0.09213640       0.97598888 </v>
   <v>       0.38547350       0.13389637       0.50645260 </v>
   <v>       0.37749874       0.64844600       0.98336010 </v>
   <v>       0.38804558       0.63623999       0.50329036 </v>
   <v>       0.88145370       0.12199178       0.99180859 </v>
   <v>       0.87320979       0.62767984       0.99620870 </v>
   <v>       0.88641100       0.63866603       0.49847014 </v>
   <v>       0.99936434       0.97844184       0.11737924 </v>
   <v>       0.00297327       0.96655372       0.63539998 </v>
   <v>       0.98994615       0.49700309       0.12440600 </v>
   <v>       0.98904604       0.51493784       0.63333608 </v>
   <v>       0.49164245       0.98097445       0.12484045 </v>
   <v>       0.36584609       0.11189631       0.25133124 </v>
   <v>       0.49634030       0.50800556       0.12074160 </v>
   <v>       0.00822951       0.49991690       0.87677575 </v>
   <v>       0.00162290       0.01579851       0.37726809 </v>
   <v>       0.00178661       0.96804504       0.85524307 </v>
   <v>       0.00728846       0.50483358       0.37426414 </v>
   <v>       0.50915586       0.01421905       0.37680354 </v>
   <v>       0.60541087       0.87186717       0.97374739 </v>
   <v>       0.50814427       0.50738545       0.37562139 </v>
   <v>       0.50498000       0.49827709       0.87298535 </v>
   <v>       0.24167184       0.24077756       0.37695460 </v>
   <v>       0.24424063       0.25491511       0.87277336 </v>
   <v>       0.24556677       0.73575913       0.37645741 </v>
   <v>       0.75008685       0.23870455       0.37821340 </v>
   <v>       0.49099406       0.48927771       0.62476028 </v>
   <v>       0.74408920       0.73947701       0.37577699 </v>
   <v>       0.64197749       0.88151256       0.77429425 </v>
   <v>       0.26473068       0.24161965       0.12047589 </v>
   <v>       0.25656420       0.25745230       0.62637515 </v>
   <v>       0.26698028       0.77304883       0.12564628 </v>
   <v>       0.25764586       0.77261608       0.62603646 </v>
   <v>       0.75920660       0.25070071       0.12144658 </v>
   <v>       0.74389134       0.25534372       0.62856256 </v>
   <v>       0.74653411       0.76446605       0.12644805 </v>
   <v>       0.76372645       0.76856676       0.62539706 </v>
  </varray>
 </structure>
 <calculation>
  <scstep>
   <time name="dav">  302.49  302.49</time>
   <time name="total">  306.22  306.25</time>
   <energy>
    <i name="alphaZ">   5613.58224581 </i>
    <i name="ewald"> -61728.77965143 </i>
    <i name="hartreedc"> -16811.98187208 </i>
    <i name="XCdc">   3073.90307247 </i>
    <i name="pawpsdc"> 113724.90857805 </i>
    <i name="pawaedc">-112776.92015788 </i>
    <i name="eentropy">     -0.00000000 </i>
    <i name="bandstr">  -7100.75502351 </i>
    <i name="atom">  74916.81196153 </i>
    <i name="e_fr_energy">  -1089.23084703 </i>
    <i name="e_wo_entrp">  -1089.23084703 </i>
    <i name="e_0_energy">  -1089.23084703 </i>
   </energy>
  </scstep>
  <scstep>
   <time name="diag">   33.29   33.29</time>
   <time name="diis">   31.15   31.15</time>
   <time name="orth">   18.93   18.93</time>
   <time name="total">   87.07   87.13</time>
   <energy>
    <i name="e_fr_energy">  -1089.23084803 </i>
    <i name="e_wo_entrp">  -1089.23084803 </i>
    <i name="e_0_energy">  -1089.23084803 </i>
   </energy>
  </scstep>
  <scstep>
   <time name="diag">   33.26   33.26</time>
   <time name="diis">   29.41   29.41</time>
   <time name="orth">   19.00   18.99</time>
   <time name="total">   85.40   85.42</time>
   <energy>
    <i name="e_fr_energy">  -1089.23084849 </i>
    <i name="e_wo_entrp">  -1089.23084849 </i>
    <i name="e_0_energy">  -1089.23084849 </i>
   </energy>
  </scstep>
  <scstep>
   <time name="diag">   33.30   33.30</time>
   <time name="diis">   26.92   26.92</time>
   <time name="orth">   18.94   18.94</time>
   <time name="total">   82.87   82.94</time>
   <energy>
    <i name="e_fr_energy">  -1089.23084886 </i>
    <i name="e_wo_entrp">  -1089.23084886 </i>
    <i name="e_0_energy">  -1089.23084886 </i>
   </energy>
  </scstep>
  <scstep>
   <time name="diag">   33.29   33.29</time>
   <time name="diis">   26.25   26.25</time>
   <time name="orth">   18.93   18.93</time>
   <time name="total">   82.17   82.23</time>
   <energy>
    <i name="e_fr_energy">  -1089.23084900 </i>
    <i name="e_wo_entrp">  -1089.23084900 </i>
    <i name="e_0_energy">  -1089.23084900 </i>
   </energy>
  </scstep>
  <scstep>
   <time name="diag">   33.30   33.30</time>
   <time name="diis">   24.16   24.16</time>
   <time name="orth">   18.95   18.94</time>
   <time name="total">   80.11   80.15</time>
   <energy>
    <i name="e_fr_energy">  -1089.23084912 </i>
    <i name="e_wo_entrp">  -1089.23084912 </i>
    <i name="e_0_energy">  -1089.23084912 </i>
   </energy>
  </scstep>
  <scstep>
   <time name="diag">   33.27   33.27</time>
   <time name="diis">   23.85   23.85</time>
   <time name="orth">   18.93   18.92</time>
   <time name="total">   79.79   79.81</time>
   <energy>
    <i name="e_fr_energy">  -1089.23084916 </i>
    <i name="e_wo_entrp">  -1089.23084916 </i>
    <i name="e_0_energy">  -1089.23084916 </i>
   </energy>
  </scstep>
  <scstep>
   <time name="diag">   33.32   33.32</time>
   <time name="diis">   22.67   22.67</time>
   <time name="orth">   18.91   18.91</time>
   <time name="total">   75.48   75.57</time>
   <energy>
    <i name="alphaZ">   5613.58224581 </i>
    <i name="ewald"> -61728.77965143 </i>
    <i name="hartreedc"> -16811.99232715 </i>
    <i name="XCdc">   3073.90346108 </i>
    <i name="pawpsdc"> 113723.86236517 </i>
    <i name="pawaedc">-112775.87818688 </i>
    <i name="eentropy">     -0.00000000 </i>
    <i name="bandstr">  -7100.74071731 </i>
    <i name="atom">  74916.81196153 </i>
    <i name="e_fr_energy">  -1089.23084919 </i>
    <i name="e_wo_entrp">  -1089.23084919 </i>
    <i name="e_0_energy">  -1089.23084919 </i>
   </energy>
  </scstep>
  <structure>
   <crystal>
    <varray name="basis" >
     <v>      11.20951470       0.02842696       0.01187720 </v>
     <v>       0.02834136      11.21927996      -0.01403686 </v>
     <v>       0.01707095      -0.01993886      15.96946881 </v>
    </varray>
    <i name="volume">   2008.34496015 </i>
    <varray name="rec_basis" >
     <v>       0.08921060      -0.00022548      -0.00009565 </v>
     <v>      -0.00022616       0.08913299       0.00011153 </v>
     <v>      -0.00006655       0.00007851       0.06261966 </v>
    </varray>
   </crystal>
   <varray name="positions" >
    <v>       0.00066608       0.25135875       0.12757612 </v>
    <v>       0.00050443       0.26493541       0.62216034 </v>
    <v>       0.99344706       0.74443388       0.13350343 </v>
    <v>       0.00544330       0.74271404       0.61606317 </v>
    <v>       0.50129214       0.25820280       0.13009591 </v>
    <v>       0.50042621       0.24926824       0.62324251 </v>
    <v>       0.49696657       0.74712265       0.13350567 </v>
    <v>       0.50085071       0.74621394       0.61366931 </v>
    <v>       0.00145480       0.25327767       0.37256712 </v>
    <v>       0.00306720       0.26055162       0.88075800 </v>
    <v>       0.00450588       0.74589162       0.37204760 </v>
    <v>       0.99792050       0.74069068       0.88722564 </v>
    <v>       0.49981081       0.24975996       0.37115433 </v>
    <v>       0.49623832       0.25564551       0.88037126 </v>
    <v>       0.49866699       0.74827356       0.37385485 </v>
    <v>       0.50523884       0.73702100       0.86975743 </v>
    <v>       0.24646220       0.00565988       0.12941316 </v>
    <v>       0.25674967       0.00524922       0.61697596 </v>
    <v>       0.25018684       0.48843656       0.12983479 </v>
    <v>       0.25177214       0.49357079       0.61856704 </v>
    <v>       0.75302462       0.00378753       0.13256926 </v>
    <v>       0.74936715       0.00165351       0.61948177 </v>
    <v>       0.75011038       0.49686622       0.12807400 </v>
    <v>       0.75191766       0.49273623       0.62277400 </v>
    <v>       0.25054665       0.00024214       0.37133341 </v>
    <v>       0.23660866       0.01739606       0.87226081 </v>
    <v>       0.24825751       0.49849125       0.37036161 </v>
    <v>       0.25032751       0.48858478       0.88000687 </v>
    <v>       0.75086456       0.00313678       0.37228834 </v>
    <v>       0.75253921       0.01117920       0.87971338 </v>
    <v>       0.75390783       0.49593498       0.37272234 </v>
    <v>       0.75267611       0.49150442       0.87886382 </v>
    <v>       0.99809971       0.49863753       0.00339418 </v>
    <v>       0.50127782       0.99932120       0.49689440 </v>
    <v>       0.49857567       0.49483383       0.74865268 </v>
    <v>       0.75129226       0.24962339       0.49963391 </v>
    <v>       0.00269305       0.50671159       0.75340299 </v>
    <v>       0.24816708       0.25108212       0.49742809 </v>
    <v>       0.00144500       0.99374563       0.99762463 </v>
    <v>       0.74436440       0.24989326       0.75118326 </v>
    <v>       0.50108849       0.49814606       0.49894541 </v>
    <v>       0.75334264       0.74861071       0.49772827 </v>
    <v>       0.75183590       0.25107027       0.00195952 </v>
    <v>       0.00226168       0.00026963       0.25229583 </v>
    <v>       0.49865066       0.00054051       0.25103610 </v>
    <v>       0.74882352       0.75032968       0.25261546 </v>
    <v>       0.00207426       0.49777814       0.25118650 </v>
    <v>       0.24962356       0.74863607       0.49573433 </v>
    <v>       0.25409815       0.25163042       0.74946528 </v>
    <v>       0.50065332       0.50395322       0.99837053 </v>
    <v>       0.49914447       0.50035871       0.25062726 </v>
    <v>       0.00056306       0.99916088       0.50053794 </v>
    <v>       0.24030468       0.73920485       0.01456546 </v>
    <v>       0.49757888       0.99831091       0.74399935 </v>
    <v>       0.51413947       0.00576986       0.01036140 </v>
    <v>       0.00078033       0.50242834       0.49896648 </v>
    <v>       0.25115349       0.75012804       0.25151416 </v>
    <v>       0.24797415       0.24887371       0.00086742 </v>
    <v>       0.74605568       0.75181320       0.00968954 </v>
    <v>       0.25105332       0.24657293       0.24661861 </v>
    <v>       0.26294189       0.74004880       0.74042445 </v>
    <v>       0.75104377       0.24885931       0.24959559 </v>
    <v>       0.73275324       0.74304077       0.73825358 </v>
    <v>       0.99511737       0.02702410       0.74554179 </v>
    <v>       0.11333033       0.13148007       0.23991356 </v>
    <v>       0.11082213       0.14616325       0.74701742 </v>
    <v>       0.11481940       0.63322604       0.24121910 </v>
    <v>       0.63525429       0.11241665       0.50957021 </v>
    <v>       0.61408828       0.13372362       0.24080484 </v>
    <v>       0.60482553       0.13365400       0.76010432 </v>
    <v>       0.61509758       0.63667348       0.24577675 </v>
    <v>       0.60695866       0.63491521       0.74133441 </v>
    <v>       0.88656146       0.13317083       0.51406261 </v>
    <v>       0.39156403       0.35770127       0.75412417 </v>
    <v>       0.38943953       0.86507400       0.26270405 </v>
    <v>       0.75047858       0.25135701       0.87461878 </v>
    <v>       0.88540074       0.36572737       0.25501801 </v>
    <v>       0.88611854       0.37290172       0.75393712 </v>
    <v>       0.88612467       0.86323093       0.25663712 </v>
    <v>       0.49695024       0.97785878       0.62830820 </v>
    <v>       0.36045877       0.10871942       0.75174661 </v>
    <v>       0.36616000       0.61302060       0.24812940 </v>
    <v>       0.35994515       0.60659506       0.75561986 </v>
    <v>       0.86692221       0.11060812       0.24464050 </v>
    <v>       0.85000838       0.10810880       0.74613766 </v>
    <v>       0.86388874       0.61612514       0.24732161 </v>
    <v>       0.86021315       0.64767262       0.77629483 </v>
    <v>       0.13485290       0.38275331       0.24543862 </v>
    <v>       0.14095783       0.40218279       0.74708499 </v>
    <v>       0.13344712       0.88568460       0.25539335 </v>
    <v>       0.11202183       0.66870310       0.76081476 </v>
    <v>       0.63774443       0.38834036       0.75067036 </v>
    <v>       0.63798475       0.88705188       0.25528594 </v>
    <v>       0.36032485       0.86573060       0.78795569 </v>
    <v>       0.37477739       0.38075654       0.99638428 </v>
    <v>       0.36422490       0.38593567       0.49222451 </v>
    <v>       0.36512483       0.88665610       0.49082315 </v>
    <v>       0.87313636       0.37626011       0.99483898 </v>
    <v>       0.86382974       0.38394216       0.50156045 </v>
    <v>       0.86733027       0.87288691       0.98338701 </v>
    <v>       0.86329297       0.88873607       0.49271782 </v>
    <v>       0.12190381       0.11722309       0.99484290 </v>
    <v>       0.13327198       0.11363916       0.51106912 </v>
    <v>       0.12616533       0.62062902       0.00309231 </v>
    <v>       0.13857968       0.61662880       0.51006206 </v>
    <v>       0.62961639       0.12464757       0.99811711 </v>
    <v>       0.38683383       0.36609574       0.25212594 </v>
    <v>       0.62996598       0.62618862       0.98935711 </v>
    <v>       0.63742554       0.61337359       0.51149475 </v>
    <v>       0.12022408       0.37092530       0.00444149 </v>
    <v>       0.11485254       0.36557482       0.50494612 </v>
    <v>       0.14526623       0.87091942       0.97926063 </v>
    <v>       0.11363088       0.86448920       0.49472650 </v>
    <v>       0.62380893       0.37501071       0.00113051 </v>
    <v>       0.61342541       0.36243737       0.49905199 </v>
    <v>       0.63419266       0.38619738       0.24673752 </v>
    <v>       0.61320933       0.86162779       0.49767424 </v>
    <v>       0.37958154       0.09213640       0.97598888 </v>
    <v>       0.38547350       0.13389637       0.50645260 </v>
    <v>       0.37749874       0.64844600       0.98336010 </v>
    <v>       0.38804558       0.63623999       0.50329036 </v>
    <v>       0.88145370       0.12199178       0.99180859 </v>
    <v>       0.87320979       0.62767984       0.99620870 </v>
    <v>       0.88641100       0.63866603       0.49847014 </v>
    <v>       0.99936434       0.97844184       0.11737924 </v>
    <v>       0.00297327       0.96655372       0.63539998 </v>
    <v>       0.98994615       0.49700309       0.12440600 </v>
    <v>       0.98904604       0.51493784       0.63333608 </v>
    <v>       0.49164245       0.98097445       0.12484045 </v>
    <v>       0.36584609       0.11189631       0.25133124 </v>
    <v>       0.49634030       0.50800556       0.12074160 </v>
    <v>       0.00822951       0.49991690       0.87677575 </v>
    <v>       0.00162290       0.01579851       0.37726809 </v>
    <v>       0.00178661       0.96804504       0.85524307 </v>
    <v>       0.00728846       0.50483358       0.37426414 </v>
    <v>       0.50915586       0.01421905       0.37680354 </v>
    <v>       0.60541087       0.87186717       0.97374739 </v>
    <v>       0.50814427       0.50738545       0.37562139 </v>
    <v>       0.50498000       0.49827709       0.87298535 </v>
    <v>       0.24167184       0.24077756       0.37695460 </v>
    <v>       0.24424063       0.25491511       0.87277336 </v>
    <v>       0.24556677       0.73575913       0.37645741 </v>
    <v>       0.75008685       0.23870455       0.37821340 </v>
    <v>       0.49099406       0.48927771       0.62476028 </v>
    <v>       0.74408920       0.73947701       0.37577699 </v>
    <v>       0.64197749       0.88151256       0.77429425 </v>
    <v>       0.26473068       0.24161965       0.12047589 </v>
    <v>       0.25656420       0.25745230       0.62637515 </v>
    <v>       0.26698028       0.77304883       0.12564628 </v>
    <v>       0.25764586       0.77261608       0.62603646 </v>
    <v>       0.75920660       0.25070071       0.12144658 </v>
    <v>       0.74389134       0.25534372       0.62856256 </v>
    <v>       0.74653411       0.76446605       0.12644805 </v>
    <v>       0.76372645       0.76856676       0.62539706 </v>
   </varray>
  </structure>
  <varray name="forces" >
   <v>      -0.00339537       0.00875602      -0.00595311 </v>
   <v>      -0.00610515      -0.00632236       0.00914556 </v>
   <v>       0.00456085       0.00012736      -0.00823392 </v>
   <v>       0.00093781       0.00170389       0.00478867 </v>
   <v>      -0.00277658      -0.00476365      -0.01129745 </v>
   <v>       0.00189204      -0.00427827      -0.00271597 </v>
   <v>      -0.00062926       0.00061955       0.00632298 </v>
   <v>       0.00346941       0.00909180       0.01177021 </v>
   <v>      -0.00160675      -0.00447977       0.00608645 </v>
   <v>      -0.00538142       0.00013680      -0.00044106 </v>
   <v>      -0.00309959       0.00060627       0.00303038 </v>
   <v>       0.00019985      -0.00603012       0.01742163 </v>
   <v>       0.00303207       0.00250270      -0.00733599 </v>
   <v>       0.00432020       0.00662189      -0.00084033 </v>
   <v>       0.00670658       0.00214194      -0.01596692 </v>
   <v>      -0.00412484      -0.00536699      -0.00248263 </v>
   <v>       0.00582538      -0.01241151      -0.00261143 </v>
   <v>       0.00451480      -0.00489056       0.00658129 </v>
   <v>      -0.00092771       0.00939728      -0.00521593 </v>
   <v>       0.01066064       0.00406572      -0.00737660 </v>
   <v>       0.00513370       0.00117317      -0.00609735 </v>
   <v>      -0.00291241      -0.00037852       0.00681955 </v>
   <v>       0.00408669       0.00321402      -0.00209388 </v>
   <v>      -0.01054934      -0.00127192       0.00007940 </v>
   <v>       0.00011031      -0.00616211       0.00299092 </v>
   <v>       0.00387414       0.00797606      -0.01064194 </v>
   <v>       0.00484343       0.00197194       0.00357062 </v>
   <v>       0.00303604      -0.00068576       0.00068575 </v>
   <v>      -0.00132128      -0.00517379      -0.00298983 </v>
   <v>      -0.00093418       0.00854687       0.00412850 </v>
   <v>       0.00119306       0.00241981      -0.00355694 </v>
   <v>      -0.02091509      -0.00256741      -0.00311481 </v>
   <v>       0.00005158      -0.00119015       0.01114052 </v>
   <v>      -0.02643548      -0.00152580       0.02498521 </v>
   <v>      -0.00259309       0.01257113       0.01354376 </v>
   <v>       0.00670833      -0.01806548      -0.00194902 </v>
   <v>      -0.00656664       0.00225273       0.00959055 </v>
   <v>       0.00680442       0.00630887      -0.01236303 </v>
   <v>       0.00683576       0.01022169       0.00379658 </v>
   <v>       0.00429800       0.00248912       0.01612735 </v>
   <v>      -0.00643493       0.00614209      -0.00846090 </v>
   <v>       0.00672335      -0.00963023      -0.00285364 </v>
   <v>       0.00085403       0.00816074       0.00530942 </v>
   <v>       0.00561194       0.00397963       0.01449001 </v>
   <v>       0.00755050      -0.02551159      -0.00591117 </v>
   <v>      -0.00966841      -0.01209044      -0.01799242 </v>
   <v>      -0.01208277       0.01011379      -0.00107656 </v>
   <v>       0.02048809      -0.00791337      -0.00997757 </v>
   <v>       0.01406795      -0.01551541       0.00578260 </v>
   <v>      -0.00656885      -0.00821101      -0.00456179 </v>
   <v>      -0.01269139       0.03283122       0.00023211 </v>
   <v>       0.00159731       0.00568213      -0.01216318 </v>
   <v>      -0.00138795       0.00553516       0.01699077 </v>
   <v>      -0.00448567       0.01531968      -0.00647347 </v>
   <v>      -0.02036393       0.01368228       0.00443064 </v>
   <v>       0.00222120      -0.00353417      -0.00857362 </v>
   <v>       0.00709596      -0.00130320      -0.00981774 </v>
   <v>      -0.00030476       0.01102853      -0.00707511 </v>
   <v>       0.01313930      -0.01480523       0.01830362 </v>
   <v>      -0.00548833       0.00640596       0.01017453 </v>
   <v>       0.00398093       0.02085537      -0.00568369 </v>
   <v>       0.01125348      -0.00354057       0.01073022 </v>
   <v>      -0.02669300      -0.00164458       0.01045841 </v>
   <v>      -0.00379832       0.00253322      -0.00284048 </v>
   <v>       0.01345121      -0.01104142      -0.01551528 </v>
   <v>       0.01333125      -0.00719828      -0.00654734 </v>
   <v>       0.00147988      -0.01236458      -0.00478163 </v>
   <v>       0.00151567       0.00248850       0.00048127 </v>
   <v>      -0.00006940       0.00107767      -0.00654473 </v>
   <v>       0.02046774      -0.00191947      -0.00252925 </v>
   <v>      -0.00032451       0.00627300      -0.00199235 </v>
   <v>      -0.00191577      -0.00887469       0.00614307 </v>
   <v>      -0.00399998      -0.00628298      -0.00050691 </v>
   <v>      -0.00578275       0.00874090       0.00323211 </v>
   <v>      -0.00492446       0.01888393      -0.00574676 </v>
   <v>      -0.01885548       0.00163661      -0.01406064 </v>
   <v>       0.00444515       0.00021807       0.01421033 </v>
   <v>      -0.00165396      -0.01465457       0.00390838 </v>
   <v>      -0.00276739       0.00795910       0.00641132 </v>
   <v>      -0.00570972       0.00766691      -0.02899349 </v>
   <v>      -0.00123696      -0.00756956       0.01507391 </v>
   <v>       0.00960245      -0.01042155       0.01260997 </v>
   <v>       0.02506969      -0.02401256       0.01045032 </v>
   <v>      -0.01305886       0.00919531       0.00575011 </v>
   <v>       0.00872560       0.01047037       0.01382383 </v>
   <v>       0.00510730       0.00800134      -0.00372596 </v>
   <v>       0.00405677      -0.00647557       0.00048224 </v>
   <v>       0.00970621      -0.01610719       0.00007291 </v>
   <v>       0.00089923      -0.00023973      -0.00636805 </v>
   <v>      -0.00211262      -0.01140984      -0.00824113 </v>
   <v>       0.00030139      -0.00854779      -0.00923355 </v>
   <v>       0.00618931      -0.01527835      -0.00758080 </v>
   <v>      -0.01890902       0.01354759      -0.01459155 </v>
   <v>      -0.00493964      -0.00442094      -0.01855951 </v>
   <v>      -0.00095327      -0.00171964      -0.00440258 </v>
   <v>       0.00221887      -0.00401319      -0.00757076 </v>
   <v>       0.01326212       0.01754710       0.00689428 </v>
   <v>       0.00001072       0.00558172      -0.01806258 </v>
   <v>       0.00149652      -0.00194166      -0.01594302 </v>
   <v>      -0.00263231       0.01658654       0.00371115 </v>
   <v>      -0.00315640      -0.00473876      -0.00599046 </v>
   <v>       0.01817148      -0.01356966       0.00480003 </v>
   <v>      -0.00604548       0.00453633       0.00620400 </v>
   <v>      -0.01342830      -0.01703152       0.01217829 </v>
   <v>      -0.02533481       0.00136680       0.00683075 </v>
   <v>       0.01601893      -0.01565906       0.01048539 </v>
   <v>      -0.00181561       0.00047197      -0.00039986 </v>
   <v>       0.00168462      -0.00311528       0.02141551 </v>
   <v>      -0.00164034       0.00401696       0.00195115 </v>
   <v>      -0.00976755      -0.00216066       0.01158348 </v>
   <v>      -0.00200438       0.00941342       0.00453889 </v>
   <v>      -0.01778264       0.00042766       0.00224146 </v>
   <v>       0.00022131       0.00859241       0.01236870 </v>
   <v>      -0.00894675       0.00116886       0.01187703 </v>
   <v>      -0.01096622       0.00243556      -0.00925776 </v>
   <v>       0.00015788      -0.01672404      -0.00605730 </v>
   <v>       0.01252913       0.00036112      -0.00687839 </v>
   <v>       0.02933489       0.00144080       0.00393666 </v>
   <v>       0.00119476      -0.01357696      -0.00786656 </v>
   <v>      -0.02205697      -0.00046704      -0.00165005 </v>
   <v>       0.00306080      -0.01279317      -0.01055606 </v>
   <v>       0.00452681       0.00685960       0.00706802 </v>
   <v>      -0.01313866       0.01521533      -0.00556028 </v>
   <v>       0.00110707      -0.00052670      -0.00572400 </v>
   <v>      -0.00654140       0.00612614      -0.00571686 </v>
   <v>      -0.00439458       0.00046759      -0.00764728 </v>
   <v>      -0.01892792      -0.00798028      -0.00808502 </v>
   <v>      -0.00212222      -0.00403448      -0.01350471 </v>
   <v>      -0.01397205       0.00058094       0.00866101 </v>
   <v>      -0.00274366       0.00761060      -0.00097292 </v>
   <v>      -0.00340202      -0.00707397      -0.00561651 </v>
   <v>       0.01054543       0.01875870       0.00120911 </v>
   <v>       0.00833629       0.00295268       0.00495925 </v>
   <v>       0.01250417       0.00891242       0.00450720 </v>
   <v>       0.00600449       0.00322492       0.02074490 </v>
   <v>       0.01127018      -0.00460043       0.01747858 </v>
   <v>       0.00289500      -0.00961778       0.01749882 </v>
   <v>       0.01068651       0.00658670       0.00485522 </v>
   <v>       0.00078164       0.00754122      -0.00012672 </v>
   <v>      -0.00539791      -0.00872456       0.01224346 </v>
   <v>      -0.00916355      -0.01221597       0.00279026 </v>
   <v>      -0.01118979       0.00030100       0.01787193 </v>
   <v>      -0.00333492      -0.00228810      -0.00000389 </v>
   <v>      -0.00287828       0.00768465       0.00640978 </v>
   <v>      -0.00364940      -0.00445074       0.00536886 </v>
   <v>       0.00462024      -0.00413679      -0.01591243 </v>
   <v>       0.00158295      -0.00131007      -0.00874072 </v>
   <v>       0.00646654       0.00202375      -0.00993539 </v>
   <v>       0.00103218       0.00119068      -0.01406384 </v>
   <v>       0.00004471      -0.00744579      -0.00752951 </v>
   <v>       0.01048735       0.01145578      -0.00000572 </v>
   <v>       0.01745922       0.01136753       0.00014799 </v>
   <v>       0.00603350       0.00002925      -0.00896012 </v>
   <v>      -0.00388394       0.00181687      -0.01998945 </v>
  </varray>
  <varray name="stress" >
   <v>       0.00312210      -0.08321673      -0.00649837 </v>
   <v>      -0.08321680      -0.05844700      -0.01769816 </v>
   <v>      -0.00649798      -0.01769893      -0.20785265 </v>
  </varray>
  <energy>
   <i name="e_fr_energy">  -1089.23084919 </i>
   <i name="e_wo_entrp">  -1089.23084919 </i>
   <i name="e_0_energy">     -0.00000000 </i>
  </energy>
  <time name="totalsc"> 1031.93 1033.97</time>
 </calculation>
 <calculation>
  <scstep>
   <time name="dav">  288.28  288.27</time>
   <time name="total">  291.98  292.02</time>
   <energy>
    <i name="alphaZ">   5614.16243469 </i>
    <i name="ewald"> -61730.28856971 </i>
    <i name="hartreedc"> -16813.17611112 </i>
    <i name="XCdc">   3074.04079713 </i>
    <i name="pawpsdc"> 113723.85876982 </i>
    <i name="pawaedc">-112775.87458553 </i>
    <i name="eentropy">     -0.00000000 </i>
    <i name="bandstr">  -7098.76531928 </i>
    <i name="atom">  74916.81196153 </i>
    <i name="e_fr_energy">  -1089.23062247 </i>
    <i name="e_wo_entrp">  -1089.23062247 </i>
    <i name="e_0_energy">  -1089.23062247 </i>
   </energy>
  </scstep>
  <scstep>
   <time name="diag">   33.23   33.22</time>
   <time name="diis">   51.86   51.86</time>
   <time name="orth">   18.85   18.85</time>
   <time name="total">  107.67  107.68</time>
   <energy>
    <i name="e_fr_energy">  -1089.23188826 </i>
    <i name="e_wo_entrp">  -1089.23188826 </i>
    <i name="e_0_energy">  -1089.23188826 </i>
   </energy>
  </scstep>
  <scstep>
   <time name="diag">   33.25   33.24</time>
   <time name="diis">   46.69   46.69</time>
   <time name="orth">   18.86   18.86</time>
   <time name="total">  102.55  102.63</time>
   <energy>
    <i name="e_fr_energy">  -1089.23196303 </i>
    <i name="e_wo_entrp">  -1089.23196303 </i>
    <i name="e_0_energy">  -1089.23196303 </i>
   </energy>
  </scstep>
  <scstep>
   <time name="diag">   33.27   33.27</time>
   <time name="diis">   33.24   33.24</time>
   <time name="orth">   18.87   18.87</time>
   <time name="total">   89.13   89.22</time>
   <energy>
    <i name="e_fr_energy">  -1089.23190559 </i>
    <i name="e_wo_entrp">  -1089.23190559 </i>
    <i name="e_0_energy">  -1089.23190559 </i>
   </energy>
  </scstep>
  <scstep>
   <time name="diag">   33.22   33.22</time>
   <time name="diis">   32.11   32.11</time>
   <time name="orth">   18.83   18.83</time>
   <time name="total">   87.93   88.04</time>
   <energy>
    <i name="e_fr_energy">  -1089.23189291 </i>
    <i name="e_wo_entrp">  -1089.23189291 </i>
    <i name="e_0_energy">  -1089.23189291 </i>
   </energy>
  </scstep>
  <scstep>
   <time name="diag">   33.24   33.24</time>
   <time name="diis">   31.69   31.69</time>
   <time name="orth">   18.88   18.88</time>
   <time name="total">   87.56   87.58</time>
   <energy>
    <i name="e_fr_energy">  -1089.23189588 </i>
    <i name="e_wo_entrp">  -1089.23189588 </i>
    <i name="e_0_energy">  -1089.23189588 </i>
   </energy>
  </scstep>
  <scstep>
   <time name="diag">   33.29   33.29</time>
   <time name="diis">   31.38   31.38</time>
   <time name="orth">   18.90   18.90</time>
   <time name="total">   87.37   87.41</time>
   <energy>
    <i name="e_fr_energy">  -1089.23189773 </i>
    <i name="e_wo_entrp">  -1089.23189773 </i>
    <i name="e_0_energy">  -1089.23189773 </i>
   </energy>
  </scstep>
  <scstep>
   <time name="diag">   33.30   33.30</time>
   <time name="diis">   30.61   30.61</time>
   <time name="orth">   18.85   18.85</time>
   <time name="total">   83.35   83.40</time>
   <energy>
    <i name="alphaZ">   5614.16243469 </i>
    <i name="ewald"> -61730.28856971 </i>
    <i name="hartreedc"> -16811.66451921 </i>
    <i name="XCdc">   3073.93818960 </i>
    <i name="pawpsdc"> 113737.31802516 </i>
    <i name="pawaedc">-112789.35679516 </i>
    <i name="eentropy">     -0.00000000 </i>
    <i name="bandstr">  -7100.15262594 </i>
    <i name="atom">  74916.81196153 </i>
    <i name="e_fr_energy">  -1089.23189903 </i>
    <i name="e_wo_entrp">  -1089.23189903 </i>
    <i name="e_0_energy">  -1089.23189903 </i>
   </energy>
  </scstep>
  <structure>
   <crystal>
    <varray name="basis" >
     <v>      11.20952748       0.02805992       0.01184743 </v>
     <v>       0.02797481      11.21902164      -0.01411376 </v>
     <v>       0.01703088      -0.02004995      15.96816548 </v>
    </varray>
    <i name="volume">   2008.13741015 </i>
    <varray name="rec_basis" >
     <v>       0.08921048      -0.00022257      -0.00009543 </v>
     <v>      -0.00022324       0.08913503       0.00011216 </v>
     <v>      -0.00006639       0.00007895       0.06262477 </v>
    </varray>
   </crystal>
   <varray name="positions" >
    <v>       0.00065140       0.25139640       0.12755818 </v>
    <v>       0.00047818       0.26490834       0.62218796 </v>
    <v>       0.99346672       0.74443433       0.13347854 </v>
    <v>       0.00544729       0.74272138       0.61607764 </v>
    <v>       0.50128029       0.25818228       0.13006177 </v>
    <v>       0.50043441       0.24924981       0.62323429 </v>
    <v>       0.49696382       0.74712535       0.13352477 </v>
    <v>       0.50086549       0.74625306       0.61370489 </v>
    <v>       0.00144791       0.25325845       0.37258549 </v>
    <v>       0.00304404       0.26055227       0.88075668 </v>
    <v>       0.00449252       0.74589427       0.37205677 </v>
    <v>       0.99792135       0.74066484       0.88727824 </v>
    <v>       0.49982387       0.24977065       0.37113217 </v>
    <v>       0.49625685       0.25567394       0.88036874 </v>
    <v>       0.49869590       0.74828261       0.37380660 </v>
    <v>       0.50522116       0.73699795       0.86974992 </v>
    <v>       0.24648742       0.00560643       0.12940520 </v>
    <v>       0.25676913       0.00522818       0.61699581 </v>
    <v>       0.25018276       0.48847695       0.12981908 </v>
    <v>       0.25181801       0.49358812       0.61854473 </v>
    <v>       0.75304673       0.00379249       0.13255083 </v>
    <v>       0.74935459       0.00165196       0.61950237 </v>
    <v>       0.75012794       0.49687998       0.12806767 </v>
    <v>       0.75187227       0.49273088       0.62277426 </v>
    <v>       0.25054717       0.00021566       0.37134242 </v>
    <v>       0.23662530       0.01743026       0.87222868 </v>
    <v>       0.24827832       0.49849970       0.37037238 </v>
    <v>       0.25034058       0.48858180       0.88000893 </v>
    <v>       0.75085894       0.00311453       0.37227930 </v>
    <v>       0.75253508       0.01121598       0.87972589 </v>
    <v>       0.75391296       0.49594535       0.37271160 </v>
    <v>       0.75258614       0.49149359       0.87885446 </v>
    <v>       0.99809989       0.49863247       0.00342783 </v>
    <v>       0.50116395       0.99931506       0.49696996 </v>
    <v>       0.49856431       0.49488798       0.74869366 </v>
    <v>       0.75132134       0.24954562       0.49962793 </v>
    <v>       0.00266472       0.50672140       0.75343199 </v>
    <v>       0.24819636       0.25110911       0.49739074 </v>
    <v>       0.00147429       0.99378953       0.99763611 </v>
    <v>       0.74438280       0.24990400       0.75123198 </v>
    <v>       0.50106076       0.49817249       0.49891989 </v>
    <v>       0.75337169       0.74856921       0.49771959 </v>
    <v>       0.75183947       0.25110539       0.00197558 </v>
    <v>       0.00228572       0.00028676       0.25233960 </v>
    <v>       0.49868346       0.00043069       0.25101812 </v>
    <v>       0.74878212       0.75027770       0.25256109 </v>
    <v>       0.00202215       0.49782176       0.25118332 </v>
    <v>       0.24971187       0.74860177       0.49570409 </v>
    <v>       0.25415883       0.25156359       0.74948264 </v>
    <v>       0.50062516       0.50391796       0.99835674 </v>
    <v>       0.49908949       0.50050002       0.25062812 </v>
    <v>       0.00056993       0.99918523       0.50050122 </v>
    <v>       0.24029857       0.73922876       0.01461681 </v>
    <v>       0.49755944       0.99837680       0.74397987 </v>
    <v>       0.51405166       0.00582894       0.01037490 </v>
    <v>       0.00078997       0.50241308       0.49894056 </v>
    <v>       0.25118409       0.75012230       0.25148447 </v>
    <v>       0.24797275       0.24892110       0.00084609 </v>
    <v>       0.74611230       0.75174949       0.00974474 </v>
    <v>       0.25102958       0.24660059       0.24664939 </v>
    <v>       0.26295882       0.74013840       0.74040735 </v>
    <v>       0.75109219       0.24884402       0.24962795 </v>
    <v>       0.73263833       0.74303404       0.73828525 </v>
    <v>       0.99510101       0.02703502       0.74553323 </v>
    <v>       0.11338842       0.13143236       0.23986660 </v>
    <v>       0.11087961       0.14613212       0.74699757 </v>
    <v>       0.11482593       0.63317283       0.24120461 </v>
    <v>       0.63526079       0.11242734       0.50957167 </v>
    <v>       0.61408800       0.13372822       0.24078507 </v>
    <v>       0.60491365       0.13364551       0.76009660 </v>
    <v>       0.61509613       0.63670045       0.24577076 </v>
    <v>       0.60695048       0.63487710       0.74135294 </v>
    <v>       0.88654432       0.13314385       0.51406107 </v>
    <v>       0.39153904       0.35773893       0.75413399 </v>
    <v>       0.38941816       0.86515522       0.26268678 </v>
    <v>       0.75039747       0.25136417       0.87457637 </v>
    <v>       0.88541980       0.36572834       0.25506092 </v>
    <v>       0.88611156       0.37283874       0.75394887 </v>
    <v>       0.88611264       0.86326522       0.25665653 </v>
    <v>       0.49692572       0.97789165       0.62822066 </v>
    <v>       0.36045346       0.10868696       0.75179212 </v>
    <v>       0.36620138       0.61297575       0.24816743 </v>
    <v>       0.36005325       0.60649159       0.75565126 </v>
    <v>       0.86686588       0.11064784       0.24465794 </v>
    <v>       0.85004576       0.10815380       0.74617943 </v>
    <v>       0.86391065       0.61615947       0.24731037 </v>
    <v>       0.86023068       0.64764473       0.77629625 </v>
    <v>       0.13489484       0.38268394       0.24543875 </v>
    <v>       0.14096173       0.40218171       0.74706575 </v>
    <v>       0.13343819       0.88563552       0.25536841 </v>
    <v>       0.11202327       0.66866629       0.76078683 </v>
    <v>       0.63777127       0.38827455       0.75064738 </v>
    <v>       0.63790329       0.88711026       0.25524197 </v>
    <v>       0.36030372       0.86571154       0.78789962 </v>
    <v>       0.37477333       0.38074913       0.99637098 </v>
    <v>       0.36423452       0.38591835       0.49220162 </v>
    <v>       0.36518169       0.88673144       0.49084400 </v>
    <v>       0.87313643       0.37628401       0.99478443 </v>
    <v>       0.86383627       0.38393371       0.50151227 </v>
    <v>       0.86731874       0.87295828       0.98339829 </v>
    <v>       0.86327946       0.88871569       0.49269971 </v>
    <v>       0.12198214       0.11716457       0.99485729 </v>
    <v>       0.13324588       0.11365876       0.51108790 </v>
    <v>       0.12610767       0.62055600       0.00312908 </v>
    <v>       0.13847060       0.61663500       0.51008278 </v>
    <v>       0.62968546       0.12458012       0.99814868 </v>
    <v>       0.38682602       0.36609778       0.25212474 </v>
    <v>       0.62997317       0.62617532       0.98942178 </v>
    <v>       0.63741843       0.61339090       0.51150067 </v>
    <v>       0.12018201       0.37091618       0.00447651 </v>
    <v>       0.11484379       0.36561535       0.50495987 </v>
    <v>       0.14518968       0.87092146       0.97926746 </v>
    <v>       0.11363168       0.86452621       0.49476390 </v>
    <v>       0.62377035       0.37501590       0.00116642 </v>
    <v>       0.61337823       0.36244791       0.49902407 </v>
    <v>       0.63419355       0.38612543       0.24671916 </v>
    <v>       0.61326328       0.86162916       0.49765342 </v>
    <v>       0.37970776       0.09214229       0.97600068 </v>
    <v>       0.38547883       0.13383793       0.50642878 </v>
    <v>       0.37740383       0.64844422       0.98335519 </v>
    <v>       0.38805894       0.63618489       0.50325841 </v>
    <v>       0.88147308       0.12202127       0.99182995 </v>
    <v>       0.87315310       0.62774538       0.99619201 </v>
    <v>       0.88641580       0.63866372       0.49845284 </v>
    <v>       0.99933615       0.97846823       0.11736201 </v>
    <v>       0.00295439       0.96655574       0.63537689 </v>
    <v>       0.98986481       0.49696894       0.12438161 </v>
    <v>       0.98903701       0.51492044       0.63329528 </v>
    <v>       0.49158227       0.98097715       0.12486666 </v>
    <v>       0.36583421       0.11192906       0.25132834 </v>
    <v>       0.49632576       0.50797515       0.12072462 </v>
    <v>       0.00827469       0.49999745       0.87677944 </v>
    <v>       0.00165872       0.01581114       0.37728306 </v>
    <v>       0.00184031       0.96808326       0.85525668 </v>
    <v>       0.00731417       0.50484750       0.37432681 </v>
    <v>       0.50920433       0.01419924       0.37685629 </v>
    <v>       0.60542336       0.87182588       0.97380021 </v>
    <v>       0.50819017       0.50741368       0.37563605 </v>
    <v>       0.50498328       0.49830951       0.87298499 </v>
    <v>       0.24164864       0.24074017       0.37699157 </v>
    <v>       0.24420131       0.25486270       0.87278177 </v>
    <v>       0.24551852       0.73576064       0.37651144 </v>
    <v>       0.75007252       0.23869475       0.37821339 </v>
    <v>       0.49098156       0.48931082       0.62477968 </v>
    <v>       0.74407352       0.73945794       0.37579321 </v>
    <v>       0.64199750       0.88149463       0.77424615 </v>
    <v>       0.26473754       0.24161395       0.12044948 </v>
    <v>       0.25659205       0.25746088       0.62634512 </v>
    <v>       0.26698477       0.77305386       0.12560380 </v>
    <v>       0.25764617       0.77258402       0.62601368 </v>
    <v>       0.75925161       0.25074985       0.12144658 </v>
    <v>       0.74396636       0.25539241       0.62856300 </v>
    <v>       0.74656012       0.76446607       0.12642096 </v>
    <v>       0.76370981       0.76857451       0.62533669 </v>
   </varray>
  </structure>
  <varray name="forces" >
   <v>       0.00033352       0.00386323      -0.00238486 </v>
   <v>      -0.00113231      -0.00010989       0.00299080 </v>
   <v>       0.00367649       0.00684894      -0.00848437 </v>
   <v>      -0.00104302      -0.00134871       0.00180342 </v>
   <v>      -0.00158722      -0.00496660       0.00167568 </v>
   <v>       0.00694710       0.00354404      -0.00736180 </v>
   <v>       0.00348656       0.00461292      -0.00553955 </v>
   <v>       0.00911862       0.00324199       0.00246552 </v>
   <v>      -0.00168667       0.00008165       0.00919023 </v>
   <v>      -0.00425197      -0.00174520      -0.00325699 </v>
   <v>      -0.00414752       0.00075014       0.00905057 </v>
   <v>      -0.00159997      -0.00170697       0.01150416 </v>
   <v>       0.00787538      -0.00227280      -0.00956750 </v>
   <v>       0.00671059       0.00378280      -0.00197702 </v>
   <v>       0.01540453       0.00830723      -0.00285106 </v>
   <v>      -0.00176273      -0.00138812       0.00481326 </v>
   <v>       0.00564546      -0.00247256       0.00079320 </v>
   <v>      -0.00601994      -0.00214757      -0.00030165 </v>
   <v>      -0.00063245       0.00024568      -0.00454177 </v>
   <v>       0.00443462      -0.00105450      -0.00179012 </v>
   <v>       0.00593733       0.00410013      -0.00885631 </v>
   <v>      -0.00243669       0.00080587      -0.00177712 </v>
   <v>      -0.00306158      -0.00346672      -0.00299466 </v>
   <v>      -0.00695707      -0.00535831      -0.00326593 </v>
   <v>       0.00608694      -0.00131856       0.00296811 </v>
   <v>      -0.00036495       0.00380351      -0.00395255 </v>
   <v>      -0.00038428      -0.00323624       0.00571784 </v>
   <v>      -0.00102492       0.00008917      -0.00503653 </v>
   <v>      -0.00909698      -0.00701309       0.00329296 </v>
   <v>       0.00130597       0.00416583       0.00585243 </v>
   <v>      -0.00032413      -0.00376594       0.00491474 </v>
   <v>      -0.01755936      -0.00045968      -0.00485162 </v>
   <v>      -0.01034485       0.00529095      -0.01322063 </v>
   <v>       0.03092519      -0.00025616      -0.00272200 </v>
   <v>       0.00580275      -0.01019971      -0.00955234 </v>
   <v>      -0.01502029       0.00708970       0.00961943 </v>
   <v>      -0.00235145      -0.00169553      -0.01255680 </v>
   <v>      -0.00311604       0.00704709       0.00627992 </v>
   <v>      -0.00423771       0.00110214      -0.00276634 </v>
   <v>       0.00611929       0.00854349      -0.02582988 </v>
   <v>       0.01740935      -0.00775543       0.00480484 </v>
   <v>      -0.00003528       0.00058329       0.00480039 </v>
   <v>       0.00209804      -0.00079560       0.00773808 </v>
   <v>      -0.00287725       0.00811076      -0.00204417 </v>
   <v>      -0.01273698       0.04060958       0.00496873 </v>
   <v>       0.00941688       0.01651460       0.01647012 </v>
   <v>      -0.00053811      -0.01836332       0.01971264 </v>
   <v>      -0.02583603      -0.00207279       0.01112610 </v>
   <v>      -0.00941960       0.01392519      -0.01381732 </v>
   <v>      -0.00167285       0.00061250       0.00947269 </v>
   <v>       0.02220984      -0.03789146      -0.00135758 </v>
   <v>      -0.00065619      -0.00421814       0.01013801 </v>
   <v>      -0.01725114      -0.00351431      -0.01434307 </v>
   <v>       0.00486217       0.01314756      -0.01385790 </v>
   <v>       0.01149118      -0.01456407       0.00525351 </v>
   <v>      -0.00362359      -0.00489139       0.00630129 </v>
   <v>      -0.00230820       0.00468405      -0.00243365 </v>
   <v>      -0.00367235       0.00414077       0.00335301 </v>
   <v>       0.00865897      -0.00202199      -0.00973920 </v>
   <v>       0.00725880      -0.00318052       0.00188232 </v>
   <v>       0.00223916      -0.01622995      -0.00334171 </v>
   <v>      -0.00441962      -0.00358514       0.01174443 </v>
   <v>       0.00809524      -0.00469630      -0.01536249 </v>
   <v>       0.00154780      -0.00208747      -0.00191864 </v>
   <v>       0.00561599      -0.01220611      -0.01013319 </v>
   <v>       0.01456504      -0.01026451      -0.00596398 </v>
   <v>       0.01055940      -0.00430747      -0.00598020 </v>
   <v>       0.00169149       0.00310818       0.00534707 </v>
   <v>      -0.00050033      -0.00571366      -0.00684779 </v>
   <v>       0.00067711      -0.01532484      -0.00410592 </v>
   <v>      -0.00163897       0.00748478      -0.00520529 </v>
   <v>       0.00059539      -0.00566304       0.00909560 </v>
   <v>      -0.00146061      -0.00710504      -0.00266248 </v>
   <v>      -0.00566872      -0.00145071       0.00669411 </v>
   <v>      -0.02041537      -0.00901835      -0.00420147 </v>
   <v>      -0.01454189       0.00234093       0.01119016 </v>
   <v>       0.00998205       0.00709368       0.01106754 </v>
   <v>       0.00430843      -0.00937695       0.00975689 </v>
[...]
       <r>   -16.5449     0.0000    32.0000 </r>
       <r>   -16.3924     0.0000    32.0000 </r>
       <r>   -16.2399     0.0000    32.0000 </r>
       <r>   -16.0874     0.0000    32.0000 </r>
       <r>   -15.9349     0.0000    32.0000 </r>
       <r>   -15.7824     0.0000    32.0000 </r>
       <r>   -15.6299     0.0000    32.0000 </r>
       <r>   -15.4774     0.0000    32.0000 </r>
       <r>   -15.3249     0.0000    32.0000 </r>
       <r>   -15.1724     1.0400    32.1586 </r>
       <r>   -15.0199    21.4870    35.4356 </r>
       <r>   -14.8673    48.4176    42.8197 </r>
       <r>   -14.7148    48.0278    50.1444 </r>
       <r>   -14.5623    34.3355    55.3809 </r>
       <r>   -14.4098    33.8635    60.5454 </r>
       <r>   -14.2573    45.3651    67.4640 </r>
       <r>   -14.1048    94.3577    81.8544 </r>
       <r>   -13.9523   119.7649   100.1197 </r>
       <r>   -13.7998    83.8026   112.9004 </r>
       <r>   -13.6473    51.2433   120.7154 </r>
       <r>   -13.4948     8.4227   122.0000 </r>
       <r>   -13.3422     0.0002   122.0000 </r>
       <r>   -13.1897     0.0000   122.0000 </r>
       <r>   -13.0372     0.0000   122.0000 </r>
       <r>   -12.8847     0.0000   122.0000 </r>
       <r>   -12.7322     1.7284   122.2636 </r>
       <r>   -12.5797    63.9319   132.0138 </r>
       <r>   -12.4272   158.7841   156.2299 </r>
       <r>   -12.2747   128.7990   175.8729 </r>
       <r>   -12.1222   121.1896   194.3555 </r>
       <r>   -11.9697    95.2502   208.8820 </r>
       <r>   -11.8172    44.8098   215.7159 </r>
       <r>   -11.6646    14.5717   217.9382 </r>
       <r>   -11.5121     0.4050   218.0000 </r>
       <r>   -11.3596     0.0000   218.0000 </r>
       <r>   -11.2071     0.0000   218.0000 </r>
       <r>   -11.0546     0.0000   218.0000 </r>
       <r>   -10.9021     0.0000   218.0000 </r>
       <r>   -10.7496     0.0000   218.0000 </r>
       <r>   -10.5971     0.0000   218.0000 </r>
       <r>   -10.4446     0.0000   218.0000 </r>
       <r>   -10.2921     0.0000   218.0000 </r>
       <r>   -10.1396     0.0000   218.0000 </r>
       <r>    -9.9870     0.0000   218.0000 </r>
       <r>    -9.8345     0.0000   218.0000 </r>
       <r>    -9.6820     0.0000   218.0000 </r>
       <r>    -9.5295     0.0000   218.0000 </r>
       <r>    -9.3770     0.0000   218.0000 </r>
       <r>    -9.2245     0.0000   218.0000 </r>
       <r>    -9.0720     0.0000   218.0000 </r>
       <r>    -8.9195     0.0000   218.0000 </r>
       <r>    -8.7670     0.0000   218.0000 </r>
       <r>    -8.6145     0.0000   218.0000 </r>
       <r>    -8.4620     0.0000   218.0000 </r>
       <r>    -8.3094     0.0000   218.0000 </r>
       <r>    -8.1569     0.0000   218.0000 </r>
       <r>    -8.0044     0.0000   218.0000 </r>
       <r>    -7.8519     0.0000   218.0000 </r>
       <r>    -7.6994     0.0000   218.0000 </r>
       <r>    -7.5469     0.0000   218.0000 </r>
       <r>    -7.3944     0.0000   218.0000 </r>
       <r>    -7.2419     0.0000   218.0000 </r>
       <r>    -7.0894     0.0000   218.0000 </r>
       <r>    -6.9369     0.0000   218.0000 </r>
       <r>    -6.7843     0.0000   218.0000 </r>
       <r>    -6.6318     0.0000   218.0000 </r>
       <r>    -6.4793     0.0000   218.0000 </r>
       <r>    -6.3268     0.0000   218.0000 </r>
       <r>    -6.1743     0.0000   218.0000 </r>
       <r>    -6.0218     0.0000   218.0000 </r>
       <r>    -5.8693     0.0000   218.0000 </r>
       <r>    -5.7168     0.0000   218.0000 </r>
       <r>    -5.5643     0.0000   218.0000 </r>
       <r>    -5.4118     0.0000   218.0000 </r>
       <r>    -5.2593     0.0000   218.0000 </r>
       <r>    -5.1067     0.0000   218.0000 </r>
       <r>    -4.9542     0.0000   218.0000 </r>
       <r>    -4.8017     2.4072   218.3671 </r>
       <r>    -4.6492     9.9660   219.8870 </r>
       <r>    -4.4967     0.7408   220.0000 </r>
       <r>    -4.3442     0.8411   220.1283 </r>
       <r>    -4.1917    18.7010   222.9804 </r>
       <r>    -4.0392     0.1288   223.0000 </r>
       <r>    -3.8867     0.0000   223.0000 </r>
       <r>    -3.7342     0.0000   223.0000 </r>
       <r>    -3.5817     0.0000   223.0000 </r>
       <r>    -3.4291     0.0000   223.0000 </r>
       <r>    -3.2766     0.0000   223.0000 </r>
       <r>    -3.1241     0.0000   223.0000 </r>
       <r>    -2.9716     0.0000   223.0000 </r>
       <r>    -2.8191     0.0000   223.0000 </r>
       <r>    -2.6666     0.0000   223.0000 </r>
       <r>    -2.5141     1.4469   223.2207 </r>
       <r>    -2.3616     5.2574   224.0225 </r>
       <r>    -2.2091    16.8054   226.5855 </r>
       <r>    -2.0566    23.2327   230.1287 </r>
       <r>    -1.9040    31.0574   234.8652 </r>
       <r>    -1.7515    37.5886   240.5978 </r>
       <r>    -1.5990    41.7987   246.9725 </r>
       <r>    -1.4465    48.7870   254.4130 </r>
       <r>    -1.2940    55.7923   262.9218 </r>
       <r>    -1.1415    67.9494   273.2847 </r>
       <r>    -0.9890    73.6566   284.5181 </r>
       <r>    -0.8365    79.3729   296.6232 </r>
       <r>    -0.6840    85.9152   309.7260 </r>
       <r>    -0.5315    89.9020   323.4369 </r>
       <r>    -0.3790    95.9219   338.0659 </r>
       <r>    -0.2264    71.9425   349.0378 </r>
       <r>    -0.0739    53.9607   357.2673 </r>
       <r>     0.0786    48.6799   364.6915 </r>
       <r>     0.2311    51.8346   372.5967 </r>
       <r>     0.3836    57.2349   381.3256 </r>
       <r>     0.5361    51.3539   389.1575 </r>
       <r>     0.6886    56.5567   397.7830 </r>
       <r>     0.8411    54.1845   406.0466 </r>
       <r>     0.9936    61.5527   415.4340 </r>
       <r>     1.1461    60.8340   424.7117 </r>
       <r>     1.2986    81.8870   437.2003 </r>
       <r>     1.4512    88.5649   450.7072 </r>
       <r>     1.6037    82.4837   463.2867 </r>
       <r>     1.7562    63.2379   472.9311 </r>
       <r>     1.9087    59.5591   482.0144 </r>
       <r>     2.0612    36.8544   487.6351 </r>
       <r>     2.2137    28.9239   492.0462 </r>
       <r>     2.3662     6.2330   492.9968 </r>
       <r>     2.5187     0.0208   493.0000 </r>
       <r>     2.6712     0.0000   493.0000 </r>
       <r>     2.8237     0.0000   493.0000 </r>
       <r>     2.9762     0.0000   493.0000 </r>
       <r>     3.1288     0.0000   493.0000 </r>
       <r>     3.2813     0.0000   493.0000 </r>
       <r>     3.4338     0.0000   493.0000 </r>
       <r>     3.5863     0.0000   493.0000 </r>
       <r>     3.7388     0.0000   493.0000 </r>
       <r>     3.8913     0.0000   493.0000 </r>
       <r>     4.0438     0.0000   493.0000 </r>
       <r>     4.1963     0.5081   493.0775 </r>
       <r>     4.3488     6.0641   494.0023 </r>
       <r>     4.5013    12.8590   495.9634 </r>
       <r>     4.6539    43.0553   502.5298 </r>
       <r>     4.8064    46.3714   509.6019 </r>
       <r>     4.9589    50.5761   517.3152 </r>
       <r>     5.1114    50.0552   524.9491 </r>
       <r>     5.2639    56.4053   533.5514 </r>
       <r>     5.4164    67.8789   543.9036 </r>
       <r>     5.5689    67.6994   554.2284 </r>
       <r>     5.7214    66.7307   564.4054 </r>
       <r>     5.8739    64.7354   574.2782 </r>
       <r>     6.0264    77.9660   586.1687 </r>
       <r>     6.1789    73.8896   597.4376 </r>
       <r>     6.3315    58.5775   606.3712 </r>
       <r>     6.4840    31.0846   611.1119 </r>
       <r>     6.6365    13.8272   613.2207 </r>
       <r>     6.7890    11.6383   614.9956 </r>
       <r>     6.9415    19.6435   617.9914 </r>
       <r>     7.0940    20.5118   621.1197 </r>
       <r>     7.2465    17.4308   623.7780 </r>
       <r>     7.3990    11.1960   625.4855 </r>
       <r>     7.5515    16.7523   628.0404 </r>
       <r>     7.7040    16.7300   630.5919 </r>
       <r>     7.8565    16.5251   633.1121 </r>
       <r>     8.0091    23.0813   636.6322 </r>
       <r>     8.1616    27.4298   640.8155 </r>
       <r>     8.3141    22.5216   644.2503 </r>
       <r>     8.4666    27.1824   648.3959 </r>
       <r>     8.6191    25.1559   652.2324 </r>
       <r>     8.7716    27.5281   656.4307 </r>
       <r>     8.9241    35.2403   661.8051 </r>
       <r>     9.0766    38.7158   667.7096 </r>
       <r>     9.2291    35.7836   673.1670 </r>
       <r>     9.3816    39.9808   679.2644 </r>
       <r>     9.5342    46.0847   686.2928 </r>
       <r>     9.6867    45.9398   693.2990 </r>
       <r>     9.8392    58.5127   702.2228 </r>
       <r>     9.9917    58.4287   711.1337 </r>
       <r>    10.1442    64.9639   721.0413 </r>
       <r>    10.2967    60.2143   730.2245 </r>
       <r>    10.4492    53.8561   738.4381 </r>
       <r>    10.6017    57.0513   747.1389 </r>
       <r>    10.7542    54.7816   755.4936 </r>
       <r>    10.9067    56.9059   764.1723 </r>
       <r>    11.0592    25.0811   767.9974 </r>
       <r>    11.2118     0.0171   768.0000 </r>
       <r>    11.3643     0.0000   768.0000 </r>
       <r>    11.5168     0.0000   768.0000 </r>
       <r>    11.6693     0.0000   768.0000 </r>
       <r>    11.8218     0.0000   768.0000 </r>
       <r>    11.9743     0.0000   768.0000 </r>
       <r>    12.1268     0.0000   768.0000 </r>
       <r>    12.2793     0.0000   768.0000 </r>
       <r>    12.4318     0.0000   768.0000 </r>
       <r>    12.5843     0.0000   768.0000 </r>
       <r>    12.7368     0.0000   768.0000 </r>
       <r>    12.8894     0.0000   768.0000 </r>
       <r>    13.0419     0.0000   768.0000 </r>
      </set>
     </set>
    </array>
   </total>
  </dos>
 </calculation>
 <structure name="finalpos" >
  <crystal>
   <varray name="basis" >
    <v>      11.20987932       0.02780424       0.01184715 </v>
    <v>       0.02771962      11.21910441      -0.01414986 </v>
    <v>       0.01703215      -0.02010253      15.96765185 </v>
   </varray>
   <i name="volume">   2008.15087198 </i>
   <varray name="rec_basis" >
    <v>       0.08920767      -0.00022053      -0.00009543 </v>
    <v>      -0.00022120       0.08913436       0.00011245 </v>
    <v>      -0.00006638       0.00007915       0.06262679 </v>
   </varray>
  </crystal>
  <varray name="positions" >
   <v>       0.00064468       0.25142739       0.12754400 </v>
   <v>       0.00046079       0.26489374       0.62220869 </v>
   <v>       0.99348762       0.74445409       0.13344857 </v>
   <v>       0.00544675       0.74272130       0.61608858 </v>
   <v>       0.50126943       0.25815767       0.13004720 </v>
   <v>       0.50045834       0.24925034       0.62321544 </v>
   <v>       0.49697236       0.74714006       0.13352371 </v>
   <v>       0.50089914       0.74628297       0.61372882 </v>
   <v>       0.00143933       0.25324908       0.37261348 </v>
   <v>       0.00301999       0.26054774       0.88074946 </v>
   <v>       0.00447369       0.74589790       0.37207964 </v>
   <v>       0.99791743       0.74064596       0.88732913 </v>
   <v>       0.49985316       0.24977000       0.37110136 </v>
   <v>       0.49628567       0.25569976       0.88036347 </v>
   <v>       0.49875492       0.74831082       0.37377567 </v>
   <v>       0.50520651       0.73698195       0.86975568 </v>
   <v>       0.24651654       0.00557197       0.12940268 </v>
   <v>       0.25676222       0.00521136       0.61700570 </v>
   <v>       0.25017867       0.48849918       0.12980181 </v>
   <v>       0.25185455       0.49359432       0.61852954 </v>
   <v>       0.75307509       0.00380672       0.13252349 </v>
   <v>       0.74934105       0.00165316       0.61950985 </v>
   <v>       0.75012840       0.49687748       0.12805832 </v>
   <v>       0.75182863       0.49271284       0.62276790 </v>
   <v>       0.25056442       0.00019833       0.37135301 </v>
   <v>       0.23663252       0.01745939       0.87220368 </v>
   <v>       0.24828797       0.49849518       0.37038939 </v>
   <v>       0.25034461       0.48858102       0.87999991 </v>
   <v>       0.75083006       0.00308311       0.37228107 </v>
   <v>       0.75253598       0.01124729       0.87974428 </v>
   <v>       0.75391465       0.49594033       0.37271568 </v>
   <v>       0.75248907       0.49148726       0.87884006 </v>
   <v>       0.99807145       0.49864398       0.00342067 </v>
   <v>       0.50118600       0.99931094       0.49700641 </v>
   <v>       0.49856529       0.49488421       0.74869949 </v>
   <v>       0.75129620       0.24952132       0.49964341 </v>
   <v>       0.00264247       0.50672218       0.75342311 </v>
   <v>       0.24820334       0.25114376       0.49738255 </v>
   <v>       0.00147896       0.99381726       0.99763707 </v>
   <v>       0.74441086       0.24993431       0.75120926 </v>
   <v>       0.50109495       0.49816520       0.49891530 </v>
   <v>       0.75338725       0.74854834       0.49772433 </v>
   <v>       0.75184721       0.25112254       0.00199988 </v>
   <v>       0.00229069       0.00031954       0.25236017 </v>
   <v>       0.49866735       0.00048264       0.25101847 </v>
   <v>       0.74878494       0.75029507       0.25256255 </v>
   <v>       0.00199186       0.49779484       0.25122025 </v>
   <v>       0.24968974       0.74857684       0.49570939 </v>
   <v>       0.25416656       0.25156538       0.74946511 </v>
   <v>       0.50060540       0.50390039       0.99836757 </v>
   <v>       0.49912021       0.50047256       0.25062589 </v>
   <v>       0.00057197       0.99918709       0.50050089 </v>
   <v>       0.24024708       0.73923193       0.01461619 </v>
   <v>       0.49756283       0.99845002       0.74394205 </v>
   <v>       0.51403671       0.00582033       0.01039255 </v>
   <v>       0.00078497       0.50239134       0.49893926 </v>
   <v>       0.25119338       0.75013334       0.25146382 </v>
   <v>       0.24796132       0.24895842       0.00084165 </v>
   <v>       0.74616558       0.75170817       0.00975354 </v>
   <v>       0.25103745       0.24660665       0.24666940 </v>
   <v>       0.26297390       0.74014145       0.74039146 </v>
   <v>       0.75110516       0.24882575       0.24966871 </v>
   <v>       0.73260260       0.74301557       0.73827237 </v>
   <v>       0.99509642       0.02703506       0.74552481 </v>
   <v>       0.11343730       0.13137077       0.23981986 </v>
   <v>       0.11095357       0.14608556       0.74697463 </v>
   <v>       0.11485934       0.63313042       0.24118443 </v>
   <v>       0.63526903       0.11244239       0.50958324 </v>
   <v>       0.61408665       0.13371544       0.24076021 </v>
   <v>       0.60496547       0.13359760       0.76008417 </v>
   <v>       0.61509063       0.63673717       0.24575713 </v>
   <v>       0.60694679       0.63483961       0.74138139 </v>
   <v>       0.88653059       0.13310880       0.51405492 </v>
   <v>       0.39150893       0.35775669       0.75415300 </v>
   <v>       0.38934851       0.86517608       0.26266875 </v>
   <v>       0.75030999       0.25137496       0.87457446 </v>
   <v>       0.88545891       0.36574973       0.25510707 </v>
   <v>       0.88611977       0.37277682       0.75397482 </v>
   <v>       0.88608063       0.86329243       0.25667597 </v>
   <v>       0.49688966       0.97794071       0.62817636 </v>
   <v>       0.36046877       0.10864046       0.75183931 </v>
   <v>       0.36620256       0.61299111       0.24820770 </v>
   <v>       0.36010094       0.60647298       0.75568419 </v>
   <v>       0.86684505       0.11066633       0.24468117 </v>
   <v>       0.85009580       0.10819231       0.74622981 </v>
   <v>       0.86392542       0.61618551       0.24729891 </v>
   <v>       0.86021380       0.64762948       0.77629422 </v>
   <v>       0.13489459       0.38265085       0.24543743 </v>
   <v>       0.14096310       0.40217443       0.74705136 </v>
   <v>       0.13344195       0.88556503       0.25534173 </v>
   <v>       0.11206063       0.66864337       0.76075549 </v>
   <v>       0.63776569       0.38823300       0.75063021 </v>
   <v>       0.63785426       0.88710679       0.25518564 </v>
   <v>       0.36029794       0.86570771       0.78783972 </v>
   <v>       0.37476309       0.38073869       0.99634897 </v>
   <v>       0.36424074       0.38591196       0.49216689 </v>
   <v>       0.36519091       0.88674173       0.49085830 </v>
   <v>       0.87312787       0.37630622       0.99471689 </v>
   <v>       0.86383186       0.38391532       0.50145639 </v>
   <v>       0.86730342       0.87303233       0.98341406 </v>
   <v>       0.86328782       0.88871050       0.49267402 </v>
   <v>       0.12209124       0.11711258       0.99487291 </v>
   <v>       0.13322382       0.11368597       0.51110833 </v>
   <v>       0.12607916       0.62051375       0.00318560 </v>
   <v>       0.13840238       0.61668554       0.51010069 </v>
   <v>       0.62976566       0.12451526       0.99818586 </v>
   <v>       0.38682841       0.36613385       0.25212693 </v>
   <v>       0.62995759       0.62614561       0.98949042 </v>
   <v>       0.63739401       0.61339689       0.51150813 </v>
   <v>       0.12013502       0.37090122       0.00451699 </v>
   <v>       0.11486113       0.36563937       0.50497126 </v>
   <v>       0.14512342       0.87089611       0.97928391 </v>
   <v>       0.11367043       0.86454836       0.49480008 </v>
   <v>       0.62372815       0.37501340       0.00119168 </v>
   <v>       0.61332847       0.36245787       0.49899388 </v>
   <v>       0.63417020       0.38609403       0.24670028 </v>
   <v>       0.61330353       0.86163159       0.49763739 </v>
   <v>       0.37979926       0.09218078       0.97599021 </v>
   <v>       0.38545855       0.13380416       0.50640838 </v>
   <v>       0.37730161       0.64843895       0.98334735 </v>
   <v>       0.38805064       0.63615742       0.50322689 </v>
   <v>       0.88149442       0.12208078       0.99185072 </v>
   <v>       0.87311137       0.62778939       0.99618203 </v>
   <v>       0.88642478       0.63865603       0.49842799 </v>
   <v>       0.99930718       0.97849047       0.11736298 </v>
   <v>       0.00292938       0.96656451       0.63536389 </v>
   <v>       0.98976656       0.49693340       0.12438270 </v>
   <v>       0.98902005       0.51489468       0.63328072 </v>
   <v>       0.49150272       0.98097064       0.12488170 </v>
   <v>       0.36583676       0.11194756       0.25132943 </v>
   <v>       0.49629474       0.50796128       0.12072143 </v>
   <v>       0.00832938       0.50008379       0.87679689 </v>
   <v>       0.00170150       0.01582921       0.37727223 </v>
   <v>       0.00190782       0.96813027       0.85526956 </v>
   <v>       0.00734868       0.50486858       0.37434257 </v>
   <v>       0.50924992       0.01416909       0.37689122 </v>
   <v>       0.60540496       0.87180003       0.97386157 </v>
   <v>       0.50823960       0.50746163       0.37562403 </v>
   <v>       0.50499893       0.49834271       0.87300568 </v>
   <v>       0.24161442       0.24070210       0.37700125 </v>
   <v>       0.24416234       0.25479932       0.87279888 </v>
   <v>       0.24547890       0.73576467       0.37651847 </v>
   <v>       0.75006249       0.23867707       0.37820451 </v>
   <v>       0.49096835       0.48934743       0.62479983 </v>
   <v>       0.74404654       0.73943436       0.37575049 </v>
   <v>       0.64199529       0.88149610       0.77419581 </v>
   <v>       0.26474013       0.24161355       0.12041996 </v>
   <v>       0.25664152       0.25745995       0.62633148 </v>
   <v>       0.26700568       0.77306001       0.12560931 </v>
   <v>       0.25766327       0.77254704       0.62599356 </v>
   <v>       0.75931284       0.25080972       0.12143590 </v>
   <v>       0.74405046       0.25544075       0.62856270 </v>
   <v>       0.74659020       0.76446667       0.12644077 </v>
   <v>       0.76367983       0.76856704       0.62533291 </v>
  </varray>
 </structure>
</modeling>
