<?xml version="1.0" encoding="ISO-8859-1"?>
<modeling>
 <generator>
  <i name="program" type="string">vasp </i>
  <i name="version" type="string">5.4.1  </i>
  <i name="subversion" type="string">05Feb16 (build Jan 25 2017 20:16:33) complex                          parallel </i>
  <i name="platform" type="string">BWXE6 </i>
  <i name="date" type="string">2019 07 09 </i>
  <i name="time" type="string">14:04:58 </i>
 </generator>
 <incar>
  <i type="string" name="SYSTEM"> STF</i>
  <i type="string" name="PREC">normal</i>
  <i type="string" name="ALGO"> Fast</i>
  <i type="int" name="ISPIN">     2</i>
  <i type="int" name="NELM">    40</i>
  <i type="int" name="NELMIN">     8</i>
  <i type="int" name="IBRION">     2</i>
  <i name="EDIFF">      0.00010000</i>
  <i name="EDIFFG">     -0.03000000</i>
  <i type="int" name="NSW">    30</i>
  <i type="int" name="ISIF">     3</i>
  <i name="ENCUT">    520.00000000</i>
  <i type="int" name="NBANDS">   768</i>
  <v name="MAGMOM">      0.60000000      0.60000000      0.60000000      0.60000000      0.60000000      0.60000000      0.60000000      0.60000000      0.60000000      0.60000000      0.60000000      0.60000000      0.60000000      0.60000000      0.60000000      0.60000000      0.60000000      0.60000000      0.60000000      0.60000000
      0.60000000      0.60000000      0.60000000      0.60000000      0.60000000      0.60000000      0.60000000      0.60000000      0.60000000      0.60000000      0.60000000      0.60000000      0.60000000      0.60000000      0.60000000      0.60000000      0.60000000      0.60000000      0.60000000      0.60000000
      5.00000000      5.00000000      5.00000000      5.00000000      5.00000000      5.00000000      5.00000000      5.00000000      5.00000000      5.00000000      5.00000000      5.00000000      5.00000000      5.00000000      5.00000000      5.00000000      5.00000000      5.00000000      5.00000000      5.00000000
      5.00000000      5.00000000      5.00000000      5.00000000      0.60000000      0.60000000      0.60000000      0.60000000      0.60000000      0.60000000      0.60000000      0.60000000      0.60000000      0.60000000      0.60000000      0.60000000      0.60000000      0.60000000      0.60000000      0.60000000
      0.60000000      0.60000000      0.60000000      0.60000000      0.60000000      0.60000000      0.60000000      0.60000000      0.60000000      0.60000000      0.60000000      0.60000000      0.60000000      0.60000000      0.60000000      0.60000000      0.60000000      0.60000000      0.60000000      0.60000000
      0.60000000      0.60000000      0.60000000      0.60000000      0.60000000      0.60000000      0.60000000      0.60000000      0.60000000      0.60000000      0.60000000      0.60000000      0.60000000      0.60000000      0.60000000      0.60000000      0.60000000      0.60000000      0.60000000      0.60000000
      0.60000000      0.60000000      0.60000000      0.60000000      0.60000000      0.60000000      0.60000000      0.60000000      0.60000000      0.60000000      0.60000000      0.60000000      0.60000000      0.60000000      0.60000000      0.60000000      0.60000000      0.60000000      0.60000000      0.60000000
      0.60000000      0.60000000      0.60000000      0.60000000      0.60000000      0.60000000      0.60000000      0.60000000</v>
  <i type="string" name="LREAL"> Auto</i>
  <i type="int" name="ISMEAR">     0</i>
  <i name="SIGMA">      0.05000000</i>
  <i type="int" name="LMAXMIX">     4</i>
  <v type="int" name="KPOINT_BSE">    -1     0     0     0</v>
  <i type="int" name="NELM">    40</i>
  <i type="logical" name="LDAU"> T  </i>
  <v type="int" name="LDAUTYPE">     2</v>
  <v type="int" name="LDAUL">     0     2     2     0</v>
  <v name="LDAUU">      0.00000000      3.00000000      5.00000000      0.00000000</v>
  <v name="LDAUJ">      0.00000000      0.00000000      0.00000000      0.00000000</v>
  <i type="int" name="LDAUPRINT">     1</i>
 </incar>
 <kpoints>
  <generation param="Monkhorst-Pack">
   <v type="int" name="divisions">       2        2        2 </v>
   <v name="usershift">      0.00000000       0.00000000       0.00000000 </v>
   <v name="genvec1">      0.50000000      -0.00000000       0.00000000 </v>
   <v name="genvec2">      0.00000000       0.50000000       0.00000000 </v>
   <v name="genvec3">     -0.00000000      -0.00000000       0.50000000 </v>
   <v name="shift">      0.50000000       0.50000000       0.50000000 </v>
  </generation>
  <varray name="kpointlist" >
   <v>       0.25000000       0.25000000       0.25000000 </v>
   <v>      -0.25000000       0.25000000       0.25000000 </v>
   <v>       0.25000000      -0.25000000       0.25000000 </v>
   <v>      -0.25000000      -0.25000000       0.25000000 </v>
  </varray>
  <varray name="weights" >
   <v>       0.25000000 </v>
   <v>       0.25000000 </v>
   <v>       0.25000000 </v>
   <v>       0.25000000 </v>
  </varray>
 </kpoints>
 <parameters>
  <separator name="general" >
   <i type="string" name="SYSTEM">STF</i>
   <i type="logical" name="LCOMPAT"> F  </i>
  </separator>
  <separator name="electronic" >
   <i type="string" name="PREC">normal</i>
   <i name="ENMAX">    520.00000000</i>
   <i name="ENAUG">    605.39200000</i>
   <i name="EDIFF">      0.00010000</i>
   <i type="int" name="IALGO">    68</i>
   <i type="int" name="IWAVPR">    11</i>
   <i type="int" name="NBANDS">   768</i>
   <i name="NELECT">   1048.00000000</i>
   <i type="int" name="TURBO">     0</i>
   <i type="int" name="IRESTART">     0</i>
   <i type="int" name="NREBOOT">     0</i>
   <i type="int" name="NMIN">     0</i>
   <i name="EREF">      0.00000000</i>
   <separator name="electronic smearing" >
    <i type="int" name="ISMEAR">     0</i>
    <i name="SIGMA">      0.05000000</i>
    <i name="KSPACING">      0.50000000</i>
    <i type="logical" name="KGAMMA"> T  </i>
   </separator>
   <separator name="electronic projectors" >
    <i type="logical" name="LREAL"> T  </i>
    <v name="ROPT">     -0.00050000     -0.00050000     -0.00050000     -0.00050000</v>
    <i type="int" name="LMAXPAW">  -100</i>
    <i type="int" name="LMAXMIX">     4</i>
    <i type="logical" name="NLSPLINE"> F  </i>
   </separator>
   <separator name="electronic startup" >
    <i type="int" name="ISTART">     1</i>
    <i type="int" name="ICHARG">     0</i>
    <i type="int" name="INIWAV">     1</i>
   </separator>
   <separator name="electronic spin" >
    <i type="int" name="ISPIN">     2</i>
    <i type="logical" name="LNONCOLLINEAR"> F  </i>
    <v name="MAGMOM">      0.60000000      0.60000000      0.60000000      0.60000000      0.60000000      0.60000000      0.60000000      0.60000000      0.60000000      0.60000000      0.60000000      0.60000000      0.60000000      0.60000000      0.60000000      0.60000000      0.60000000      0.60000000      0.60000000      0.60000000
      0.60000000      0.60000000      0.60000000      0.60000000      0.60000000      0.60000000      0.60000000      0.60000000      0.60000000      0.60000000      0.60000000      0.60000000      0.60000000      0.60000000      0.60000000      0.60000000      0.60000000      0.60000000      0.60000000      0.60000000
      5.00000000      5.00000000      5.00000000      5.00000000      5.00000000      5.00000000      5.00000000      5.00000000      5.00000000      5.00000000      5.00000000      5.00000000      5.00000000      5.00000000      5.00000000      5.00000000      5.00000000      5.00000000      5.00000000      5.00000000
      5.00000000      5.00000000      5.00000000      5.00000000      0.60000000      0.60000000      0.60000000      0.60000000      0.60000000      0.60000000      0.60000000      0.60000000      0.60000000      0.60000000      0.60000000      0.60000000      0.60000000      0.60000000      0.60000000      0.60000000
      0.60000000      0.60000000      0.60000000      0.60000000      0.60000000      0.60000000      0.60000000      0.60000000      0.60000000      0.60000000      0.60000000      0.60000000      0.60000000      0.60000000      0.60000000      0.60000000      0.60000000      0.60000000      0.60000000      0.60000000
      0.60000000      0.60000000      0.60000000      0.60000000      0.60000000      0.60000000      0.60000000      0.60000000      0.60000000      0.60000000      0.60000000      0.60000000      0.60000000      0.60000000      0.60000000      0.60000000      0.60000000      0.60000000      0.60000000      0.60000000
      0.60000000      0.60000000      0.60000000      0.60000000      0.60000000      0.60000000      0.60000000      0.60000000      0.60000000      0.60000000      0.60000000      0.60000000      0.60000000      0.60000000      0.60000000      0.60000000      0.60000000      0.60000000      0.60000000      0.60000000
      0.60000000      0.60000000      0.60000000      0.60000000      0.60000000      0.60000000      0.60000000      0.60000000</v>
    <i name="NUPDOWN">     -1.00000000</i>
    <i type="logical" name="LSORBIT"> F  </i>
    <v name="SAXIS">      0.00000000      0.00000000      1.00000000</v>
    <i type="logical" name="LSPIRAL"> F  </i>
    <v name="QSPIRAL">      0.00000000      0.00000000      0.00000000</v>
    <i type="logical" name="LZEROZ"> F  </i>
   </separator>
   <separator name="electronic exchange-correlation" >
    <i type="logical" name="LASPH"> F  </i>
    <i type="logical" name="LMETAGGA"> F  </i>
   </separator>
   <separator name="electronic convergence" >
    <i type="int" name="NELM">    40</i>
    <i type="int" name="NELMDL">     0</i>
    <i type="int" name="NELMIN">     8</i>
    <i name="ENINI">    520.00000000</i>
    <separator name="electronic convergence detail" >
     <i type="logical" name="LDIAG"> T  </i>
     <i type="logical" name="LSUBROT"> F  </i>
     <i name="WEIMIN">      0.00100000</i>
     <i name="EBREAK">      0.00000003</i>
     <i name="DEPER">      0.30000000</i>
     <i type="int" name="NRMM">     4</i>
     <i name="TIME">      0.40000000</i>
    </separator>
   </separator>
   <separator name="electronic mixer" >
    <i name="AMIX">      0.40000000</i>
    <i name="BMIX">      1.00000000</i>
    <i name="AMIN">      0.10000000</i>
    <i name="AMIX_MAG">      1.60000000</i>
    <i name="BMIX_MAG">      1.00000000</i>
    <separator name="electronic mixer details" >
     <i type="int" name="IMIX">     4</i>
     <i type="logical" name="MIXFIRST"> F  </i>
     <i type="int" name="MAXMIX">   -45</i>
     <i name="WC">    100.00000000</i>
     <i type="int" name="INIMIX">     1</i>
     <i type="int" name="MIXPRE">     1</i>
     <i type="int" name="MREMOVE">     5</i>
    </separator>
   </separator>
   <separator name="electronic dipolcorrection" >
    <i type="logical" name="LDIPOL"> F  </i>
    <i type="logical" name="LMONO"> F  </i>
    <i type="int" name="IDIPOL">     0</i>
    <i name="EPSILON">      1.00000000</i>
    <v name="DIPOL">   -100.00000000   -100.00000000   -100.00000000</v>
    <i name="EFIELD">      0.00000000</i>
   </separator>
  </separator>
  <separator name="grids" >
   <i type="int" name="NGX">    64</i>
   <i type="int" name="NGY">    64</i>
   <i type="int" name="NGZ">    90</i>
   <i type="int" name="NGXF">   128</i>
   <i type="int" name="NGYF">   128</i>
   <i type="int" name="NGZF">   180</i>
   <i type="logical" name="ADDGRID"> F  </i>
  </separator>
  <separator name="ionic" >
   <i type="int" name="NSW">    30</i>
   <i type="int" name="IBRION">     2</i>
   <i type="int" name="ISIF">     3</i>
   <i name="PSTRESS">      0.00000000</i>
   <i name="EDIFFG">     -0.03000000</i>
   <i type="int" name="NFREE">     1</i>
   <i name="POTIM">      0.50000000</i>
   <i name="SMASS">     -3.00000000</i>
   <i name="SCALEE">      1.00000000</i>
  </separator>
  <separator name="ionic md" >
   <i name="TEBEG">      0.00010000</i>
   <i name="TEEND">      0.00010000</i>
   <i type="int" name="NBLOCK">     1</i>
   <i type="int" name="KBLOCK">    30</i>
   <i type="int" name="NPACO">   256</i>
   <i name="APACO">     16.00000000</i>
  </separator>
  <separator name="symmetry" >
   <i type="int" name="ISYM">     2</i>
   <i name="SYMPREC">      0.00001000</i>
  </separator>
  <separator name="dos" >
   <i type="logical" name="LORBIT"> F  </i>
   <v name="RWIGS">     -1.00000000     -1.00000000     -1.00000000     -1.00000000</v>
   <i type="int" name="NEDOS">   301</i>
   <i name="EMIN">     10.00000000</i>
   <i name="EMAX">    -10.00000000</i>
   <i name="EFERMI">      0.00000000</i>
  </separator>
  <separator name="writing" >
   <i type="int" name="NWRITE">     2</i>
   <i type="logical" name="LWAVE"> T  </i>
   <i type="logical" name="LCHARG"> T  </i>
   <i type="logical" name="LPARD"> F  </i>
   <i type="logical" name="LVTOT"> F  </i>
   <i type="logical" name="LVHAR"> F  </i>
   <i type="logical" name="LELF"> F  </i>
   <i type="logical" name="LOPTICS"> F  </i>
   <v name="STM">      0.00000000      0.00000000      0.00000000      0.00000000      0.00000000      0.00000000      0.00000000</v>
  </separator>
  <separator name="performance" >
   <i type="int" name="NPAR">     2</i>
   <i type="int" name="NSIM">     4</i>
   <i type="int" name="NBLK">    -1</i>
   <i type="logical" name="LPLANE"> T  </i>
   <i type="logical" name="LSCALAPACK"> T  </i>
   <i type="logical" name="LSCAAWARE"> F  </i>
   <i type="logical" name="LSCALU"> F  </i>
   <i type="logical" name="LASYNC"> F  </i>
   <i type="logical" name="LORBITALREAL"> F  </i>
  </separator>
  <separator name="miscellaneous" >
   <i type="int" name="IDIOT">     3</i>
   <i type="logical" name="LMUSIC"> F  </i>
   <v name="POMASS">     87.62000000     47.88000000     55.84700000     16.00000000</v>
   <v name="DARWINR">      0.00000000      0.00000000      0.00000000      0.00000000</v>
   <v name="DARWINV">      1.00000000      1.00000000      1.00000000      1.00000000</v>
   <i type="logical" name="LCORR"> T  </i>
  </separator>
  <i type="logical" name="GGA_COMPAT"> T  </i>
  <i type="logical" name="LBERRY"> F  </i>
  <i type="int" name="ICORELEVEL">     0</i>
  <i type="logical" name="LDAU"> T  </i>
  <v type="int" name="LDAUTYPE">     2</v>
  <v type="int" name="LDAUL">     0</v>
  <v name="LDAUU">      0.00000000</v>
  <v name="LDAUJ">      0.00000000</v>
  <i type="int" name="LDAUPRINT">     1</i>
  <i type="int" name="I_CONSTRAINED_M">     0</i>
  <separator name="electronic exchange-correlation" >
   <i type="string" name="GGA">--</i>
   <i type="int" name="VOSKOWN">     0</i>
   <i type="logical" name="LHFCALC"> F  </i>
   <i type="string" name="PRECFOCK"></i>
   <i type="logical" name="LSYMGRAD"> F  </i>
   <i type="logical" name="LHFONE"> F  </i>
   <i type="logical" name="LRHFCALC"> F  </i>
   <i type="logical" name="LTHOMAS"> F  </i>
   <i type="logical" name="LMODELHF"> F  </i>
   <i name="ENCUT4O">     -1.00000000</i>
   <i type="int" name="EXXOEP">     0</i>
   <i type="int" name="FOURORBIT">     0</i>
   <i name="AEXX">      0.00000000</i>
   <i name="HFALPHA">      0.00000000</i>
   <i name="MCALPHA">      0.00000000</i>
   <i name="ALDAX">      1.00000000</i>
   <i name="AGGAX">      1.00000000</i>
   <i name="ALDAC">      1.00000000</i>
   <i name="AGGAC">      1.00000000</i>
   <i type="int" name="NKREDX">     1</i>
   <i type="int" name="NKREDY">     1</i>
   <i type="int" name="NKREDZ">     1</i>
   <i type="logical" name="SHIFTRED"> F  </i>
   <i type="logical" name="ODDONLY"> F  </i>
   <i type="logical" name="EVENONLY"> F  </i>
   <i type="int" name="LMAXFOCK">     0</i>
   <i type="int" name="NMAXFOCKAE">     0</i>
   <i type="logical" name="LFOCKAEDFT"> F  </i>
   <i name="HFSCREEN">      0.00000000</i>
   <i name="HFSCREENC">      0.00000000</i>
   <i type="int" name="NBANDSGWLOW">     0</i>
  </separator>
  <separator name="vdW DFT" >
   <i type="logical" name="LUSE_VDW"> F  </i>
   <i name="Zab_VDW">     -0.84910000</i>
   <i name="PARAM1">      0.12340000</i>
   <i name="PARAM2">      1.00000000</i>
   <i name="PARAM3">      0.00000000</i>
  </separator>
  <separator name="model GW" >
   <i type="int" name="MODEL_GW">     0</i>
   <i name="MODEL_EPS0">      8.03540895</i>
   <i name="MODEL_ALPHA">      1.00000000</i>
  </separator>
  <separator name="linear response parameters" >
   <i type="logical" name="LEPSILON"> F  </i>
   <i type="logical" name="LRPA"> F  </i>
   <i type="logical" name="LNABLA"> F  </i>
   <i type="logical" name="LVEL"> F  </i>
   <i type="int" name="KINTER">     0</i>
   <i name="CSHIFT">      0.10000000</i>
   <i name="OMEGAMAX">     -1.00000000</i>
   <i name="DEG_THRESHOLD">      0.00200000</i>
  </separator>
  <separator name="orbital magnetization" >
   <i type="logical" name="NUCIND"> F  </i>
   <v name="MAGPOS">      0.00000000      0.00000000      0.00000000</v>
   <i type="logical" name="LNICSALL"> T  </i>
   <i type="logical" name="ORBITALMAG"> F  </i>
   <i type="logical" name="LMAGBLOCH"> F  </i>
   <i type="logical" name="LCHIMAG"> F  </i>
   <i type="logical" name="LGAUGE"> T  </i>
   <i type="int" name="MAGATOM">     0</i>
   <v name="MAGDIPOL">      0.00000000      0.00000000      0.00000000</v>
   <v name="AVECCONST">      0.00000000      0.00000000      0.00000000</v>
  </separator>
  <separator name="response functions" >
   <i type="logical" name="LADDER"> F  </i>
   <i type="logical" name="LFXC"> F  </i>
   <i type="logical" name="LHARTREE"> T  </i>
   <i type="int" name="IBSE">     0</i>
   <v type="int" name="KPOINT">    -1     0     0     0</v>
   <i type="logical" name="LTCTE"> F  </i>
   <i type="logical" name="LTETE"> F  </i>
   <i type="logical" name="LTRIPLET"> F  </i>
   <i type="logical" name="LFXCEPS"> F  </i>
   <i type="logical" name="LFXHEG"> F  </i>
   <i type="int" name="NATURALO">     0</i>
   <i type="logical" name="L2ORDER"> F  </i>
   <i type="logical" name="LUSEW"> F  </i>
   <i name="ENCUTGW">     -2.00000000</i>
   <i name="ENCUTGWSOFT">     -2.00000000</i>
   <i name="ENCUTLF">     -1.00000000</i>
   <i type="int" name="LMAXMP2">    -1</i>
   <i name="SCISSOR">      0.00000000</i>
   <i type="int" name="NOMEGA">     0</i>
   <i type="int" name="NOMEGAR">     0</i>
   <i type="int" name="NBANDSGW">    -1</i>
   <i type="int" name="NBANDSO">    -1</i>
   <i type="int" name="NBANDSV">    -1</i>
   <i type="int" name="NELM">    40</i>
   <i type="int" name="NELMHF">     1</i>
   <i type="int" name="DIM">     3</i>
   <i type="int" name="ANTIRES">     0</i>
   <i name="OMEGAMAX">    -30.00000000</i>
   <i name="OMEGAMIN">    -30.00000000</i>
   <i name="OMEGATL">   -200.00000000</i>
   <i type="int" name="OMEGAGRID">     0</i>
   <i name="CSHIFT">     -0.10000000</i>
   <i type="logical" name="SELFENERGY"> F  </i>
   <i type="logical" name="LSPECTRAL"> F  </i>
   <i type="logical" name="LSPECTRALGW"> F  </i>
   <i type="logical" name="LSINGLES"> F  </i>
   <i type="logical" name="LFERMIGW"> F  </i>
   <i type="logical" name="ODDONLYGW"> F  </i>
   <i type="logical" name="EVENONLYGW"> F  </i>
   <i type="int" name="NKREDLFX">     1</i>
   <i type="int" name="NKREDLFY">     1</i>
   <i type="int" name="NKREDLFZ">     1</i>
   <i type="int" name="MAXMEM">  1800</i>
   <i type="int" name="TELESCOPE">     0</i>
   <i type="int" name="TAUPAR">     1</i>
   <i type="int" name="OMEGAPAR">    -1</i>
   <i name="LAMBDA">      1.00000000</i>
  </separator>
  <separator name="External order field" >
   <i name="OFIELD_KAPPA">      0.00000000</i>
   <v name="OFIELD_K">      0.00000000      0.00000000      0.00000000</v>
   <i name="OFIELD_Q6_NEAR">      0.00000000</i>
   <i name="OFIELD_Q6_FAR">      0.00000000</i>
   <i name="OFIELD_A">      0.00000000</i>
  </separator>
 </parameters>
 <atominfo>
  <atoms>     148 </atoms>
  <types>       4 </types>
  <array name="atoms" >
   <dimension dim="1">ion</dimension>
   <field type="string">element</field>
   <field type="int">atomtype</field>
   <set>
    <rc><c>Sr</c><c>   1</c></rc>
    <rc><c>Sr</c><c>   1</c></rc>
    <rc><c>Sr</c><c>   1</c></rc>
    <rc><c>Sr</c><c>   1</c></rc>
    <rc><c>Sr</c><c>   1</c></rc>
    <rc><c>Sr</c><c>   1</c></rc>
    <rc><c>Sr</c><c>   1</c></rc>
    <rc><c>Sr</c><c>   1</c></rc>
    <rc><c>Sr</c><c>   1</c></rc>
    <rc><c>Sr</c><c>   1</c></rc>
    <rc><c>Sr</c><c>   1</c></rc>
    <rc><c>Sr</c><c>   1</c></rc>
    <rc><c>Sr</c><c>   1</c></rc>
    <rc><c>Sr</c><c>   1</c></rc>
    <rc><c>Sr</c><c>   1</c></rc>
    <rc><c>Sr</c><c>   1</c></rc>
    <rc><c>Sr</c><c>   1</c></rc>
    <rc><c>Sr</c><c>   1</c></rc>
    <rc><c>Sr</c><c>   1</c></rc>
    <rc><c>Sr</c><c>   1</c></rc>
    <rc><c>Sr</c><c>   1</c></rc>
    <rc><c>Sr</c><c>   1</c></rc>
    <rc><c>Sr</c><c>   1</c></rc>
    <rc><c>Sr</c><c>   1</c></rc>
    <rc><c>Sr</c><c>   1</c></rc>
    <rc><c>Sr</c><c>   1</c></rc>
    <rc><c>Sr</c><c>   1</c></rc>
    <rc><c>Sr</c><c>   1</c></rc>
    <rc><c>Sr</c><c>   1</c></rc>
    <rc><c>Sr</c><c>   1</c></rc>
    <rc><c>Sr</c><c>   1</c></rc>
    <rc><c>Sr</c><c>   1</c></rc>
    <rc><c>Ti</c><c>   2</c></rc>
    <rc><c>Ti</c><c>   2</c></rc>
    <rc><c>Ti</c><c>   2</c></rc>
    <rc><c>Ti</c><c>   2</c></rc>
    <rc><c>Ti</c><c>   2</c></rc>
    <rc><c>Ti</c><c>   2</c></rc>
    <rc><c>Ti</c><c>   2</c></rc>
    <rc><c>Ti</c><c>   2</c></rc>
    <rc><c>Fe</c><c>   3</c></rc>
    <rc><c>Fe</c><c>   3</c></rc>
    <rc><c>Fe</c><c>   3</c></rc>
    <rc><c>Fe</c><c>   3</c></rc>
    <rc><c>Fe</c><c>   3</c></rc>
    <rc><c>Fe</c><c>   3</c></rc>
    <rc><c>Fe</c><c>   3</c></rc>
    <rc><c>Fe</c><c>   3</c></rc>
    <rc><c>Fe</c><c>   3</c></rc>
    <rc><c>Fe</c><c>   3</c></rc>
    <rc><c>Fe</c><c>   3</c></rc>
    <rc><c>Fe</c><c>   3</c></rc>
    <rc><c>Fe</c><c>   3</c></rc>
    <rc><c>Fe</c><c>   3</c></rc>
    <rc><c>Fe</c><c>   3</c></rc>
    <rc><c>Fe</c><c>   3</c></rc>
    <rc><c>Fe</c><c>   3</c></rc>
    <rc><c>Fe</c><c>   3</c></rc>
    <rc><c>Fe</c><c>   3</c></rc>
    <rc><c>Fe</c><c>   3</c></rc>
    <rc><c>Fe</c><c>   3</c></rc>
    <rc><c>Fe</c><c>   3</c></rc>
    <rc><c>Fe</c><c>   3</c></rc>
    <rc><c>Fe</c><c>   3</c></rc>
    <rc><c>O </c><c>   4</c></rc>
    <rc><c>O </c><c>   4</c></rc>
    <rc><c>O </c><c>   4</c></rc>
    <rc><c>O </c><c>   4</c></rc>
    <rc><c>O </c><c>   4</c></rc>
    <rc><c>O </c><c>   4</c></rc>
    <rc><c>O </c><c>   4</c></rc>
    <rc><c>O </c><c>   4</c></rc>
    <rc><c>O </c><c>   4</c></rc>
    <rc><c>O </c><c>   4</c></rc>
    <rc><c>O </c><c>   4</c></rc>
    <rc><c>O </c><c>   4</c></rc>
    <rc><c>O </c><c>   4</c></rc>
    <rc><c>O </c><c>   4</c></rc>
    <rc><c>O </c><c>   4</c></rc>
    <rc><c>O </c><c>   4</c></rc>
    <rc><c>O </c><c>   4</c></rc>
    <rc><c>O </c><c>   4</c></rc>
    <rc><c>O </c><c>   4</c></rc>
    <rc><c>O </c><c>   4</c></rc>
    <rc><c>O </c><c>   4</c></rc>
    <rc><c>O </c><c>   4</c></rc>
    <rc><c>O </c><c>   4</c></rc>
    <rc><c>O </c><c>   4</c></rc>
    <rc><c>O </c><c>   4</c></rc>
    <rc><c>O </c><c>   4</c></rc>
    <rc><c>O </c><c>   4</c></rc>
    <rc><c>O </c><c>   4</c></rc>
    <rc><c>O </c><c>   4</c></rc>
    <rc><c>O </c><c>   4</c></rc>
    <rc><c>O </c><c>   4</c></rc>
    <rc><c>O </c><c>   4</c></rc>
    <rc><c>O </c><c>   4</c></rc>
    <rc><c>O </c><c>   4</c></rc>
    <rc><c>O </c><c>   4</c></rc>
    <rc><c>O </c><c>   4</c></rc>
    <rc><c>O </c><c>   4</c></rc>
    <rc><c>O </c><c>   4</c></rc>
    <rc><c>O </c><c>   4</c></rc>
    <rc><c>O </c><c>   4</c></rc>
    <rc><c>O </c><c>   4</c></rc>
    <rc><c>O </c><c>   4</c></rc>
    <rc><c>O </c><c>   4</c></rc>
    <rc><c>O </c><c>   4</c></rc>
    <rc><c>O </c><c>   4</c></rc>
    <rc><c>O </c><c>   4</c></rc>
    <rc><c>O </c><c>   4</c></rc>
    <rc><c>O </c><c>   4</c></rc>
    <rc><c>O </c><c>   4</c></rc>
    <rc><c>O </c><c>   4</c></rc>
    <rc><c>O </c><c>   4</c></rc>
    <rc><c>O </c><c>   4</c></rc>
    <rc><c>O </c><c>   4</c></rc>
    <rc><c>O </c><c>   4</c></rc>
    <rc><c>O </c><c>   4</c></rc>
    <rc><c>O </c><c>   4</c></rc>
    <rc><c>O </c><c>   4</c></rc>
    <rc><c>O </c><c>   4</c></rc>
    <rc><c>O </c><c>   4</c></rc>
    <rc><c>O </c><c>   4</c></rc>
    <rc><c>O </c><c>   4</c></rc>
    <rc><c>O </c><c>   4</c></rc>
    <rc><c>O </c><c>   4</c></rc>
    <rc><c>O </c><c>   4</c></rc>
    <rc><c>O </c><c>   4</c></rc>
    <rc><c>O </c><c>   4</c></rc>
    <rc><c>O </c><c>   4</c></rc>
    <rc><c>O </c><c>   4</c></rc>
    <rc><c>O </c><c>   4</c></rc>
    <rc><c>O </c><c>   4</c></rc>
    <rc><c>O </c><c>   4</c></rc>
    <rc><c>O </c><c>   4</c></rc>
    <rc><c>O </c><c>   4</c></rc>
    <rc><c>O </c><c>   4</c></rc>
    <rc><c>O </c><c>   4</c></rc>
    <rc><c>O </c><c>   4</c></rc>
    <rc><c>O </c><c>   4</c></rc>
    <rc><c>O </c><c>   4</c></rc>
    <rc><c>O </c><c>   4</c></rc>
    <rc><c>O </c><c>   4</c></rc>
    <rc><c>O </c><c>   4</c></rc>
    <rc><c>O </c><c>   4</c></rc>
    <rc><c>O </c><c>   4</c></rc>
    <rc><c>O </c><c>   4</c></rc>
   </set>
  </array>
  <array name="atomtypes" >
   <dimension dim="1">type</dimension>
   <field type="int">atomspertype</field>
   <field type="string">element</field>
   <field>mass</field>
   <field>valence</field>
   <field type="string">pseudopotential</field>
   <set>
    <rc><c>  32</c><c>Sr</c><c>     87.62000000</c><c>     10.00000000</c><c>  PAW_PBE Sr_sv 07Sep2000               </c></rc>
    <rc><c>   8</c><c>Ti</c><c>     47.88000000</c><c>      4.00000000</c><c>  PAW_PBE Ti 08Apr2002                  </c></rc>
    <rc><c>  24</c><c>Fe</c><c>     55.84700000</c><c>      8.00000000</c><c>  PAW_PBE Fe 06Sep2000                  </c></rc>
    <rc><c>  84</c><c>O </c><c>     16.00000000</c><c>      6.00000000</c><c>  PAW_PBE O 08Apr2002                   </c></rc>
   </set>
  </array>
 </atominfo>
 <structure name="initialpos" >
  <crystal>
   <varray name="basis" >
    <v>      11.18775900       0.03612334       0.01086120 </v>
    <v>       0.03606943      11.18359468       0.02631604 </v>
    <v>       0.01520693       0.03738266      15.84168090 </v>
   </varray>
   <i name="volume">   1982.06754133 </i>
   <varray name="rec_basis" >
    <v>       0.08938442      -0.00028808      -0.00008512 </v>
    <v>      -0.00028851       0.08941811      -0.00021073 </v>
    <v>      -0.00006080      -0.00014834       0.06312502 </v>
   </varray>
  </crystal>
  <varray name="positions" >
   <v>       0.01131076       0.24228940       0.12725689 </v>
   <v>       0.99519266       0.24445741       0.62328953 </v>
   <v>       0.99756690       0.74131586       0.12806845 </v>
   <v>       0.00583478       0.75346131       0.62101237 </v>
   <v>       0.50192289       0.24503657       0.12334838 </v>
   <v>       0.49348438       0.24027944       0.61769503 </v>
   <v>       0.50785996       0.75391288       0.12579815 </v>
   <v>       0.49838298       0.76975814       0.62191864 </v>
   <v>       0.99573968       0.25333899       0.37999623 </v>
   <v>       0.99809821       0.25293419       0.86822908 </v>
   <v>       0.99605986       0.74019662       0.37733221 </v>
   <v>       0.00129415       0.73695567       0.86975521 </v>
   <v>       0.50579470       0.24163854       0.37128353 </v>
   <v>       0.50445779       0.25045901       0.88160576 </v>
   <v>       0.50329428       0.75950817       0.37583687 </v>
   <v>       0.50298968       0.76942125       0.87843351 </v>
   <v>       0.26480549       0.00104529       0.12465583 </v>
   <v>       0.25058969       0.98963283       0.61836552 </v>
   <v>       0.24706684       0.49413429       0.12903128 </v>
   <v>       0.24944226       0.50277046       0.62001554 </v>
   <v>       0.74407373       0.99747700       0.12169879 </v>
   <v>       0.73792690       0.00490330       0.61968513 </v>
   <v>       0.74960045       0.50202713       0.12760710 </v>
   <v>       0.74894650       0.50943309       0.62586025 </v>
   <v>       0.25933528       0.00119518       0.37446685 </v>
   <v>       0.25871453       0.00089387       0.87566576 </v>
   <v>       0.24457260       0.49382836       0.37638924 </v>
   <v>       0.25191617       0.50113002       0.87621177 </v>
   <v>       0.74284491       0.00130568       0.37868126 </v>
   <v>       0.74445585       0.01208067       0.87451732 </v>
   <v>       0.75350542       0.49296192       0.37175295 </v>
   <v>       0.75650427       0.49763155       0.88239186 </v>
   <v>       0.25068842       0.24537965       0.99512231 </v>
   <v>       0.74474327       0.26287405       0.74564224 </v>
   <v>       0.00207376       0.49062236       0.24983399 </v>
   <v>       0.75351369       0.74664282       0.99448045 </v>
   <v>       0.99813592       0.99935089       0.49083681 </v>
   <v>       0.50583363       0.99501347       0.25074632 </v>
   <v>       0.49645343       0.50037752       0.25880178 </v>
   <v>       0.25062536       0.75448992       0.75512627 </v>
   <v>       0.99835561       0.50176668       0.75804641 </v>
   <v>       0.23199069       0.26006377       0.74939434 </v>
   <v>       0.24963232       0.24657265       0.51625275 </v>
   <v>       0.24904230       0.75155026       0.50881423 </v>
   <v>       0.50180005       0.50029607       0.01597924 </v>
   <v>       0.48652616       0.51822777       0.49258479 </v>
   <v>       0.49915265       0.00106711       0.99849317 </v>
   <v>       0.48347550       0.49387575       0.73285247 </v>
   <v>       0.27029254       0.73758357       0.99752343 </v>
   <v>       0.25225995       0.24647367       0.24004861 </v>
   <v>       0.74581615       0.23905904       0.99988167 </v>
   <v>       0.77031859       0.76807740       0.75444951 </v>
   <v>       0.75563604       0.24459052       0.50218012 </v>
   <v>       0.74804030       0.74969963       0.51503762 </v>
   <v>       0.99741588       0.49969226       0.49399216 </v>
   <v>       0.01449280       0.50672974       0.00296270 </v>
   <v>       0.74281004       0.25999207       0.24553367 </v>
   <v>       0.99140382       0.00495791       0.01138813 </v>
   <v>       0.75377665       0.74885691       0.23960073 </v>
   <v>       0.50954134       0.99803197       0.75014298 </v>
   <v>       0.01846797       0.97685972       0.25806100 </v>
   <v>       0.00109071       0.00072412       0.73548091 </v>
   <v>       0.25414120       0.74604171       0.24003263 </v>
   <v>       0.49672166       0.00502239       0.49657747 </v>
   <v>       0.12808503       0.12247711       0.25593649 </v>
   <v>       0.11458371       0.12014212       0.76560833 </v>
   <v>       0.12553416       0.61776031       0.24523537 </v>
   <v>       0.13725659       0.61700235       0.74750016 </v>
   <v>       0.60221178       0.15424135       0.74855198 </v>
   <v>       0.62430273       0.62523515       0.25626949 </v>
   <v>       0.87065965       0.60625786       0.00519471 </v>
   <v>       0.37145350       0.37190326       0.26755751 </v>
   <v>       0.37533049       0.36850769       0.74942588 </v>
   <v>       0.37859739       0.87178750       0.25659371 </v>
   <v>       0.36819419       0.88815384       0.75170490 </v>
   <v>       0.88652245       0.35385172       0.25588945 </v>
   <v>       0.99949810       0.50282988       0.37602730 </v>
   <v>       0.88373740       0.88947146       0.77739232 </v>
   <v>       0.38301293       0.12774133       0.25019239 </v>
   <v>       0.00795601       0.98749019       0.61701917 </v>
   <v>       0.37024211       0.62467784       0.27646132 </v>
   <v>       0.47263357       0.51295249       0.13372254 </v>
   <v>       0.14102661       0.10041212       0.99866533 </v>
   <v>       0.85876510       0.13027174       0.73590911 </v>
   <v>       0.86939943       0.61301778       0.25248086 </v>
   <v>       0.88712161       0.63234908       0.73470725 </v>
   <v>       0.12995108       0.36787547       0.26610385 </v>
   <v>       0.11724914       0.37911957       0.72571238 </v>
   <v>       0.13655778       0.85729033       0.28451400 </v>
   <v>       0.12169637       0.87052227       0.74745833 </v>
   <v>       0.62224958       0.37602620       0.23287298 </v>
   <v>       0.62916761       0.42983580       0.76602076 </v>
   <v>       0.87218524       0.12311550       0.51536521 </v>
   <v>       0.62964912       0.87935064       0.75708397 </v>
   <v>       0.37607966       0.38038696       0.98837218 </v>
   <v>       0.88519564       0.13805449       0.97576944 </v>
   <v>       0.36896618       0.88059775       0.99569269 </v>
   <v>       0.36895521       0.87616072       0.49279990 </v>
   <v>       0.73206339       0.75287206       0.63448409 </v>
   <v>       0.87555345       0.86286307       0.27094448 </v>
   <v>       0.89474899       0.86052157       0.98234160 </v>
   <v>       0.87177366       0.86917348       0.48975250 </v>
   <v>       0.12506611       0.12637211       0.48862951 </v>
   <v>       0.12933774       0.62869999       0.00501567 </v>
   <v>       0.63054472       0.86867897       0.25917096 </v>
   <v>       0.62802105       0.12311751       0.00184392 </v>
   <v>       0.61934753       0.13688534       0.50163314 </v>
   <v>       0.62495279       0.62660008       0.00844409 </v>
   <v>       0.63578235       0.62397982       0.48307514 </v>
   <v>       0.12157102       0.37259475       0.51193497 </v>
   <v>       0.38849709       0.62143903       0.97503695 </v>
   <v>       0.12331018       0.86924239       0.48192423 </v>
   <v>       0.63565005       0.38255550       0.00396541 </v>
   <v>       0.63456593       0.87711454       0.98956323 </v>
   <v>       0.62665208       0.87447708       0.49635690 </v>
   <v>       0.38166532       0.13306525       0.00846888 </v>
   <v>       0.36939657       0.13468261       0.48117834 </v>
   <v>       0.64836270       0.11601039       0.24539642 </v>
   <v>       0.36480588       0.63383443       0.47108925 </v>
   <v>       0.10973950       0.35781741       0.99390748 </v>
   <v>       0.87880336       0.62613984       0.51265174 </v>
   <v>       0.00111843       0.97844757       0.13781281 </v>
   <v>       0.40032527       0.63401330       0.76966148 </v>
   <v>       0.99741417       0.47731082       0.12560747 </v>
   <v>       0.25770781       0.24205021       0.87002252 </v>
   <v>       0.50670559       0.98920266       0.12657957 </v>
   <v>       0.48834229       0.00852794       0.62568085 </v>
   <v>       0.50546206       0.52322198       0.61550093 </v>
   <v>       0.97075444       0.02926927       0.37137264 </v>
   <v>       0.73864815       0.71858997       0.86899926 </v>
   <v>       0.98951978       0.48883809       0.87749703 </v>
   <v>       0.87603141       0.38134613       0.73172927 </v>
   <v>       0.48654738       0.02255790       0.87030283 </v>
   <v>       0.52789347       0.46883452       0.38051869 </v>
   <v>       0.12291831       0.62099919       0.51131465 </v>
   <v>       0.22866275       0.76445397       0.87871021 </v>
   <v>       0.74586249       0.25915839       0.37900364 </v>
   <v>       0.75404769       0.26819968       0.87001871 </v>
   <v>       0.37280241       0.37787176       0.50277049 </v>
   <v>       0.50692503       0.00373122       0.37300861 </v>
   <v>       0.24977891       0.26277113       0.12128859 </v>
   <v>       0.26408058       0.21085932       0.63498816 </v>
   <v>       0.25118832       0.76092844       0.12097253 </v>
   <v>       0.26363343       0.74552674       0.62808139 </v>
   <v>       0.78422116       0.24271023       0.12153844 </v>
   <v>       0.71348483       0.28406932       0.62066176 </v>
   <v>       0.75925907       0.76238037       0.12016931 </v>
   <v>       0.87057321       0.38254533       0.50981084 </v>
  </varray>
 </structure>
 <calculation>
  <scstep>
   <time name="dav">  299.77  299.76</time>
   <time name="total">  303.50  303.54</time>
   <energy>
    <i name="alphaZ">   5669.54295958 </i>
    <i name="ewald"> -63787.40261627 </i>
    <i name="hartreedc"> -18025.65816207 </i>
    <i name="XCdc">   3407.95377077 </i>
    <i name="pawpsdc"> 115506.82080763 </i>
    <i name="pawaedc">-115013.43713830 </i>
    <i name="eentropy">     -0.00091175 </i>
    <i name="bandstr">  -7066.37024376 </i>
    <i name="atom">  78316.90445604 </i>
    <i name="e_fr_energy">   -991.64707813 </i>
    <i name="e_wo_entrp">   -991.64616638 </i>
    <i name="e_0_energy">   -991.64662226 </i>
   </energy>
  </scstep>
  <scstep>
   <time name="diag">   32.79   32.80</time>
   <time name="diis">   31.64   31.64</time>
   <time name="orth">   18.63   18.63</time>
   <time name="total">   86.80   86.89</time>
   <energy>
    <i name="e_fr_energy">   -991.64707612 </i>
    <i name="e_wo_entrp">   -991.64616045 </i>
    <i name="e_0_energy">   -991.64661829 </i>
   </energy>
  </scstep>
  <scstep>
   <time name="diag">   32.80   32.82</time>
   <time name="diis">   31.17   31.17</time>
   <time name="orth">   18.67   18.67</time>
   <time name="total">   86.38   86.44</time>
   <energy>
    <i name="e_fr_energy">   -991.64707725 </i>
    <i name="e_wo_entrp">   -991.64616320 </i>
    <i name="e_0_energy">   -991.64662022 </i>
   </energy>
  </scstep>
  <scstep>
   <time name="diag">   32.82   32.82</time>
   <time name="diis">   28.96   28.96</time>
   <time name="orth">   18.66   18.66</time>
   <time name="total">   84.18   84.23</time>
   <energy>
    <i name="e_fr_energy">   -991.64707813 </i>
    <i name="e_wo_entrp">   -991.64616533 </i>
    <i name="e_0_energy">   -991.64662173 </i>
   </energy>
  </scstep>
  <scstep>
   <time name="diag">   32.79   32.80</time>
   <time name="diis">   28.23   28.23</time>
   <time name="orth">   18.63   18.63</time>
   <time name="total">   83.39   83.50</time>
   <energy>
    <i name="e_fr_energy">   -991.64707869 </i>
    <i name="e_wo_entrp">   -991.64616649 </i>
    <i name="e_0_energy">   -991.64662259 </i>
   </energy>
  </scstep>
  <scstep>
   <time name="diag">   32.84   32.84</time>
   <time name="diis">   25.62   25.64</time>
   <time name="orth">   18.67   18.67</time>
   <time name="total">   80.88   80.92</time>
   <energy>
    <i name="e_fr_energy">   -991.64707936 </i>
    <i name="e_wo_entrp">   -991.64616754 </i>
    <i name="e_0_energy">   -991.64662345 </i>
   </energy>
  </scstep>
  <scstep>
   <time name="diag">   32.84   32.85</time>
   <time name="diis">   24.93   24.93</time>
   <time name="orth">   18.67   18.67</time>
   <time name="total">   80.21   80.28</time>
   <energy>
    <i name="e_fr_energy">   -991.64707976 </i>
    <i name="e_wo_entrp">   -991.64616791 </i>
    <i name="e_0_energy">   -991.64662384 </i>
   </energy>
  </scstep>
  <scstep>
   <time name="diag">   32.85   32.86</time>
   <time name="diis">   24.33   24.34</time>
   <time name="orth">   18.67   18.67</time>
   <time name="total">   76.45   76.50</time>
   <energy>
    <i name="alphaZ">   5669.54295958 </i>
    <i name="ewald"> -63787.40261627 </i>
    <i name="hartreedc"> -18025.66342637 </i>
    <i name="XCdc">   3407.95112621 </i>
    <i name="pawpsdc"> 115505.15324889 </i>
    <i name="pawaedc">-115011.77900628 </i>
    <i name="eentropy">     -0.00091186 </i>
    <i name="bandstr">  -7066.35291016 </i>
    <i name="atom">  78316.90445604 </i>
    <i name="e_fr_energy">   -991.64708021 </i>
    <i name="e_wo_entrp">   -991.64616836 </i>
    <i name="e_0_energy">   -991.64662428 </i>
   </energy>
  </scstep>
  <structure>
   <crystal>
    <varray name="basis" >
     <v>      11.18775900       0.03612334       0.01086120 </v>
     <v>       0.03606943      11.18359468       0.02631604 </v>
     <v>       0.01520693       0.03738266      15.84168090 </v>
    </varray>
    <i name="volume">   1982.06754133 </i>
    <varray name="rec_basis" >
     <v>       0.08938442      -0.00028808      -0.00008512 </v>
     <v>      -0.00028851       0.08941811      -0.00021073 </v>
     <v>      -0.00006080      -0.00014834       0.06312502 </v>
    </varray>
   </crystal>
   <varray name="positions" >
    <v>       0.01131076       0.24228940       0.12725689 </v>
    <v>       0.99519266       0.24445741       0.62328953 </v>
    <v>       0.99756690       0.74131586       0.12806845 </v>
    <v>       0.00583478       0.75346131       0.62101237 </v>
    <v>       0.50192289       0.24503657       0.12334838 </v>
    <v>       0.49348438       0.24027944       0.61769503 </v>
    <v>       0.50785996       0.75391288       0.12579815 </v>
    <v>       0.49838298       0.76975814       0.62191864 </v>
    <v>       0.99573968       0.25333899       0.37999623 </v>
    <v>       0.99809821       0.25293419       0.86822908 </v>
    <v>       0.99605986       0.74019662       0.37733221 </v>
    <v>       0.00129415       0.73695567       0.86975521 </v>
    <v>       0.50579470       0.24163854       0.37128353 </v>
    <v>       0.50445779       0.25045901       0.88160576 </v>
    <v>       0.50329428       0.75950817       0.37583687 </v>
    <v>       0.50298968       0.76942125       0.87843351 </v>
    <v>       0.26480549       0.00104529       0.12465583 </v>
    <v>       0.25058969       0.98963283       0.61836552 </v>
    <v>       0.24706684       0.49413429       0.12903128 </v>
    <v>       0.24944226       0.50277046       0.62001554 </v>
    <v>       0.74407373       0.99747700       0.12169879 </v>
    <v>       0.73792690       0.00490330       0.61968513 </v>
    <v>       0.74960045       0.50202713       0.12760710 </v>
    <v>       0.74894650       0.50943309       0.62586025 </v>
    <v>       0.25933528       0.00119518       0.37446685 </v>
    <v>       0.25871453       0.00089387       0.87566576 </v>
    <v>       0.24457260       0.49382836       0.37638924 </v>
    <v>       0.25191617       0.50113002       0.87621177 </v>
    <v>       0.74284491       0.00130568       0.37868126 </v>
    <v>       0.74445585       0.01208067       0.87451732 </v>
    <v>       0.75350542       0.49296192       0.37175295 </v>
    <v>       0.75650427       0.49763155       0.88239186 </v>
    <v>       0.25068842       0.24537965       0.99512231 </v>
    <v>       0.74474327       0.26287405       0.74564224 </v>
    <v>       0.00207376       0.49062236       0.24983399 </v>
    <v>       0.75351369       0.74664282       0.99448045 </v>
    <v>       0.99813592       0.99935089       0.49083681 </v>
    <v>       0.50583363       0.99501347       0.25074632 </v>
    <v>       0.49645343       0.50037752       0.25880178 </v>
    <v>       0.25062536       0.75448992       0.75512627 </v>
    <v>       0.99835561       0.50176668       0.75804641 </v>
    <v>       0.23199069       0.26006377       0.74939434 </v>
    <v>       0.24963232       0.24657265       0.51625275 </v>
    <v>       0.24904230       0.75155026       0.50881423 </v>
    <v>       0.50180005       0.50029607       0.01597924 </v>
    <v>       0.48652616       0.51822777       0.49258479 </v>
    <v>       0.49915265       0.00106711       0.99849317 </v>
    <v>       0.48347550       0.49387575       0.73285247 </v>
    <v>       0.27029254       0.73758357       0.99752343 </v>
    <v>       0.25225995       0.24647367       0.24004861 </v>
    <v>       0.74581615       0.23905904       0.99988167 </v>
    <v>       0.77031859       0.76807740       0.75444951 </v>
    <v>       0.75563604       0.24459052       0.50218012 </v>
    <v>       0.74804030       0.74969963       0.51503762 </v>
    <v>       0.99741588       0.49969226       0.49399216 </v>
    <v>       0.01449280       0.50672974       0.00296270 </v>
    <v>       0.74281004       0.25999207       0.24553367 </v>
    <v>       0.99140382       0.00495791       0.01138813 </v>
    <v>       0.75377665       0.74885691       0.23960073 </v>
    <v>       0.50954134       0.99803197       0.75014298 </v>
    <v>       0.01846797       0.97685972       0.25806100 </v>
    <v>       0.00109071       0.00072412       0.73548091 </v>
    <v>       0.25414120       0.74604171       0.24003263 </v>
    <v>       0.49672166       0.00502239       0.49657747 </v>
    <v>       0.12808503       0.12247711       0.25593649 </v>
    <v>       0.11458371       0.12014212       0.76560833 </v>
    <v>       0.12553416       0.61776031       0.24523537 </v>
    <v>       0.13725659       0.61700235       0.74750016 </v>
    <v>       0.60221178       0.15424135       0.74855198 </v>
    <v>       0.62430273       0.62523515       0.25626949 </v>
    <v>       0.87065965       0.60625786       0.00519471 </v>
    <v>       0.37145350       0.37190326       0.26755751 </v>
    <v>       0.37533049       0.36850769       0.74942588 </v>
    <v>       0.37859739       0.87178750       0.25659371 </v>
    <v>       0.36819419       0.88815384       0.75170490 </v>
    <v>       0.88652245       0.35385172       0.25588945 </v>
    <v>       0.99949810       0.50282988       0.37602730 </v>
    <v>       0.88373740       0.88947146       0.77739232 </v>
    <v>       0.38301293       0.12774133       0.25019239 </v>
    <v>       0.00795601       0.98749019       0.61701917 </v>
    <v>       0.37024211       0.62467784       0.27646132 </v>
    <v>       0.47263357       0.51295249       0.13372254 </v>
    <v>       0.14102661       0.10041212       0.99866533 </v>
    <v>       0.85876510       0.13027174       0.73590911 </v>
    <v>       0.86939943       0.61301778       0.25248086 </v>
    <v>       0.88712161       0.63234908       0.73470725 </v>
    <v>       0.12995108       0.36787547       0.26610385 </v>
    <v>       0.11724914       0.37911957       0.72571238 </v>
    <v>       0.13655778       0.85729033       0.28451400 </v>
    <v>       0.12169637       0.87052227       0.74745833 </v>
    <v>       0.62224958       0.37602620       0.23287298 </v>
    <v>       0.62916761       0.42983580       0.76602076 </v>
    <v>       0.87218524       0.12311550       0.51536521 </v>
    <v>       0.62964912       0.87935064       0.75708397 </v>
    <v>       0.37607966       0.38038696       0.98837218 </v>
    <v>       0.88519564       0.13805449       0.97576944 </v>
    <v>       0.36896618       0.88059775       0.99569269 </v>
    <v>       0.36895521       0.87616072       0.49279990 </v>
    <v>       0.73206339       0.75287206       0.63448409 </v>
    <v>       0.87555345       0.86286307       0.27094448 </v>
    <v>       0.89474899       0.86052157       0.98234160 </v>
    <v>       0.87177366       0.86917348       0.48975250 </v>
    <v>       0.12506611       0.12637211       0.48862951 </v>
    <v>       0.12933774       0.62869999       0.00501567 </v>
    <v>       0.63054472       0.86867897       0.25917096 </v>
    <v>       0.62802105       0.12311751       0.00184392 </v>
    <v>       0.61934753       0.13688534       0.50163314 </v>
    <v>       0.62495279       0.62660008       0.00844409 </v>
    <v>       0.63578235       0.62397982       0.48307514 </v>
    <v>       0.12157102       0.37259475       0.51193497 </v>
    <v>       0.38849709       0.62143903       0.97503695 </v>
    <v>       0.12331018       0.86924239       0.48192423 </v>
    <v>       0.63565005       0.38255550       0.00396541 </v>
    <v>       0.63456593       0.87711454       0.98956323 </v>
    <v>       0.62665208       0.87447708       0.49635690 </v>
    <v>       0.38166532       0.13306525       0.00846888 </v>
    <v>       0.36939657       0.13468261       0.48117834 </v>
    <v>       0.64836270       0.11601039       0.24539642 </v>
    <v>       0.36480588       0.63383443       0.47108925 </v>
    <v>       0.10973950       0.35781741       0.99390748 </v>
    <v>       0.87880336       0.62613984       0.51265174 </v>
    <v>       0.00111843       0.97844757       0.13781281 </v>
    <v>       0.40032527       0.63401330       0.76966148 </v>
    <v>       0.99741417       0.47731082       0.12560747 </v>
    <v>       0.25770781       0.24205021       0.87002252 </v>
    <v>       0.50670559       0.98920266       0.12657957 </v>
    <v>       0.48834229       0.00852794       0.62568085 </v>
    <v>       0.50546206       0.52322198       0.61550093 </v>
    <v>       0.97075444       0.02926927       0.37137264 </v>
    <v>       0.73864815       0.71858997       0.86899926 </v>
    <v>       0.98951978       0.48883809       0.87749703 </v>
    <v>       0.87603141       0.38134613       0.73172927 </v>
    <v>       0.48654738       0.02255790       0.87030283 </v>
    <v>       0.52789347       0.46883452       0.38051869 </v>
    <v>       0.12291831       0.62099919       0.51131465 </v>
    <v>       0.22866275       0.76445397       0.87871021 </v>
    <v>       0.74586249       0.25915839       0.37900364 </v>
    <v>       0.75404769       0.26819968       0.87001871 </v>
    <v>       0.37280241       0.37787176       0.50277049 </v>
    <v>       0.50692503       0.00373122       0.37300861 </v>
    <v>       0.24977891       0.26277113       0.12128859 </v>
    <v>       0.26408058       0.21085932       0.63498816 </v>
    <v>       0.25118832       0.76092844       0.12097253 </v>
    <v>       0.26363343       0.74552674       0.62808139 </v>
    <v>       0.78422116       0.24271023       0.12153844 </v>
    <v>       0.71348483       0.28406932       0.62066176 </v>
    <v>       0.75925907       0.76238037       0.12016931 </v>
    <v>       0.87057321       0.38254533       0.50981084 </v>
   </varray>
  </structure>
  <varray name="forces" >
   <v>       0.00193469      -0.00653360      -0.00782765 </v>
   <v>      -0.00198395       0.01296055      -0.01608023 </v>
   <v>      -0.00945157      -0.00943283       0.01093224 </v>
   <v>      -0.02653471      -0.00112622      -0.01982008 </v>
   <v>      -0.03275688      -0.01306038       0.00045928 </v>
   <v>       0.00042663       0.01824305      -0.00203379 </v>
   <v>      -0.00764082       0.00710971       0.00833622 </v>
   <v>      -0.00620440      -0.00345361       0.02839890 </v>
   <v>       0.00149785       0.03085443      -0.01178501 </v>
   <v>       0.00779438      -0.01083756       0.03485785 </v>
   <v>       0.00082443      -0.00774022       0.00881510 </v>
   <v>      -0.00073557      -0.00194745       0.01035033 </v>
   <v>       0.00815866       0.01118589       0.01234832 </v>
   <v>      -0.00684023       0.01259577       0.00189635 </v>
   <v>      -0.00209641      -0.01165623      -0.01803702 </v>
   <v>       0.01775978      -0.00979460       0.00543476 </v>
   <v>      -0.00709885      -0.01779821       0.02726312 </v>
   <v>       0.00356732      -0.00260233      -0.01830253 </v>
   <v>      -0.01309572       0.01763157       0.00745563 </v>
   <v>      -0.00227878      -0.00455343      -0.00080029 </v>
   <v>      -0.00659399       0.00038028       0.00181063 </v>
   <v>      -0.00700136       0.01298139      -0.00105423 </v>
   <v>       0.01658450      -0.00680602       0.01335514 </v>
   <v>       0.00485859       0.00318828       0.01048655 </v>
   <v>      -0.00048089      -0.00388455       0.00141714 </v>
   <v>       0.00657994       0.00654581       0.02533511 </v>
   <v>       0.01621381       0.00548516      -0.01931029 </v>
   <v>       0.00822033      -0.01293795       0.00220413 </v>
   <v>       0.02013959      -0.00681273      -0.01665930 </v>
   <v>      -0.02590434       0.01196472      -0.00704963 </v>
   <v>       0.00934693       0.01050243      -0.00370754 </v>
   <v>      -0.00088879      -0.00011104       0.01395808 </v>
   <v>       0.01619299      -0.00282940      -0.02918876 </v>
   <v>      -0.00691105      -0.01230446      -0.00736266 </v>
   <v>       0.00778775      -0.01322040       0.03197599 </v>
   <v>       0.02334693      -0.00438444      -0.01426657 </v>
   <v>       0.03920651      -0.05429425       0.01814804 </v>
   <v>      -0.00743252      -0.00419430      -0.03528603 </v>
   <v>      -0.01147895       0.01968691      -0.01101632 </v>
   <v>       0.00139426      -0.01282812       0.00789510 </v>
   <v>      -0.00666621       0.01782091      -0.01422494 </v>
   <v>       0.01531444      -0.04075913       0.00542336 </v>
   <v>       0.03906602       0.01803979      -0.02472992 </v>
   <v>      -0.00555996      -0.00826714       0.00387840 </v>
   <v>      -0.00436016      -0.02243332      -0.02906722 </v>
   <v>      -0.01330390      -0.03252267      -0.02297414 </v>
   <v>       0.00202615      -0.00734446       0.00440466 </v>
   <v>       0.00500366       0.03764654      -0.00194528 </v>
   <v>      -0.00652352       0.01833824      -0.01678308 </v>
   <v>       0.01625044       0.01011524       0.04026486 </v>
   <v>       0.00871765       0.02313890       0.02550939 </v>
   <v>      -0.02239853      -0.02869012      -0.02001675 </v>
   <v>      -0.00293557      -0.01141275      -0.01352846 </v>
   <v>       0.01216035       0.00463935      -0.01906359 </v>
   <v>       0.00777935       0.02491457      -0.01785247 </v>
   <v>      -0.00817437       0.02049528      -0.02810699 </v>
   <v>       0.00187044      -0.01301224      -0.00730017 </v>
   <v>      -0.00499256      -0.00280765      -0.00332476 </v>
   <v>      -0.01058644       0.00002920       0.03088130 </v>
   <v>      -0.01612400      -0.01761416       0.00860534 </v>
   <v>      -0.00125493      -0.01331590      -0.02644357 </v>
   <v>       0.00064405       0.01255397       0.00051057 </v>
   <v>       0.02107492      -0.02613435       0.04835920 </v>
   <v>      -0.00884232       0.01733759       0.02290181 </v>
   <v>       0.02648098      -0.01852889      -0.00221315 </v>
   <v>      -0.00532785      -0.01001203      -0.00564162 </v>
   <v>      -0.00876360      -0.00854477      -0.01366195 </v>
   <v>       0.00125087       0.00227859       0.02696816 </v>
   <v>       0.03028852      -0.02530455      -0.00679822 </v>
   <v>       0.01132435       0.00848898       0.00126680 </v>
   <v>       0.00199810      -0.00713846      -0.00415568 </v>
   <v>      -0.00072917      -0.00588080      -0.01179534 </v>
   <v>       0.02060528       0.02280851      -0.00903534 </v>
   <v>      -0.01277868       0.01801331      -0.01983632 </v>
   <v>      -0.01909847       0.02956495       0.00910831 </v>
   <v>      -0.00616619       0.01561893       0.00729042 </v>
   <v>       0.01766537      -0.00114557       0.01443864 </v>
   <v>      -0.01843873       0.01592808      -0.00722851 </v>
   <v>      -0.00805887       0.02302755      -0.02325553 </v>
   <v>      -0.01189396      -0.00033640       0.02630848 </v>
   <v>       0.02637598       0.01139191      -0.01819311 </v>
   <v>       0.00204009       0.00621003      -0.02372166 </v>
   <v>      -0.01844443       0.00562622       0.01115353 </v>
   <v>       0.00597424      -0.01160924       0.01863224 </v>
   <v>       0.01479819       0.00230783      -0.01996826 </v>
   <v>       0.00916865      -0.02053792       0.01762502 </v>
   <v>      -0.01025897      -0.00579225      -0.00379537 </v>
   <v>      -0.02582653      -0.01335459       0.01638264 </v>
   <v>      -0.03726488       0.02988101      -0.00779732 </v>
   <v>      -0.02005628      -0.00735156      -0.01906627 </v>
   <v>       0.01324582      -0.01416058       0.01068147 </v>
   <v>       0.02030487      -0.02892811       0.02157232 </v>
   <v>      -0.02443865       0.02549903      -0.02020498 </v>
   <v>      -0.02011200      -0.01002427      -0.00862703 </v>
   <v>       0.00982392      -0.01458470       0.02469176 </v>
   <v>       0.00528728      -0.01719182       0.01676367 </v>
   <v>       0.02453181      -0.01618838       0.01978263 </v>
   <v>       0.01408060       0.00668474       0.02169423 </v>
   <v>       0.00051099      -0.02263585      -0.03157901 </v>
   <v>      -0.02542366       0.00130948      -0.00408268 </v>
   <v>      -0.00386856      -0.00182723       0.01513639 </v>
   <v>       0.00212136       0.00676807      -0.01142260 </v>
   <v>      -0.00995710      -0.00741467       0.01096079 </v>
   <v>      -0.03385685      -0.01301099      -0.01781102 </v>
   <v>      -0.00682787      -0.02506686       0.00260822 </v>
   <v>      -0.02773269       0.00645873      -0.00277079 </v>
   <v>      -0.00681430      -0.00150361       0.00411761 </v>
   <v>      -0.02240875       0.01094688      -0.00946891 </v>
   <v>      -0.00028268       0.03130245       0.00433671 </v>
   <v>       0.00718510      -0.01104251       0.02007904 </v>
   <v>      -0.01833648      -0.01090019      -0.01797659 </v>
   <v>       0.00153015       0.01788163       0.00604633 </v>
   <v>       0.00167865       0.01329312       0.00587202 </v>
   <v>       0.02397373       0.01019456      -0.02779238 </v>
   <v>      -0.00364846       0.02644885       0.01636412 </v>
   <v>      -0.00596293      -0.01580461      -0.00605068 </v>
   <v>       0.01332109       0.00899038       0.02240410 </v>
   <v>       0.00719321       0.00648787       0.00081444 </v>
   <v>      -0.00535543       0.00197578       0.00481870 </v>
   <v>       0.01703187      -0.00138839       0.00476316 </v>
   <v>       0.00964701      -0.00400728      -0.01131764 </v>
   <v>       0.00316147      -0.00097606       0.01318354 </v>
   <v>      -0.00355069       0.00202898      -0.00935061 </v>
   <v>       0.01814975       0.01290837      -0.02211149 </v>
   <v>       0.00134342       0.00689157       0.00104069 </v>
   <v>       0.00045780      -0.01879271       0.00601910 </v>
   <v>       0.00046048       0.00879580      -0.01159474 </v>
   <v>       0.00444370       0.00917397       0.02160128 </v>
   <v>       0.02458248       0.01822831       0.02111812 </v>
   <v>       0.00951030       0.02503835       0.00281107 </v>
   <v>       0.01994295      -0.00480137       0.01423981 </v>
   <v>      -0.01750239       0.00344088       0.00714906 </v>
   <v>      -0.00080511      -0.00441458      -0.01102286 </v>
   <v>      -0.00527470       0.01231209       0.01240329 </v>
   <v>      -0.01648906      -0.00440995      -0.01117605 </v>
   <v>       0.00674808       0.00969016      -0.04749242 </v>
   <v>       0.00392256       0.00182283       0.00205879 </v>
   <v>       0.00452520       0.00115688       0.00163737 </v>
   <v>      -0.00354741      -0.00878630      -0.00207811 </v>
   <v>       0.00892981       0.01263947       0.01704280 </v>
   <v>       0.00260118       0.01577216       0.03122572 </v>
   <v>      -0.00814774      -0.00104670       0.00343768 </v>
   <v>      -0.02402026      -0.00668288      -0.01780124 </v>
   <v>       0.00997515      -0.01717638      -0.02182405 </v>
   <v>       0.00135942       0.01911062       0.00214937 </v>
   <v>       0.02233904      -0.01488282      -0.01643866 </v>
   <v>      -0.01677677      -0.01893379       0.01421486 </v>
   <v>      -0.01425481       0.00079539      -0.00677991 </v>
  </varray>
  <varray name="stress" >
   <v>      -0.28984248       0.06265219      -0.14597647 </v>
   <v>       0.06265224      -0.52714275       0.05779074 </v>
   <v>      -0.14597638       0.05779040      -0.50076748 </v>
  </varray>
  <energy>
   <i name="e_fr_energy">   -991.64708021 </i>
   <i name="e_wo_entrp">   -991.64662428 </i>
   <i name="e_0_energy">     -0.00091186 </i>
  </energy>
  <time name="totalsc"> 1032.14 1034.49</time>
 </calculation>
 <calculation>
  <scstep>
   <time name="dav">  291.60  291.60</time>
   <time name="total">  295.29  295.37</time>
   <energy>
    <i name="alphaZ">   5672.55679293 </i>
    <i name="ewald"> -63798.96276569 </i>
    <i name="hartreedc"> -18028.61679428 </i>
    <i name="XCdc">   3408.68514476 </i>
    <i name="pawpsdc"> 115505.09446579 </i>
    <i name="pawaedc">-115011.72027881 </i>
    <i name="eentropy">     -0.00090305 </i>
    <i name="bandstr">  -7055.58618605 </i>
    <i name="atom">  78316.90445604 </i>
    <i name="e_fr_energy">   -991.64606835 </i>
    <i name="e_wo_entrp">   -991.64516530 </i>
    <i name="e_0_energy">   -991.64561683 </i>
   </energy>
  </scstep>
  <scstep>
   <time name="diag">   32.85   32.85</time>
   <time name="diis">   51.65   51.65</time>
   <time name="orth">   18.67   18.67</time>
   <time name="total">  106.91  106.92</time>
   <energy>
    <i name="e_fr_energy">   -991.65010362 </i>
    <i name="e_wo_entrp">   -991.64922240 </i>
    <i name="e_0_energy">   -991.64966301 </i>
   </energy>
  </scstep>
  <scstep>
   <time name="diag">   32.82   32.82</time>
   <time name="diis">   53.26   53.26</time>
   <time name="orth">   18.67   18.67</time>
   <time name="total">  108.50  108.54</time>
   <energy>
    <i name="e_fr_energy">   -991.65058856 </i>
    <i name="e_wo_entrp">   -991.64969608 </i>
    <i name="e_0_energy">   -991.65014232 </i>
   </energy>
  </scstep>
  <scstep>
   <time name="diag">   32.85   32.85</time>
   <time name="diis">   49.27   49.28</time>
   <time name="orth">   18.67   18.66</time>
   <time name="total">  104.54  104.62</time>
   <energy>
    <i name="e_fr_energy">   -991.65042431 </i>
    <i name="e_wo_entrp">   -991.64953435 </i>
    <i name="e_0_energy">   -991.64997933 </i>
   </energy>
  </scstep>
  <scstep>
   <time name="diag">   32.83   32.84</time>
   <time name="diis">   35.20   35.21</time>
   <time name="orth">   18.67   18.67</time>
   <time name="total">   90.47   90.50</time>
   <energy>
    <i name="e_fr_energy">   -991.65038886 </i>
    <i name="e_wo_entrp">   -991.64950737 </i>
    <i name="e_0_energy">   -991.64994811 </i>
   </energy>
  </scstep>
  <scstep>
   <time name="diag">   32.83   32.84</time>
   <time name="diis">   32.98   32.98</time>
   <time name="orth">   18.68   18.68</time>
   <time name="total">   88.25   88.34</time>
   <energy>
    <i name="e_fr_energy">   -991.65040210 </i>
    <i name="e_wo_entrp">   -991.64951757 </i>
    <i name="e_0_energy">   -991.64995984 </i>
   </energy>
  </scstep>
  <scstep>
   <time name="diag">   32.87   32.89</time>
   <time name="diis">   31.76   31.75</time>
   <time name="orth">   18.67   18.67</time>
   <time name="total">   87.08   87.16</time>
   <energy>
    <i name="e_fr_energy">   -991.65041384 </i>
    <i name="e_wo_entrp">   -991.64953024 </i>
    <i name="e_0_energy">   -991.64997204 </i>
   </energy>
  </scstep>
  <scstep>
   <time name="diag">   32.87   32.89</time>
   <time name="diis">   31.60   31.60</time>
   <time name="orth">   18.67   18.66</time>
   <time name="total">   83.74   83.83</time>
   <energy>
    <i name="alphaZ">   5672.55679293 </i>
    <i name="ewald"> -63798.96276569 </i>
    <i name="hartreedc"> -18020.72554515 </i>
    <i name="XCdc">   3408.12211253 </i>
    <i name="pawpsdc"> 115589.31095547 </i>
    <i name="pawaedc">-115096.05190516 </i>
    <i name="eentropy">     -0.00088462 </i>
    <i name="bandstr">  -7062.80363915 </i>
    <i name="atom">  78316.90445604 </i>
    <i name="e_fr_energy">   -991.65042281 </i>
    <i name="e_wo_entrp">   -991.64953818 </i>
    <i name="e_0_energy">   -991.64998050 </i>
   </energy>
  </scstep>
  <structure>
   <crystal>
    <varray name="basis" >
     <v>      11.18645165       0.03639857       0.01020128 </v>
     <v>       0.03634621      11.18121889       0.02656923 </v>
     <v>       0.01427357       0.03774428      15.83848187 </v>
    </varray>
    <i name="volume">   1981.01446747 </i>
    <varray name="rec_basis" >
     <v>       0.08939487      -0.00029040      -0.00007987 </v>
     <v>      -0.00029082       0.08943714      -0.00021287 </v>
     <v>      -0.00005709      -0.00014984       0.06313777 </v>
    </varray>
   </crystal>
   <varray name="positions" >
    <v>       0.01131922       0.24226127       0.12723309 </v>
    <v>       0.99518399       0.24451351       0.62324047 </v>
    <v>       0.99752623       0.74127519       0.12810183 </v>
    <v>       0.00572046       0.75345702       0.62095209 </v>
    <v>       0.50178181       0.24498068       0.12334996 </v>
    <v>       0.49348598       0.24035815       0.61768870 </v>
    <v>       0.50782688       0.75394357       0.12582351 </v>
    <v>       0.49835616       0.76974304       0.62200516 </v>
    <v>       0.99574576       0.25347218       0.37996011 </v>
    <v>       0.99813183       0.25288698       0.86833529 </v>
    <v>       0.99606348       0.74016313       0.37735910 </v>
    <v>       0.00129097       0.73694718       0.86978675 </v>
    <v>       0.50582967       0.24168655       0.37132103 </v>
    <v>       0.50442812       0.25051342       0.88161147 </v>
    <v>       0.50328547       0.75945810       0.37578203 </v>
    <v>       0.50306638       0.76937869       0.87845008 </v>
    <v>       0.26477502       0.00096834       0.12473900 </v>
    <v>       0.25060518       0.98962174       0.61830979 </v>
    <v>       0.24701009       0.49421046       0.12905389 </v>
    <v>       0.24943250       0.50275085       0.62001314 </v>
    <v>       0.74404528       0.99747871       0.12170432 </v>
    <v>       0.73789654       0.00495940       0.61968185 </v>
    <v>       0.74967201       0.50199740       0.12764777 </v>
    <v>       0.74896736       0.50944667       0.62589215 </v>
    <v>       0.25933326       0.00117841       0.37447119 </v>
    <v>       0.25874271       0.00092175       0.87574285 </v>
    <v>       0.24464252       0.49385200       0.37633035 </v>
    <v>       0.25195179       0.50107407       0.87621855 </v>
    <v>       0.74293191       0.00127618       0.37863051 </v>
    <v>       0.74434401       0.01213271       0.87449584 </v>
    <v>       0.75354559       0.49300713       0.37174156 </v>
    <v>       0.75650038       0.49763094       0.88243437 </v>
    <v>       0.25075840       0.24536752       0.99503340 </v>
    <v>       0.74471367       0.26282115       0.74561992 </v>
    <v>       0.00210740       0.49056490       0.24993144 </v>
    <v>       0.75361449       0.74662373       0.99443696 </v>
    <v>       0.99830566       0.99911595       0.49089235 </v>
    <v>       0.50580179       0.99499584       0.25063892 </v>
    <v>       0.49640370       0.50046271       0.25876813 </v>
    <v>       0.25063152       0.75443448       0.75515041 </v>
    <v>       0.99832668       0.50184379       0.75800298 </v>
    <v>       0.23205728       0.25988768       0.74941110 </v>
    <v>       0.24980063       0.24665018       0.51617719 </v>
    <v>       0.24901842       0.75151463       0.50882612 </v>
    <v>       0.50178168       0.50019966       0.01589090 </v>
    <v>       0.48646934       0.51808789       0.49251510 </v>
    <v>       0.49916147       0.00103535       0.99850663 </v>
    <v>       0.48349656       0.49403810       0.73284627 </v>
    <v>       0.27026423       0.73766294       0.99747220 </v>
    <v>       0.25232972       0.24651667       0.24017111 </v>
    <v>       0.74585331       0.23915847       0.99995916 </v>
    <v>       0.77022248       0.76795415       0.75438882 </v>
    <v>       0.75562360       0.24454147       0.50213901 </v>
    <v>       0.74809275       0.74971967       0.51497949 </v>
    <v>       0.99744915       0.49979981       0.49393759 </v>
    <v>       0.01445738       0.50681855       0.00287698 </v>
    <v>       0.74281831       0.25993599       0.24551153 </v>
    <v>       0.99138235       0.00494590       0.01137804 </v>
    <v>       0.75373087       0.74885687       0.23969481 </v>
    <v>       0.50947202       0.99795613       0.75016936 </v>
    <v>       0.01846285       0.97680257       0.25798057 </v>
    <v>       0.00109331       0.00077826       0.73548238 </v>
    <v>       0.25423225       0.74592819       0.24018002 </v>
    <v>       0.49668319       0.00509708       0.49664712 </v>
    <v>       0.12819949       0.12239683       0.25592981 </v>
    <v>       0.11456090       0.12009906       0.76559124 </v>
    <v>       0.12549655       0.61772371       0.24519386 </v>
    <v>       0.13726184       0.61701189       0.74758227 </v>
    <v>       0.60234277       0.15413184       0.74853137 </v>
    <v>       0.62435144       0.62527160       0.25627325 </v>
    <v>       0.87066838       0.60622708       0.00518210 </v>
    <v>       0.37145049       0.37187802       0.26752164 </v>
    <v>       0.37541907       0.36860589       0.74939814 </v>
    <v>       0.37854211       0.87186558       0.25653321 </v>
    <v>       0.36811139       0.88828155       0.75173248 </v>
    <v>       0.88649562       0.35391911       0.25591156 </v>
    <v>       0.99957423       0.50282455       0.37607123 </v>
    <v>       0.88365770       0.88954050       0.77737024 </v>
    <v>       0.38297795       0.12784101       0.25012143 </v>
    <v>       0.00790462       0.98748863       0.61709933 </v>
    <v>       0.37035576       0.62472680       0.27640576 </v>
    <v>       0.47264238       0.51297949       0.13365025 </v>
    <v>       0.14094695       0.10043654       0.99869931 </v>
    <v>       0.85879095       0.13022138       0.73596592 </v>
    <v>       0.86946329       0.61302773       0.25241999 </v>
    <v>       0.88716136       0.63226018       0.73476104 </v>
    <v>       0.12990693       0.36785067       0.26609237 </v>
    <v>       0.11713789       0.37906216       0.72576244 </v>
    <v>       0.13639671       0.85741983       0.28449015 </v>
    <v>       0.12161006       0.87049103       0.74740038 </v>
    <v>       0.62230685       0.37596482       0.23290558 </v>
    <v>       0.62925548       0.42971051       0.76608660 </v>
    <v>       0.87207959       0.12322604       0.51530357 </v>
    <v>       0.62956257       0.87930776       0.75705782 </v>
    <v>       0.37612212       0.38032366       0.98844745 </v>
    <v>       0.88521861       0.13798008       0.97582060 </v>
    <v>       0.36907211       0.88052737       0.99575298 </v>
    <v>       0.36901574       0.87618914       0.49286588 </v>
    <v>       0.73206604       0.75277473       0.63438808 </v>
    <v>       0.87544382       0.86286912       0.27093211 </v>
    <v>       0.89473227       0.86051359       0.98238772 </v>
    <v>       0.87178276       0.86920276       0.48971766 </v>
    <v>       0.12502323       0.12634015       0.48866298 </v>
    <v>       0.12919200       0.62864451       0.00496162 </v>
    <v>       0.63051562       0.86857091       0.25917910 </v>
    <v>       0.62790139       0.12314578       0.00183552 </v>
    <v>       0.61931815       0.13687890       0.50164571 </v>
    <v>       0.62485605       0.62664771       0.00841524 </v>
    <v>       0.63578068       0.62411481       0.48308813 </v>
    <v>       0.12160208       0.37254681       0.51199617 </v>
    <v>       0.38841824       0.62139245       0.97498234 </v>
    <v>       0.12331651       0.86931944       0.48194251 </v>
    <v>       0.63565708       0.38261277       0.00398319 </v>
    <v>       0.63466928       0.87715846       0.98947845 </v>
    <v>       0.62663591       0.87459106       0.49640656 </v>
    <v>       0.38163985       0.13299722       0.00845058 </v>
    <v>       0.36945380       0.13472098       0.48124646 </v>
    <v>       0.64839362       0.11603827       0.24539883 </v>
    <v>       0.36478274       0.63384297       0.47110393 </v>
    <v>       0.10981294       0.35781114       0.99392194 </v>
    <v>       0.87884506       0.62612253       0.51261727 </v>
    <v>       0.00113203       0.97844318       0.13785296 </v>
    <v>       0.40030997       0.63402220       0.76963300 </v>
    <v>       0.99749234       0.47736648       0.12553998 </v>
    <v>       0.25771350       0.24207991       0.87002563 </v>
    <v>       0.50670780       0.98912152       0.12659804 </v>
    <v>       0.48834420       0.00856599       0.62564547 </v>
    <v>       0.50548101       0.52326128       0.61556663 </v>
    <v>       0.97086010       0.02934734       0.37143675 </v>
    <v>       0.73868880       0.71869782       0.86900761 </v>
    <v>       0.98960578       0.48881696       0.87754038 </v>
    <v>       0.87595586       0.38136114       0.73175107 </v>
    <v>       0.48654401       0.02253898       0.87026930 </v>
    <v>       0.52787051       0.46888758       0.38055639 </v>
    <v>       0.12284732       0.62098051       0.51128070 </v>
    <v>       0.22869191       0.76449616       0.87856549 </v>
    <v>       0.74587937       0.25916618       0.37900989 </v>
    <v>       0.75406718       0.26820459       0.87002368 </v>
    <v>       0.37278725       0.37783393       0.50276424 </v>
    <v>       0.50696329       0.00378545       0.37306039 </v>
    <v>       0.24978978       0.26283881       0.12138356 </v>
    <v>       0.26404544       0.21085489       0.63499866 </v>
    <v>       0.25108490       0.76090013       0.12091844 </v>
    <v>       0.26367677       0.74545273       0.62801502 </v>
    <v>       0.78422674       0.24279263       0.12154485 </v>
    <v>       0.71358143       0.28400497       0.62061174 </v>
    <v>       0.75918693       0.76229878       0.12021278 </v>
    <v>       0.87051176       0.38254903       0.50979023 </v>
   </varray>
  </structure>
  <varray name="forces" >
   <v>       0.01474113      -0.00181272      -0.00875550 </v>
   <v>      -0.00193687       0.00952094      -0.01826628 </v>
   <v>      -0.01023578      -0.01400080       0.01057947 </v>
   <v>      -0.02177183      -0.00003326      -0.00754071 </v>
   <v>      -0.03151509      -0.00385748       0.00379429 </v>
   <v>       0.00551509       0.01518103       0.00674430 </v>
   <v>      -0.00071921      -0.00394147      -0.00332524 </v>
   <v>      -0.00315436      -0.00224907       0.01582148 </v>
   <v>       0.00127079       0.00400901       0.00686262 </v>
   <v>       0.00583439      -0.00749132       0.02466152 </v>
   <v>      -0.00303816      -0.00236749       0.00313859 </v>
   <v>      -0.00073113       0.00221463       0.00244991 </v>
   <v>       0.01463935       0.00058288       0.00863774 </v>
   <v>       0.00615399       0.00853793      -0.00752550 </v>
   <v>       0.00888238      -0.00169956       0.00297751 </v>
   <v>       0.01782246      -0.00931903       0.00990419 </v>
   <v>      -0.01847751      -0.00742812       0.02428154 </v>
   <v>       0.00290957       0.00011952      -0.01322784 </v>
   <v>      -0.01797319       0.00813703      -0.00609363 </v>
   <v>      -0.00500646      -0.00932780       0.00496112 </v>
   <v>       0.00081012      -0.00473534      -0.00188150 </v>
   <v>      -0.00497877       0.01560288      -0.00096421 </v>
   <v>       0.01630737      -0.00350054       0.01236492 </v>
   <v>       0.00342741      -0.00496068       0.00699100 </v>
   <v>      -0.00162166       0.00554122       0.00304431 </v>
   <v>       0.00392375       0.00238015       0.01927685 </v>
   <v>       0.00759693       0.00004644      -0.00760609 </v>
   <v>      -0.00027428      -0.01169924      -0.00440036 </v>
   <v>       0.01588481      -0.00368259      -0.00421714 </v>
   <v>      -0.02154993       0.01294139      -0.01280648 </v>
   <v>       0.00542511       0.00636563       0.00154191 </v>
   <v>       0.00224178      -0.00602538       0.00723333 </v>
   <v>      -0.01343539       0.01080456       0.02810656 </v>
   <v>       0.00459925      -0.00300284      -0.00226485 </v>
   <v>      -0.00974285      -0.00484611      -0.02373142 </v>
   <v>       0.00798408      -0.00737897       0.00365359 </v>
   <v>      -0.00731324       0.03081182      -0.01314912 </v>
   <v>       0.00562961       0.01464976       0.01991482 </v>
   <v>       0.02710774      -0.01542176      -0.02196886 </v>
   <v>      -0.01564505       0.00632121      -0.01352926 </v>
   <v>       0.00030967      -0.01309399       0.00296379 </v>
   <v>      -0.00840142      -0.01284561      -0.01453832 </v>
   <v>       0.00324525       0.00405168      -0.00819865 </v>
   <v>       0.00839337      -0.00620529       0.00066993 </v>
   <v>      -0.00003435       0.00114406      -0.01641012 </v>
   <v>      -0.00626704      -0.00592846       0.01196562 </v>
   <v>       0.01266703      -0.00740641      -0.00767884 </v>
   <v>       0.02799101       0.00551300       0.01312971 </v>
   <v>      -0.01307230      -0.00392040      -0.01136431 </v>
   <v>       0.00148187      -0.00299217       0.01386796 </v>
   <v>      -0.00187293      -0.00065089       0.00661899 </v>
   <v>      -0.00642986      -0.00038011      -0.01554257 </v>
   <v>      -0.00312140      -0.00173751      -0.00927872 </v>
   <v>      -0.00786452       0.00983856      -0.02542093 </v>
   <v>       0.00202629      -0.00489984       0.01933685 </v>
   <v>      -0.00582221      -0.01367377      -0.00818765 </v>
   <v>       0.00624964      -0.00687504       0.00306622 </v>
   <v>      -0.00086617      -0.01123174       0.00111587 </v>
   <v>      -0.00046331      -0.00731128       0.00823004 </v>
   <v>      -0.02009374      -0.00184599      -0.00762341 </v>
   <v>      -0.01403687       0.01785020       0.01256295 </v>
   <v>      -0.01474415       0.00108777       0.01627798 </v>
   <v>      -0.01987840       0.01032380       0.00063641 </v>
   <v>       0.00338858       0.00362174       0.01114231 </v>
   <v>       0.02522894      -0.01351304      -0.00289641 </v>
   <v>       0.01205301       0.00343992       0.00538951 </v>
   <v>       0.01411158       0.00558968       0.00087523 </v>
   <v>       0.00518383      -0.00287339       0.01794593 </v>
   <v>       0.01539178      -0.02554278      -0.00537516 </v>
   <v>      -0.00199727      -0.00669175       0.00753905 </v>
   <v>      -0.01337895       0.00279700      -0.00607363 </v>
   <v>       0.00980712       0.01714505       0.00049227 </v>
   <v>       0.00862757       0.01182462      -0.00483781 </v>
   <v>      -0.02325058       0.00325636      -0.01646903 </v>
   <v>      -0.02141932       0.01862069       0.00342535 </v>
   <v>      -0.00441423       0.01342150       0.00666594 </v>
   <v>       0.01897291       0.00081154      -0.00776458 </v>
   <v>      -0.03051532      -0.00508238      -0.00890339 </v>
   <v>       0.01956686      -0.00226845      -0.01867998 </v>
   <v>      -0.01292698      -0.00493319      -0.00669520 </v>
   <v>       0.01602823       0.01464489      -0.00801655 </v>
   <v>       0.00152620       0.00567958       0.00011406 </v>
   <v>      -0.00912732       0.00322858       0.00612070 </v>
   <v>       0.00577859      -0.00730828       0.01704658 </v>
   <v>       0.01637906      -0.00033650      -0.00818981 </v>
   <v>      -0.00974139       0.00195080       0.00841130 </v>
   <v>      -0.00611757      -0.00245395       0.00692579 </v>
   <v>      -0.00128815      -0.02099976       0.01337690 </v>
   <v>       0.00428549      -0.01229656      -0.00607454 </v>
   <v>      -0.01073065      -0.01660751      -0.01977986 </v>
   <v>      -0.00769176       0.00485982       0.00983176 </v>
   <v>      -0.00778251      -0.01425179       0.00991779 </v>
   <v>       0.00306212      -0.01148364      -0.01404267 </v>
   <v>      -0.01412572      -0.02582572      -0.01289206 </v>
   <v>       0.00650861      -0.01868057       0.01457677 </v>
   <v>      -0.00973996      -0.00174200       0.01826590 </v>
   <v>       0.01979663      -0.01587764       0.01086745 </v>
   <v>       0.00263153      -0.00102747       0.01623136 </v>
   <v>       0.00456242      -0.02129386      -0.00479251 </v>
   <v>      -0.01495320       0.00758000       0.00373024 </v>
   <v>       0.00241666      -0.00395827       0.01641887 </v>
   <v>       0.00474659      -0.00373255      -0.01009100 </v>
   <v>       0.00820216       0.00193423       0.01444769 </v>
   <v>       0.00363105       0.02522692      -0.01891074 </v>
   <v>      -0.02476591       0.00130806       0.00437910 </v>
   <v>      -0.00801761       0.01978228       0.00311588 </v>
   <v>      -0.00674545       0.00706897       0.00217456 </v>
   <v>      -0.01902004       0.01153505      -0.01677353 </v>
   <v>      -0.00617390       0.01924213      -0.00520122 </v>
[...]
       <r>   -17.7077     0.0000    32.0000 </r>
       <r>   -17.5530     0.0000    32.0000 </r>
       <r>   -17.3983     0.0000    32.0000 </r>
       <r>   -17.2436     0.0000    32.0000 </r>
       <r>   -17.0889     0.0000    32.0000 </r>
       <r>   -16.9341     0.0000    32.0000 </r>
       <r>   -16.7794     0.0000    32.0000 </r>
       <r>   -16.6247     0.0000    32.0000 </r>
       <r>   -16.4700     0.0000    32.0000 </r>
       <r>   -16.3152     0.0000    32.0000 </r>
       <r>   -16.1605     0.0000    32.0000 </r>
       <r>   -16.0058     0.0000    32.0000 </r>
       <r>   -15.8511     0.0000    32.0000 </r>
       <r>   -15.6964     0.0000    32.0000 </r>
       <r>   -15.5416     0.0000    32.0000 </r>
       <r>   -15.3869     0.0000    32.0000 </r>
       <r>   -15.2322     0.0000    32.0000 </r>
       <r>   -15.0775     0.0196    32.0030 </r>
       <r>   -14.9228    13.9466    34.1609 </r>
       <r>   -14.7680    44.5621    41.0556 </r>
       <r>   -14.6133    44.2098    47.8958 </r>
       <r>   -14.4586    39.8216    54.0571 </r>
       <r>   -14.3039    32.8976    59.1470 </r>
       <r>   -14.1491    47.3280    66.4697 </r>
       <r>   -13.9944    78.9604    78.6866 </r>
       <r>   -13.8397    75.8504    90.4223 </r>
       <r>   -13.6850    73.9127   101.8582 </r>
       <r>   -13.5303    54.9455   110.3594 </r>
       <r>   -13.3755    33.4894   115.5410 </r>
       <r>   -13.2208     2.9669   116.0000 </r>
       <r>   -13.0661     0.0000   116.0000 </r>
       <r>   -12.9114     0.0000   116.0000 </r>
       <r>   -12.7566     4.9960   116.7730 </r>
       <r>   -12.6019    67.1924   127.1691 </r>
       <r>   -12.4472   112.1750   144.5250 </r>
       <r>   -12.2925   113.2657   162.0497 </r>
       <r>   -12.1378    99.7172   177.4781 </r>
       <r>   -11.9830    94.3650   192.0784 </r>
       <r>   -11.8283    81.5875   204.7017 </r>
       <r>   -11.6736    33.8433   209.9380 </r>
       <r>   -11.5189    13.3113   211.9975 </r>
       <r>   -11.3642     0.0159   212.0000 </r>
       <r>   -11.2094     0.0000   212.0000 </r>
       <r>   -11.0547     0.0000   212.0000 </r>
       <r>   -10.9000     0.0000   212.0000 </r>
       <r>   -10.7453     0.0000   212.0000 </r>
       <r>   -10.5905     0.0000   212.0000 </r>
       <r>   -10.4358     0.0000   212.0000 </r>
       <r>   -10.2811     0.0000   212.0000 </r>
       <r>   -10.1264     0.0000   212.0000 </r>
       <r>    -9.9717     0.0000   212.0000 </r>
       <r>    -9.8169     0.0000   212.0000 </r>
       <r>    -9.6622     0.0000   212.0000 </r>
       <r>    -9.5075     0.0000   212.0000 </r>
       <r>    -9.3528     0.0000   212.0000 </r>
       <r>    -9.1981     0.0000   212.0000 </r>
       <r>    -9.0433     0.0000   212.0000 </r>
       <r>    -8.8886     0.0000   212.0000 </r>
       <r>    -8.7339     0.0000   212.0000 </r>
       <r>    -8.5792     0.0000   212.0000 </r>
       <r>    -8.4244     0.0000   212.0000 </r>
       <r>    -8.2697     0.0000   212.0000 </r>
       <r>    -8.1150     0.0000   212.0000 </r>
       <r>    -7.9603     0.0000   212.0000 </r>
       <r>    -7.8056     0.0000   212.0000 </r>
       <r>    -7.6508     0.0000   212.0000 </r>
       <r>    -7.4961     0.0000   212.0000 </r>
       <r>    -7.3414     0.0000   212.0000 </r>
       <r>    -7.1867     0.0000   212.0000 </r>
       <r>    -7.0319     0.0000   212.0000 </r>
       <r>    -6.8772     0.0000   212.0000 </r>
       <r>    -6.7225     0.0000   212.0000 </r>
       <r>    -6.5678     0.0000   212.0000 </r>
       <r>    -6.4131     0.0000   212.0000 </r>
       <r>    -6.2583     0.0000   212.0000 </r>
       <r>    -6.1036     0.0000   212.0000 </r>
       <r>    -5.9489     0.0000   212.0000 </r>
       <r>    -5.7942     0.0000   212.0000 </r>
       <r>    -5.6395     0.0000   212.0000 </r>
       <r>    -5.4847     0.0000   212.0000 </r>
       <r>    -5.3300     0.0000   212.0000 </r>
       <r>    -5.1753     0.0000   212.0000 </r>
       <r>    -5.0206     0.0000   212.0000 </r>
       <r>    -4.8658     0.0000   212.0000 </r>
       <r>    -4.7111     0.0000   212.0000 </r>
       <r>    -4.5564     0.0000   212.0000 </r>
       <r>    -4.4017     0.0000   212.0000 </r>
       <r>    -4.2470     0.0000   212.0000 </r>
       <r>    -4.0922     0.0000   212.0000 </r>
       <r>    -3.9375     0.0000   212.0000 </r>
       <r>    -3.7828     0.0000   212.0000 </r>
       <r>    -3.6281     0.0000   212.0000 </r>
       <r>    -3.4734     0.0000   212.0000 </r>
       <r>    -3.3186     0.0000   212.0000 </r>
       <r>    -3.1639     0.0000   212.0000 </r>
       <r>    -3.0092     0.0000   212.0000 </r>
       <r>    -2.8545     0.0000   212.0000 </r>
       <r>    -2.6997     0.0000   212.0000 </r>
       <r>    -2.5450     0.3959   212.0613 </r>
       <r>    -2.3903     7.1472   213.1671 </r>
       <r>    -2.2356    13.8807   215.3147 </r>
       <r>    -2.0809    20.9869   218.5618 </r>
       <r>    -1.9261    25.0401   222.4361 </r>
       <r>    -1.7714    25.4424   226.3726 </r>
       <r>    -1.6167    25.0658   230.2508 </r>
       <r>    -1.4620    28.2949   234.6286 </r>
       <r>    -1.3073    27.5674   238.8939 </r>
       <r>    -1.1525    52.1685   246.9655 </r>
       <r>    -0.9978    67.6635   257.4345 </r>
       <r>    -0.8431    81.5992   270.0597 </r>
       <r>    -0.6884    93.0179   284.4515 </r>
       <r>    -0.5336    94.5752   299.0843 </r>
       <r>    -0.3789    84.7803   312.2017 </r>
       <r>    -0.2242    64.3023   322.1506 </r>
       <r>    -0.0695    58.9273   331.2680 </r>
       <r>     0.0852    54.6388   339.7218 </r>
       <r>     0.2400    53.7010   348.0305 </r>
       <r>     0.3947    51.2404   355.9585 </r>
       <r>     0.5494    60.5907   365.3332 </r>
       <r>     0.7041    56.8402   374.1276 </r>
       <r>     0.8589    57.8431   383.0771 </r>
       <r>     1.0136    55.3384   391.6392 </r>
       <r>     1.1683    56.6671   400.4068 </r>
       <r>     1.3230    55.2020   408.9477 </r>
       <r>     1.4777    70.3318   419.8296 </r>
       <r>     1.6325    71.3636   430.8711 </r>
       <r>     1.7872    66.8666   441.2168 </r>
       <r>     1.9419    58.2859   450.2348 </r>
       <r>     2.0966    37.5320   456.0419 </r>
       <r>     2.2513    28.6215   460.4702 </r>
       <r>     2.4061    20.5265   463.6461 </r>
       <r>     2.5608     2.2873   464.0000 </r>
       <r>     2.7155     1.5230   464.2356 </r>
       <r>     2.8702     4.9394   464.9999 </r>
       <r>     3.0250     0.0008   465.0000 </r>
       <r>     3.1797     0.0000   465.0000 </r>
       <r>     3.3344     0.0000   465.0000 </r>
       <r>     3.4891     0.0000   465.0000 </r>
       <r>     3.6438     0.0000   465.0000 </r>
       <r>     3.7986     0.0000   465.0000 </r>
       <r>     3.9533     0.0000   465.0000 </r>
       <r>     4.1080     0.0003   465.0000 </r>
       <r>     4.2627     4.3662   465.6756 </r>
       <r>     4.4174    15.0736   468.0078 </r>
       <r>     4.5722    56.7562   476.7892 </r>
       <r>     4.7269    64.8179   486.8179 </r>
       <r>     4.8816    65.0980   496.8900 </r>
       <r>     5.0363    61.2349   506.3644 </r>
       <r>     5.1911    67.9361   516.8756 </r>
       <r>     5.3458    76.4381   528.7022 </r>
       <r>     5.5005    90.6843   542.7330 </r>
       <r>     5.6552    87.0744   556.2053 </r>
       <r>     5.8099    56.4976   564.9467 </r>
       <r>     5.9647    62.0823   574.5522 </r>
       <r>     6.1194    70.6404   585.4818 </r>
       <r>     6.2741    49.9210   593.2056 </r>
       <r>     6.4288    32.2184   598.1905 </r>
       <r>     6.5835    19.6473   601.2304 </r>
       <r>     6.7383    13.6042   603.3352 </r>
       <r>     6.8930    10.5151   604.9621 </r>
       <r>     7.0477     9.4385   606.4225 </r>
       <r>     7.2024    18.9832   609.3596 </r>
       <r>     7.3572    16.4832   611.9099 </r>
       <r>     7.5119    18.6071   614.7888 </r>
       <r>     7.6666    14.3640   617.0113 </r>
       <r>     7.8213    20.8806   620.2419 </r>
       <r>     7.9760    23.2624   623.8411 </r>
       <r>     8.1308    25.8998   627.8484 </r>
       <r>     8.2855    22.4221   631.3176 </r>
       <r>     8.4402    24.8732   635.1660 </r>
       <r>     8.5949    23.7819   638.8456 </r>
       <r>     8.7497    23.6296   642.5016 </r>
       <r>     8.9044    27.3804   646.7379 </r>
       <r>     9.0591    29.6392   651.3237 </r>
       <r>     9.2138    31.3838   656.1795 </r>
       <r>     9.3685    38.8132   662.1847 </r>
       <r>     9.5233    45.0958   669.1620 </r>
       <r>     9.6780    49.5563   676.8294 </r>
       <r>     9.8327    53.5705   685.1179 </r>
       <r>     9.9874    60.9117   694.5423 </r>
       <r>    10.1421    57.3949   703.4225 </r>
       <r>    10.2969    56.3121   712.1352 </r>
       <r>    10.4516    50.9576   720.0195 </r>
       <r>    10.6063    54.9517   728.5217 </r>
       <r>    10.7610    46.1962   735.6692 </r>
       <r>    10.9158    43.5230   742.4032 </r>
       <r>    11.0705    49.1862   750.0134 </r>
       <r>    11.2252    49.7165   757.7056 </r>
       <r>    11.3799    49.9968   765.4411 </r>
       <r>    11.5346    16.5291   767.9986 </r>
       <r>    11.6894     0.0094   768.0000 </r>
       <r>    11.8441     0.0000   768.0000 </r>
       <r>    11.9988     0.0000   768.0000 </r>
       <r>    12.1535     0.0000   768.0000 </r>
       <r>    12.3082     0.0000   768.0000 </r>
       <r>    12.4630     0.0000   768.0000 </r>
       <r>    12.6177     0.0000   768.0000 </r>
       <r>    12.7724     0.0000   768.0000 </r>
       <r>    12.9271     0.0000   768.0000 </r>
       <r>    13.0819     0.0000   768.0000 </r>
       <r>    13.2366     0.0000   768.0000 </r>
       <r>    13.3913     0.0000   768.0000 </r>
       <r>    13.5460     0.0000   768.0000 </r>
      </set>
     </set>
    </array>
   </total>
  </dos>
 </calculation>
 <structure name="finalpos" >
  <crystal>
   <varray name="basis" >
    <v>      11.18772867       0.03730989       0.00738981 </v>
    <v>       0.03725725      11.17953367       0.02995356 </v>
    <v>       0.01028269       0.04254913      15.83755462 </v>
   </varray>
   <i name="volume">   1980.82270320 </i>
   <varray name="rec_basis" >
    <v>       0.08938468      -0.00029773      -0.00005723 </v>
    <v>      -0.00029815       0.08945081      -0.00024012 </v>
    <v>      -0.00004114      -0.00016904       0.06314154 </v>
   </varray>
  </crystal>
  <varray name="positions" >
   <v>       0.01263068       0.24174304       0.12732843 </v>
   <v>       0.99417648       0.24475271       0.62276593 </v>
   <v>       0.99745191       0.74096792       0.12771053 </v>
   <v>       0.00288148       0.75424110       0.61985661 </v>
   <v>       0.49967709       0.24570639       0.12266403 </v>
   <v>       0.49451351       0.24155932       0.61853948 </v>
   <v>       0.50772664       0.75377958       0.12700225 </v>
   <v>       0.49940267       0.77020097       0.62330527 </v>
   <v>       0.99562111       0.25453647       0.38046726 </v>
   <v>       0.99863163       0.25049214       0.86968748 </v>
   <v>       0.99575608       0.74003594       0.37735740 </v>
   <v>       0.00079583       0.73729951       0.86892278 </v>
   <v>       0.50572473       0.24247903       0.37153583 </v>
   <v>       0.50551742       0.25062263       0.88128577 </v>
   <v>       0.50272816       0.76041232       0.37625837 </v>
   <v>       0.50430183       0.76681224       0.88010988 </v>
   <v>       0.26429441       0.00009351       0.12649247 </v>
   <v>       0.25017089       0.98998881       0.61825799 </v>
   <v>       0.24702655       0.49522665       0.12767060 </v>
   <v>       0.24874955       0.50216739       0.62078191 </v>
   <v>       0.74482823       0.99808641       0.12106662 </v>
   <v>       0.73719092       0.00783230       0.62020370 </v>
   <v>       0.75048036       0.50119389       0.12813307 </v>
   <v>       0.74970296       0.50928901       0.62549342 </v>
   <v>       0.25907553       0.00082419       0.37456876 </v>
   <v>       0.26030697       0.00145461       0.87770223 </v>
   <v>       0.24527238       0.49453239       0.37513116 </v>
   <v>       0.25127236       0.49767176       0.87530894 </v>
   <v>       0.74357926       0.00183020       0.37841685 </v>
   <v>       0.74215951       0.01436173       0.87353357 </v>
   <v>       0.75422401       0.49434700       0.37182644 </v>
   <v>       0.75665906       0.49751935       0.88224341 </v>
   <v>       0.25137611       0.24491993       0.99558052 </v>
   <v>       0.74608306       0.26304369       0.74612534 </v>
   <v>       0.00297217       0.49072513       0.24998258 </v>
   <v>       0.75406493       0.74680545       0.99436344 </v>
   <v>       0.99851057       0.99971365       0.49077093 </v>
   <v>       0.50647186       0.99550355       0.25056541 </v>
   <v>       0.49727334       0.50057445       0.25833647 </v>
   <v>       0.24960583       0.75502549       0.75495762 </v>
   <v>       0.99855755       0.50099214       0.75865879 </v>
   <v>       0.23201512       0.25809168       0.74967925 </v>
   <v>       0.25021049       0.24706909       0.51658084 </v>
   <v>       0.24936406       0.75139659       0.50946106 </v>
   <v>       0.50193787       0.50067509       0.01524861 </v>
   <v>       0.48614142       0.51863759       0.49241433 </v>
   <v>       0.50005781       0.00003599       0.99912876 </v>
   <v>       0.48377030       0.49467954       0.73288274 </v>
   <v>       0.26924385       0.73704149       0.99657944 </v>
   <v>       0.25308488       0.24683123       0.24027336 </v>
   <v>       0.74552657       0.24008356       0.00060476 </v>
   <v>       0.76918804       0.76745863       0.75386483 </v>
   <v>       0.75544059       0.24511549       0.50143318 </v>
   <v>       0.74787663       0.75097694       0.51396351 </v>
   <v>       0.99795375       0.50016002       0.49394571 </v>
   <v>       0.01368063       0.50680783       0.00250158 </v>
   <v>       0.74275650       0.26000003       0.24544207 </v>
   <v>       0.99091706       0.00366714       0.01158862 </v>
   <v>       0.75357618       0.74907839       0.23985183 </v>
   <v>       0.50792411       0.99669881       0.75030679 </v>
   <v>       0.01806386       0.97678495       0.25815714 </v>
   <v>       0.00024921       0.00045264       0.73551315 </v>
   <v>       0.25393060       0.74586047       0.23987171 </v>
   <v>       0.49658205       0.00604789       0.49697232 </v>
   <v>       0.13185536       0.12005226       0.25500322 </v>
   <v>       0.11676338       0.11671979       0.76670022 </v>
   <v>       0.12826118       0.61617482       0.24630032 </v>
   <v>       0.13906246       0.61443856       0.74986814 </v>
   <v>       0.60591080       0.15076251       0.74905852 </v>
   <v>       0.62666894       0.62337924       0.25655861 </v>
   <v>       0.86800847       0.60393920       0.00597150 </v>
   <v>       0.37086745       0.37352013       0.26740675 </v>
   <v>       0.37468328       0.36994175       0.74930877 </v>
   <v>       0.37629835       0.87415727       0.25562662 </v>
   <v>       0.36348575       0.89208959       0.75086987 </v>
   <v>       0.88546770       0.35639838       0.25614057 </v>
   <v>       0.00131797       0.50262891       0.37616286 </v>
   <v>       0.87958482       0.89153115       0.77650931 </v>
   <v>       0.38572012       0.12974678       0.24894298 </v>
   <v>       0.00508321       0.98911981       0.61686800 </v>
   <v>       0.37284742       0.62678268       0.27553134 </v>
   <v>       0.47332047       0.51428710       0.13308101 </v>
   <v>       0.13848515       0.10208992       0.99920390 </v>
   <v>       0.86188846       0.13172987       0.73743890 </v>
   <v>       0.87210876       0.61508545       0.25226180 </v>
   <v>       0.88803933       0.63210296       0.73501434 </v>
   <v>       0.12900526       0.36589259       0.26665310 </v>
   <v>       0.11608591       0.37655394       0.72686994 </v>
   <v>       0.13511450       0.85630834       0.28430936 </v>
   <v>       0.11695780       0.86609945       0.74438497 </v>
   <v>       0.62081917       0.37456222       0.23230978 </v>
   <v>       0.62816342       0.42690017       0.76650539 </v>
   <v>       0.87140348       0.12336422       0.51375041 </v>
   <v>       0.62421289       0.87347023       0.75547131 </v>
   <v>       0.37928011       0.37643009       0.98943483 </v>
   <v>       0.88274251       0.13557713       0.97690597 </v>
   <v>       0.37323071       0.87609703       0.99701556 </v>
   <v>       0.37001729       0.87581703       0.49357585 </v>
   <v>       0.73466524       0.75165711       0.63342635 </v>
   <v>       0.87332881       0.86481536       0.27149472 </v>
   <v>       0.89720317       0.85749078       0.98382019 </v>
   <v>       0.87292858       0.86875563       0.48811754 </v>
   <v>       0.12471514       0.12714106       0.48947830 </v>
   <v>       0.12604419       0.63076375       0.00255092 </v>
   <v>       0.62834641       0.86653829       0.25986788 </v>
   <v>       0.62486701       0.12675563       0.00258341 </v>
   <v>       0.61809971       0.13938437       0.50166841 </v>
   <v>       0.62066810       0.63029822       0.00543408 </v>
   <v>       0.63443995       0.62706516       0.48200535 </v>
   <v>       0.12194195       0.37302142       0.51308852 </v>
   <v>       0.38345698       0.61682998       0.97355654 </v>
   <v>       0.12411343       0.87022160       0.48287424 </v>
   <v>       0.63781872       0.38540976       0.00395102 </v>
   <v>       0.63846502       0.88020988       0.98818649 </v>
   <v>       0.62779470       0.87761183       0.49752539 </v>
   <v>       0.37867474       0.12860531       0.00905410 </v>
   <v>       0.36883572       0.13465903       0.48105266 </v>
   <v>       0.65048751       0.11468221       0.24502799 </v>
   <v>       0.36378029       0.63339240       0.47042201 </v>
   <v>       0.11188745       0.35913331       0.99403335 </v>
   <v>       0.87757433       0.62558582       0.51063452 </v>
   <v>       0.00017875       0.97896850       0.13832215 </v>
   <v>       0.40137042       0.63552408       0.76919961 </v>
   <v>       0.99976917       0.47822603       0.12564574 </v>
   <v>       0.25872572       0.24223368       0.87029911 </v>
   <v>       0.50834466       0.98760782       0.12666471 </v>
   <v>       0.48845097       0.01011233       0.62591942 </v>
   <v>       0.50792297       0.52314199       0.61545871 </v>
   <v>       0.97231075       0.03068053       0.37115844 </v>
   <v>       0.74107051       0.71914693       0.86894931 </v>
   <v>       0.98802996       0.48633581       0.87801870 </v>
   <v>       0.87524921       0.38245481       0.73160548 </v>
   <v>       0.48735267       0.02192547       0.87051300 </v>
   <v>       0.52804201       0.46919828       0.38046554 </v>
   <v>       0.12194769       0.62162300       0.51211843 </v>
   <v>       0.22788477       0.76913997       0.87833082 </v>
   <v>       0.74570973       0.25968609       0.37829521 </v>
   <v>       0.75520750       0.26804345       0.87066087 </v>
   <v>       0.37362780       0.37782625       0.50331656 </v>
   <v>       0.50684326       0.00431998       0.37305378 </v>
   <v>       0.25044719       0.26400145       0.12155766 </v>
   <v>       0.26526540       0.21079819       0.63536405 </v>
   <v>       0.24810477       0.75937120       0.12044910 </v>
   <v>       0.26485595       0.74366559       0.62831556 </v>
   <v>       0.78572305       0.24477558       0.12170789 </v>
   <v>       0.71597526       0.28212814       0.62101400 </v>
   <v>       0.75721506       0.76149446       0.12021951 </v>
   <v>       0.87053858       0.38277683       0.50927354 </v>
  </varray>
 </structure>
</modeling>
