<?xml version="1.0" encoding="ISO-8859-1"?>
<modeling>
 <generator>
  <i name="program" type="string">vasp </i>
  <i name="version" type="string">5.4.1  </i>
  <i name="subversion" type="string">05Feb16 (build Jan 25 2017 20:16:33) complex                          parallel </i>
  <i name="platform" type="string">BWXE6 </i>
  <i name="date" type="string">2019 06 20 </i>
  <i name="time" type="string">10:41:49 </i>
 </generator>
 <incar>
  <i type="string" name="SYSTEM"> STF</i>
  <i type="string" name="PREC">normal</i>
  <i type="string" name="ALGO"> Fast</i>
  <i type="int" name="ISPIN">     2</i>
  <i type="int" name="NELM">    40</i>
  <i type="int" name="NELMIN">     8</i>
  <i type="int" name="IBRION">     2</i>
  <i name="EDIFF">      0.00010000</i>
  <i name="EDIFFG">     -0.03000000</i>
  <i type="int" name="NSW">    30</i>
  <i type="int" name="ISIF">     3</i>
  <i name="ENCUT">    520.00000000</i>
  <i type="int" name="NBANDS">   768</i>
  <v name="MAGMOM">      0.60000000      0.60000000      0.60000000      0.60000000      0.60000000      0.60000000      0.60000000      0.60000000      0.60000000      0.60000000      0.60000000      0.60000000      0.60000000      0.60000000      0.60000000      0.60000000      0.60000000      0.60000000      0.60000000      0.60000000
      0.60000000      0.60000000      0.60000000      0.60000000      0.60000000      0.60000000      0.60000000      0.60000000      0.60000000      0.60000000      0.60000000      0.60000000      0.60000000      0.60000000      0.60000000      0.60000000      0.60000000      0.60000000      0.60000000      0.60000000
      0.60000000      0.60000000      0.60000000      0.60000000      0.60000000      0.60000000      0.60000000      0.60000000      0.60000000      0.60000000      0.60000000      0.60000000      0.60000000      0.60000000      0.60000000      0.60000000      0.60000000      0.60000000      0.60000000      0.60000000
      5.00000000      5.00000000      5.00000000      5.00000000      0.60000000      0.60000000      0.60000000      0.60000000      0.60000000      0.60000000      0.60000000      0.60000000      0.60000000      0.60000000      0.60000000      0.60000000      0.60000000      0.60000000      0.60000000      0.60000000
      0.60000000      0.60000000      0.60000000      0.60000000      0.60000000      0.60000000      0.60000000      0.60000000      0.60000000      0.60000000      0.60000000      0.60000000      0.60000000      0.60000000      0.60000000      0.60000000      0.60000000      0.60000000      0.60000000      0.60000000
      0.60000000      0.60000000      0.60000000      0.60000000      0.60000000      0.60000000      0.60000000      0.60000000      0.60000000      0.60000000      0.60000000      0.60000000      0.60000000      0.60000000      0.60000000      0.60000000      0.60000000      0.60000000      0.60000000      0.60000000
      0.60000000      0.60000000      0.60000000      0.60000000      0.60000000      0.60000000      0.60000000      0.60000000      0.60000000      0.60000000      0.60000000      0.60000000      0.60000000      0.60000000      0.60000000      0.60000000      0.60000000      0.60000000      0.60000000      0.60000000
      0.60000000      0.60000000      0.60000000      0.60000000      0.60000000      0.60000000      0.60000000      0.60000000      0.60000000      0.60000000      0.60000000      0.60000000      0.60000000      0.60000000      0.60000000      0.60000000      0.60000000      0.60000000</v>
  <i type="string" name="LREAL"> Auto</i>
  <i type="int" name="ISMEAR">     0</i>
  <i name="SIGMA">      0.05000000</i>
  <i type="int" name="LMAXMIX">     4</i>
  <v type="int" name="KPOINT_BSE">    -1     0     0     0</v>
  <i type="int" name="NELM">    40</i>
  <i type="logical" name="LDAU"> T  </i>
  <v type="int" name="LDAUTYPE">     2</v>
  <v type="int" name="LDAUL">     0     2     2     0</v>
  <v name="LDAUU">      0.00000000      3.00000000      5.00000000      0.00000000</v>
  <v name="LDAUJ">      0.00000000      0.00000000      0.00000000      0.00000000</v>
  <i type="int" name="LDAUPRINT">     1</i>
 </incar>
 <kpoints>
  <generation param="Monkhorst-Pack">
   <v type="int" name="divisions">       2        2        2 </v>
   <v name="usershift">      0.00000000       0.00000000       0.00000000 </v>
   <v name="genvec1">      0.50000000      -0.00000000       0.00000000 </v>
   <v name="genvec2">     -0.00000000       0.50000000       0.00000000 </v>
   <v name="genvec3">     -0.00000000       0.00000000       0.50000000 </v>
   <v name="shift">      0.50000000       0.50000000       0.50000000 </v>
  </generation>
  <varray name="kpointlist" >
   <v>       0.25000000       0.25000000       0.25000000 </v>
   <v>      -0.25000000       0.25000000       0.25000000 </v>
   <v>       0.25000000      -0.25000000       0.25000000 </v>
   <v>      -0.25000000      -0.25000000       0.25000000 </v>
  </varray>
  <varray name="weights" >
   <v>       0.25000000 </v>
   <v>       0.25000000 </v>
   <v>       0.25000000 </v>
   <v>       0.25000000 </v>
  </varray>
 </kpoints>
 <parameters>
  <separator name="general" >
   <i type="string" name="SYSTEM">STF</i>
   <i type="logical" name="LCOMPAT"> F  </i>
  </separator>
  <separator name="electronic" >
   <i type="string" name="PREC">normal</i>
   <i name="ENMAX">    520.00000000</i>
   <i name="ENAUG">    605.39200000</i>
   <i name="EDIFF">      0.00010000</i>
   <i type="int" name="IALGO">    68</i>
   <i type="int" name="IWAVPR">    11</i>
   <i type="int" name="NBANDS">   768</i>
   <i name="NELECT">   1028.00000000</i>
   <i type="int" name="TURBO">     0</i>
   <i type="int" name="IRESTART">     0</i>
   <i type="int" name="NREBOOT">     0</i>
   <i type="int" name="NMIN">     0</i>
   <i name="EREF">      0.00000000</i>
   <separator name="electronic smearing" >
    <i type="int" name="ISMEAR">     0</i>
    <i name="SIGMA">      0.05000000</i>
    <i name="KSPACING">      0.50000000</i>
    <i type="logical" name="KGAMMA"> T  </i>
   </separator>
   <separator name="electronic projectors" >
    <i type="logical" name="LREAL"> T  </i>
    <v name="ROPT">     -0.00050000     -0.00050000     -0.00050000     -0.00050000</v>
    <i type="int" name="LMAXPAW">  -100</i>
    <i type="int" name="LMAXMIX">     4</i>
    <i type="logical" name="NLSPLINE"> F  </i>
   </separator>
   <separator name="electronic startup" >
    <i type="int" name="ISTART">     1</i>
    <i type="int" name="ICHARG">     0</i>
    <i type="int" name="INIWAV">     1</i>
   </separator>
   <separator name="electronic spin" >
    <i type="int" name="ISPIN">     2</i>
    <i type="logical" name="LNONCOLLINEAR"> F  </i>
    <v name="MAGMOM">      0.60000000      0.60000000      0.60000000      0.60000000      0.60000000      0.60000000      0.60000000      0.60000000      0.60000000      0.60000000      0.60000000      0.60000000      0.60000000      0.60000000      0.60000000      0.60000000      0.60000000      0.60000000      0.60000000      0.60000000
      0.60000000      0.60000000      0.60000000      0.60000000      0.60000000      0.60000000      0.60000000      0.60000000      0.60000000      0.60000000      0.60000000      0.60000000      0.60000000      0.60000000      0.60000000      0.60000000      0.60000000      0.60000000      0.60000000      0.60000000
      0.60000000      0.60000000      0.60000000      0.60000000      0.60000000      0.60000000      0.60000000      0.60000000      0.60000000      0.60000000      0.60000000      0.60000000      0.60000000      0.60000000      0.60000000      0.60000000      0.60000000      0.60000000      0.60000000      0.60000000
      5.00000000      5.00000000      5.00000000      5.00000000      0.60000000      0.60000000      0.60000000      0.60000000      0.60000000      0.60000000      0.60000000      0.60000000      0.60000000      0.60000000      0.60000000      0.60000000      0.60000000      0.60000000      0.60000000      0.60000000
      0.60000000      0.60000000      0.60000000      0.60000000      0.60000000      0.60000000      0.60000000      0.60000000      0.60000000      0.60000000      0.60000000      0.60000000      0.60000000      0.60000000      0.60000000      0.60000000      0.60000000      0.60000000      0.60000000      0.60000000
      0.60000000      0.60000000      0.60000000      0.60000000      0.60000000      0.60000000      0.60000000      0.60000000      0.60000000      0.60000000      0.60000000      0.60000000      0.60000000      0.60000000      0.60000000      0.60000000      0.60000000      0.60000000      0.60000000      0.60000000
      0.60000000      0.60000000      0.60000000      0.60000000      0.60000000      0.60000000      0.60000000      0.60000000      0.60000000      0.60000000      0.60000000      0.60000000      0.60000000      0.60000000      0.60000000      0.60000000      0.60000000      0.60000000      0.60000000      0.60000000
      0.60000000      0.60000000      0.60000000      0.60000000      0.60000000      0.60000000      0.60000000      0.60000000      0.60000000      0.60000000      0.60000000      0.60000000      0.60000000      0.60000000      0.60000000      0.60000000      0.60000000      0.60000000</v>
    <i name="NUPDOWN">     -1.00000000</i>
    <i type="logical" name="LSORBIT"> F  </i>
    <v name="SAXIS">      0.00000000      0.00000000      1.00000000</v>
    <i type="logical" name="LSPIRAL"> F  </i>
    <v name="QSPIRAL">      0.00000000      0.00000000      0.00000000</v>
    <i type="logical" name="LZEROZ"> F  </i>
   </separator>
   <separator name="electronic exchange-correlation" >
    <i type="logical" name="LASPH"> F  </i>
    <i type="logical" name="LMETAGGA"> F  </i>
   </separator>
   <separator name="electronic convergence" >
    <i type="int" name="NELM">    40</i>
    <i type="int" name="NELMDL">     0</i>
    <i type="int" name="NELMIN">     8</i>
    <i name="ENINI">    520.00000000</i>
    <separator name="electronic convergence detail" >
     <i type="logical" name="LDIAG"> T  </i>
     <i type="logical" name="LSUBROT"> F  </i>
     <i name="WEIMIN">      0.00100000</i>
     <i name="EBREAK">      0.00000003</i>
     <i name="DEPER">      0.30000000</i>
     <i type="int" name="NRMM">     4</i>
     <i name="TIME">      0.40000000</i>
    </separator>
   </separator>
   <separator name="electronic mixer" >
    <i name="AMIX">      0.40000000</i>
    <i name="BMIX">      1.00000000</i>
    <i name="AMIN">      0.10000000</i>
    <i name="AMIX_MAG">      1.60000000</i>
    <i name="BMIX_MAG">      1.00000000</i>
    <separator name="electronic mixer details" >
     <i type="int" name="IMIX">     4</i>
     <i type="logical" name="MIXFIRST"> F  </i>
     <i type="int" name="MAXMIX">   -45</i>
     <i name="WC">    100.00000000</i>
     <i type="int" name="INIMIX">     1</i>
     <i type="int" name="MIXPRE">     1</i>
     <i type="int" name="MREMOVE">     5</i>
    </separator>
   </separator>
   <separator name="electronic dipolcorrection" >
    <i type="logical" name="LDIPOL"> F  </i>
    <i type="logical" name="LMONO"> F  </i>
    <i type="int" name="IDIPOL">     0</i>
    <i name="EPSILON">      1.00000000</i>
    <v name="DIPOL">   -100.00000000   -100.00000000   -100.00000000</v>
    <i name="EFIELD">      0.00000000</i>
   </separator>
  </separator>
  <separator name="grids" >
   <i type="int" name="NGX">    64</i>
   <i type="int" name="NGY">    64</i>
   <i type="int" name="NGZ">    90</i>
   <i type="int" name="NGXF">   128</i>
   <i type="int" name="NGYF">   128</i>
   <i type="int" name="NGZF">   180</i>
   <i type="logical" name="ADDGRID"> F  </i>
  </separator>
  <separator name="ionic" >
   <i type="int" name="NSW">    30</i>
   <i type="int" name="IBRION">     2</i>
   <i type="int" name="ISIF">     3</i>
   <i name="PSTRESS">      0.00000000</i>
   <i name="EDIFFG">     -0.03000000</i>
   <i type="int" name="NFREE">     1</i>
   <i name="POTIM">      0.50000000</i>
   <i name="SMASS">     -3.00000000</i>
   <i name="SCALEE">      1.00000000</i>
  </separator>
  <separator name="ionic md" >
   <i name="TEBEG">      0.00010000</i>
   <i name="TEEND">      0.00010000</i>
   <i type="int" name="NBLOCK">     1</i>
   <i type="int" name="KBLOCK">    30</i>
   <i type="int" name="NPACO">   256</i>
   <i name="APACO">     16.00000000</i>
  </separator>
  <separator name="symmetry" >
   <i type="int" name="ISYM">     2</i>
   <i name="SYMPREC">      0.00001000</i>
  </separator>
  <separator name="dos" >
   <i type="logical" name="LORBIT"> F  </i>
   <v name="RWIGS">     -1.00000000     -1.00000000     -1.00000000     -1.00000000</v>
   <i type="int" name="NEDOS">   301</i>
   <i name="EMIN">     10.00000000</i>
   <i name="EMAX">    -10.00000000</i>
   <i name="EFERMI">      0.00000000</i>
  </separator>
  <separator name="writing" >
   <i type="int" name="NWRITE">     2</i>
   <i type="logical" name="LWAVE"> T  </i>
   <i type="logical" name="LCHARG"> T  </i>
   <i type="logical" name="LPARD"> F  </i>
   <i type="logical" name="LVTOT"> F  </i>
   <i type="logical" name="LVHAR"> F  </i>
   <i type="logical" name="LELF"> F  </i>
   <i type="logical" name="LOPTICS"> F  </i>
   <v name="STM">      0.00000000      0.00000000      0.00000000      0.00000000      0.00000000      0.00000000      0.00000000</v>
  </separator>
  <separator name="performance" >
   <i type="int" name="NPAR">     2</i>
   <i type="int" name="NSIM">     4</i>
   <i type="int" name="NBLK">    -1</i>
   <i type="logical" name="LPLANE"> T  </i>
   <i type="logical" name="LSCALAPACK"> T  </i>
   <i type="logical" name="LSCAAWARE"> F  </i>
   <i type="logical" name="LSCALU"> F  </i>
   <i type="logical" name="LASYNC"> F  </i>
   <i type="logical" name="LORBITALREAL"> F  </i>
  </separator>
  <separator name="miscellaneous" >
   <i type="int" name="IDIOT">     3</i>
   <i type="logical" name="LMUSIC"> F  </i>
   <v name="POMASS">     87.62000000     47.88000000     55.84700000     16.00000000</v>
   <v name="DARWINR">      0.00000000      0.00000000      0.00000000      0.00000000</v>
   <v name="DARWINV">      1.00000000      1.00000000      1.00000000      1.00000000</v>
   <i type="logical" name="LCORR"> T  </i>
  </separator>
  <i type="logical" name="GGA_COMPAT"> T  </i>
  <i type="logical" name="LBERRY"> F  </i>
  <i type="int" name="ICORELEVEL">     0</i>
  <i type="logical" name="LDAU"> T  </i>
  <v type="int" name="LDAUTYPE">     2</v>
  <v type="int" name="LDAUL">     0</v>
  <v name="LDAUU">      0.00000000</v>
  <v name="LDAUJ">      0.00000000</v>
  <i type="int" name="LDAUPRINT">     1</i>
  <i type="int" name="I_CONSTRAINED_M">     0</i>
  <separator name="electronic exchange-correlation" >
   <i type="string" name="GGA">--</i>
   <i type="int" name="VOSKOWN">     0</i>
   <i type="logical" name="LHFCALC"> F  </i>
   <i type="string" name="PRECFOCK"></i>
   <i type="logical" name="LSYMGRAD"> F  </i>
   <i type="logical" name="LHFONE"> F  </i>
   <i type="logical" name="LRHFCALC"> F  </i>
   <i type="logical" name="LTHOMAS"> F  </i>
   <i type="logical" name="LMODELHF"> F  </i>
   <i name="ENCUT4O">     -1.00000000</i>
   <i type="int" name="EXXOEP">     0</i>
   <i type="int" name="FOURORBIT">     0</i>
   <i name="AEXX">      0.00000000</i>
   <i name="HFALPHA">      0.00000000</i>
   <i name="MCALPHA">      0.00000000</i>
   <i name="ALDAX">      1.00000000</i>
   <i name="AGGAX">      1.00000000</i>
   <i name="ALDAC">      1.00000000</i>
   <i name="AGGAC">      1.00000000</i>
   <i type="int" name="NKREDX">     1</i>
   <i type="int" name="NKREDY">     1</i>
   <i type="int" name="NKREDZ">     1</i>
   <i type="logical" name="SHIFTRED"> F  </i>
   <i type="logical" name="ODDONLY"> F  </i>
   <i type="logical" name="EVENONLY"> F  </i>
   <i type="int" name="LMAXFOCK">     0</i>
   <i type="int" name="NMAXFOCKAE">     0</i>
   <i type="logical" name="LFOCKAEDFT"> F  </i>
   <i name="HFSCREEN">      0.00000000</i>
   <i name="HFSCREENC">      0.00000000</i>
   <i type="int" name="NBANDSGWLOW">     0</i>
  </separator>
  <separator name="vdW DFT" >
   <i type="logical" name="LUSE_VDW"> F  </i>
   <i name="Zab_VDW">     -0.84910000</i>
   <i name="PARAM1">      0.12340000</i>
   <i name="PARAM2">      1.00000000</i>
   <i name="PARAM3">      0.00000000</i>
  </separator>
  <separator name="model GW" >
   <i type="int" name="MODEL_GW">     0</i>
   <i name="MODEL_EPS0">      7.62586420</i>
   <i name="MODEL_ALPHA">      1.00000000</i>
  </separator>
  <separator name="linear response parameters" >
   <i type="logical" name="LEPSILON"> F  </i>
   <i type="logical" name="LRPA"> F  </i>
   <i type="logical" name="LNABLA"> F  </i>
   <i type="logical" name="LVEL"> F  </i>
   <i type="int" name="KINTER">     0</i>
   <i name="CSHIFT">      0.10000000</i>
   <i name="OMEGAMAX">     -1.00000000</i>
   <i name="DEG_THRESHOLD">      0.00200000</i>
  </separator>
  <separator name="orbital magnetization" >
   <i type="logical" name="NUCIND"> F  </i>
   <v name="MAGPOS">      0.00000000      0.00000000      0.00000000</v>
   <i type="logical" name="LNICSALL"> T  </i>
   <i type="logical" name="ORBITALMAG"> F  </i>
   <i type="logical" name="LMAGBLOCH"> F  </i>
   <i type="logical" name="LCHIMAG"> F  </i>
   <i type="logical" name="LGAUGE"> T  </i>
   <i type="int" name="MAGATOM">     0</i>
   <v name="MAGDIPOL">      0.00000000      0.00000000      0.00000000</v>
   <v name="AVECCONST">      0.00000000      0.00000000      0.00000000</v>
  </separator>
  <separator name="response functions" >
   <i type="logical" name="LADDER"> F  </i>
   <i type="logical" name="LFXC"> F  </i>
   <i type="logical" name="LHARTREE"> T  </i>
   <i type="int" name="IBSE">     0</i>
   <v type="int" name="KPOINT">    -1     0     0     0</v>
   <i type="logical" name="LTCTE"> F  </i>
   <i type="logical" name="LTETE"> F  </i>
   <i type="logical" name="LTRIPLET"> F  </i>
   <i type="logical" name="LFXCEPS"> F  </i>
   <i type="logical" name="LFXHEG"> F  </i>
   <i type="int" name="NATURALO">     0</i>
   <i type="logical" name="L2ORDER"> F  </i>
   <i type="logical" name="LUSEW"> F  </i>
   <i name="ENCUTGW">     -2.00000000</i>
   <i name="ENCUTGWSOFT">     -2.00000000</i>
   <i name="ENCUTLF">     -1.00000000</i>
   <i type="int" name="LMAXMP2">    -1</i>
   <i name="SCISSOR">      0.00000000</i>
   <i type="int" name="NOMEGA">     0</i>
   <i type="int" name="NOMEGAR">     0</i>
   <i type="int" name="NBANDSGW">    -1</i>
   <i type="int" name="NBANDSO">    -1</i>
   <i type="int" name="NBANDSV">    -1</i>
   <i type="int" name="NELM">    40</i>
   <i type="int" name="NELMHF">     1</i>
   <i type="int" name="DIM">     3</i>
   <i type="int" name="ANTIRES">     0</i>
   <i name="OMEGAMAX">    -30.00000000</i>
   <i name="OMEGAMIN">    -30.00000000</i>
   <i name="OMEGATL">   -200.00000000</i>
   <i type="int" name="OMEGAGRID">     0</i>
   <i name="CSHIFT">     -0.10000000</i>
   <i type="logical" name="SELFENERGY"> F  </i>
   <i type="logical" name="LSPECTRAL"> F  </i>
   <i type="logical" name="LSPECTRALGW"> F  </i>
   <i type="logical" name="LSINGLES"> F  </i>
   <i type="logical" name="LFERMIGW"> F  </i>
   <i type="logical" name="ODDONLYGW"> F  </i>
   <i type="logical" name="EVENONLYGW"> F  </i>
   <i type="int" name="NKREDLFX">     1</i>
   <i type="int" name="NKREDLFY">     1</i>
   <i type="int" name="NKREDLFZ">     1</i>
   <i type="int" name="MAXMEM">  1800</i>
   <i type="int" name="TELESCOPE">     0</i>
   <i type="int" name="TAUPAR">     1</i>
   <i type="int" name="OMEGAPAR">    -1</i>
   <i name="LAMBDA">      1.00000000</i>
  </separator>
  <separator name="External order field" >
   <i name="OFIELD_KAPPA">      0.00000000</i>
   <v name="OFIELD_K">      0.00000000      0.00000000      0.00000000</v>
   <i name="OFIELD_Q6_NEAR">      0.00000000</i>
   <i name="OFIELD_Q6_FAR">      0.00000000</i>
   <i name="OFIELD_A">      0.00000000</i>
  </separator>
 </parameters>
 <atominfo>
  <atoms>     158 </atoms>
  <types>       4 </types>
  <array name="atoms" >
   <dimension dim="1">ion</dimension>
   <field type="string">element</field>
   <field type="int">atomtype</field>
   <set>
    <rc><c>Sr</c><c>   1</c></rc>
    <rc><c>Sr</c><c>   1</c></rc>
    <rc><c>Sr</c><c>   1</c></rc>
    <rc><c>Sr</c><c>   1</c></rc>
    <rc><c>Sr</c><c>   1</c></rc>
    <rc><c>Sr</c><c>   1</c></rc>
    <rc><c>Sr</c><c>   1</c></rc>
    <rc><c>Sr</c><c>   1</c></rc>
    <rc><c>Sr</c><c>   1</c></rc>
    <rc><c>Sr</c><c>   1</c></rc>
    <rc><c>Sr</c><c>   1</c></rc>
    <rc><c>Sr</c><c>   1</c></rc>
    <rc><c>Sr</c><c>   1</c></rc>
    <rc><c>Sr</c><c>   1</c></rc>
    <rc><c>Sr</c><c>   1</c></rc>
    <rc><c>Sr</c><c>   1</c></rc>
    <rc><c>Sr</c><c>   1</c></rc>
    <rc><c>Sr</c><c>   1</c></rc>
    <rc><c>Sr</c><c>   1</c></rc>
    <rc><c>Sr</c><c>   1</c></rc>
    <rc><c>Sr</c><c>   1</c></rc>
    <rc><c>Sr</c><c>   1</c></rc>
    <rc><c>Sr</c><c>   1</c></rc>
    <rc><c>Sr</c><c>   1</c></rc>
    <rc><c>Sr</c><c>   1</c></rc>
    <rc><c>Sr</c><c>   1</c></rc>
    <rc><c>Sr</c><c>   1</c></rc>
    <rc><c>Sr</c><c>   1</c></rc>
    <rc><c>Sr</c><c>   1</c></rc>
    <rc><c>Sr</c><c>   1</c></rc>
    <rc><c>Sr</c><c>   1</c></rc>
    <rc><c>Sr</c><c>   1</c></rc>
    <rc><c>Ti</c><c>   2</c></rc>
    <rc><c>Ti</c><c>   2</c></rc>
    <rc><c>Ti</c><c>   2</c></rc>
    <rc><c>Ti</c><c>   2</c></rc>
    <rc><c>Ti</c><c>   2</c></rc>
    <rc><c>Ti</c><c>   2</c></rc>
    <rc><c>Ti</c><c>   2</c></rc>
    <rc><c>Ti</c><c>   2</c></rc>
    <rc><c>Ti</c><c>   2</c></rc>
    <rc><c>Ti</c><c>   2</c></rc>
    <rc><c>Ti</c><c>   2</c></rc>
    <rc><c>Ti</c><c>   2</c></rc>
    <rc><c>Ti</c><c>   2</c></rc>
    <rc><c>Ti</c><c>   2</c></rc>
    <rc><c>Ti</c><c>   2</c></rc>
    <rc><c>Ti</c><c>   2</c></rc>
    <rc><c>Ti</c><c>   2</c></rc>
    <rc><c>Ti</c><c>   2</c></rc>
    <rc><c>Ti</c><c>   2</c></rc>
    <rc><c>Ti</c><c>   2</c></rc>
    <rc><c>Ti</c><c>   2</c></rc>
    <rc><c>Ti</c><c>   2</c></rc>
    <rc><c>Ti</c><c>   2</c></rc>
    <rc><c>Ti</c><c>   2</c></rc>
    <rc><c>Ti</c><c>   2</c></rc>
    <rc><c>Ti</c><c>   2</c></rc>
    <rc><c>Ti</c><c>   2</c></rc>
    <rc><c>Ti</c><c>   2</c></rc>
    <rc><c>Fe</c><c>   3</c></rc>
    <rc><c>Fe</c><c>   3</c></rc>
    <rc><c>Fe</c><c>   3</c></rc>
    <rc><c>Fe</c><c>   3</c></rc>
    <rc><c>O </c><c>   4</c></rc>
    <rc><c>O </c><c>   4</c></rc>
    <rc><c>O </c><c>   4</c></rc>
    <rc><c>O </c><c>   4</c></rc>
    <rc><c>O </c><c>   4</c></rc>
    <rc><c>O </c><c>   4</c></rc>
    <rc><c>O </c><c>   4</c></rc>
    <rc><c>O </c><c>   4</c></rc>
    <rc><c>O </c><c>   4</c></rc>
    <rc><c>O </c><c>   4</c></rc>
    <rc><c>O </c><c>   4</c></rc>
    <rc><c>O </c><c>   4</c></rc>
    <rc><c>O </c><c>   4</c></rc>
    <rc><c>O </c><c>   4</c></rc>
    <rc><c>O </c><c>   4</c></rc>
    <rc><c>O </c><c>   4</c></rc>
    <rc><c>O </c><c>   4</c></rc>
    <rc><c>O </c><c>   4</c></rc>
    <rc><c>O </c><c>   4</c></rc>
    <rc><c>O </c><c>   4</c></rc>
    <rc><c>O </c><c>   4</c></rc>
    <rc><c>O </c><c>   4</c></rc>
    <rc><c>O </c><c>   4</c></rc>
    <rc><c>O </c><c>   4</c></rc>
    <rc><c>O </c><c>   4</c></rc>
    <rc><c>O </c><c>   4</c></rc>
    <rc><c>O </c><c>   4</c></rc>
    <rc><c>O </c><c>   4</c></rc>
    <rc><c>O </c><c>   4</c></rc>
    <rc><c>O </c><c>   4</c></rc>
    <rc><c>O </c><c>   4</c></rc>
    <rc><c>O </c><c>   4</c></rc>
    <rc><c>O </c><c>   4</c></rc>
    <rc><c>O </c><c>   4</c></rc>
    <rc><c>O </c><c>   4</c></rc>
    <rc><c>O </c><c>   4</c></rc>
    <rc><c>O </c><c>   4</c></rc>
    <rc><c>O </c><c>   4</c></rc>
    <rc><c>O </c><c>   4</c></rc>
    <rc><c>O </c><c>   4</c></rc>
    <rc><c>O </c><c>   4</c></rc>
    <rc><c>O </c><c>   4</c></rc>
    <rc><c>O </c><c>   4</c></rc>
    <rc><c>O </c><c>   4</c></rc>
    <rc><c>O </c><c>   4</c></rc>
    <rc><c>O </c><c>   4</c></rc>
    <rc><c>O </c><c>   4</c></rc>
    <rc><c>O </c><c>   4</c></rc>
    <rc><c>O </c><c>   4</c></rc>
    <rc><c>O </c><c>   4</c></rc>
    <rc><c>O </c><c>   4</c></rc>
    <rc><c>O </c><c>   4</c></rc>
    <rc><c>O </c><c>   4</c></rc>
    <rc><c>O </c><c>   4</c></rc>
    <rc><c>O </c><c>   4</c></rc>
    <rc><c>O </c><c>   4</c></rc>
    <rc><c>O </c><c>   4</c></rc>
    <rc><c>O </c><c>   4</c></rc>
    <rc><c>O </c><c>   4</c></rc>
    <rc><c>O </c><c>   4</c></rc>
    <rc><c>O </c><c>   4</c></rc>
    <rc><c>O </c><c>   4</c></rc>
    <rc><c>O </c><c>   4</c></rc>
    <rc><c>O </c><c>   4</c></rc>
    <rc><c>O </c><c>   4</c></rc>
    <rc><c>O </c><c>   4</c></rc>
    <rc><c>O </c><c>   4</c></rc>
    <rc><c>O </c><c>   4</c></rc>
    <rc><c>O </c><c>   4</c></rc>
    <rc><c>O </c><c>   4</c></rc>
    <rc><c>O </c><c>   4</c></rc>
    <rc><c>O </c><c>   4</c></rc>
    <rc><c>O </c><c>   4</c></rc>
    <rc><c>O </c><c>   4</c></rc>
    <rc><c>O </c><c>   4</c></rc>
    <rc><c>O </c><c>   4</c></rc>
    <rc><c>O </c><c>   4</c></rc>
    <rc><c>O </c><c>   4</c></rc>
    <rc><c>O </c><c>   4</c></rc>
    <rc><c>O </c><c>   4</c></rc>
    <rc><c>O </c><c>   4</c></rc>
    <rc><c>O </c><c>   4</c></rc>
    <rc><c>O </c><c>   4</c></rc>
    <rc><c>O </c><c>   4</c></rc>
    <rc><c>O </c><c>   4</c></rc>
    <rc><c>O </c><c>   4</c></rc>
    <rc><c>O </c><c>   4</c></rc>
    <rc><c>O </c><c>   4</c></rc>
    <rc><c>O </c><c>   4</c></rc>
    <rc><c>O </c><c>   4</c></rc>
    <rc><c>O </c><c>   4</c></rc>
    <rc><c>O </c><c>   4</c></rc>
    <rc><c>O </c><c>   4</c></rc>
    <rc><c>O </c><c>   4</c></rc>
   </set>
  </array>
  <array name="atomtypes" >
   <dimension dim="1">type</dimension>
   <field type="int">atomspertype</field>
   <field type="string">element</field>
   <field>mass</field>
   <field>valence</field>
   <field type="string">pseudopotential</field>
   <set>
    <rc><c>  32</c><c>Sr</c><c>     87.62000000</c><c>     10.00000000</c><c>  PAW_PBE Sr_sv 07Sep2000               </c></rc>
    <rc><c>  28</c><c>Ti</c><c>     47.88000000</c><c>      4.00000000</c><c>  PAW_PBE Ti 08Apr2002                  </c></rc>
    <rc><c>   4</c><c>Fe</c><c>     55.84700000</c><c>      8.00000000</c><c>  PAW_PBE Fe 06Sep2000                  </c></rc>
    <rc><c>  94</c><c>O </c><c>     16.00000000</c><c>      6.00000000</c><c>  PAW_PBE O 08Apr2002                   </c></rc>
   </set>
  </array>
 </atominfo>
 <structure name="initialpos" >
  <crystal>
   <varray name="basis" >
    <v>      11.21311997       0.01014455      -0.00115085 </v>
    <v>       0.01014537      11.21372517      -0.00069648 </v>
    <v>      -0.00164834      -0.00100032      15.97051382 </v>
   </varray>
   <i name="volume">   2008.14424064 </i>
   <varray name="rec_basis" >
    <v>       0.08918132      -0.00008068       0.00000920 </v>
    <v>      -0.00008068       0.08917651       0.00000558 </v>
    <v>       0.00000642       0.00000388       0.06261539 </v>
   </varray>
  </crystal>
  <varray name="positions" >
   <v>       0.99770948       0.25550777       0.12665586 </v>
   <v>       0.00258547       0.25148400       0.62559737 </v>
   <v>       0.00051819       0.74681546       0.13293936 </v>
   <v>       0.99650515       0.74737408       0.62070510 </v>
   <v>       0.50004601       0.24941673       0.12671020 </v>
   <v>       0.49627184       0.24619784       0.62775625 </v>
   <v>       0.49882841       0.75205678       0.12902758 </v>
   <v>       0.50489083       0.75252911       0.62395405 </v>
   <v>       0.99999176       0.25195038       0.37661675 </v>
   <v>       0.99911381       0.25427112       0.87131222 </v>
   <v>       0.00126048       0.74707212       0.37701442 </v>
   <v>       0.99270548       0.74711380       0.86885854 </v>
   <v>       0.49964443       0.24948670       0.37633014 </v>
   <v>       0.49902758       0.24782139       0.86985617 </v>
   <v>       0.49967993       0.74997526       0.37464111 </v>
   <v>       0.50881412       0.75601136       0.87178169 </v>
   <v>       0.25582650       0.00210000       0.13005610 </v>
   <v>       0.25329672       0.00713414       0.62425837 </v>
   <v>       0.24860873       0.49830002       0.13000899 </v>
   <v>       0.24724345       0.49291290       0.62303680 </v>
   <v>       0.74417279       0.00582774       0.13028635 </v>
   <v>       0.74739459       0.99991920       0.62535189 </v>
   <v>       0.75023258       0.49374026       0.12930852 </v>
   <v>       0.75293569       0.50025927       0.62418729 </v>
   <v>       0.25072023       0.99899486       0.37549852 </v>
   <v>       0.26036775       0.01261732       0.86783646 </v>
   <v>       0.24707890       0.50052687       0.37557982 </v>
   <v>       0.24897010       0.48817016       0.86996082 </v>
   <v>       0.74968818       0.99999665       0.37673291 </v>
   <v>       0.74160593       0.00762482       0.86739047 </v>
   <v>       0.75226050       0.49985547       0.37680814 </v>
   <v>       0.75053175       0.49294037       0.87012213 </v>
   <v>       0.01318930       0.00730582       0.99881274 </v>
   <v>       0.00124577       0.00008209       0.50059351 </v>
   <v>       0.00085658       0.50095585       0.99916877 </v>
   <v>       0.50068054       0.00167563       0.99834729 </v>
   <v>       0.49982018       0.99994071       0.50164396 </v>
   <v>       0.49570002       0.49681538       0.99871108 </v>
   <v>       0.49988895       0.50065291       0.50030096 </v>
   <v>       0.25285253       0.25415325       0.99948939 </v>
   <v>       0.24803021       0.25112445       0.50067434 </v>
   <v>       0.24998847       0.74940865       0.00971559 </v>
   <v>       0.24964366       0.74878695       0.49522658 </v>
   <v>       0.74921162       0.25027011       0.00020050 </v>
   <v>       0.75082798       0.25139351       0.50089515 </v>
   <v>       0.74268098       0.73656760       0.00101809 </v>
   <v>       0.75074693       0.74830711       0.49947789 </v>
   <v>       0.24935320       0.24971050       0.25007819 </v>
   <v>       0.25050861       0.75087820       0.74081373 </v>
   <v>       0.74964427       0.24992313       0.25060026 </v>
   <v>       0.74899293       0.24920428       0.74748246 </v>
   <v>       0.75090651       0.75082495       0.25053352 </v>
   <v>       0.74990135       0.75187487       0.74887732 </v>
   <v>       0.00064853       0.99759763       0.25092253 </v>
   <v>       0.00002839       0.99904012       0.75075595 </v>
   <v>       0.00116772       0.50173358       0.25243811 </v>
   <v>       0.00112614       0.49875103       0.74897471 </v>
   <v>       0.49833356       0.99808476       0.25159282 </v>
   <v>       0.49793330       0.50176494       0.25025967 </v>
   <v>       0.49870144       0.49984510       0.75025171 </v>
   <v>       0.00019556       0.50010271       0.50027764 </v>
   <v>       0.25050986       0.24890084       0.74923450 </v>
   <v>       0.24997800       0.75009217       0.25364956 </v>
   <v>       0.49881698       0.00094173       0.74952736 </v>
   <v>       0.10933959       0.13708698       0.24205386 </v>
   <v>       0.11079501       0.13115702       0.75778438 </v>
   <v>       0.11070472       0.63777640       0.25102281 </v>
   <v>       0.11839358       0.63797994       0.76163214 </v>
   <v>       0.61140098       0.13782457       0.24646626 </v>
   <v>       0.61619771       0.13820205       0.75000477 </v>
   <v>       0.61263995       0.64033381       0.24401028 </v>
   <v>       0.61425858       0.63848752       0.75564281 </v>
   <v>       0.38854506       0.36115649       0.24913436 </v>
   <v>       0.38745481       0.36746744       0.74988890 </v>
   <v>       0.39014934       0.86153664       0.25024971 </v>
   <v>       0.38029210       0.85967136       0.76362259 </v>
   <v>       0.88784728       0.36172172       0.24768063 </v>
   <v>       0.88693760       0.36279265       0.74863635 </v>
   <v>       0.88966532       0.85970140       0.25596223 </v>
   <v>       0.88833887       0.86048542       0.74370302 </v>
   <v>       0.36075615       0.11121917       0.25009670 </v>
   <v>       0.36445712       0.11458155       0.74803305 </v>
   <v>       0.36220053       0.61002079       0.25065902 </v>
   <v>       0.36107689       0.61789463       0.76254861 </v>
   <v>       0.86123516       0.11053059       0.24788341 </v>
   <v>       0.86342535       0.11140038       0.74863261 </v>
   <v>       0.85998636       0.61126468       0.24622186 </v>
   <v>       0.86234606       0.61355544       0.75354966 </v>
   <v>       0.13813699       0.38762137       0.24907053 </v>
   <v>       0.13451251       0.38620467       0.75033565 </v>
   <v>       0.13806678       0.89100056       0.24689837 </v>
   <v>       0.13777538       0.88098427       0.76634649 </v>
   <v>       0.63773378       0.38854175       0.24875830 </v>
   <v>       0.63791069       0.38860229       0.74728422 </v>
   <v>       0.63971526       0.88921806       0.24878952 </v>
   <v>       0.63773201       0.88553783       0.75048321 </v>
   <v>       0.35596315       0.39465569       0.00120547 </v>
   <v>       0.36027222       0.39097193       0.49835327 </v>
   <v>       0.35622137       0.88642045       0.98917347 </v>
   <v>       0.35901903       0.89074001       0.49929177 </v>
   <v>       0.85877131       0.39216842       0.00218808 </v>
   <v>       0.85861029       0.38818081       0.50098869 </v>
   <v>       0.86028558       0.89011670       0.50094182 </v>
   <v>       0.14380779       0.10683976       0.00052263 </v>
   <v>       0.14054862       0.10883139       0.49922617 </v>
   <v>       0.14664426       0.61119268       0.98818570 </v>
   <v>       0.14268295       0.61176350       0.50029663 </v>
   <v>       0.63995276       0.11066546       0.00237543 </v>
   <v>       0.64001268       0.10954091       0.50081375 </v>
   <v>       0.64393853       0.60543011       0.00043401 </v>
   <v>       0.64000280       0.60901330       0.50049824 </v>
   <v>       0.10778822       0.35792687       0.00004708 </v>
   <v>       0.11089010       0.35941430       0.49986730 </v>
   <v>       0.10794309       0.85410251       0.99114922 </v>
   <v>       0.10915089       0.85951768       0.49918932 </v>
   <v>       0.60731158       0.35859746       0.00147002 </v>
   <v>       0.60854227       0.36018797       0.50234717 </v>
   <v>       0.61928125       0.86307968       0.00165029 </v>
   <v>       0.61027358       0.85906139       0.49860095 </v>
   <v>       0.39060952       0.14152130       0.00057015 </v>
   <v>       0.39015397       0.14018995       0.49985480 </v>
   <v>       0.39071671       0.64532858       0.98918309 </v>
   <v>       0.39136472       0.64204671       0.49942859 </v>
   <v>       0.88775473       0.13284808       0.00217153 </v>
   <v>       0.89078248       0.13847331       0.50180972 </v>
   <v>       0.89604346       0.65132332       0.00087184 </v>
   <v>       0.88820511       0.64154365       0.49909735 </v>
   <v>       0.98514778       0.97932426       0.11754833 </v>
   <v>       0.00974460       0.99714306       0.62695921 </v>
   <v>       0.00564254       0.50361246       0.12265470 </v>
   <v>       0.00233918       0.50750515       0.62769115 </v>
   <v>       0.49342331       0.99533575       0.12353943 </v>
   <v>       0.49815305       0.99377679       0.62429700 </v>
   <v>       0.49622785       0.50445197       0.12246393 </v>
   <v>       0.49518934       0.50862128       0.62654216 </v>
   <v>       0.00164512       0.00364127       0.37440905 </v>
   <v>       0.97596441       0.98771934       0.88054984 </v>
   <v>       0.99772842       0.49951583       0.37336612 </v>
   <v>       0.99375683       0.49536575       0.87630158 </v>
   <v>       0.50184915       0.00136270       0.37437882 </v>
   <v>       0.50439747       0.00407706       0.87716588 </v>
   <v>       0.50344962       0.50165508       0.37451512 </v>
   <v>       0.50513381       0.49359492       0.87632525 </v>
   <v>       0.24686745       0.24767281       0.37317522 </v>
   <v>       0.25144286       0.25112916       0.87801248 </v>
   <v>       0.24959567       0.75149718       0.37558224 </v>
   <v>       0.74924878       0.24888140       0.37473239 </v>
   <v>       0.75151654       0.25160530       0.87552476 </v>
   <v>       0.74691697       0.74709152       0.37388074 </v>
   <v>       0.76021137       0.76504181       0.88033832 </v>
   <v>       0.25136538       0.25045131       0.12417991 </v>
   <v>       0.24745561       0.24962668       0.62331814 </v>
   <v>       0.25175175       0.74846244       0.12432890 </v>
   <v>       0.25016828       0.75316807       0.62576067 </v>
   <v>       0.75032448       0.25138699       0.12477526 </v>
   <v>       0.75057379       0.24875422       0.62476396 </v>
   <v>       0.76245530       0.76493329       0.12134147 </v>
   <v>       0.74710334       0.74662731       0.62496184 </v>
  </varray>
 </structure>
 <calculation>
  <scstep>
   <time name="dav">  600.71  600.80</time>
   <time name="total">  607.94  608.06</time>
   <energy>
    <i name="alphaZ">   5625.23221298 </i>
    <i name="ewald"> -60814.25447431 </i>
    <i name="hartreedc"> -15668.12779991 </i>
    <i name="XCdc">   2852.09139662 </i>
    <i name="pawpsdc"> 112023.92713425 </i>
    <i name="pawaedc">-110771.80422113 </i>
    <i name="eentropy">     -0.00000000 </i>
    <i name="bandstr">  -7049.22430781 </i>
    <i name="atom">  72650.08363186 </i>
    <i name="e_fr_energy">  -1152.07642744 </i>
    <i name="e_wo_entrp">  -1152.07642744 </i>
    <i name="e_0_energy">  -1152.07642744 </i>
   </energy>
  </scstep>
  <scstep>
   <time name="diag">   65.08   65.09</time>
   <time name="diis">   62.97   62.98</time>
   <time name="orth">   33.35   33.34</time>
   <time name="total">  168.67  168.74</time>
   <energy>
    <i name="e_fr_energy">  -1152.07642822 </i>
    <i name="e_wo_entrp">  -1152.07642822 </i>
    <i name="e_0_energy">  -1152.07642822 </i>
   </energy>
  </scstep>
  <scstep>
   <time name="diag">   65.03   65.06</time>
   <time name="diis">   59.11   59.11</time>
   <time name="orth">   33.37   33.37</time>
   <time name="total">  164.77  165.10</time>
   <energy>
    <i name="e_fr_energy">  -1152.07642849 </i>
    <i name="e_wo_entrp">  -1152.07642849 </i>
    <i name="e_0_energy">  -1152.07642849 </i>
   </energy>
  </scstep>
  <scstep>
   <time name="diag">   64.99   64.99</time>
   <time name="diis">   51.51   51.51</time>
   <time name="orth">   33.28   33.28</time>
   <time name="total">  157.05  157.11</time>
   <energy>
    <i name="e_fr_energy">  -1152.07642912 </i>
    <i name="e_wo_entrp">  -1152.07642912 </i>
    <i name="e_0_energy">  -1152.07642912 </i>
   </energy>
  </scstep>
  <scstep>
   <time name="diag">   65.07   65.09</time>
   <time name="diis">   50.39   50.40</time>
   <time name="orth">   33.40   33.40</time>
   <time name="total">  156.09  156.20</time>
   <energy>
    <i name="e_fr_energy">  -1152.07642979 </i>
    <i name="e_wo_entrp">  -1152.07642979 </i>
    <i name="e_0_energy">  -1152.07642979 </i>
   </energy>
  </scstep>
  <scstep>
   <time name="diag">   65.14   65.14</time>
   <time name="diis">   46.54   46.56</time>
   <time name="orth">   33.36   33.36</time>
   <time name="total">  152.29  152.37</time>
   <energy>
    <i name="e_fr_energy">  -1152.07643010 </i>
    <i name="e_wo_entrp">  -1152.07643010 </i>
    <i name="e_0_energy">  -1152.07643010 </i>
   </energy>
  </scstep>
  <scstep>
   <time name="diag">   64.67   64.67</time>
   <time name="diis">   45.79   45.80</time>
   <time name="orth">   33.31   33.32</time>
   <time name="total">  151.00  151.10</time>
   <energy>
    <i name="e_fr_energy">  -1152.07643024 </i>
    <i name="e_wo_entrp">  -1152.07643024 </i>
    <i name="e_0_energy">  -1152.07643024 </i>
   </energy>
  </scstep>
  <scstep>
   <time name="diag">   64.58   64.61</time>
   <time name="diis">   44.01   44.01</time>
   <time name="orth">   33.31   33.31</time>
   <time name="total">  142.94  143.03</time>
   <energy>
    <i name="alphaZ">   5625.23221298 </i>
    <i name="ewald"> -60814.25447431 </i>
    <i name="hartreedc"> -15668.14904243 </i>
    <i name="XCdc">   2852.09198138 </i>
    <i name="pawpsdc"> 112022.62216571 </i>
    <i name="pawaedc">-110770.47597771 </i>
    <i name="eentropy">     -0.00000000 </i>
    <i name="bandstr">  -7049.22692779 </i>
    <i name="atom">  72650.08363186 </i>
    <i name="e_fr_energy">  -1152.07643030 </i>
    <i name="e_wo_entrp">  -1152.07643030 </i>
    <i name="e_0_energy">  -1152.07643030 </i>
   </energy>
  </scstep>
  <structure>
   <crystal>
    <varray name="basis" >
     <v>      11.21311997       0.01014455      -0.00115085 </v>
     <v>       0.01014537      11.21372517      -0.00069648 </v>
     <v>      -0.00164834      -0.00100032      15.97051382 </v>
    </varray>
    <i name="volume">   2008.14424064 </i>
    <varray name="rec_basis" >
     <v>       0.08918132      -0.00008068       0.00000920 </v>
     <v>      -0.00008068       0.08917651       0.00000558 </v>
     <v>       0.00000642       0.00000388       0.06261539 </v>
    </varray>
   </crystal>
   <varray name="positions" >
    <v>       0.99770948       0.25550777       0.12665586 </v>
    <v>       0.00258547       0.25148400       0.62559737 </v>
    <v>       0.00051819       0.74681546       0.13293936 </v>
    <v>       0.99650515       0.74737408       0.62070510 </v>
    <v>       0.50004601       0.24941673       0.12671020 </v>
    <v>       0.49627184       0.24619784       0.62775625 </v>
    <v>       0.49882841       0.75205678       0.12902758 </v>
    <v>       0.50489083       0.75252911       0.62395405 </v>
    <v>       0.99999176       0.25195038       0.37661675 </v>
    <v>       0.99911381       0.25427112       0.87131222 </v>
    <v>       0.00126048       0.74707212       0.37701442 </v>
    <v>       0.99270548       0.74711380       0.86885854 </v>
    <v>       0.49964443       0.24948670       0.37633014 </v>
    <v>       0.49902758       0.24782139       0.86985617 </v>
    <v>       0.49967993       0.74997526       0.37464111 </v>
    <v>       0.50881412       0.75601136       0.87178169 </v>
    <v>       0.25582650       0.00210000       0.13005610 </v>
    <v>       0.25329672       0.00713414       0.62425837 </v>
    <v>       0.24860873       0.49830002       0.13000899 </v>
    <v>       0.24724345       0.49291290       0.62303680 </v>
    <v>       0.74417279       0.00582774       0.13028635 </v>
    <v>       0.74739459       0.99991920       0.62535189 </v>
    <v>       0.75023258       0.49374026       0.12930852 </v>
    <v>       0.75293569       0.50025927       0.62418729 </v>
    <v>       0.25072023       0.99899486       0.37549852 </v>
    <v>       0.26036775       0.01261732       0.86783646 </v>
    <v>       0.24707890       0.50052687       0.37557982 </v>
    <v>       0.24897010       0.48817016       0.86996082 </v>
    <v>       0.74968818       0.99999665       0.37673291 </v>
    <v>       0.74160593       0.00762482       0.86739047 </v>
    <v>       0.75226050       0.49985547       0.37680814 </v>
    <v>       0.75053175       0.49294037       0.87012213 </v>
    <v>       0.01318930       0.00730582       0.99881274 </v>
    <v>       0.00124577       0.00008209       0.50059351 </v>
    <v>       0.00085658       0.50095585       0.99916877 </v>
    <v>       0.50068054       0.00167563       0.99834729 </v>
    <v>       0.49982018       0.99994071       0.50164396 </v>
    <v>       0.49570002       0.49681538       0.99871108 </v>
    <v>       0.49988895       0.50065291       0.50030096 </v>
    <v>       0.25285253       0.25415325       0.99948939 </v>
    <v>       0.24803021       0.25112445       0.50067434 </v>
    <v>       0.24998847       0.74940865       0.00971559 </v>
    <v>       0.24964366       0.74878695       0.49522658 </v>
    <v>       0.74921162       0.25027011       0.00020050 </v>
    <v>       0.75082798       0.25139351       0.50089515 </v>
    <v>       0.74268098       0.73656760       0.00101809 </v>
    <v>       0.75074693       0.74830711       0.49947789 </v>
    <v>       0.24935320       0.24971050       0.25007819 </v>
    <v>       0.25050861       0.75087820       0.74081373 </v>
    <v>       0.74964427       0.24992313       0.25060026 </v>
    <v>       0.74899293       0.24920428       0.74748246 </v>
    <v>       0.75090651       0.75082495       0.25053352 </v>
    <v>       0.74990135       0.75187487       0.74887732 </v>
    <v>       0.00064853       0.99759763       0.25092253 </v>
    <v>       0.00002839       0.99904012       0.75075595 </v>
    <v>       0.00116772       0.50173358       0.25243811 </v>
    <v>       0.00112614       0.49875103       0.74897471 </v>
    <v>       0.49833356       0.99808476       0.25159282 </v>
    <v>       0.49793330       0.50176494       0.25025967 </v>
    <v>       0.49870144       0.49984510       0.75025171 </v>
    <v>       0.00019556       0.50010271       0.50027764 </v>
    <v>       0.25050986       0.24890084       0.74923450 </v>
    <v>       0.24997800       0.75009217       0.25364956 </v>
    <v>       0.49881698       0.00094173       0.74952736 </v>
    <v>       0.10933959       0.13708698       0.24205386 </v>
    <v>       0.11079501       0.13115702       0.75778438 </v>
    <v>       0.11070472       0.63777640       0.25102281 </v>
    <v>       0.11839358       0.63797994       0.76163214 </v>
    <v>       0.61140098       0.13782457       0.24646626 </v>
    <v>       0.61619771       0.13820205       0.75000477 </v>
    <v>       0.61263995       0.64033381       0.24401028 </v>
    <v>       0.61425858       0.63848752       0.75564281 </v>
    <v>       0.38854506       0.36115649       0.24913436 </v>
    <v>       0.38745481       0.36746744       0.74988890 </v>
    <v>       0.39014934       0.86153664       0.25024971 </v>
    <v>       0.38029210       0.85967136       0.76362259 </v>
    <v>       0.88784728       0.36172172       0.24768063 </v>
    <v>       0.88693760       0.36279265       0.74863635 </v>
    <v>       0.88966532       0.85970140       0.25596223 </v>
    <v>       0.88833887       0.86048542       0.74370302 </v>
    <v>       0.36075615       0.11121917       0.25009670 </v>
    <v>       0.36445712       0.11458155       0.74803305 </v>
    <v>       0.36220053       0.61002079       0.25065902 </v>
    <v>       0.36107689       0.61789463       0.76254861 </v>
    <v>       0.86123516       0.11053059       0.24788341 </v>
    <v>       0.86342535       0.11140038       0.74863261 </v>
    <v>       0.85998636       0.61126468       0.24622186 </v>
    <v>       0.86234606       0.61355544       0.75354966 </v>
    <v>       0.13813699       0.38762137       0.24907053 </v>
    <v>       0.13451251       0.38620467       0.75033565 </v>
    <v>       0.13806678       0.89100056       0.24689837 </v>
    <v>       0.13777538       0.88098427       0.76634649 </v>
    <v>       0.63773378       0.38854175       0.24875830 </v>
    <v>       0.63791069       0.38860229       0.74728422 </v>
    <v>       0.63971526       0.88921806       0.24878952 </v>
    <v>       0.63773201       0.88553783       0.75048321 </v>
    <v>       0.35596315       0.39465569       0.00120547 </v>
    <v>       0.36027222       0.39097193       0.49835327 </v>
    <v>       0.35622137       0.88642045       0.98917347 </v>
    <v>       0.35901903       0.89074001       0.49929177 </v>
    <v>       0.85877131       0.39216842       0.00218808 </v>
    <v>       0.85861029       0.38818081       0.50098869 </v>
    <v>       0.86028558       0.89011670       0.50094182 </v>
    <v>       0.14380779       0.10683976       0.00052263 </v>
    <v>       0.14054862       0.10883139       0.49922617 </v>
    <v>       0.14664426       0.61119268       0.98818570 </v>
    <v>       0.14268295       0.61176350       0.50029663 </v>
    <v>       0.63995276       0.11066546       0.00237543 </v>
    <v>       0.64001268       0.10954091       0.50081375 </v>
    <v>       0.64393853       0.60543011       0.00043401 </v>
    <v>       0.64000280       0.60901330       0.50049824 </v>
    <v>       0.10778822       0.35792687       0.00004708 </v>
    <v>       0.11089010       0.35941430       0.49986730 </v>
    <v>       0.10794309       0.85410251       0.99114922 </v>
    <v>       0.10915089       0.85951768       0.49918932 </v>
    <v>       0.60731158       0.35859746       0.00147002 </v>
    <v>       0.60854227       0.36018797       0.50234717 </v>
    <v>       0.61928125       0.86307968       0.00165029 </v>
    <v>       0.61027358       0.85906139       0.49860095 </v>
    <v>       0.39060952       0.14152130       0.00057015 </v>
    <v>       0.39015397       0.14018995       0.49985480 </v>
    <v>       0.39071671       0.64532858       0.98918309 </v>
    <v>       0.39136472       0.64204671       0.49942859 </v>
    <v>       0.88775473       0.13284808       0.00217153 </v>
    <v>       0.89078248       0.13847331       0.50180972 </v>
    <v>       0.89604346       0.65132332       0.00087184 </v>
    <v>       0.88820511       0.64154365       0.49909735 </v>
    <v>       0.98514778       0.97932426       0.11754833 </v>
    <v>       0.00974460       0.99714306       0.62695921 </v>
    <v>       0.00564254       0.50361246       0.12265470 </v>
    <v>       0.00233918       0.50750515       0.62769115 </v>
    <v>       0.49342331       0.99533575       0.12353943 </v>
    <v>       0.49815305       0.99377679       0.62429700 </v>
    <v>       0.49622785       0.50445197       0.12246393 </v>
    <v>       0.49518934       0.50862128       0.62654216 </v>
    <v>       0.00164512       0.00364127       0.37440905 </v>
    <v>       0.97596441       0.98771934       0.88054984 </v>
    <v>       0.99772842       0.49951583       0.37336612 </v>
    <v>       0.99375683       0.49536575       0.87630158 </v>
    <v>       0.50184915       0.00136270       0.37437882 </v>
    <v>       0.50439747       0.00407706       0.87716588 </v>
    <v>       0.50344962       0.50165508       0.37451512 </v>
    <v>       0.50513381       0.49359492       0.87632525 </v>
    <v>       0.24686745       0.24767281       0.37317522 </v>
    <v>       0.25144286       0.25112916       0.87801248 </v>
    <v>       0.24959567       0.75149718       0.37558224 </v>
    <v>       0.74924878       0.24888140       0.37473239 </v>
    <v>       0.75151654       0.25160530       0.87552476 </v>
    <v>       0.74691697       0.74709152       0.37388074 </v>
    <v>       0.76021137       0.76504181       0.88033832 </v>
    <v>       0.25136538       0.25045131       0.12417991 </v>
    <v>       0.24745561       0.24962668       0.62331814 </v>
    <v>       0.25175175       0.74846244       0.12432890 </v>
    <v>       0.25016828       0.75316807       0.62576067 </v>
    <v>       0.75032448       0.25138699       0.12477526 </v>
    <v>       0.75057379       0.24875422       0.62476396 </v>
    <v>       0.76245530       0.76493329       0.12134147 </v>
    <v>       0.74710334       0.74662731       0.62496184 </v>
   </varray>
  </structure>
  <varray name="forces" >
   <v>      -0.00462331       0.00563784      -0.01186558 </v>
   <v>      -0.00565220      -0.00360112      -0.00305821 </v>
   <v>      -0.01132174       0.00833739      -0.02418083 </v>
   <v>       0.00208342      -0.00315724       0.00668585 </v>
   <v>       0.01149043       0.00256945      -0.01319682 </v>
   <v>       0.00876345       0.01732241       0.00262577 </v>
   <v>      -0.00354245       0.00179692      -0.01822751 </v>
   <v>      -0.00060035      -0.00386075       0.00085082 </v>
   <v>      -0.00396684      -0.00353214      -0.00996822 </v>
   <v>       0.00268947      -0.00000519       0.01428979 </v>
   <v>       0.00318467      -0.00082400      -0.01219837 </v>
   <v>      -0.00201043      -0.01599040       0.02411714 </v>
   <v>       0.00152896       0.00473085      -0.01391908 </v>
   <v>      -0.00380418       0.00354074       0.00516895 </v>
   <v>       0.00667408       0.00581834      -0.00048550 </v>
   <v>      -0.00871133      -0.00657923       0.01214459 </v>
   <v>      -0.00077938       0.00968215      -0.02178094 </v>
   <v>       0.01480549       0.01132513       0.00737534 </v>
   <v>       0.00704403      -0.00809431      -0.01180760 </v>
   <v>      -0.00010785      -0.00995378       0.01269106 </v>
   <v>      -0.00689953       0.02690870      -0.00788827 </v>
   <v>      -0.00560619       0.00018690       0.00759533 </v>
   <v>      -0.01494342      -0.02701773      -0.01454777 </v>
   <v>       0.00142823      -0.00624429       0.01095336 </v>
   <v>      -0.00524260       0.01085473      -0.00656353 </v>
   <v>      -0.00122985      -0.00016342       0.02968924 </v>
   <v>       0.00540868      -0.00945184      -0.00978515 </v>
   <v>       0.00674259       0.00309708       0.01594075 </v>
   <v>      -0.00514281       0.00523531      -0.00864168 </v>
   <v>      -0.01552333       0.00865267       0.01255358 </v>
   <v>      -0.00546382      -0.00842410      -0.01272295 </v>
   <v>      -0.00501756       0.00105162       0.00750505 </v>
   <v>       0.03541029       0.04213626       0.02456316 </v>
   <v>       0.01469674      -0.00636371      -0.01206590 </v>
   <v>       0.00265290       0.02094680       0.00154150 </v>
   <v>      -0.00540212      -0.00570967       0.00716326 </v>
   <v>      -0.00834662      -0.03328909      -0.01912989 </v>
   <v>      -0.00344400       0.01613307      -0.00352297 </v>
   <v>      -0.00095648       0.00975155      -0.00591266 </v>
   <v>       0.00857142       0.00204561       0.00660124 </v>
   <v>      -0.00157104      -0.01041526      -0.02148123 </v>
   <v>       0.00769760      -0.00117941      -0.02093475 </v>
   <v>       0.00609170       0.00349489       0.00887034 </v>
   <v>      -0.00757927       0.00254056       0.03378812 </v>
   <v>       0.00644135       0.00703996      -0.02259388 </v>
   <v>      -0.04595241      -0.04793089      -0.02473098 </v>
   <v>      -0.01249452       0.00215195      -0.00722952 </v>
   <v>       0.00505055       0.00041109      -0.02378461 </v>
   <v>       0.00663197      -0.00181898       0.00746320 </v>
   <v>      -0.00741483       0.00720028      -0.01441002 </v>
   <v>      -0.01535746       0.03933918       0.01824657 </v>
   <v>      -0.00176524       0.00784723       0.00025305 </v>
   <v>       0.00414586      -0.00675387       0.01048826 </v>
   <v>       0.00136257      -0.00049998      -0.02588416 </v>
   <v>       0.01732982      -0.03424406       0.01849804 </v>
   <v>       0.00643988      -0.01471729      -0.00684426 </v>
   <v>       0.00626096       0.02069504       0.01844229 </v>
   <v>      -0.00135628       0.00717200      -0.02023059 </v>
   <v>      -0.00381896      -0.01280862      -0.02441202 </v>
   <v>      -0.00395391       0.00988357       0.02278677 </v>
   <v>      -0.00424844      -0.00033654      -0.00907366 </v>
   <v>       0.00300954       0.01100169       0.01417739 </v>
   <v>       0.00561257      -0.00409991      -0.01008926 </v>
   <v>      -0.01169112      -0.02132232      -0.00039824 </v>
   <v>      -0.00591986      -0.01233395      -0.00153891 </v>
   <v>      -0.00441460      -0.01826008       0.01176845 </v>
   <v>       0.01717394      -0.01508767       0.00237644 </v>
   <v>       0.00153129      -0.04083868      -0.00381748 </v>
   <v>      -0.00194057      -0.00124039       0.01741500 </v>
   <v>      -0.00997409      -0.00991162       0.00070852 </v>
   <v>       0.02018979       0.01165446       0.00102098 </v>
   <v>       0.01754876      -0.01887416      -0.00708195 </v>
   <v>      -0.00570571       0.00340551       0.01248405 </v>
   <v>      -0.01925732       0.00010436      -0.01143320 </v>
   <v>      -0.01371476      -0.00014232       0.00905412 </v>
   <v>       0.00463827       0.03000114      -0.00918313 </v>
   <v>       0.00322268       0.01297265       0.01562849 </v>
   <v>      -0.01133258      -0.00206107      -0.00022500 </v>
   <v>      -0.01121338       0.00109948      -0.00019953 </v>
   <v>       0.00250935       0.02626987      -0.01150728 </v>
   <v>      -0.00280183       0.00654559       0.00434135 </v>
   <v>       0.02417771       0.03150909      -0.01271073 </v>
   <v>       0.00495843       0.00737490       0.00897537 </v>
   <v>       0.02066746       0.01268734       0.02444172 </v>
   <v>       0.01198727      -0.01451805       0.01164540 </v>
   <v>       0.01033263      -0.00261203       0.00779136 </v>
   <v>       0.00129356       0.01683189       0.01135719 </v>
   <v>       0.02789874       0.01546038      -0.00310933 </v>
   <v>      -0.01328692      -0.00511637       0.00755324 </v>
   <v>      -0.02882293      -0.03303738      -0.01858639 </v>
   <v>      -0.01526179       0.00040797      -0.00429026 </v>
   <v>      -0.02786507       0.01838178       0.02509076 </v>
   <v>       0.00333178       0.00533773       0.01636525 </v>
   <v>       0.00929507      -0.00208491      -0.00965725 </v>
   <v>       0.00704577      -0.02648539       0.00433474 </v>
   <v>      -0.01967865      -0.01771952      -0.01035644 </v>
   <v>       0.01953044      -0.00362627       0.00399583 </v>
   <v>       0.00256555       0.00509819       0.01144798 </v>
   <v>       0.02265781      -0.01366231       0.01667908 </v>
   <v>       0.00840553      -0.00305522      -0.00903526 </v>
   <v>      -0.00126069       0.00153617      -0.00664679 </v>
   <v>      -0.00150774      -0.00686011      -0.00866058 </v>
   <v>       0.00770699       0.00242483      -0.00437628 </v>
   <v>      -0.04952781      -0.03052461      -0.00645698 </v>
   <v>       0.00248066       0.00098698       0.00834480 </v>
   <v>      -0.01584073       0.02699527       0.00280985 </v>
   <v>      -0.01639102       0.00585902       0.00418043 </v>
   <v>       0.00343342       0.00566379      -0.01105390 </v>
   <v>       0.01344522       0.00264519      -0.00579557 </v>
   <v>       0.00768538       0.03058272       0.00223880 </v>
   <v>      -0.00084805      -0.01312393      -0.00068884 </v>
   <v>      -0.00955845       0.03975751       0.00016655 </v>
   <v>       0.00118326       0.00218006       0.00207629 </v>
   <v>      -0.00183395       0.00622129       0.00527431 </v>
   <v>      -0.00144190      -0.00860453      -0.00405560 </v>
   <v>      -0.00104303      -0.02503980      -0.00087407 </v>
   <v>      -0.00548788      -0.01776642       0.00354561 </v>
   <v>       0.01275258       0.01994819       0.01071764 </v>
   <v>       0.00294708       0.00895718       0.00510170 </v>
   <v>       0.02551855      -0.02007902      -0.00816869 </v>
   <v>       0.00190823      -0.00007973       0.00421806 </v>
   <v>      -0.03207055       0.00657183      -0.00253326 </v>
   <v>       0.00164770      -0.00577370       0.00033989 </v>
   <v>       0.01338683       0.00369214      -0.01957979 </v>
   <v>       0.00055233       0.01296045      -0.00236066 </v>
   <v>      -0.00941748       0.00141752       0.00983384 </v>
   <v>       0.00069283      -0.01363507       0.00297749 </v>
   <v>      -0.00412973       0.01746371      -0.01073111 </v>
   <v>      -0.01503059      -0.00124597       0.01548156 </v>
   <v>      -0.00430149       0.00342181       0.00061073 </v>
   <v>       0.00031420      -0.01908574      -0.01820100 </v>
   <v>       0.01845504       0.00135001      -0.00381901 </v>
   <v>       0.00161975       0.01705847       0.00185393 </v>
   <v>      -0.00768306      -0.00872446       0.01520600 </v>
   <v>       0.00713467      -0.00157921      -0.00816804 </v>
   <v>       0.00691225      -0.01830892       0.00091883 </v>
   <v>       0.00389507      -0.01450278       0.00788889 </v>
   <v>       0.01034621       0.00885374       0.02308882 </v>
   <v>       0.00788163       0.00347213       0.00933150 </v>
   <v>      -0.00971570      -0.00356726       0.02828552 </v>
   <v>       0.00467802      -0.01315275       0.00346250 </v>
   <v>      -0.00833474       0.00237770       0.02774035 </v>
   <v>      -0.01344586      -0.00281587      -0.01810725 </v>
   <v>       0.01029235      -0.00464129       0.01399406 </v>
   <v>       0.01222525       0.00964389      -0.04181271 </v>
   <v>      -0.00830329       0.00256005       0.01510249 </v>
   <v>      -0.00469003      -0.00695097       0.03416348 </v>
   <v>      -0.00073985       0.00629957      -0.01289995 </v>
   <v>       0.01579486       0.00300800      -0.01700409 </v>
   <v>       0.00744401       0.00140429      -0.00979121 </v>
   <v>      -0.00643652       0.01303989       0.00977584 </v>
   <v>      -0.00327971      -0.01034712       0.01045786 </v>
   <v>       0.00603304      -0.00975683       0.00460286 </v>
   <v>      -0.00822850      -0.00293639      -0.06361509 </v>
   <v>       0.00712352       0.00041785      -0.01717555 </v>
   <v>       0.00171244      -0.00573885      -0.00196527 </v>
   <v>       0.00333403      -0.01100843       0.01362782 </v>
   <v>       0.00653191       0.01445378       0.00587657 </v>
  </varray>
  <varray name="stress" >
   <v>       0.01169992      -0.05151542       0.05643270 </v>
   <v>      -0.05151618       0.10611095      -0.02983365 </v>
   <v>       0.05643258      -0.02983381       0.31023439 </v>
  </varray>
  <energy>
   <i name="e_fr_energy">  -1152.07643030 </i>
   <i name="e_wo_entrp">  -1152.07643030 </i>
   <i name="e_0_energy">     -0.00000000 </i>
  </energy>
  <time name="totalsc"> 1966.03 1968.89</time>
 </calculation>
 <calculation>
  <scstep>
   <time name="dav">  568.15  568.20</time>
   <time name="total">  575.28  575.40</time>
   <energy>
    <i name="alphaZ">   5624.31085269 </i>
    <i name="ewald"> -60811.59978934 </i>
    <i name="hartreedc"> -15666.69345149 </i>
    <i name="XCdc">   2851.87868097 </i>
    <i name="pawpsdc"> 112022.62292331 </i>
    <i name="pawaedc">-110770.47653062 </i>
    <i name="eentropy">     -0.00000000 </i>
    <i name="bandstr">  -7052.20320629 </i>
    <i name="atom">  72650.08363186 </i>
    <i name="e_fr_energy">  -1152.07688891 </i>
    <i name="e_wo_entrp">  -1152.07688891 </i>
    <i name="e_0_energy">  -1152.07688891 </i>
   </energy>
  </scstep>
  <scstep>
   <time name="diag">   64.64   64.64</time>
   <time name="diis">  104.75  104.76</time>
   <time name="orth">   33.39   33.39</time>
   <time name="total">  209.94  209.96</time>
   <energy>
    <i name="e_fr_energy">  -1152.07818060 </i>
    <i name="e_wo_entrp">  -1152.07818060 </i>
    <i name="e_0_energy">  -1152.07818060 </i>
   </energy>
  </scstep>
  <scstep>
   <time name="diag">   64.65   64.66</time>
   <time name="diis">  105.83  105.84</time>
   <time name="orth">   33.48   33.49</time>
   <time name="total">  211.11  211.38</time>
   <energy>
    <i name="e_fr_energy">  -1152.07795727 </i>
    <i name="e_wo_entrp">  -1152.07795727 </i>
    <i name="e_0_energy">  -1152.07795727 </i>
   </energy>
  </scstep>
  <scstep>
   <time name="diag">   64.80   64.80</time>
   <time name="diis">   91.50   91.52</time>
   <time name="orth">   33.41   33.40</time>
   <time name="total">  196.88  196.95</time>
   <energy>
    <i name="e_fr_energy">  -1152.07776255 </i>
    <i name="e_wo_entrp">  -1152.07776255 </i>
    <i name="e_0_energy">  -1152.07776255 </i>
   </energy>
  </scstep>
  <scstep>
   <time name="diag">   64.74   64.74</time>
   <time name="diis">   72.31   72.32</time>
   <time name="orth">   33.43   33.43</time>
   <time name="total">  177.64  178.00</time>
   <energy>
    <i name="e_fr_energy">  -1152.07768948 </i>
    <i name="e_wo_entrp">  -1152.07768948 </i>
    <i name="e_0_energy">  -1152.07768948 </i>
   </energy>
  </scstep>
  <scstep>
   <time name="diag">   64.81   64.82</time>
   <time name="diis">   63.86   63.88</time>
   <time name="orth">   33.43   33.43</time>
   <time name="total">  169.28  169.39</time>
   <energy>
    <i name="e_fr_energy">  -1152.07769156 </i>
    <i name="e_wo_entrp">  -1152.07769156 </i>
    <i name="e_0_energy">  -1152.07769156 </i>
   </energy>
  </scstep>
  <scstep>
   <time name="diag">   64.92   64.94</time>
   <time name="diis">   62.83   62.83</time>
   <time name="orth">   33.38   33.38</time>
   <time name="total">  168.36  168.45</time>
   <energy>
    <i name="e_fr_energy">  -1152.07769115 </i>
    <i name="e_wo_entrp">  -1152.07769115 </i>
    <i name="e_0_energy">  -1152.07769115 </i>
   </energy>
  </scstep>
  <scstep>
   <time name="diag">   64.84   64.88</time>
   <time name="diis">   61.72   61.76</time>
   <time name="orth">   33.40   33.40</time>
   <time name="total">  161.01  161.19</time>
   <energy>
    <i name="alphaZ">   5624.31085269 </i>
    <i name="ewald"> -60811.59978934 </i>
    <i name="hartreedc"> -15669.05005160 </i>
    <i name="XCdc">   2852.02716755 </i>
    <i name="pawpsdc"> 111968.00797530 </i>
    <i name="pawaedc">-110715.85008250 </i>
    <i name="eentropy">     -0.00000000 </i>
    <i name="bandstr">  -7050.00739379 </i>
    <i name="atom">  72650.08363186 </i>
    <i name="e_fr_energy">  -1152.07768983 </i>
    <i name="e_wo_entrp">  -1152.07768983 </i>
    <i name="e_0_energy">  -1152.07768983 </i>
   </energy>
  </scstep>
  <structure>
   <crystal>
    <varray name="basis" >
     <v>      11.21316996       0.00992391      -0.00090894 </v>
     <v>       0.00992432      11.21418035      -0.00082437 </v>
     <v>      -0.00130342      -0.00118267      15.97240992 </v>
    </varray>
    <i name="volume">   2008.47320972 </i>
    <varray name="rec_basis" >
     <v>       0.08918092      -0.00007892       0.00000727 </v>
     <v>      -0.00007892       0.08917288       0.00000660 </v>
     <v>       0.00000507       0.00000460       0.06260796 </v>
    </varray>
   </crystal>
   <varray name="positions" >
    <v>       0.99768956       0.25553204       0.12662002 </v>
    <v>       0.00256116       0.25146853       0.62558813 </v>
    <v>       0.00046943       0.74685137       0.13286631 </v>
    <v>       0.99651412       0.74736049       0.62072529 </v>
    <v>       0.50009543       0.24942773       0.12667034 </v>
    <v>       0.49630948       0.24627233       0.62776419 </v>
    <v>       0.49881315       0.75206452       0.12897252 </v>
    <v>       0.50488827       0.75251250       0.62395662 </v>
    <v>       0.99997471       0.25193520       0.37658664 </v>
    <v>       0.99912539       0.25427109       0.87135538 </v>
    <v>       0.00127418       0.74706856       0.37697757 </v>
    <v>       0.99269691       0.74704502       0.86893139 </v>
    <v>       0.49965098       0.24950705       0.37628810 </v>
    <v>       0.49901120       0.24783664       0.86987178 </v>
    <v>       0.49970862       0.75000026       0.37463965 </v>
    <v>       0.50877668       0.75598310       0.87181837 </v>
    <v>       0.25582310       0.00214165       0.12999031 </v>
    <v>       0.25336038       0.00718280       0.62428065 </v>
    <v>       0.24863906       0.49826516       0.12997333 </v>
    <v>       0.24724303       0.49287008       0.62307513 </v>
    <v>       0.74414299       0.00594353       0.13026253 </v>
    <v>       0.74737047       0.99992003       0.62537483 </v>
    <v>       0.75016839       0.49362408       0.12926457 </v>
    <v>       0.75294187       0.50023240       0.62422038 </v>
    <v>       0.25069763       0.99904158       0.37547869 </v>
    <v>       0.26036248       0.01261663       0.86792615 </v>
    <v>       0.24710220       0.50048618       0.37555026 </v>
    <v>       0.24899911       0.48818346       0.87000897 </v>
    <v>       0.74966603       0.00001919       0.37670681 </v>
    <v>       0.74153912       0.00766211       0.86742839 </v>
    <v>       0.75223702       0.49981925       0.37676970 </v>
    <v>       0.75051016       0.49294491       0.87014480 </v>
    <v>       0.01334149       0.00748697       0.99888696 </v>
    <v>       0.00130902       0.00005466       0.50055707 </v>
    <v>       0.00086791       0.50104596       0.99917343 </v>
    <v>       0.50065732       0.00165109       0.99836892 </v>
    <v>       0.49978439       0.99979752       0.50158617 </v>
    <v>       0.49568514       0.49688480       0.99870044 </v>
    <v>       0.49988479       0.50069486       0.50028310 </v>
    <v>       0.25288940       0.25416202       0.99950934 </v>
    <v>       0.24802348       0.25107964       0.50060945 </v>
    <v>       0.25002159       0.74940354       0.00965235 </v>
    <v>       0.24966986       0.74880196       0.49525338 </v>
    <v>       0.74917901       0.25028108       0.00030256 </v>
    <v>       0.75085565       0.25142377       0.50082690 </v>
    <v>       0.74248345       0.73636157       0.00094336 </v>
    <v>       0.75069316       0.74831642       0.49945604 </v>
    <v>       0.24937491       0.24971224       0.25000634 </v>
    <v>       0.25053715       0.75087036       0.74083628 </v>
    <v>       0.74961233       0.24995413       0.25055673 </v>
    <v>       0.74892671       0.24937358       0.74753758 </v>
    <v>       0.75089888       0.75085872       0.25053428 </v>
    <v>       0.74991922       0.75184580       0.74890900 </v>
    <v>       0.00065438       0.99759547       0.25084434 </v>
    <v>       0.00010309       0.99889273       0.75081182 </v>
    <v>       0.00119548       0.50167024       0.25241743 </v>
    <v>       0.00115301       0.49884005       0.74903043 </v>
    <v>       0.49832769       0.99811562       0.25153171 </v>
    <v>       0.49791691       0.50170985       0.25018593 </v>
    <v>       0.49868440       0.49988765       0.75032055 </v>
    <v>       0.00017727       0.50010127       0.50025023 </v>
    <v>       0.25052277       0.24894816       0.74927733 </v>
    <v>       0.25000216       0.75007451       0.25361908 </v>
    <v>       0.49876676       0.00085005       0.74952615 </v>
    <v>       0.10931417       0.13703394       0.24204921 </v>
    <v>       0.11077609       0.13107849       0.75781993 </v>
    <v>       0.11077866       0.63771142       0.25102999 </v>
    <v>       0.11840033       0.63780424       0.76162060 </v>
    <v>       0.61139265       0.13781925       0.24651886 </v>
    <v>       0.61615483       0.13815945       0.75000691 </v>
    <v>       0.61272677       0.64038387       0.24401337 </v>
    <v>       0.61433416       0.63840625       0.75562142 </v>
    <v>       0.38852051       0.36117117       0.24917207 </v>
    <v>       0.38737195       0.36746796       0.74985435 </v>
    <v>       0.39009034       0.86153608       0.25027705 </v>
    <v>       0.38031193       0.85980041       0.76359486 </v>
    <v>       0.88786110       0.36177752       0.24772784 </v>
    <v>       0.88688885       0.36278383       0.74863566 </v>
    <v>       0.88961707       0.85970617       0.25596163 </v>
    <v>       0.88834956       0.86059842       0.74366826 </v>
    <v>       0.36074407       0.11124734       0.25010982 </v>
    <v>       0.36456101       0.11471700       0.74799467 </v>
    <v>       0.36222184       0.61005250       0.25068614 </v>
    <v>       0.36116577       0.61794914       0.76262245 </v>
    <v>       0.86128679       0.11046809       0.24791859 </v>
    <v>       0.86346982       0.11138910       0.74865615 </v>
    <v>       0.85999186       0.61133709       0.24625617 </v>
    <v>       0.86246603       0.61362184       0.75354027 </v>
    <v>       0.13807985       0.38759941       0.24909334 </v>
    <v>       0.13438862       0.38606265       0.75027949 </v>
    <v>       0.13800112       0.89100238       0.24688541 </v>
    <v>       0.13765543       0.88106346       0.76642228 </v>
    <v>       0.63774810       0.38856470       0.24880774 </v>
    <v>       0.63795069       0.38859328       0.74725505 </v>
    <v>       0.63974568       0.88910409       0.24880261 </v>
    <v>       0.63764741       0.88546167       0.75045192 </v>
    <v>       0.35604719       0.39464001       0.00121755 </v>
    <v>       0.36028324       0.39099386       0.49838786 </v>
    <v>       0.35631891       0.88636159       0.98922386 </v>
    <v>       0.35905521       0.89072683       0.49926448 </v>
    <v>       0.85876588       0.39217503       0.00216800 </v>
    <v>       0.85860383       0.38815130       0.50096253 </v>
    <v>       0.86031873       0.89012710       0.50092860 </v>
    <v>       0.14359482       0.10670863       0.00050311 </v>
    <v>       0.14055929       0.10883563       0.49925138 </v>
    <v>       0.14657600       0.61130888       0.98819419 </v>
    <v>       0.14261241       0.61178877       0.50030925 </v>
    <v>       0.63996750       0.11068981       0.00234204 </v>
    <v>       0.64007051       0.10955224       0.50079624 </v>
    <v>       0.64397148       0.60556165       0.00044078 </v>
    <v>       0.63999920       0.60895684       0.50049616 </v>
    <v>       0.10774694       0.35809795       0.00004759 </v>
    <v>       0.11089518       0.35942368       0.49987357 </v>
    <v>       0.10793517       0.85412928       0.99116515 </v>
    <v>       0.10914472       0.85948067       0.49917707 </v>
    <v>       0.60730719       0.35848974       0.00146738 </v>
    <v>       0.60851873       0.36011156       0.50235787 </v>
    <v>       0.61933604       0.86316545       0.00168268 </v>
    <v>       0.61028623       0.85909992       0.49861636 </v>
    <v>       0.39071938       0.14143482       0.00054548 </v>
    <v>       0.39016219       0.14018960       0.49986754 </v>
    <v>       0.39057871       0.64535698       0.98917543 </v>
    <v>       0.39137183       0.64202187       0.49942962 </v>
    <v>       0.88781230       0.13286391       0.00211239 </v>
    <v>       0.89078480       0.13852907       0.50180259 </v>
    <v>       0.89600294       0.65132946       0.00090154 </v>
    <v>       0.88820814       0.64148499       0.49910635 </v>
    <v>       0.98512994       0.97939940       0.11751592 </v>
    <v>       0.00967995       0.99713776       0.62700597 </v>
    <v>       0.00562402       0.50362720       0.12265654 </v>
    <v>       0.00234060       0.50742303       0.62763617 </v>
    <v>       0.49350270       0.99534148       0.12352790 </v>
    <v>       0.49815995       0.99385017       0.62430260 </v>
    <v>       0.49619483       0.50441447       0.12250986 </v>
    <v>       0.49522004       0.50861446       0.62651749 </v>
    <v>       0.00167493       0.00356248       0.37441183 </v>
    <v>       0.97598123       0.98765694       0.88057367 </v>
    <v>       0.99777291       0.49955389       0.37343587 </v>
    <v>       0.99379074       0.49538066       0.87632977 </v>
    <v>       0.50180738       0.00134740       0.37446425 </v>
    <v>       0.50441764       0.00402046       0.87717634 </v>
    <v>       0.50341376       0.50166535       0.37459891 </v>
    <v>       0.50507597       0.49358285       0.87627055 </v>
    <v>       0.24691176       0.24765281       0.37321750 </v>
    <v>       0.25149540       0.25117059       0.87788618 </v>
    <v>       0.24955995       0.75150823       0.37562786 </v>
    <v>       0.74922864       0.24885152       0.37483558 </v>
    <v>       0.75151332       0.25163240       0.87548579 </v>
    <v>       0.74698491       0.74710439       0.37382938 </v>
    <v>       0.76024338       0.76504782       0.88030874 </v>
    <v>       0.25133764       0.25050744       0.12420944 </v>
    <v>       0.24744154       0.24958218       0.62334973 </v>
    <v>       0.25177774       0.74842045       0.12434280 </v>
    <v>       0.25013286       0.75315545       0.62556850 </v>
    <v>       0.75035512       0.25138875       0.12472338 </v>
    <v>       0.75058118       0.24872953       0.62475802 </v>
    <v>       0.76246969       0.76488592       0.12138264 </v>
    <v>       0.74713138       0.74668947       0.62497960 </v>
   </varray>
  </structure>
  <varray name="forces" >
   <v>      -0.00699710       0.00814489      -0.00675663 </v>
   <v>      -0.00920700      -0.00742991       0.00251329 </v>
   <v>      -0.01190067       0.00618858      -0.01206945 </v>
   <v>      -0.00285597      -0.00223523      -0.00593948 </v>
   <v>       0.01052459      -0.00039495      -0.01011196 </v>
   <v>       0.00532369       0.00212215      -0.00516343 </v>
   <v>       0.00293726       0.00538731       0.00510092 </v>
   <v>       0.00500140      -0.00380407      -0.00471314 </v>
   <v>      -0.00616351      -0.00397469       0.00423520 </v>
   <v>      -0.01101968      -0.00594470      -0.01081524 </v>
   <v>       0.00146050      -0.00308202      -0.00630999 </v>
   <v>      -0.00487659      -0.00050898       0.02185474 </v>
   <v>       0.00208137       0.00309151       0.00861312 </v>
   <v>       0.00393534      -0.00802826      -0.01257124 </v>
   <v>       0.00522187       0.00031274      -0.00017013 </v>
   <v>      -0.00489814       0.00517934      -0.00364516 </v>
   <v>      -0.00277105      -0.00579818      -0.00638754 </v>
   <v>       0.01100429       0.02055974       0.00323967 </v>
   <v>      -0.00403981       0.00289071       0.00150808 </v>
   <v>      -0.00437803      -0.01765727      -0.00342152 </v>
   <v>       0.00098361       0.00494443      -0.00621317 </v>
   <v>      -0.00019879       0.01249069       0.00789536 </v>
   <v>       0.00037907      -0.01121441      -0.00184331 </v>
   <v>       0.00370906      -0.01084889      -0.00322904 </v>
   <v>      -0.00887011       0.00427750       0.00024676 </v>
   <v>      -0.00117504       0.00334023       0.00233557 </v>
   <v>       0.00128541      -0.00345867       0.00503701 </v>
   <v>      -0.00390135      -0.00330969       0.00222026 </v>
   <v>       0.00121147       0.00551387       0.00480511 </v>
   <v>       0.00130052       0.01550661      -0.00308524 </v>
   <v>       0.00008894      -0.00395020      -0.00211317 </v>
   <v>       0.00615079      -0.00964821      -0.00556633 </v>
   <v>      -0.07609375      -0.04599448      -0.02697989 </v>
   <v>      -0.00542925      -0.00135041       0.01054672 </v>
   <v>      -0.01452334       0.01388766      -0.00123883 </v>
   <v>       0.02114919      -0.01862404      -0.02079862 </v>
   <v>       0.00911822       0.02690906       0.00535956 </v>
   <v>      -0.00119951      -0.00700097      -0.00998045 </v>
   <v>      -0.00367002      -0.01376229       0.00100025 </v>
   <v>      -0.00434874       0.00513500      -0.03519269 </v>
   <v>       0.00511295       0.00107032       0.01540958 </v>
   <v>      -0.02829555       0.01885427       0.02576136 </v>
   <v>      -0.01035767      -0.01407011      -0.00310404 </v>
   <v>       0.01211817      -0.01564927      -0.04905654 </v>
   <v>      -0.00438164      -0.01431328       0.03263243 </v>
   <v>       0.04770447       0.08097153       0.00862429 </v>
   <v>       0.01550301      -0.00509178      -0.00568662 </v>
   <v>      -0.01167800      -0.00116553       0.06678709 </v>
   <v>      -0.00736491       0.02001308      -0.06349589 </v>
   <v>       0.01299665      -0.00203693       0.03669315 </v>
   <v>       0.02225291      -0.02832649      -0.02153575 </v>
   <v>       0.01426699      -0.00205514      -0.00556185 </v>
   <v>       0.01205187       0.02099750      -0.01425943 </v>
   <v>      -0.00305774      -0.02324100       0.01293272 </v>
   <v>      -0.02522134       0.02886106       0.00982785 </v>
   <v>      -0.00326995       0.02344947       0.03396671 </v>
   <v>      -0.00101885      -0.01700420      -0.02462238 </v>
   <v>      -0.00655312      -0.02395700       0.01769955 </v>
[...]
       <r>   -15.8239     0.0000    32.0000 </r>
       <r>   -15.6719     0.0000    32.0000 </r>
       <r>   -15.5200     0.0000    32.0000 </r>
       <r>   -15.3680     0.0000    32.0000 </r>
       <r>   -15.2161     2.2791    32.3463 </r>
       <r>   -15.0641    16.5935    34.8676 </r>
       <r>   -14.9122    41.7589    41.2126 </r>
       <r>   -14.7603    54.8813    49.5515 </r>
       <r>   -14.6083    37.5291    55.2538 </r>
       <r>   -14.4564    32.0304    60.1206 </r>
       <r>   -14.3044    32.3852    65.0414 </r>
       <r>   -14.1525    66.4026    75.1308 </r>
       <r>   -14.0005   127.4801    94.5007 </r>
       <r>   -13.8486   145.1466   116.5548 </r>
       <r>   -13.6967    48.3617   123.9031 </r>
       <r>   -13.5447    12.9938   125.8774 </r>
       <r>   -13.3928     0.8067   126.0000 </r>
       <r>   -13.2408     0.0000   126.0000 </r>
       <r>   -13.0889     0.0000   126.0000 </r>
       <r>   -12.9369     0.0000   126.0000 </r>
       <r>   -12.7850     0.0007   126.0001 </r>
       <r>   -12.6330     9.8099   127.4907 </r>
       <r>   -12.4811    87.4134   140.7726 </r>
       <r>   -12.3292   178.0356   167.8240 </r>
       <r>   -12.1772   136.8810   188.6223 </r>
       <r>   -12.0253   131.0349   208.5322 </r>
       <r>   -11.8733    75.3367   219.9792 </r>
       <r>   -11.7214    13.2752   221.9963 </r>
       <r>   -11.5694     0.0244   222.0000 </r>
       <r>   -11.4175     0.0000   222.0000 </r>
       <r>   -11.2655     0.0000   222.0000 </r>
       <r>   -11.1136     0.0000   222.0000 </r>
       <r>   -10.9617     0.0000   222.0000 </r>
       <r>   -10.8097     0.0000   222.0000 </r>
       <r>   -10.6578     0.0000   222.0000 </r>
       <r>   -10.5058     0.0000   222.0000 </r>
       <r>   -10.3539     0.0000   222.0000 </r>
       <r>   -10.2019     0.0000   222.0000 </r>
       <r>   -10.0500     0.0000   222.0000 </r>
       <r>    -9.8981     0.0000   222.0000 </r>
       <r>    -9.7461     0.0000   222.0000 </r>
       <r>    -9.5942     0.0000   222.0000 </r>
       <r>    -9.4422     0.0000   222.0000 </r>
       <r>    -9.2903     0.0000   222.0000 </r>
       <r>    -9.1383     0.0000   222.0000 </r>
       <r>    -8.9864     0.0000   222.0000 </r>
       <r>    -8.8344     0.0000   222.0000 </r>
       <r>    -8.6825     0.0000   222.0000 </r>
       <r>    -8.5306     0.0000   222.0000 </r>
       <r>    -8.3786     0.0000   222.0000 </r>
       <r>    -8.2267     0.0000   222.0000 </r>
       <r>    -8.0747     0.0000   222.0000 </r>
       <r>    -7.9228     0.0000   222.0000 </r>
       <r>    -7.7708     0.0000   222.0000 </r>
       <r>    -7.6189     0.0000   222.0000 </r>
       <r>    -7.4669     0.0000   222.0000 </r>
       <r>    -7.3150     0.0000   222.0000 </r>
       <r>    -7.1631     0.0000   222.0000 </r>
       <r>    -7.0111     0.0000   222.0000 </r>
       <r>    -6.8592     0.0000   222.0000 </r>
       <r>    -6.7072     0.0000   222.0000 </r>
       <r>    -6.5553     0.0000   222.0000 </r>
       <r>    -6.4033     0.0000   222.0000 </r>
       <r>    -6.2514     0.0000   222.0000 </r>
       <r>    -6.0995     0.0000   222.0000 </r>
       <r>    -5.9475     0.0000   222.0000 </r>
       <r>    -5.7956     0.0000   222.0000 </r>
       <r>    -5.6436     0.0000   222.0000 </r>
       <r>    -5.4917     0.0000   222.0000 </r>
       <r>    -5.3397     0.0000   222.0000 </r>
       <r>    -5.1878     0.0000   222.0000 </r>
       <r>    -5.0358     0.0000   222.0000 </r>
       <r>    -4.8839     0.0000   222.0000 </r>
       <r>    -4.7320     0.0000   222.0000 </r>
       <r>    -4.5800     0.0000   222.0000 </r>
       <r>    -4.4281     0.0000   222.0000 </r>
       <r>    -4.2761     0.0000   222.0000 </r>
       <r>    -4.1242     0.0000   222.0000 </r>
       <r>    -3.9722     0.0000   222.0000 </r>
       <r>    -3.8203     0.0000   222.0000 </r>
       <r>    -3.6683     0.0000   222.0000 </r>
       <r>    -3.5164     0.0000   222.0000 </r>
       <r>    -3.3645     0.0000   222.0000 </r>
       <r>    -3.2125     0.0000   222.0000 </r>
       <r>    -3.0606     0.0000   222.0000 </r>
       <r>    -2.9086     0.0000   222.0000 </r>
       <r>    -2.7567     0.0000   222.0000 </r>
       <r>    -2.6047     0.0000   222.0000 </r>
       <r>    -2.4528     0.1212   222.0184 </r>
       <r>    -2.3009    10.3226   223.5869 </r>
       <r>    -2.1489    12.6331   225.5064 </r>
       <r>    -1.9970    20.6174   228.6391 </r>
       <r>    -1.8450    38.9669   234.5599 </r>
       <r>    -1.6931    61.5912   243.9183 </r>
       <r>    -1.5411    56.1233   252.4459 </r>
       <r>    -1.3892    61.7278   261.8251 </r>
       <r>    -1.2372    70.5218   272.5404 </r>
       <r>    -1.0853    70.1787   283.2037 </r>
       <r>    -0.9334    78.8715   295.1877 </r>
       <r>    -0.7814    74.1627   306.4563 </r>
       <r>    -0.6295    94.4335   320.8049 </r>
       <r>    -0.4775   123.5741   339.5812 </r>
       <r>    -0.3256    93.5369   353.7936 </r>
       <r>    -0.1736    55.1453   362.1726 </r>
       <r>    -0.0217    48.1243   369.4848 </r>
       <r>     0.1303    42.0589   375.8754 </r>
       <r>     0.2822    47.9395   383.1595 </r>
       <r>     0.4341    46.6213   390.2434 </r>
       <r>     0.5861    57.6859   399.0084 </r>
       <r>     0.7380    47.3824   406.2079 </r>
       <r>     0.8900    47.3706   413.4055 </r>
       <r>     1.0419    61.5591   422.7591 </r>
       <r>     1.1939    73.7909   433.9711 </r>
       <r>     1.3458    87.5287   447.2706 </r>
       <r>     1.4977    97.7020   462.1158 </r>
       <r>     1.6497    84.7654   474.9954 </r>
       <r>     1.8016    72.3858   485.9940 </r>
       <r>     1.9536    54.6472   494.2973 </r>
       <r>     2.1055    34.6327   499.5596 </r>
       <r>     2.2575    26.6946   503.6157 </r>
       <r>     2.4094     2.5294   504.0000 </r>
       <r>     2.5614     0.0001   504.0000 </r>
       <r>     2.7133     0.0000   504.0000 </r>
       <r>     2.8652     0.0000   504.0000 </r>
       <r>     3.0172     0.0000   504.0000 </r>
       <r>     3.1691     0.0000   504.0000 </r>
       <r>     3.3211     0.0000   504.0000 </r>
       <r>     3.4730     0.0000   504.0000 </r>
       <r>     3.6250     0.0000   504.0000 </r>
       <r>     3.7769     0.0000   504.0000 </r>
       <r>     3.9289     0.0000   504.0000 </r>
       <r>     4.0808     0.0000   504.0000 </r>
       <r>     4.2327     0.0000   504.0000 </r>
       <r>     4.3847     0.0005   504.0001 </r>
       <r>     4.5366     4.9737   504.7558 </r>
       <r>     4.6886    22.3272   508.1483 </r>
       <r>     4.8405    41.3482   514.4309 </r>
       <r>     4.9925    22.5135   517.8517 </r>
       <r>     5.1444    28.8368   522.2333 </r>
       <r>     5.2963    49.8948   529.8145 </r>
       <r>     5.4483    73.0469   540.9135 </r>
       <r>     5.6002    63.5112   550.5637 </r>
       <r>     5.7522    67.9925   560.8947 </r>
       <r>     5.9041    85.0688   573.8204 </r>
       <r>     6.0561   101.2577   589.2059 </r>
       <r>     6.2080    78.4414   601.1246 </r>
       <r>     6.3600    57.5071   609.8625 </r>
       <r>     6.5119    38.3113   615.6836 </r>
       <r>     6.6638    26.2599   619.6737 </r>
       <r>     6.8158    19.4677   622.6317 </r>
       <r>     6.9677    22.1955   626.0042 </r>
       <r>     7.1197    20.6516   629.1420 </r>
       <r>     7.2716    17.6411   631.8225 </r>
       <r>     7.4236    16.1859   634.2818 </r>
       <r>     7.5755    12.7673   636.2218 </r>
       <r>     7.7275    14.7760   638.4669 </r>
       <r>     7.8794    15.2471   640.7836 </r>
       <r>     8.0313    26.6517   644.8331 </r>
       <r>     8.1833    22.3911   648.2353 </r>
       <r>     8.3352    26.7820   652.3047 </r>
       <r>     8.4872    26.9167   656.3945 </r>
       <r>     8.6391    21.8045   659.7076 </r>
       <r>     8.7911    25.1026   663.5218 </r>
       <r>     8.9430    26.9637   667.6188 </r>
       <r>     9.0949    41.3371   673.8997 </r>
       <r>     9.2469    37.9593   679.6674 </r>
       <r>     9.3988    39.9836   685.7427 </r>
       <r>     9.5508    43.8644   692.4076 </r>
       <r>     9.7027    43.9867   699.0911 </r>
       <r>     9.8547    52.9600   707.1381 </r>
       <r>    10.0066    71.4775   717.9986 </r>
       <r>    10.1586    71.2212   728.8203 </r>
       <r>    10.3105    70.7076   739.5639 </r>
       <r>    10.4624    53.0549   747.6252 </r>
       <r>    10.6144    59.1275   756.6093 </r>
       <r>    10.7663    56.6008   765.2095 </r>
       <r>    10.9183    18.3537   767.9982 </r>
       <r>    11.0702     0.0119   768.0000 </r>
       <r>    11.2222     0.0000   768.0000 </r>
       <r>    11.3741     0.0000   768.0000 </r>
       <r>    11.5261     0.0000   768.0000 </r>
       <r>    11.6780     0.0000   768.0000 </r>
       <r>    11.8299     0.0000   768.0000 </r>
       <r>    11.9819     0.0000   768.0000 </r>
       <r>    12.1338     0.0000   768.0000 </r>
       <r>    12.2858     0.0000   768.0000 </r>
       <r>    12.4377     0.0000   768.0000 </r>
       <r>    12.5897     0.0000   768.0000 </r>
       <r>    12.7416     0.0000   768.0000 </r>
       <r>    12.8935     0.0000   768.0000 </r>
      </set>
     </set>
    </array>
   </total>
  </dos>
 </calculation>
 <structure name="finalpos" >
  <crystal>
   <varray name="basis" >
    <v>      11.21404111       0.01086712      -0.00102367 </v>
    <v>       0.01086672      11.21610770      -0.00054290 </v>
    <v>      -0.00146760      -0.00078222      15.96895581 </v>
   </varray>
   <i name="volume">   2008.53970501 </i>
   <varray name="rec_basis" >
    <v>       0.08917400      -0.00008640       0.00000819 </v>
    <v>      -0.00008640       0.08915757       0.00000436 </v>
    <v>       0.00000571       0.00000303       0.06262150 </v>
   </varray>
  </crystal>
  <varray name="positions" >
   <v>       0.99769124       0.25583579       0.12650251 </v>
   <v>       0.00237893       0.25132147       0.62561009 </v>
   <v>       0.00023781       0.74693793       0.13257110 </v>
   <v>       0.99638807       0.74721619       0.62066873 </v>
   <v>       0.50020193       0.24949180       0.12646173 </v>
   <v>       0.49646279       0.24653532       0.62777507 </v>
   <v>       0.49882240       0.75218874       0.12892243 </v>
   <v>       0.50508319       0.75249184       0.62388238 </v>
   <v>       0.99981218       0.25183031       0.37653460 </v>
   <v>       0.99903861       0.25441722       0.87135491 </v>
   <v>       0.00131329       0.74697764       0.37682468 </v>
   <v>       0.99274882       0.74666450       0.86930043 </v>
   <v>       0.49969118       0.24956565       0.37619568 </v>
   <v>       0.49888954       0.24780290       0.86972734 </v>
   <v>       0.49986366       0.75009519       0.37462241 </v>
   <v>       0.50843369       0.75586160       0.87165746 </v>
   <v>       0.25585547       0.00230451       0.12974048 </v>
   <v>       0.25387587       0.00777369       0.62431012 </v>
   <v>       0.24862495       0.49811563       0.12991252 </v>
   <v>       0.24703847       0.49233712       0.62314520 </v>
   <v>       0.74392064       0.00635472       0.13024846 </v>
   <v>       0.74729363      -0.00001435       0.62549983 </v>
   <v>       0.74996907       0.49320239       0.12915095 </v>
   <v>       0.75304700       0.50003561       0.62426219 </v>
   <v>       0.25050621       0.99916285       0.37534984 </v>
   <v>       0.26047831       0.01270841       0.86818031 </v>
   <v>       0.24718394       0.50031427       0.37556066 </v>
   <v>       0.24896754       0.48826660       0.87012794 </v>
   <v>       0.74962749       0.00014930       0.37662535 </v>
   <v>       0.74129175       0.00786268       0.86744650 </v>
   <v>       0.75216628       0.49968202       0.37658980 </v>
   <v>       0.75052564       0.49290054       0.87005243 </v>
   <v>       0.01316713       0.00778574       0.99891591 </v>
   <v>       0.00132842      -0.00016806       0.50063824 </v>
   <v>       0.00072063       0.50124482       0.99921819 </v>
   <v>       0.50085255       0.00159975       0.99837774 </v>
   <v>       0.49976188       0.99983119       0.50146852 </v>
   <v>       0.49556158       0.49685209       0.99866040 </v>
   <v>       0.49983843       0.50069469       0.50025949 </v>
   <v>       0.25291063       0.25432652       0.99942553 </v>
   <v>       0.24800256       0.25097688       0.50059422 </v>
   <v>       0.24995175       0.74945784       0.00975926 </v>
   <v>       0.24963860       0.74876973       0.49520976 </v>
   <v>       0.74911863       0.25049929       0.00012035 </v>
   <v>       0.75082365       0.25124564       0.50081062 </v>
   <v>       0.74229706       0.73651435       0.00087345 </v>
   <v>       0.75081475       0.74829065       0.49938118 </v>
   <v>       0.24940135       0.24967148       0.25001413 </v>
   <v>       0.25047201       0.75101136       0.74074451 </v>
   <v>       0.74967710       0.24988407       0.25064301 </v>
   <v>       0.74897266       0.24935422       0.74757089 </v>
   <v>       0.75098021       0.75080046       0.25043768 </v>
   <v>       0.75010514       0.75189187       0.74882232 </v>
   <v>       0.00065916       0.99752481       0.25082939 </v>
   <v>       0.00008366       0.99876009       0.75108925 </v>
   <v>       0.00128150       0.50176077       0.25250648 </v>
   <v>       0.00124820       0.49881068       0.74895969 </v>
   <v>       0.49826136       0.99808495       0.25153583 </v>
   <v>       0.49791611       0.50177603       0.25022973 </v>
   <v>       0.49871475       0.50011264       0.75027597 </v>
   <v>       0.00018885       0.50003321       0.50021300 </v>
   <v>       0.25049684       0.24894033       0.74925315 </v>
   <v>       0.24997705       0.75004441       0.25358644 </v>
   <v>       0.49867326       0.00077932       0.74940648 </v>
   <v>       0.10941839       0.13688339       0.24193000 </v>
   <v>       0.11117597       0.13051230       0.75826599 </v>
   <v>       0.11126143       0.63724778       0.25083927 </v>
   <v>       0.11912041       0.63703965       0.76151950 </v>
   <v>       0.61144078       0.13783770       0.24671971 </v>
   <v>       0.61638519       0.13799874       0.75015441 </v>
   <v>       0.61287035       0.64017847       0.24390253 </v>
   <v>       0.61513787       0.63779420       0.75566374 </v>
   <v>       0.38834715       0.36131630       0.24930105 </v>
   <v>       0.38675803       0.36829917       0.74968758 </v>
   <v>       0.38979504       0.86180883       0.25027435 </v>
   <v>       0.37986655       0.86047767       0.76327199 </v>
   <v>       0.88768906       0.36190346       0.24795407 </v>
   <v>       0.88636213       0.36321597       0.74884210 </v>
   <v>       0.88941697       0.85990231       0.25569655 </v>
   <v>       0.88801528       0.86095122       0.74370494 </v>
   <v>       0.36075429       0.11129117       0.24995241 </v>
   <v>       0.36521039       0.11548838       0.74811284 </v>
   <v>       0.36252203       0.61026637       0.25075286 </v>
   <v>       0.36178930       0.61888994       0.76320961 </v>
   <v>       0.86121869       0.11056859       0.24809355 </v>
   <v>       0.86363058       0.11162018       0.74906637 </v>
   <v>       0.86030581       0.61146406       0.24639042 </v>
   <v>       0.86336911       0.61425859       0.75352043 </v>
   <v>       0.13780362       0.38714554       0.24912840 </v>
   <v>       0.13362597       0.38521402       0.75018332 </v>
   <v>       0.13777949       0.89069173       0.24647190 </v>
   <v>       0.13747322       0.88043677       0.76713761 </v>
   <v>       0.63780524       0.38853113       0.24900401 </v>
   <v>       0.63775678       0.38851027       0.74723169 </v>
   <v>       0.63942443       0.88887065       0.24882095 </v>
   <v>       0.63694497       0.88478677       0.75044618 </v>
   <v>       0.35628626       0.39426356       0.00125731 </v>
   <v>       0.36019656       0.39097090       0.49863539 </v>
   <v>       0.35707461       0.88598101       0.98962055 </v>
   <v>       0.35926539       0.89058547       0.49914856 </v>
   <v>       0.85866888       0.39230619       0.00206534 </v>
   <v>       0.85850351       0.38802353       0.50072286 </v>
   <v>       0.86045308       0.89005871       0.50079435 </v>
   <v>       0.14361277       0.10729812       0.00030499 </v>
   <v>       0.14063408       0.10866772       0.49935067 </v>
   <v>       0.14581383       0.61202982       0.98810264 </v>
   <v>       0.14236010       0.61191429       0.50039548 </v>
   <v>       0.64006919       0.11079809       0.00216610 </v>
   <v>       0.64032037       0.10933652       0.50066989 </v>
   <v>       0.64323585       0.60562931       0.00039871 </v>
   <v>       0.64008512       0.60883869       0.50047392 </v>
   <v>       0.10834784       0.35882073       0.00001644 </v>
   <v>       0.11099899       0.35934310       0.49978807 </v>
   <v>       0.10825135       0.85465037       0.99147328 </v>
   <v>       0.10913828       0.85949560       0.49919924 </v>
   <v>       0.60713236       0.35835330       0.00153067 </v>
   <v>       0.60826488       0.35980129       0.50239296 </v>
   <v>       0.61983893       0.86352262       0.00182392 </v>
   <v>       0.61038640       0.85906084       0.49866423 </v>
   <v>       0.39060000       0.14123049       0.00051460 </v>
   <v>       0.39020650       0.14015129       0.49990903 </v>
   <v>       0.39000295       0.64480055       0.98897823 </v>
   <v>       0.39136336       0.64198215       0.49947601 </v>
   <v>       0.88798620       0.13348015       0.00175952 </v>
   <v>       0.89109629       0.13862532       0.50164586 </v>
   <v>       0.89558979       0.65124806       0.00097845 </v>
   <v>       0.88806092       0.64130470       0.49915181 </v>
   <v>       0.98482659       0.97994244       0.11751296 </v>
   <v>       0.00948340       0.99701031       0.62718736 </v>
   <v>       0.00542886       0.50369406       0.12268188 </v>
   <v>       0.00224708       0.50685434       0.62760989 </v>
   <v>       0.49403568       0.99546002       0.12360982 </v>
   <v>       0.49819846       0.99420381       0.62420655 </v>
   <v>       0.49604784       0.50411250       0.12250940 </v>
   <v>       0.49534832       0.50871558       0.62657484 </v>
   <v>       0.00198920       0.00309809       0.37432866 </v>
   <v>       0.97590547       0.98700645       0.88086144 </v>
   <v>       0.99816661       0.49981145       0.37346178 </v>
   <v>       0.99397043       0.49562205       0.87638839 </v>
   <v>       0.50154364       0.00123856       0.37441450 </v>
   <v>       0.50435026       0.00345935       0.87719690 </v>
   <v>       0.50324912       0.50170116       0.37462115 </v>
   <v>       0.50482813       0.49337936       0.87633554 </v>
   <v>       0.24717706       0.24746384       0.37316391 </v>
   <v>       0.25193039       0.25155544       0.87789721 </v>
   <v>       0.24929424       0.75153623       0.37554070 </v>
   <v>       0.74910668       0.24868023       0.37480723 </v>
   <v>       0.75130714       0.25193573       0.87551661 </v>
   <v>       0.74721092       0.74726424       0.37382983 </v>
   <v>       0.76025534       0.76490115       0.88032576 </v>
   <v>       0.25127099       0.25077538       0.12407750 </v>
   <v>       0.24731153       0.24929464       0.62337661 </v>
   <v>       0.25207996       0.74807126       0.12427114 </v>
   <v>       0.24988703       0.75321396       0.62562570 </v>
   <v>       0.75049781       0.25136426       0.12474101 </v>
   <v>       0.75069272       0.24860913       0.62480112 </v>
   <v>       0.76240407       0.76454974       0.12130331 </v>
   <v>       0.74730887       0.74694949       0.62491700 </v>
  </varray>
 </structure>
</modeling>
