       N       E                     dE             d eps       ncg     rms          rms(c)
DAV:   1    -0.115221540433E+04   -0.11522E+04   -0.39764E-02 12928   0.456E-01    0.156E-02
RMM:   2    -0.115221540486E+04   -0.53090E-06   -0.96880E-06  6748   0.573E-03    0.240E-02
RMM:   3    -0.115221540524E+04   -0.37737E-06   -0.32542E-06  5204   0.368E-03    0.333E-03
RMM:   4    -0.115221540577E+04   -0.52415E-06   -0.90596E-07  2927   0.211E-03    0.209E-03
RMM:   5    -0.115221540623E+04   -0.46057E-06   -0.51506E-07  2467   0.200E-03    0.223E-03
RMM:   6    -0.115221540641E+04   -0.18661E-06   -0.13389E-07  1725   0.177E-03    0.125E-03
RMM:   7    -0.115221540649E+04   -0.77955E-07   -0.10177E-07  1631   0.179E-03    0.417E-04
RMM:   8    -0.115221540651E+04   -0.18597E-07   -0.14334E-08  1217   0.172E-03
   1 F= -.11522154E+04 E0= -.11522154E+04  d E =-.115222E+04  mag=    20.0000
       N       E                     dE             d eps       ncg     rms          rms(c)
DAV:   1    -0.115221546819E+04   -0.61696E-04   -0.16452E-01 12760   0.483E-01    0.162E-01
RMM:   2    -0.115221587039E+04   -0.40220E-03   -0.50338E-03 12291   0.932E-02    0.136E-01
RMM:   3    -0.115221585440E+04    0.15991E-04   -0.19972E-04  8163   0.284E-02    0.877E-02
RMM:   4    -0.115221582398E+04    0.30422E-04   -0.11744E-04  7261   0.142E-02    0.504E-02
RMM:   5    -0.115221581996E+04    0.40166E-05   -0.41107E-05  7007   0.966E-03    0.485E-02
RMM:   6    -0.115221582069E+04   -0.72991E-06   -0.14923E-05  6589   0.575E-03    0.119E-02
RMM:   7    -0.115221582063E+04    0.63636E-07   -0.58469E-06  5597   0.392E-03    0.117E-02
RMM:   8    -0.115221582056E+04    0.67957E-07   -0.36463E-06  5049   0.299E-03
   2 F= -.11522158E+04 E0= -.11522158E+04  d E =-.414050E-03  mag=    20.0000
       N       E                     dE             d eps       ncg     rms          rms(c)
DAV:   1    -0.115221582450E+04   -0.38746E-05   -0.45479E-03 12984   0.803E-02    0.268E-02
RMM:   2    -0.115221583376E+04   -0.92533E-05   -0.12107E-04  6825   0.157E-02    0.253E-02
RMM:   3    -0.115221583489E+04   -0.11321E-05   -0.11958E-05  6302   0.638E-03    0.135E-02
RMM:   4    -0.115221583424E+04    0.64381E-06   -0.33791E-06  5250   0.301E-03    0.130E-02
RMM:   5    -0.115221583383E+04    0.41608E-06   -0.95030E-07  3354   0.213E-03    0.511E-03
RMM:   6    -0.115221583376E+04    0.71639E-07   -0.15207E-07  1593   0.186E-03    0.173E-03
RMM:   7    -0.115221583379E+04   -0.30341E-07   -0.46237E-08  1064   0.181E-03    0.860E-04
RMM:   8    -0.115221583381E+04   -0.21872E-07   -0.14852E-08   937   0.180E-03
   3 F= -.11522158E+04 E0= -.11522158E+04  d E =-.427299E-03  mag=    20.0000
       N       E                     dE             d eps       ncg     rms          rms(c)
DAV:   1    -0.115221590230E+04   -0.68517E-04   -0.14063E-01 12504   0.449E-01    0.118E-01
RMM:   2    -0.115221624310E+04   -0.34080E-03   -0.37960E-03 12303   0.799E-02    0.889E-02
RMM:   3    -0.115221623794E+04    0.51575E-05   -0.15054E-04  7220   0.261E-02    0.556E-02
RMM:   4    -0.115221622675E+04    0.11190E-04   -0.59747E-05  6902   0.100E-02    0.329E-02
RMM:   5    -0.115221622556E+04    0.11908E-05   -0.19116E-05  6746   0.666E-03    0.197E-02
RMM:   6    -0.115221622628E+04   -0.72272E-06   -0.78099E-06  6009   0.392E-03    0.683E-03
RMM:   7    -0.115221622647E+04   -0.18789E-06   -0.35461E-06  4596   0.331E-03    0.446E-03
RMM:   8    -0.115221622652E+04   -0.45227E-07   -0.20722E-06  3321   0.229E-03
   4 F= -.11522162E+04 E0= -.11522162E+04  d E =-.392708E-03  mag=    20.0000
