       N       E                     dE             d eps       ncg     rms          rms(c)
DAV:   1     0.127355323384E+05    0.12736E+05   -0.44151E+05  3072   0.138E+03
DAV:   2     0.974768807589E+03   -0.11761E+05   -0.10524E+05  3128   0.403E+02
DAV:   3    -0.118435974322E+04   -0.21591E+04   -0.20545E+04  3320   0.180E+02
DAV:   4    -0.137237315170E+04   -0.18801E+03   -0.18530E+03  4272   0.569E+01
DAV:   5    -0.138203967060E+04   -0.96665E+01   -0.96264E+01  5512   0.119E+01    0.172E+02
RMM:   6    -0.106570171462E+04    0.31634E+03   -0.17946E+03  3437   0.443E+01    0.202E+02
RMM:   7    -0.104264791951E+04    0.23054E+02   -0.77603E+01  3265   0.142E+01    0.102E+02
RMM:   8    -0.104045794892E+04    0.21900E+01   -0.30452E+01  3359   0.589E+00    0.706E+01
RMM:   9    -0.104511500544E+04   -0.46571E+01   -0.15606E+01  3126   0.472E+00    0.236E+01
RMM:  10    -0.104492888117E+04    0.18612E+00   -0.29217E+00  3314   0.211E+00    0.116E+01
RMM:  11    -0.104552668502E+04   -0.59780E+00   -0.91603E-01  3479   0.117E+00    0.546E+00
RMM:  12    -0.104628039808E+04   -0.75371E+00   -0.82574E-01  3311   0.817E-01    0.350E+00
RMM:  13    -0.104664803738E+04   -0.36764E+00   -0.32489E-01  3365   0.595E-01    0.160E+00
RMM:  14    -0.104672605324E+04   -0.78016E-01   -0.94979E-02  3736   0.272E-01    0.122E+00
RMM:  15    -0.104678042330E+04   -0.54370E-01   -0.68081E-02  3478   0.233E-01    0.542E-01
RMM:  16    -0.104678972905E+04   -0.93058E-02   -0.25983E-02  3642   0.146E-01    0.333E-01
RMM:  17    -0.104679075115E+04   -0.10221E-02   -0.64542E-03  3940   0.730E-02    0.220E-01
RMM:  18    -0.104679090097E+04   -0.14982E-03   -0.18599E-03  3385   0.332E-02    0.122E-01
RMM:  19    -0.104679103488E+04   -0.13392E-03   -0.89976E-04  2965   0.246E-02    0.491E-02
RMM:  20    -0.104679106998E+04   -0.35098E-04   -0.37609E-04  2347   0.141E-02
   1 F= -.10467911E+04 E0= -.10467911E+04  d E =-.104679E+04  mag=    79.9995
       N       E                     dE             d eps       ncg     rms          rms(c)
DAV:   1    -0.957912128864E+03    0.88879E+02   -0.26618E+03  3216   0.570E+01    0.461E+01
RMM:   2    -0.105193570868E+04   -0.94024E+02   -0.16746E+02  3240   0.158E+01    0.706E+01
RMM:   3    -0.105355805352E+04   -0.16223E+01   -0.91675E+00  3242   0.502E+00    0.232E+01
RMM:   4    -0.105322234867E+04    0.33570E+00   -0.57055E+00  3189   0.295E+00    0.748E+00
RMM:   5    -0.105304064774E+04    0.18170E+00   -0.10443E+00  3375   0.121E+00    0.818E+00
RMM:   6    -0.105304020361E+04    0.44413E-03   -0.36764E-01  3672   0.651E-01    0.409E+00
RMM:   7    -0.105305689088E+04   -0.16687E-01   -0.90715E-02  4069   0.312E-01    0.279E+00
RMM:   8    -0.105305750100E+04   -0.61012E-03   -0.27295E-02  3958   0.179E-01    0.743E-01
RMM:   9    -0.105305641057E+04    0.10904E-02   -0.10927E-02  4004   0.105E-01    0.627E-01
RMM:  10    -0.105305656367E+04   -0.15310E-03   -0.31254E-03  3610   0.509E-02    0.255E-01
RMM:  11    -0.105305657151E+04   -0.78327E-05   -0.12550E-03  3530   0.321E-02    0.101E-01
RMM:  12    -0.105305660958E+04   -0.38077E-04   -0.55947E-04  2803   0.206E-02
   2 F= -.10530566E+04 E0= -.10530566E+04  d E =-.626554E+01  mag=    80.0000
       N       E                     dE             d eps       ncg     rms          rms(c)
DAV:   1    -0.105301024953E+04    0.46322E-01   -0.96511E+00  3536   0.335E+00    0.281E+00
RMM:   2    -0.105307751966E+04   -0.67270E-01   -0.25152E-01  3150   0.662E-01    0.163E+00
RMM:   3    -0.105308903412E+04   -0.11514E-01   -0.17006E-02  3186   0.228E-01    0.106E+00
RMM:   4    -0.105308723509E+04    0.17990E-02   -0.57833E-03  3214   0.932E-02    0.623E-01
RMM:   5    -0.105308689643E+04    0.33866E-03   -0.35468E-03  3234   0.749E-02    0.243E-01
RMM:   6    -0.105308686630E+04    0.30127E-04   -0.93020E-04  2596   0.386E-02    0.330E-01
RMM:   7    -0.105308685295E+04    0.13350E-04   -0.19213E-04  2133   0.209E-02    0.767E-02
RMM:   8    -0.105308684116E+04    0.11791E-04   -0.46371E-05  1846   0.974E-03
   3 F= -.10530868E+04 E0= -.10530868E+04  d E =-.629577E+01  mag=    80.0000
       N       E                     dE             d eps       ncg     rms          rms(c)
DAV:   1    -0.105426731584E+04   -0.11805E+01   -0.73865E+02  3232   0.317E+01    0.169E+01
RMM:   2    -0.105553152696E+04   -0.12642E+01   -0.21033E+01  3139   0.608E+00    0.114E+01
RMM:   3    -0.105553691493E+04   -0.53880E-02   -0.15342E+00  3318   0.210E+00    0.545E+00
RMM:   4    -0.105536778087E+04    0.16913E+00   -0.51702E-01  3412   0.858E-01    0.441E+00
RMM:   5    -0.105532135535E+04    0.46426E-01   -0.16804E-01  3366   0.458E-01    0.210E+00
RMM:   6    -0.105532524061E+04   -0.38853E-02   -0.52727E-02  3762   0.263E-01    0.113E+00
RMM:   7    -0.105532517346E+04    0.67153E-04   -0.18647E-02  3920   0.141E-01    0.770E-01
RMM:   8    -0.105532589451E+04   -0.72105E-03   -0.56164E-03  4216   0.729E-02    0.204E-01
RMM:   9    -0.105532590327E+04   -0.87584E-05   -0.17734E-03  3701   0.327E-02    0.884E-02
RMM:  10    -0.105532590407E+04   -0.79352E-06   -0.59917E-04  2670   0.196E-02
   4 F= -.10553259E+04 E0= -.10553259E+04  d E =-.223906E+01  mag=    80.0000
       N       E                     dE             d eps       ncg     rms          rms(c)
DAV:   1    -0.105539646254E+04   -0.70559E-01   -0.18648E+02  3280   0.158E+01    0.842E+00
RMM:   2    -0.105569481734E+04   -0.29835E+00   -0.53967E+00  3140   0.303E+00    0.546E+00
RMM:   3    -0.105569193592E+04    0.28814E-02   -0.38960E-01  3301   0.106E+00    0.268E+00
RMM:   4    -0.105565048535E+04    0.41451E-01   -0.13130E-01  3387   0.431E-01    0.210E+00
RMM:   5    -0.105564018463E+04    0.10301E-01   -0.42779E-02  3377   0.235E-01    0.104E+00
RMM:   6    -0.105564140183E+04   -0.12172E-02   -0.11874E-02  3955   0.124E-01    0.538E-01
RMM:   7    -0.105564130566E+04    0.96169E-04   -0.49098E-03  3693   0.725E-02    0.410E-01
RMM:   8    -0.105564142172E+04   -0.11606E-03   -0.15513E-03  3687   0.403E-02    0.114E-01
RMM:   9    -0.105564141441E+04    0.73091E-05   -0.44643E-04  2578   0.184E-02
   5 F= -.10556414E+04 E0= -.10556414E+04  d E =-.255457E+01  mag=    80.0000
       N       E                     dE             d eps       ncg     rms          rms(c)
DAV:   1    -0.105700817291E+04   -0.13668E+01   -0.20071E+02  3128   0.178E+01    0.110E+01
RMM:   2    -0.105634718385E+04    0.66099E+00   -0.80363E+00  3122   0.376E+00    0.990E+00
RMM:   3    -0.105608533293E+04    0.26185E+00   -0.52715E-01  3255   0.124E+00    0.437E+00
RMM:   4    -0.105594682569E+04    0.13851E+00   -0.21992E-01  3189   0.552E-01    0.238E+00
RMM:   5    -0.105592894066E+04    0.17885E-01   -0.93863E-02  3432   0.344E-01    0.133E+00
RMM:   6    -0.105592693955E+04    0.20011E-02   -0.24684E-02  3964   0.164E-01    0.674E-01
RMM:   7    -0.105592821196E+04   -0.12724E-02   -0.62949E-03  4257   0.730E-02    0.261E-01
RMM:   8    -0.105592842710E+04   -0.21514E-03   -0.20327E-03  4056   0.379E-02    0.949E-02
RMM:   9    -0.105592843322E+04   -0.61236E-05   -0.53668E-04  2826   0.202E-02
   6 F= -.10559284E+04 E0= -.10559284E+04  d E =-.287019E+00  mag=    80.0000
       N       E                     dE             d eps       ncg     rms          rms(c)
DAV:   1    -0.105599249280E+04   -0.64066E-01   -0.81894E+00  3432   0.359E+00    0.226E+00
RMM:   2    -0.105596520797E+04    0.27285E-01   -0.31313E-01  3134   0.753E-01    0.212E+00
RMM:   3    -0.105595515749E+04    0.10050E-01   -0.21555E-02  3314   0.244E-01    0.917E-01
RMM:   4    -0.105594923457E+04    0.59229E-02   -0.91338E-03  3199   0.113E-01    0.522E-01
RMM:   5    -0.105594835216E+04    0.88241E-03   -0.37593E-03  3299   0.687E-02    0.292E-01
RMM:   6    -0.105594818529E+04    0.16688E-03   -0.10469E-03  3121   0.354E-02    0.130E-01
RMM:   7    -0.105594817405E+04    0.11239E-04   -0.21077E-04  2010   0.183E-02    0.519E-02
RMM:   8    -0.105594815904E+04    0.15005E-04   -0.75475E-05  1827   0.126E-02
   7 F= -.10559482E+04 E0= -.10559482E+04  d E =-.306745E+00  mag=    80.0000
       N       E                     dE             d eps       ncg     rms          rms(c)
DAV:   1    -0.105603042085E+04   -0.82247E-01   -0.33685E+01  3120   0.690E+00    0.300E+00
RMM:   2    -0.105604587022E+04   -0.15449E-01   -0.86702E-01  3112   0.130E+00    0.255E+00
RMM:   3    -0.105603436445E+04    0.11506E-01   -0.54732E-02  3329   0.384E-01    0.166E+00
RMM:   4    -0.105601940822E+04    0.14956E-01   -0.20930E-02  3194   0.189E-01    0.905E-01
RMM:   5    -0.105601719147E+04    0.22168E-02   -0.85785E-03  3248   0.118E-01    0.354E-01
RMM:   6    -0.105601722829E+04   -0.36816E-04   -0.62475E-04  2740   0.380E-02    0.984E-02
RMM:   7    -0.105601723227E+04   -0.39828E-05   -0.16228E-04  2088   0.134E-02    0.612E-02
RMM:   8    -0.105601724930E+04   -0.17032E-04   -0.81166E-05  1965   0.110E-02
   8 F= -.10560172E+04 E0= -.10560172E+04  d E =-.690903E-01  mag=    80.0000
       N       E                     dE             d eps       ncg     rms          rms(c)
DAV:   1    -0.105601760887E+04   -0.37660E-03   -0.29095E-01  3488   0.641E-01    0.268E-01
RMM:   2    -0.105601775311E+04   -0.14425E-03   -0.76216E-03  3121   0.121E-01    0.227E-01
RMM:   3    -0.105601764358E+04    0.10953E-03   -0.44878E-04  2549   0.353E-02    0.157E-01
RMM:   4    -0.105601752182E+04    0.12176E-03   -0.16911E-04  1886   0.184E-02    0.886E-02
RMM:   5    -0.105601750199E+04    0.19833E-04   -0.93053E-05  1851   0.142E-02    0.515E-02
RMM:   6    -0.105601750383E+04   -0.18484E-05   -0.22718E-05  1707   0.864E-03    0.185E-02
RMM:   7    -0.105601750513E+04   -0.12922E-05   -0.11671E-05  1562   0.430E-03    0.927E-03
RMM:   8    -0.105601750558E+04   -0.45665E-06   -0.59383E-06  1395   0.409E-03
   9 F= -.10560175E+04 E0= -.10560175E+04  d E =-.693465E-01  mag=    80.0000
       N       E                     dE             d eps       ncg     rms          rms(c)
DAV:   1    -0.105604715327E+04   -0.29648E-01   -0.12123E+01  3256   0.402E+00    0.166E+00
RMM:   2    -0.105605034249E+04   -0.31892E-02   -0.34841E-01  3222   0.752E-01    0.118E+00
RMM:   3    -0.105604647236E+04    0.38701E-02   -0.23951E-02  3281   0.266E-01    0.731E-01
RMM:   4    -0.105604513543E+04    0.13369E-02   -0.69281E-03  3635   0.932E-02    0.536E-01
RMM:   5    -0.105604466071E+04    0.47473E-03   -0.25785E-03  3488   0.543E-02    0.282E-01
RMM:   6    -0.105604473497E+04   -0.74266E-04   -0.45770E-04  2754   0.235E-02    0.126E-01
RMM:   7    -0.105604474175E+04   -0.67770E-05   -0.27851E-04  2207   0.177E-02    0.874E-02
RMM:   8    -0.105604471767E+04    0.24079E-04   -0.11122E-04  1905   0.136E-02
  10 F= -.10560447E+04 E0= -.10560447E+04  d E =-.272121E-01  mag=    80.0000
       N       E                     dE             d eps       ncg     rms          rms(c)
DAV:   1    -0.105605549579E+04   -0.10754E-01   -0.70018E+00  3240   0.306E+00    0.126E+00
RMM:   2    -0.105605767701E+04   -0.21812E-02   -0.20171E-01  3209   0.571E-01    0.885E-01
RMM:   3    -0.105605551313E+04    0.21639E-02   -0.13859E-02  3288   0.203E-01    0.547E-01
RMM:   4    -0.105605476427E+04    0.74887E-03   -0.39988E-03  3647   0.705E-02    0.401E-01
RMM:   5    -0.105605448549E+04    0.27877E-03   -0.14944E-03  3389   0.422E-02    0.220E-01
RMM:   6    -0.105605452297E+04   -0.37476E-04   -0.26384E-04  2274   0.184E-02    0.978E-02
RMM:   7    -0.105605452144E+04    0.15250E-05   -0.15404E-04  1982   0.147E-02    0.641E-02
RMM:   8    -0.105605450423E+04    0.17214E-04   -0.78329E-05  1854   0.116E-02
  11 F= -.10560545E+04 E0= -.10560545E+04  d E =-.369986E-01  mag=    80.0000
       N       E                     dE             d eps       ncg     rms          rms(c)
DAV:   1    -0.105606825368E+04   -0.13732E-01   -0.66698E+00  3104   0.293E+00    0.102E+00
RMM:   2    -0.105607827429E+04   -0.10021E-01   -0.17757E-01  3209   0.532E-01    0.769E-01
RMM:   3    -0.105607683809E+04    0.14362E-02   -0.98090E-03  3378   0.167E-01    0.388E-01
RMM:   4    -0.105607588481E+04    0.95328E-03   -0.25828E-03  3554   0.598E-02    0.273E-01
RMM:   5    -0.105607567411E+04    0.21069E-03   -0.88355E-04  3320   0.342E-02    0.129E-01
RMM:   6    -0.105607568808E+04   -0.13964E-04   -0.21041E-04  2156   0.174E-02    0.579E-02
RMM:   7    -0.105607571582E+04   -0.27740E-04   -0.90525E-05  1848   0.130E-02    0.596E-02
RMM:   8    -0.105607572922E+04   -0.13401E-04   -0.53526E-05  1796   0.103E-02
  12 F= -.10560757E+04 E0= -.10560757E+04  d E =-.212250E-01  mag=    80.0000
       N       E                     dE             d eps       ncg     rms          rms(c)
DAV:   1    -0.105604449863E+04    0.31217E-01   -0.60015E+01  3072   0.880E+00    0.307E+00
RMM:   2    -0.105613419339E+04   -0.89695E-01   -0.16151E+00  3201   0.160E+00    0.225E+00
RMM:   3    -0.105612146425E+04    0.12729E-01   -0.88442E-02  3351   0.509E-01    0.114E+00
RMM:   4    -0.105611319552E+04    0.82687E-02   -0.23669E-02  3604   0.181E-01    0.797E-01
RMM:   5    -0.105611152546E+04    0.16701E-02   -0.73914E-03  3577   0.986E-02    0.404E-01
RMM:   6    -0.105611163957E+04   -0.11411E-03   -0.20729E-03  3907   0.462E-02    0.184E-01
RMM:   7    -0.105611179127E+04   -0.15170E-03   -0.59246E-04  2992   0.259E-02    0.139E-01
RMM:   8    -0.105611186036E+04   -0.69093E-04   -0.30748E-04  2402   0.186E-02
  13 F= -.10561119E+04 E0= -.10561119E+04  d E =-.573561E-01  mag=    80.0000
       N       E                     dE             d eps       ncg     rms          rms(c)
DAV:   1    -0.105610435193E+04    0.74393E-02   -0.86149E+00  3120   0.333E+00    0.117E+00
RMM:   2    -0.105611738275E+04   -0.13031E-01   -0.22892E-01  3208   0.604E-01    0.877E-01
RMM:   3    -0.105611564376E+04    0.17390E-02   -0.12628E-02  3382   0.190E-01    0.442E-01
RMM:   4    -0.105611448171E+04    0.11621E-02   -0.34138E-03  3579   0.684E-02    0.310E-01
RMM:   5    -0.105611424646E+04    0.23525E-03   -0.11644E-03  3477   0.385E-02    0.148E-01
RMM:   6    -0.105611426950E+04   -0.23047E-04   -0.29422E-04  2359   0.197E-02    0.670E-02
RMM:   7    -0.105611430545E+04   -0.35949E-04   -0.12348E-04  1905   0.144E-02    0.680E-02
RMM:   8    -0.105611432219E+04   -0.16737E-04   -0.73360E-05  1840   0.117E-02
  14 F= -.10561143E+04 E0= -.10561143E+04  d E =-.598180E-01  mag=    80.0000
       N       E                     dE             d eps       ncg     rms          rms(c)
DAV:   1    -0.105611196702E+04    0.23384E-02   -0.52028E+00  3168   0.251E+00    0.688E-01
RMM:   2    -0.105612541242E+04   -0.13445E-01   -0.11980E-01  3232   0.432E-01    0.434E-01
RMM:   3    -0.105612587641E+04   -0.46399E-03   -0.59111E-03  3264   0.121E-01    0.236E-01
RMM:   4    -0.105612559665E+04    0.27976E-03   -0.10499E-03  3105   0.361E-02    0.134E-01
RMM:   5    -0.105612552511E+04    0.71534E-04   -0.53643E-04  2730   0.241E-02    0.381E-02
RMM:   6    -0.105612553347E+04   -0.83617E-05   -0.73502E-05  1903   0.116E-02    0.289E-02
RMM:   7    -0.105612553560E+04   -0.21264E-05   -0.37141E-05  1750   0.602E-03    0.196E-02
RMM:   8    -0.105612553527E+04    0.33066E-06   -0.29693E-05  1671   0.584E-03
  15 F= -.10561255E+04 E0= -.10561255E+04  d E =-.112131E-01  mag=    80.0000
       N       E                     dE             d eps       ncg     rms          rms(c)
DAV:   1    -0.105602898414E+04    0.96551E-01   -0.46833E+01  3072   0.753E+00    0.208E+00
RMM:   2    -0.105614988753E+04   -0.12090E+00   -0.10752E+00  3223   0.130E+00    0.134E+00
RMM:   3    -0.105615429967E+04   -0.44121E-02   -0.53145E-02  3450   0.364E-01    0.718E-01
RMM:   4    -0.105615181059E+04    0.24891E-02   -0.89762E-03  3624   0.104E-01    0.420E-01
RMM:   5    -0.105615101482E+04    0.79577E-03   -0.48560E-03  3309   0.686E-02    0.119E-01
RMM:   6    -0.105615111089E+04   -0.96070E-04   -0.69607E-04  2700   0.294E-02    0.740E-02
RMM:   7    -0.105615112787E+04   -0.16981E-04   -0.24519E-04  2174   0.116E-02    0.442E-02
RMM:   8    -0.105615113064E+04   -0.27696E-05   -0.16299E-04  2104   0.987E-03
  16 F= -.10561511E+04 E0= -.10561511E+04  d E =-.368085E-01  mag=    80.0000
       N       E                     dE             d eps       ncg     rms          rms(c)
DAV:   1    -0.105566661424E+04    0.48451E+00   -0.18734E+02  3072   0.151E+01    0.421E+00
RMM:   2    -0.105615733906E+04   -0.49072E+00   -0.43615E+00  3223   0.261E+00    0.278E+00
RMM:   3    -0.105617532284E+04   -0.17984E-01   -0.21504E-01  3464   0.732E-01    0.146E+00
RMM:   4    -0.105616545550E+04    0.98673E-02   -0.35272E-02  3684   0.208E-01    0.876E-01
RMM:   5    -0.105616166517E+04    0.37903E-02   -0.20702E-02  3339   0.143E-01    0.259E-01
RMM:   6    -0.105616210605E+04   -0.44088E-03   -0.29841E-03  3373   0.596E-02    0.146E-01
RMM:   7    -0.105616219913E+04   -0.93073E-04   -0.11481E-03  2786   0.232E-02    0.896E-02
RMM:   8    -0.105616222319E+04   -0.24064E-04   -0.59173E-04  2553   0.183E-02
  17 F= -.10561622E+04 E0= -.10561622E+04  d E =-.479010E-01  mag=    80.0000
       N       E                     dE             d eps       ncg     rms          rms(c)
DAV:   1    -0.105606521138E+04    0.96988E-01   -0.38169E+01  3072   0.679E+00    0.184E+00
RMM:   2    -0.105616286486E+04   -0.97653E-01   -0.87245E-01  3211   0.117E+00    0.113E+00
RMM:   3    -0.105616667268E+04   -0.38078E-02   -0.43848E-02  3393   0.332E-01    0.617E-01
RMM:   4    -0.105616445472E+04    0.22180E-02   -0.76395E-03  3461   0.985E-02    0.326E-01
RMM:   5    -0.105616409720E+04    0.35752E-03   -0.31574E-03  3223   0.575E-02    0.101E-01
RMM:   6    -0.105616414115E+04   -0.43946E-04   -0.35665E-04  2350   0.227E-02    0.610E-02
RMM:   7    -0.105616415186E+04   -0.10714E-04   -0.17880E-04  2023   0.114E-02    0.474E-02
RMM:   8    -0.105616415783E+04   -0.59644E-05   -0.85398E-05  1896   0.851E-03
  18 F= -.10561642E+04 E0= -.10561642E+04  d E =-.498356E-01  mag=    80.0000
       N       E                     dE             d eps       ncg     rms          rms(c)
DAV:   1    -0.105615569630E+04    0.84556E-02   -0.36439E+00  3136   0.210E+00    0.576E-01
RMM:   2    -0.105616499393E+04   -0.92976E-02   -0.82795E-02  3214   0.362E-01    0.363E-01
RMM:   3    -0.105616536722E+04   -0.37329E-03   -0.40606E-03  3157   0.102E-01    0.195E-01
RMM:   4    -0.105616516080E+04    0.20641E-03   -0.64265E-04  2725   0.294E-02    0.110E-01
RMM:   5    -0.105616510629E+04    0.54510E-04   -0.34265E-04  2314   0.206E-02    0.310E-02
RMM:   6    -0.105616511041E+04   -0.41190E-05   -0.37372E-05  1768   0.103E-02    0.246E-02
RMM:   7    -0.105616511120E+04   -0.78748E-06   -0.17560E-05  1610   0.488E-03    0.163E-02
RMM:   8    -0.105616511001E+04    0.11942E-05   -0.10102E-05  1515   0.447E-03
  19 F= -.10561651E+04 E0= -.10561651E+04  d E =-.507878E-01  mag=    80.0000
       N       E                     dE             d eps       ncg     rms          rms(c)
DAV:   1    -0.105618046843E+04   -0.15357E-01   -0.29262E+00  3104   0.197E+00    0.916E-01
RMM:   2    -0.105618210487E+04   -0.16364E-02   -0.81466E-02  3186   0.360E-01    0.630E-01
RMM:   3    -0.105618111729E+04    0.98757E-03   -0.51642E-03  3255   0.123E-01    0.334E-01
RMM:   4    -0.105618050408E+04    0.61322E-03   -0.17909E-03  3321   0.496E-02    0.206E-01
RMM:   5    -0.105618038497E+04    0.11911E-03   -0.38959E-04  2476   0.285E-02    0.110E-01
RMM:   6    -0.105618038440E+04    0.56207E-06   -0.16608E-04  1967   0.152E-02    0.453E-02
RMM:   7    -0.105618038319E+04    0.12179E-05   -0.54256E-05  1817   0.108E-02    0.288E-02
RMM:   8    -0.105618037896E+04    0.42278E-05   -0.39717E-05  1739   0.758E-03
  20 F= -.10561804E+04 E0= -.10561804E+04  d E =-.152690E-01  mag=    80.0000
       N       E                     dE             d eps       ncg     rms          rms(c)
DAV:   1    -0.105619217875E+04   -0.11796E-01   -0.14613E+01  3088   0.441E+00    0.203E+00
RMM:   2    -0.105620055885E+04   -0.83801E-02   -0.40293E-01  3181   0.803E-01    0.141E+00
RMM:   3    -0.105619578297E+04    0.47759E-02   -0.25664E-02  3264   0.276E-01    0.745E-01
RMM:   4    -0.105619276110E+04    0.30219E-02   -0.90145E-03  3424   0.110E-01    0.464E-01
RMM:   5    -0.105619221514E+04    0.54596E-03   -0.22278E-03  3504   0.588E-02    0.232E-01
RMM:   6    -0.105619223086E+04   -0.15716E-04   -0.83876E-04  3225   0.301E-02    0.106E-01
RMM:   7    -0.105619223490E+04   -0.40411E-05   -0.19709E-04  2122   0.162E-02    0.602E-02
RMM:   8    -0.105619222262E+04    0.12278E-04   -0.10783E-04  1958   0.110E-02
  21 F= -.10561922E+04 E0= -.10561922E+04  d E =-.271126E-01  mag=    80.0000
       N       E                     dE             d eps       ncg     rms          rms(c)
DAV:   1    -0.105619426999E+04   -0.20351E-02   -0.30685E+00  3104   0.195E+00    0.674E-01
RMM:   2    -0.105620261489E+04   -0.83449E-02   -0.75521E-02  3244   0.349E-01    0.454E-01
RMM:   3    -0.105620281610E+04   -0.20121E-03   -0.39596E-03  3290   0.100E-01    0.272E-01
RMM:   4    -0.105620244925E+04    0.36685E-03   -0.11800E-03  3245   0.386E-02    0.112E-01
RMM:   5    -0.105620243468E+04    0.14575E-04   -0.23095E-04  2271   0.198E-02    0.448E-02
RMM:   6    -0.105620244527E+04   -0.10590E-04   -0.75724E-05  1862   0.113E-02    0.613E-02
RMM:   7    -0.105620244957E+04   -0.42979E-05   -0.33932E-05  1731   0.734E-03    0.253E-02
RMM:   8    -0.105620245883E+04   -0.92618E-05   -0.22097E-05  1634   0.601E-03
  22 F= -.10562025E+04 E0= -.10562025E+04  d E =-.102362E-01  mag=    80.0000
       N       E                     dE             d eps       ncg     rms          rms(c)
DAV:   1    -0.105615457882E+04    0.47871E-01   -0.22585E+01  3072   0.530E+00    0.183E+00
RMM:   2    -0.105621547304E+04   -0.60894E-01   -0.55223E-01  3226   0.946E-01    0.124E+00
RMM:   3    -0.105621714843E+04   -0.16754E-02   -0.28723E-02  3374   0.273E-01    0.739E-01
RMM:   4    -0.105621446038E+04    0.26881E-02   -0.82960E-03  3397   0.103E-01    0.306E-01
RMM:   5    -0.105621434968E+04    0.11070E-03   -0.18090E-03  3398   0.491E-02    0.122E-01
RMM:   6    -0.105621439672E+04   -0.47039E-04   -0.42487E-04  2598   0.215E-02    0.135E-01
RMM:   7    -0.105621441763E+04   -0.20914E-04   -0.14814E-04  2037   0.123E-02    0.633E-02
RMM:   8    -0.105621445192E+04   -0.34283E-04   -0.96176E-05  1960   0.102E-02
  23 F= -.10562145E+04 E0= -.10562145E+04  d E =-.222293E-01  mag=    80.0000
       N       E                     dE             d eps       ncg     rms          rms(c)
DAV:   1    -0.105622084052E+04   -0.64229E-02   -0.62771E-01  3264   0.959E-01    0.405E-01
RMM:   2    -0.105622073481E+04    0.10571E-03   -0.14959E-02  3144   0.164E-01    0.306E-01
RMM:   3    -0.105622038291E+04    0.35190E-03   -0.94746E-04  2910   0.515E-02    0.182E-01
RMM:   4    -0.105622007632E+04    0.30659E-03   -0.54351E-04  2947   0.276E-02    0.590E-02
RMM:   5    -0.105622005622E+04    0.20104E-04   -0.92092E-05  1854   0.157E-02    0.305E-02
RMM:   6    -0.105622006100E+04   -0.47840E-05   -0.28287E-05  1805   0.757E-03    0.159E-02
RMM:   7    -0.105622006338E+04   -0.23755E-05   -0.96904E-06  1590   0.484E-03    0.948E-03
RMM:   8    -0.105622006547E+04   -0.20898E-05   -0.70978E-06  1333   0.332E-03
  24 F= -.10562201E+04 E0= -.10562201E+04  d E =-.561355E-02  mag=    80.0000
       N       E                     dE             d eps       ncg     rms          rms(c)
DAV:   1    -0.105622503112E+04   -0.49677E-02   -0.15851E+00  3104   0.152E+00    0.635E-01
RMM:   2    -0.105622474599E+04    0.28513E-03   -0.37474E-02  3140   0.261E-01    0.467E-01
RMM:   3    -0.105622381673E+04    0.92926E-03   -0.24541E-03  3162   0.820E-02    0.285E-01
RMM:   4    -0.105622307567E+04    0.74106E-03   -0.12606E-03  3115   0.420E-02    0.910E-02
RMM:   5    -0.105622302760E+04    0.48074E-04   -0.19620E-04  2051   0.231E-02    0.511E-02
RMM:   6    -0.105622303628E+04   -0.86803E-05   -0.52379E-05  1842   0.107E-02    0.278E-02
RMM:   7    -0.105622304014E+04   -0.38552E-05   -0.16888E-05  1707   0.649E-03    0.161E-02
RMM:   8    -0.105622304381E+04   -0.36706E-05   -0.11023E-05  1640   0.447E-03
  25 F= -.10562230E+04 E0= -.10562230E+04  d E =-.859189E-02  mag=    80.0000
       N       E                     dE             d eps       ncg     rms          rms(c)
DAV:   1    -0.105622316702E+04   -0.12689E-03   -0.27439E-02  3456   0.201E-01    0.858E-02
RMM:   2    -0.105622315635E+04    0.10667E-04   -0.62445E-04  2702   0.341E-02    0.644E-02
RMM:   3    -0.105622314121E+04    0.15140E-04   -0.35957E-05  1743   0.118E-02    0.406E-02
RMM:   4    -0.105622312707E+04    0.14140E-04   -0.25609E-05  1712   0.681E-03    0.132E-02
RMM:   5    -0.105622312537E+04    0.17026E-05   -0.52594E-06  1563   0.382E-03    0.620E-03
RMM:   6    -0.105622312524E+04    0.13519E-06   -0.73440E-07   893   0.212E-03    0.301E-03
RMM:   7    -0.105622312512E+04    0.12197E-06   -0.16016E-07   544   0.178E-03    0.159E-03
RMM:   8    -0.105622312503E+04    0.84416E-07   -0.15307E-07   509   0.176E-03
  26 F= -.10562231E+04 E0= -.10562231E+04  d E =-.867311E-02  mag=    80.0000
       N       E                     dE             d eps       ncg     rms          rms(c)
DAV:   1    -0.105622466141E+04   -0.15363E-02   -0.16730E-01  3120   0.497E-01    0.269E-01
RMM:   2    -0.105622433024E+04    0.33117E-03   -0.68043E-03  3135   0.105E-01    0.194E-01
RMM:   3    -0.105622415538E+04    0.17486E-03   -0.47582E-04  2644   0.395E-02    0.115E-01
RMM:   4    -0.105622408041E+04    0.74975E-04   -0.19765E-04  1889   0.181E-02    0.891E-02
RMM:   5    -0.105622406170E+04    0.18710E-04   -0.62497E-05  1765   0.129E-02    0.603E-02
RMM:   6    -0.105622405819E+04    0.35108E-05   -0.25500E-05  1695   0.695E-03    0.230E-02
RMM:   7    -0.105622405593E+04    0.22521E-05   -0.11009E-05  1487   0.480E-03    0.131E-02
RMM:   8    -0.105622405334E+04    0.25951E-05   -0.82116E-06  1393   0.398E-03
  27 F= -.10562241E+04 E0= -.10562241E+04  d E =-.928308E-03  mag=    80.0000
