<?xml version="1.0" encoding="ISO-8859-1"?>
<modeling>
 <generator>
  <i name="program" type="string">vasp </i>
  <i name="version" type="string">5.4.1  </i>
  <i name="subversion" type="string">05Feb16 (build Jan 25 2017 20:16:33) complex                          parallel </i>
  <i name="platform" type="string">BWXE6 </i>
  <i name="date" type="string">2019 08 10 </i>
  <i name="time" type="string">23:24:19 </i>
 </generator>
 <incar>
  <i type="string" name="SYSTEM"> STF</i>
  <i type="string" name="PREC">normal</i>
  <i type="string" name="ALGO"> Fast</i>
  <i type="int" name="ISPIN">     2</i>
  <i type="int" name="NELM">    40</i>
  <i type="int" name="NELMIN">     8</i>
  <i type="int" name="IBRION">     2</i>
  <i name="EDIFF">      0.00010000</i>
  <i name="EDIFFG">     -0.03000000</i>
  <i type="int" name="NSW">    30</i>
  <i type="int" name="ISIF">     3</i>
  <i name="ENCUT">    520.00000000</i>
  <i type="int" name="NBANDS">   768</i>
  <v name="MAGMOM">      0.60000000      0.60000000      0.60000000      0.60000000      0.60000000      0.60000000      0.60000000      0.60000000      0.60000000      0.60000000      0.60000000      0.60000000      0.60000000      0.60000000      0.60000000      0.60000000      0.60000000      0.60000000      0.60000000      0.60000000
      0.60000000      0.60000000      0.60000000      0.60000000      0.60000000      0.60000000      0.60000000      0.60000000      0.60000000      0.60000000      0.60000000      0.60000000      0.60000000      0.60000000      0.60000000      0.60000000      0.60000000      0.60000000      0.60000000      0.60000000
      0.60000000      0.60000000      0.60000000      0.60000000      0.60000000      0.60000000      0.60000000      0.60000000      5.00000000      5.00000000      5.00000000      5.00000000      5.00000000      5.00000000      5.00000000      5.00000000      5.00000000      5.00000000      5.00000000      5.00000000
      5.00000000      5.00000000      5.00000000      5.00000000      0.60000000      0.60000000      0.60000000      0.60000000      0.60000000      0.60000000      0.60000000      0.60000000      0.60000000      0.60000000      0.60000000      0.60000000      0.60000000      0.60000000      0.60000000      0.60000000
      0.60000000      0.60000000      0.60000000      0.60000000      0.60000000      0.60000000      0.60000000      0.60000000      0.60000000      0.60000000      0.60000000      0.60000000      0.60000000      0.60000000      0.60000000      0.60000000      0.60000000      0.60000000      0.60000000      0.60000000
      0.60000000      0.60000000      0.60000000      0.60000000      0.60000000      0.60000000      0.60000000      0.60000000      0.60000000      0.60000000      0.60000000      0.60000000      0.60000000      0.60000000      0.60000000      0.60000000      0.60000000      0.60000000      0.60000000      0.60000000
      0.60000000      0.60000000      0.60000000      0.60000000      0.60000000      0.60000000      0.60000000      0.60000000      0.60000000      0.60000000      0.60000000      0.60000000      0.60000000      0.60000000      0.60000000      0.60000000      0.60000000      0.60000000      0.60000000      0.60000000
      0.60000000      0.60000000      0.60000000      0.60000000      0.60000000      0.60000000      0.60000000      0.60000000      0.60000000      0.60000000      0.60000000      0.60000000</v>
  <i type="string" name="LREAL"> Auto</i>
  <i type="int" name="ISMEAR">     0</i>
  <i name="SIGMA">      0.05000000</i>
  <i type="int" name="LMAXMIX">     4</i>
  <v type="int" name="KPOINT_BSE">    -1     0     0     0</v>
  <i type="int" name="NELM">    40</i>
  <i type="logical" name="LDAU"> T  </i>
  <v type="int" name="LDAUTYPE">     2</v>
  <v type="int" name="LDAUL">     0     2     2     0</v>
  <v name="LDAUU">      0.00000000      3.00000000      5.00000000      0.00000000</v>
  <v name="LDAUJ">      0.00000000      0.00000000      0.00000000      0.00000000</v>
  <i type="int" name="LDAUPRINT">     1</i>
 </incar>
 <kpoints>
  <generation param="Monkhorst-Pack">
   <v type="int" name="divisions">       2        2        2 </v>
   <v name="usershift">      0.00000000       0.00000000       0.00000000 </v>
   <v name="genvec1">      0.50000000       0.00000000       0.00000000 </v>
   <v name="genvec2">      0.00000000       0.50000000       0.00000000 </v>
   <v name="genvec3">      0.00000000       0.00000000       0.50000000 </v>
   <v name="shift">      0.50000000       0.50000000       0.50000000 </v>
  </generation>
  <varray name="kpointlist" >
   <v>       0.25000000       0.25000000       0.25000000 </v>
  </varray>
  <varray name="weights" >
   <v>       1.00000000 </v>
  </varray>
 </kpoints>
 <parameters>
  <separator name="general" >
   <i type="string" name="SYSTEM">STF</i>
   <i type="logical" name="LCOMPAT"> F  </i>
  </separator>
  <separator name="electronic" >
   <i type="string" name="PREC">normal</i>
   <i name="ENMAX">    520.00000000</i>
   <i name="ENAUG">    605.39200000</i>
   <i name="EDIFF">      0.00010000</i>
   <i type="int" name="IALGO">    68</i>
   <i type="int" name="IWAVPR">    11</i>
   <i type="int" name="NBANDS">   768</i>
   <i name="NELECT">   1040.00000000</i>
   <i type="int" name="TURBO">     0</i>
   <i type="int" name="IRESTART">     0</i>
   <i type="int" name="NREBOOT">     0</i>
   <i type="int" name="NMIN">     0</i>
   <i name="EREF">      0.00000000</i>
   <separator name="electronic smearing" >
    <i type="int" name="ISMEAR">     0</i>
    <i name="SIGMA">      0.05000000</i>
    <i name="KSPACING">      0.50000000</i>
    <i type="logical" name="KGAMMA"> T  </i>
   </separator>
   <separator name="electronic projectors" >
    <i type="logical" name="LREAL"> T  </i>
    <v name="ROPT">     -0.00050000     -0.00050000     -0.00050000     -0.00050000</v>
    <i type="int" name="LMAXPAW">  -100</i>
    <i type="int" name="LMAXMIX">     4</i>
    <i type="logical" name="NLSPLINE"> F  </i>
   </separator>
   <separator name="electronic startup" >
    <i type="int" name="ISTART">     0</i>
    <i type="int" name="ICHARG">     2</i>
    <i type="int" name="INIWAV">     1</i>
   </separator>
   <separator name="electronic spin" >
    <i type="int" name="ISPIN">     2</i>
    <i type="logical" name="LNONCOLLINEAR"> F  </i>
    <v name="MAGMOM">      0.60000000      0.60000000      0.60000000      0.60000000      0.60000000      0.60000000      0.60000000      0.60000000      0.60000000      0.60000000      0.60000000      0.60000000      0.60000000      0.60000000      0.60000000      0.60000000      0.60000000      0.60000000      0.60000000      0.60000000
      0.60000000      0.60000000      0.60000000      0.60000000      0.60000000      0.60000000      0.60000000      0.60000000      0.60000000      0.60000000      0.60000000      0.60000000      0.60000000      0.60000000      0.60000000      0.60000000      0.60000000      0.60000000      0.60000000      0.60000000
      0.60000000      0.60000000      0.60000000      0.60000000      0.60000000      0.60000000      0.60000000      0.60000000      5.00000000      5.00000000      5.00000000      5.00000000      5.00000000      5.00000000      5.00000000      5.00000000      5.00000000      5.00000000      5.00000000      5.00000000
      5.00000000      5.00000000      5.00000000      5.00000000      0.60000000      0.60000000      0.60000000      0.60000000      0.60000000      0.60000000      0.60000000      0.60000000      0.60000000      0.60000000      0.60000000      0.60000000      0.60000000      0.60000000      0.60000000      0.60000000
      0.60000000      0.60000000      0.60000000      0.60000000      0.60000000      0.60000000      0.60000000      0.60000000      0.60000000      0.60000000      0.60000000      0.60000000      0.60000000      0.60000000      0.60000000      0.60000000      0.60000000      0.60000000      0.60000000      0.60000000
      0.60000000      0.60000000      0.60000000      0.60000000      0.60000000      0.60000000      0.60000000      0.60000000      0.60000000      0.60000000      0.60000000      0.60000000      0.60000000      0.60000000      0.60000000      0.60000000      0.60000000      0.60000000      0.60000000      0.60000000
      0.60000000      0.60000000      0.60000000      0.60000000      0.60000000      0.60000000      0.60000000      0.60000000      0.60000000      0.60000000      0.60000000      0.60000000      0.60000000      0.60000000      0.60000000      0.60000000      0.60000000      0.60000000      0.60000000      0.60000000
      0.60000000      0.60000000      0.60000000      0.60000000      0.60000000      0.60000000      0.60000000      0.60000000      0.60000000      0.60000000      0.60000000      0.60000000</v>
    <i name="NUPDOWN">     -1.00000000</i>
    <i type="logical" name="LSORBIT"> F  </i>
    <v name="SAXIS">      0.00000000      0.00000000      1.00000000</v>
    <i type="logical" name="LSPIRAL"> F  </i>
    <v name="QSPIRAL">      0.00000000      0.00000000      0.00000000</v>
    <i type="logical" name="LZEROZ"> F  </i>
   </separator>
   <separator name="electronic exchange-correlation" >
    <i type="logical" name="LASPH"> F  </i>
    <i type="logical" name="LMETAGGA"> F  </i>
   </separator>
   <separator name="electronic convergence" >
    <i type="int" name="NELM">    40</i>
    <i type="int" name="NELMDL">    -5</i>
    <i type="int" name="NELMIN">     8</i>
    <i name="ENINI">    520.00000000</i>
    <separator name="electronic convergence detail" >
     <i type="logical" name="LDIAG"> T  </i>
     <i type="logical" name="LSUBROT"> F  </i>
     <i name="WEIMIN">      0.00100000</i>
     <i name="EBREAK">      0.00000003</i>
     <i name="DEPER">      0.30000000</i>
     <i type="int" name="NRMM">     4</i>
     <i name="TIME">      0.40000000</i>
    </separator>
   </separator>
   <separator name="electronic mixer" >
    <i name="AMIX">      0.40000000</i>
    <i name="BMIX">      1.00000000</i>
    <i name="AMIN">      0.10000000</i>
    <i name="AMIX_MAG">      1.60000000</i>
    <i name="BMIX_MAG">      1.00000000</i>
    <separator name="electronic mixer details" >
     <i type="int" name="IMIX">     4</i>
     <i type="logical" name="MIXFIRST"> F  </i>
     <i type="int" name="MAXMIX">   -45</i>
     <i name="WC">    100.00000000</i>
     <i type="int" name="INIMIX">     1</i>
     <i type="int" name="MIXPRE">     1</i>
     <i type="int" name="MREMOVE">     5</i>
    </separator>
   </separator>
   <separator name="electronic dipolcorrection" >
    <i type="logical" name="LDIPOL"> F  </i>
    <i type="logical" name="LMONO"> F  </i>
    <i type="int" name="IDIPOL">     0</i>
    <i name="EPSILON">      1.00000000</i>
    <v name="DIPOL">   -100.00000000   -100.00000000   -100.00000000</v>
    <i name="EFIELD">      0.00000000</i>
   </separator>
  </separator>
  <separator name="grids" >
   <i type="int" name="NGX">    64</i>
   <i type="int" name="NGY">    64</i>
   <i type="int" name="NGZ">    90</i>
   <i type="int" name="NGXF">   128</i>
   <i type="int" name="NGYF">   128</i>
   <i type="int" name="NGZF">   180</i>
   <i type="logical" name="ADDGRID"> F  </i>
  </separator>
  <separator name="ionic" >
   <i type="int" name="NSW">    30</i>
   <i type="int" name="IBRION">     2</i>
   <i type="int" name="ISIF">     3</i>
   <i name="PSTRESS">      0.00000000</i>
   <i name="EDIFFG">     -0.03000000</i>
   <i type="int" name="NFREE">     1</i>
   <i name="POTIM">      0.50000000</i>
   <i name="SMASS">     -3.00000000</i>
   <i name="SCALEE">      1.00000000</i>
  </separator>
  <separator name="ionic md" >
   <i name="TEBEG">      0.00010000</i>
   <i name="TEEND">      0.00010000</i>
   <i type="int" name="NBLOCK">     1</i>
   <i type="int" name="KBLOCK">    30</i>
   <i type="int" name="NPACO">   256</i>
   <i name="APACO">     16.00000000</i>
  </separator>
  <separator name="symmetry" >
   <i type="int" name="ISYM">     2</i>
   <i name="SYMPREC">      0.00001000</i>
  </separator>
  <separator name="dos" >
   <i type="logical" name="LORBIT"> F  </i>
   <v name="RWIGS">     -1.00000000     -1.00000000     -1.00000000     -1.00000000</v>
   <i type="int" name="NEDOS">   301</i>
   <i name="EMIN">     10.00000000</i>
   <i name="EMAX">    -10.00000000</i>
   <i name="EFERMI">      0.00000000</i>
  </separator>
  <separator name="writing" >
   <i type="int" name="NWRITE">     2</i>
   <i type="logical" name="LWAVE"> T  </i>
   <i type="logical" name="LCHARG"> T  </i>
   <i type="logical" name="LPARD"> F  </i>
   <i type="logical" name="LVTOT"> F  </i>
   <i type="logical" name="LVHAR"> F  </i>
   <i type="logical" name="LELF"> F  </i>
   <i type="logical" name="LOPTICS"> F  </i>
   <v name="STM">      0.00000000      0.00000000      0.00000000      0.00000000      0.00000000      0.00000000      0.00000000</v>
  </separator>
  <separator name="performance" >
   <i type="int" name="NPAR">     2</i>
   <i type="int" name="NSIM">     4</i>
   <i type="int" name="NBLK">    -1</i>
   <i type="logical" name="LPLANE"> T  </i>
   <i type="logical" name="LSCALAPACK"> T  </i>
   <i type="logical" name="LSCAAWARE"> F  </i>
   <i type="logical" name="LSCALU"> F  </i>
   <i type="logical" name="LASYNC"> F  </i>
   <i type="logical" name="LORBITALREAL"> F  </i>
  </separator>
  <separator name="miscellaneous" >
   <i type="int" name="IDIOT">     3</i>
   <i type="logical" name="LMUSIC"> F  </i>
   <v name="POMASS">     87.62000000     47.88000000     55.84700000     16.00000000</v>
   <v name="DARWINR">      0.00000000      0.00000000      0.00000000      0.00000000</v>
   <v name="DARWINV">      1.00000000      1.00000000      1.00000000      1.00000000</v>
   <i type="logical" name="LCORR"> T  </i>
  </separator>
  <i type="logical" name="GGA_COMPAT"> T  </i>
  <i type="logical" name="LBERRY"> F  </i>
  <i type="int" name="ICORELEVEL">     0</i>
  <i type="logical" name="LDAU"> T  </i>
  <v type="int" name="LDAUTYPE">     2</v>
  <v type="int" name="LDAUL">     0</v>
  <v name="LDAUU">      0.00000000</v>
  <v name="LDAUJ">      0.00000000</v>
  <i type="int" name="LDAUPRINT">     1</i>
  <i type="int" name="I_CONSTRAINED_M">     0</i>
  <separator name="electronic exchange-correlation" >
   <i type="string" name="GGA">--</i>
   <i type="int" name="VOSKOWN">     0</i>
   <i type="logical" name="LHFCALC"> F  </i>
   <i type="string" name="PRECFOCK"></i>
   <i type="logical" name="LSYMGRAD"> F  </i>
   <i type="logical" name="LHFONE"> F  </i>
   <i type="logical" name="LRHFCALC"> F  </i>
   <i type="logical" name="LTHOMAS"> F  </i>
   <i type="logical" name="LMODELHF"> F  </i>
   <i name="ENCUT4O">     -1.00000000</i>
   <i type="int" name="EXXOEP">     0</i>
   <i type="int" name="FOURORBIT">     0</i>
   <i name="AEXX">      0.00000000</i>
   <i name="HFALPHA">      0.00000000</i>
   <i name="MCALPHA">      0.00000000</i>
   <i name="ALDAX">      1.00000000</i>
   <i name="AGGAX">      1.00000000</i>
   <i name="ALDAC">      1.00000000</i>
   <i name="AGGAC">      1.00000000</i>
   <i type="int" name="NKREDX">     1</i>
   <i type="int" name="NKREDY">     1</i>
   <i type="int" name="NKREDZ">     1</i>
   <i type="logical" name="SHIFTRED"> F  </i>
   <i type="logical" name="ODDONLY"> F  </i>
   <i type="logical" name="EVENONLY"> F  </i>
   <i type="int" name="LMAXFOCK">     0</i>
   <i type="int" name="NMAXFOCKAE">     0</i>
   <i type="logical" name="LFOCKAEDFT"> F  </i>
   <i name="HFSCREEN">      0.00000000</i>
   <i name="HFSCREENC">      0.00000000</i>
   <i type="int" name="NBANDSGWLOW">     0</i>
  </separator>
  <separator name="vdW DFT" >
   <i type="logical" name="LUSE_VDW"> F  </i>
   <i name="Zab_VDW">     -0.84910000</i>
   <i name="PARAM1">      0.12340000</i>
   <i name="PARAM2">      1.00000000</i>
   <i name="PARAM3">      0.00000000</i>
  </separator>
  <separator name="model GW" >
   <i type="int" name="MODEL_GW">     0</i>
   <i name="MODEL_EPS0">      7.91269546</i>
   <i name="MODEL_ALPHA">      1.00000000</i>
  </separator>
  <separator name="linear response parameters" >
   <i type="logical" name="LEPSILON"> F  </i>
   <i type="logical" name="LRPA"> F  </i>
   <i type="logical" name="LNABLA"> F  </i>
   <i type="logical" name="LVEL"> F  </i>
   <i type="int" name="KINTER">     0</i>
   <i name="CSHIFT">      0.10000000</i>
   <i name="OMEGAMAX">     -1.00000000</i>
   <i name="DEG_THRESHOLD">      0.00200000</i>
  </separator>
  <separator name="orbital magnetization" >
   <i type="logical" name="NUCIND"> F  </i>
   <v name="MAGPOS">      0.00000000      0.00000000      0.00000000</v>
   <i type="logical" name="LNICSALL"> T  </i>
   <i type="logical" name="ORBITALMAG"> F  </i>
   <i type="logical" name="LMAGBLOCH"> F  </i>
   <i type="logical" name="LCHIMAG"> F  </i>
   <i type="logical" name="LGAUGE"> T  </i>
   <i type="int" name="MAGATOM">     0</i>
   <v name="MAGDIPOL">      0.00000000      0.00000000      0.00000000</v>
   <v name="AVECCONST">      0.00000000      0.00000000      0.00000000</v>
  </separator>
  <separator name="response functions" >
   <i type="logical" name="LADDER"> F  </i>
   <i type="logical" name="LFXC"> F  </i>
   <i type="logical" name="LHARTREE"> T  </i>
   <i type="int" name="IBSE">     0</i>
   <v type="int" name="KPOINT">    -1     0     0     0</v>
   <i type="logical" name="LTCTE"> F  </i>
   <i type="logical" name="LTETE"> F  </i>
   <i type="logical" name="LTRIPLET"> F  </i>
   <i type="logical" name="LFXCEPS"> F  </i>
   <i type="logical" name="LFXHEG"> F  </i>
   <i type="int" name="NATURALO">     0</i>
   <i type="logical" name="L2ORDER"> F  </i>
   <i type="logical" name="LUSEW"> F  </i>
   <i name="ENCUTGW">     -2.00000000</i>
   <i name="ENCUTGWSOFT">     -2.00000000</i>
   <i name="ENCUTLF">     -1.00000000</i>
   <i type="int" name="LMAXMP2">    -1</i>
   <i name="SCISSOR">      0.00000000</i>
   <i type="int" name="NOMEGA">     0</i>
   <i type="int" name="NOMEGAR">     0</i>
   <i type="int" name="NBANDSGW">    -1</i>
   <i type="int" name="NBANDSO">    -1</i>
   <i type="int" name="NBANDSV">    -1</i>
   <i type="int" name="NELM">    40</i>
   <i type="int" name="NELMHF">     1</i>
   <i type="int" name="DIM">     3</i>
   <i type="int" name="ANTIRES">     0</i>
   <i name="OMEGAMAX">    -30.00000000</i>
   <i name="OMEGAMIN">    -30.00000000</i>
   <i name="OMEGATL">   -200.00000000</i>
   <i type="int" name="OMEGAGRID">     0</i>
   <i name="CSHIFT">     -0.10000000</i>
   <i type="logical" name="SELFENERGY"> F  </i>
   <i type="logical" name="LSPECTRAL"> F  </i>
   <i type="logical" name="LSPECTRALGW"> F  </i>
   <i type="logical" name="LSINGLES"> F  </i>
   <i type="logical" name="LFERMIGW"> F  </i>
   <i type="logical" name="ODDONLYGW"> F  </i>
   <i type="logical" name="EVENONLYGW"> F  </i>
   <i type="int" name="NKREDLFX">     1</i>
   <i type="int" name="NKREDLFY">     1</i>
   <i type="int" name="NKREDLFZ">     1</i>
   <i type="int" name="MAXMEM">  1800</i>
   <i type="int" name="TELESCOPE">     0</i>
   <i type="int" name="TAUPAR">     1</i>
   <i type="int" name="OMEGAPAR">    -1</i>
   <i name="LAMBDA">      1.00000000</i>
  </separator>
  <separator name="External order field" >
   <i name="OFIELD_KAPPA">      0.00000000</i>
   <v name="OFIELD_K">      0.00000000      0.00000000      0.00000000</v>
   <i name="OFIELD_Q6_NEAR">      0.00000000</i>
   <i name="OFIELD_Q6_FAR">      0.00000000</i>
   <i name="OFIELD_A">      0.00000000</i>
  </separator>
 </parameters>
 <atominfo>
  <atoms>     152 </atoms>
  <types>       4 </types>
  <array name="atoms" >
   <dimension dim="1">ion</dimension>
   <field type="string">element</field>
   <field type="int">atomtype</field>
   <set>
    <rc><c>Sr</c><c>   1</c></rc>
    <rc><c>Sr</c><c>   1</c></rc>
    <rc><c>Sr</c><c>   1</c></rc>
    <rc><c>Sr</c><c>   1</c></rc>
    <rc><c>Sr</c><c>   1</c></rc>
    <rc><c>Sr</c><c>   1</c></rc>
    <rc><c>Sr</c><c>   1</c></rc>
    <rc><c>Sr</c><c>   1</c></rc>
    <rc><c>Sr</c><c>   1</c></rc>
    <rc><c>Sr</c><c>   1</c></rc>
    <rc><c>Sr</c><c>   1</c></rc>
    <rc><c>Sr</c><c>   1</c></rc>
    <rc><c>Sr</c><c>   1</c></rc>
    <rc><c>Sr</c><c>   1</c></rc>
    <rc><c>Sr</c><c>   1</c></rc>
    <rc><c>Sr</c><c>   1</c></rc>
    <rc><c>Sr</c><c>   1</c></rc>
    <rc><c>Sr</c><c>   1</c></rc>
    <rc><c>Sr</c><c>   1</c></rc>
    <rc><c>Sr</c><c>   1</c></rc>
    <rc><c>Sr</c><c>   1</c></rc>
    <rc><c>Sr</c><c>   1</c></rc>
    <rc><c>Sr</c><c>   1</c></rc>
    <rc><c>Sr</c><c>   1</c></rc>
    <rc><c>Sr</c><c>   1</c></rc>
    <rc><c>Sr</c><c>   1</c></rc>
    <rc><c>Sr</c><c>   1</c></rc>
    <rc><c>Sr</c><c>   1</c></rc>
    <rc><c>Sr</c><c>   1</c></rc>
    <rc><c>Sr</c><c>   1</c></rc>
    <rc><c>Sr</c><c>   1</c></rc>
    <rc><c>Sr</c><c>   1</c></rc>
    <rc><c>Ti</c><c>   2</c></rc>
    <rc><c>Ti</c><c>   2</c></rc>
    <rc><c>Ti</c><c>   2</c></rc>
    <rc><c>Ti</c><c>   2</c></rc>
    <rc><c>Ti</c><c>   2</c></rc>
    <rc><c>Ti</c><c>   2</c></rc>
    <rc><c>Ti</c><c>   2</c></rc>
    <rc><c>Ti</c><c>   2</c></rc>
    <rc><c>Ti</c><c>   2</c></rc>
    <rc><c>Ti</c><c>   2</c></rc>
    <rc><c>Ti</c><c>   2</c></rc>
    <rc><c>Ti</c><c>   2</c></rc>
    <rc><c>Ti</c><c>   2</c></rc>
    <rc><c>Ti</c><c>   2</c></rc>
    <rc><c>Ti</c><c>   2</c></rc>
    <rc><c>Ti</c><c>   2</c></rc>
    <rc><c>Fe</c><c>   3</c></rc>
    <rc><c>Fe</c><c>   3</c></rc>
    <rc><c>Fe</c><c>   3</c></rc>
    <rc><c>Fe</c><c>   3</c></rc>
    <rc><c>Fe</c><c>   3</c></rc>
    <rc><c>Fe</c><c>   3</c></rc>
    <rc><c>Fe</c><c>   3</c></rc>
    <rc><c>Fe</c><c>   3</c></rc>
    <rc><c>Fe</c><c>   3</c></rc>
    <rc><c>Fe</c><c>   3</c></rc>
    <rc><c>Fe</c><c>   3</c></rc>
    <rc><c>Fe</c><c>   3</c></rc>
    <rc><c>Fe</c><c>   3</c></rc>
    <rc><c>Fe</c><c>   3</c></rc>
    <rc><c>Fe</c><c>   3</c></rc>
    <rc><c>Fe</c><c>   3</c></rc>
    <rc><c>O </c><c>   4</c></rc>
    <rc><c>O </c><c>   4</c></rc>
    <rc><c>O </c><c>   4</c></rc>
    <rc><c>O </c><c>   4</c></rc>
    <rc><c>O </c><c>   4</c></rc>
    <rc><c>O </c><c>   4</c></rc>
    <rc><c>O </c><c>   4</c></rc>
    <rc><c>O </c><c>   4</c></rc>
    <rc><c>O </c><c>   4</c></rc>
    <rc><c>O </c><c>   4</c></rc>
    <rc><c>O </c><c>   4</c></rc>
    <rc><c>O </c><c>   4</c></rc>
    <rc><c>O </c><c>   4</c></rc>
    <rc><c>O </c><c>   4</c></rc>
    <rc><c>O </c><c>   4</c></rc>
    <rc><c>O </c><c>   4</c></rc>
    <rc><c>O </c><c>   4</c></rc>
    <rc><c>O </c><c>   4</c></rc>
    <rc><c>O </c><c>   4</c></rc>
    <rc><c>O </c><c>   4</c></rc>
    <rc><c>O </c><c>   4</c></rc>
    <rc><c>O </c><c>   4</c></rc>
    <rc><c>O </c><c>   4</c></rc>
    <rc><c>O </c><c>   4</c></rc>
    <rc><c>O </c><c>   4</c></rc>
    <rc><c>O </c><c>   4</c></rc>
    <rc><c>O </c><c>   4</c></rc>
    <rc><c>O </c><c>   4</c></rc>
    <rc><c>O </c><c>   4</c></rc>
    <rc><c>O </c><c>   4</c></rc>
    <rc><c>O </c><c>   4</c></rc>
    <rc><c>O </c><c>   4</c></rc>
    <rc><c>O </c><c>   4</c></rc>
    <rc><c>O </c><c>   4</c></rc>
    <rc><c>O </c><c>   4</c></rc>
    <rc><c>O </c><c>   4</c></rc>
    <rc><c>O </c><c>   4</c></rc>
    <rc><c>O </c><c>   4</c></rc>
    <rc><c>O </c><c>   4</c></rc>
    <rc><c>O </c><c>   4</c></rc>
    <rc><c>O </c><c>   4</c></rc>
    <rc><c>O </c><c>   4</c></rc>
    <rc><c>O </c><c>   4</c></rc>
    <rc><c>O </c><c>   4</c></rc>
    <rc><c>O </c><c>   4</c></rc>
    <rc><c>O </c><c>   4</c></rc>
    <rc><c>O </c><c>   4</c></rc>
    <rc><c>O </c><c>   4</c></rc>
    <rc><c>O </c><c>   4</c></rc>
    <rc><c>O </c><c>   4</c></rc>
    <rc><c>O </c><c>   4</c></rc>
    <rc><c>O </c><c>   4</c></rc>
    <rc><c>O </c><c>   4</c></rc>
    <rc><c>O </c><c>   4</c></rc>
    <rc><c>O </c><c>   4</c></rc>
    <rc><c>O </c><c>   4</c></rc>
    <rc><c>O </c><c>   4</c></rc>
    <rc><c>O </c><c>   4</c></rc>
    <rc><c>O </c><c>   4</c></rc>
    <rc><c>O </c><c>   4</c></rc>
    <rc><c>O </c><c>   4</c></rc>
    <rc><c>O </c><c>   4</c></rc>
    <rc><c>O </c><c>   4</c></rc>
    <rc><c>O </c><c>   4</c></rc>
    <rc><c>O </c><c>   4</c></rc>
    <rc><c>O </c><c>   4</c></rc>
    <rc><c>O </c><c>   4</c></rc>
    <rc><c>O </c><c>   4</c></rc>
    <rc><c>O </c><c>   4</c></rc>
    <rc><c>O </c><c>   4</c></rc>
    <rc><c>O </c><c>   4</c></rc>
    <rc><c>O </c><c>   4</c></rc>
    <rc><c>O </c><c>   4</c></rc>
    <rc><c>O </c><c>   4</c></rc>
    <rc><c>O </c><c>   4</c></rc>
    <rc><c>O </c><c>   4</c></rc>
    <rc><c>O </c><c>   4</c></rc>
    <rc><c>O </c><c>   4</c></rc>
    <rc><c>O </c><c>   4</c></rc>
    <rc><c>O </c><c>   4</c></rc>
    <rc><c>O </c><c>   4</c></rc>
    <rc><c>O </c><c>   4</c></rc>
    <rc><c>O </c><c>   4</c></rc>
    <rc><c>O </c><c>   4</c></rc>
    <rc><c>O </c><c>   4</c></rc>
    <rc><c>O </c><c>   4</c></rc>
    <rc><c>O </c><c>   4</c></rc>
    <rc><c>O </c><c>   4</c></rc>
   </set>
  </array>
  <array name="atomtypes" >
   <dimension dim="1">type</dimension>
   <field type="int">atomspertype</field>
   <field type="string">element</field>
   <field>mass</field>
   <field>valence</field>
   <field type="string">pseudopotential</field>
   <set>
    <rc><c>  32</c><c>Sr</c><c>     87.62000000</c><c>     10.00000000</c><c>  PAW_PBE Sr_sv 07Sep2000               </c></rc>
    <rc><c>  16</c><c>Ti</c><c>     47.88000000</c><c>      4.00000000</c><c>  PAW_PBE Ti 08Apr2002                  </c></rc>
    <rc><c>  16</c><c>Fe</c><c>     55.84700000</c><c>      8.00000000</c><c>  PAW_PBE Fe 06Sep2000                  </c></rc>
    <rc><c>  88</c><c>O </c><c>     16.00000000</c><c>      6.00000000</c><c>  PAW_PBE O 08Apr2002                   </c></rc>
   </set>
  </array>
 </atominfo>
 <structure name="initialpos" >
  <crystal>
   <varray name="basis" >
    <v>      11.19900000       0.00000000       0.00000000 </v>
    <v>       0.00000000      11.19900000       0.00000000 </v>
    <v>       0.00000000       0.00000000      15.98300000 </v>
   </varray>
   <i name="volume">   2004.54951678 </i>
   <varray name="rec_basis" >
    <v>       0.08929369       0.00000000       0.00000000 </v>
    <v>       0.00000000       0.08929369       0.00000000 </v>
    <v>       0.00000000       0.00000000       0.06256648 </v>
   </varray>
  </crystal>
  <varray name="positions" >
   <v>       0.00000000       0.25000000       0.12500000 </v>
   <v>       0.00000000       0.25000000       0.62500000 </v>
   <v>       0.00000000       0.75000000       0.12500000 </v>
   <v>       0.00000000       0.75000000       0.62500000 </v>
   <v>       0.50000000       0.25000000       0.12500000 </v>
   <v>       0.50000000       0.25000000       0.62500000 </v>
   <v>       0.50000000       0.75000000       0.12500000 </v>
   <v>       0.50000000       0.75000000       0.62500000 </v>
   <v>       0.00000000       0.25000000       0.37500000 </v>
   <v>       0.00000000       0.25000000       0.87500000 </v>
   <v>       0.00000000       0.75000000       0.37500000 </v>
   <v>       0.00000000       0.75000000       0.87500000 </v>
   <v>       0.50000000       0.25000000       0.37500000 </v>
   <v>       0.50000000       0.25000000       0.87500000 </v>
   <v>       0.50000000       0.75000000       0.37500000 </v>
   <v>       0.50000000       0.75000000       0.87500000 </v>
   <v>       0.25000000       0.00000000       0.12500000 </v>
   <v>       0.25000000       0.00000000       0.62500000 </v>
   <v>       0.25000000       0.50000000       0.12500000 </v>
   <v>       0.25000000       0.50000000       0.62500000 </v>
   <v>       0.75000000       0.00000000       0.12500000 </v>
   <v>       0.75000000       0.00000000       0.62500000 </v>
   <v>       0.75000000       0.50000000       0.12500000 </v>
   <v>       0.75000000       0.50000000       0.62500000 </v>
   <v>       0.25000000       0.00000000       0.37500000 </v>
   <v>       0.25000000       0.00000000       0.87500000 </v>
   <v>       0.25000000       0.50000000       0.37500000 </v>
   <v>       0.25000000       0.50000000       0.87500000 </v>
   <v>       0.75000000       0.00000000       0.37500000 </v>
   <v>       0.75000000       0.00000000       0.87500000 </v>
   <v>       0.75000000       0.50000000       0.37500000 </v>
   <v>       0.75000000       0.50000000       0.87500000 </v>
   <v>       0.00000000       0.00000000       0.50000000 </v>
   <v>       0.00000000       0.50000000       0.50000000 </v>
   <v>       0.50000000       0.00000000       0.50000000 </v>
   <v>       0.50000000       0.50000000       0.50000000 </v>
   <v>       0.25000000       0.25000000       0.00000000 </v>
   <v>       0.25000000       0.75000000       0.00000000 </v>
   <v>       0.75000000       0.25000000       0.00000000 </v>
   <v>       0.75000000       0.75000000       0.00000000 </v>
   <v>       0.25000000       0.25000000       0.25000000 </v>
   <v>       0.25000000       0.75000000       0.25000000 </v>
   <v>       0.75000000       0.25000000       0.25000000 </v>
   <v>       0.75000000       0.75000000       0.25000000 </v>
   <v>       0.00000000       0.00000000       0.75000000 </v>
   <v>       0.00000000       0.50000000       0.75000000 </v>
   <v>       0.50000000       0.00000000       0.75000000 </v>
   <v>       0.50000000       0.50000000       0.75000000 </v>
   <v>       0.00000000       0.00000000       0.25000000 </v>
   <v>       0.00000000       0.00000000       0.00000000 </v>
   <v>       0.50000000       0.00000000       0.25000000 </v>
   <v>       0.50000000       0.00000000       0.00000000 </v>
   <v>       0.00000000       0.50000000       0.25000000 </v>
   <v>       0.00000000       0.50000000       0.00000000 </v>
   <v>       0.50000000       0.50000000       0.25000000 </v>
   <v>       0.25000000       0.25000000       0.75000000 </v>
   <v>       0.25000000       0.25000000       0.50000000 </v>
   <v>       0.75000000       0.25000000       0.75000000 </v>
   <v>       0.75000000       0.25000000       0.50000000 </v>
   <v>       0.25000000       0.75000000       0.75000000 </v>
   <v>       0.25000000       0.75000000       0.50000000 </v>
   <v>       0.75000000       0.75000000       0.75000000 </v>
   <v>       0.75000000       0.75000000       0.50000000 </v>
   <v>       0.50000000       0.50000000       0.00000000 </v>
   <v>       0.10900000       0.14100000       0.25000000 </v>
   <v>       0.10900000       0.14100000       0.75000000 </v>
   <v>       0.10900000       0.64100000       0.25000000 </v>
   <v>       0.10900000       0.64100000       0.75000000 </v>
   <v>       0.60900000       0.14100000       0.25000000 </v>
   <v>       0.60900000       0.14100000       0.75000000 </v>
   <v>       0.60900000       0.64100000       0.25000000 </v>
   <v>       0.60900000       0.64100000       0.75000000 </v>
   <v>       0.39100000       0.35900000       0.25000000 </v>
   <v>       0.39100000       0.35900000       0.75000000 </v>
   <v>       0.39100000       0.85900000       0.25000000 </v>
   <v>       0.39100000       0.85900000       0.75000000 </v>
   <v>       0.89100000       0.35900000       0.25000000 </v>
   <v>       0.89100000       0.35900000       0.75000000 </v>
   <v>       0.89100000       0.85900000       0.25000000 </v>
   <v>       0.89100000       0.85900000       0.75000000 </v>
   <v>       0.35900000       0.10900000       0.25000000 </v>
   <v>       0.35900000       0.10900000       0.75000000 </v>
   <v>       0.35900000       0.60900000       0.25000000 </v>
   <v>       0.35900000       0.60900000       0.75000000 </v>
   <v>       0.85900000       0.10900000       0.25000000 </v>
   <v>       0.85900000       0.10900000       0.75000000 </v>
   <v>       0.85900000       0.60900000       0.25000000 </v>
   <v>       0.85900000       0.60900000       0.75000000 </v>
   <v>       0.14100000       0.39100000       0.25000000 </v>
   <v>       0.14100000       0.39100000       0.75000000 </v>
   <v>       0.14100000       0.89100000       0.25000000 </v>
   <v>       0.14100000       0.89100000       0.75000000 </v>
   <v>       0.64100000       0.39100000       0.25000000 </v>
   <v>       0.64100000       0.39100000       0.75000000 </v>
   <v>       0.64100000       0.89100000       0.25000000 </v>
   <v>       0.64100000       0.89100000       0.75000000 </v>
   <v>       0.35900000       0.39100000       0.00000000 </v>
   <v>       0.35900000       0.39100000       0.50000000 </v>
   <v>       0.35900000       0.89100000       0.00000000 </v>
   <v>       0.35900000       0.89100000       0.50000000 </v>
   <v>       0.85900000       0.39100000       0.00000000 </v>
   <v>       0.85900000       0.39100000       0.50000000 </v>
   <v>       0.85900000       0.89100000       0.00000000 </v>
   <v>       0.85900000       0.89100000       0.50000000 </v>
   <v>       0.14100000       0.10900000       0.00000000 </v>
   <v>       0.14100000       0.10900000       0.50000000 </v>
   <v>       0.14100000       0.60900000       0.00000000 </v>
   <v>       0.14100000       0.60900000       0.50000000 </v>
   <v>       0.64100000       0.10900000       0.00000000 </v>
   <v>       0.64100000       0.10900000       0.50000000 </v>
   <v>       0.64100000       0.60900000       0.00000000 </v>
   <v>       0.64100000       0.60900000       0.50000000 </v>
   <v>       0.10900000       0.35900000       0.00000000 </v>
   <v>       0.10900000       0.35900000       0.50000000 </v>
   <v>       0.10900000       0.85900000       0.00000000 </v>
   <v>       0.10900000       0.85900000       0.50000000 </v>
   <v>       0.60900000       0.35900000       0.00000000 </v>
   <v>       0.60900000       0.35900000       0.50000000 </v>
   <v>       0.60900000       0.85900000       0.00000000 </v>
   <v>       0.60900000       0.85900000       0.50000000 </v>
   <v>       0.39100000       0.14100000       0.00000000 </v>
   <v>       0.39100000       0.14100000       0.50000000 </v>
   <v>       0.39100000       0.64100000       0.00000000 </v>
   <v>       0.39100000       0.64100000       0.50000000 </v>
   <v>       0.89100000       0.14100000       0.00000000 </v>
   <v>       0.89100000       0.14100000       0.50000000 </v>
   <v>       0.89100000       0.64100000       0.00000000 </v>
   <v>       0.89100000       0.64100000       0.50000000 </v>
   <v>       0.00000000       0.00000000       0.62500000 </v>
   <v>       0.00000000       0.50000000       0.62500000 </v>
   <v>       0.50000000       0.00000000       0.62500000 </v>
   <v>       0.50000000       0.50000000       0.62500000 </v>
   <v>       0.00000000       0.00000000       0.37500000 </v>
   <v>       0.00000000       0.00000000       0.87500000 </v>
   <v>       0.00000000       0.50000000       0.37500000 </v>
   <v>       0.00000000       0.50000000       0.87500000 </v>
   <v>       0.50000000       0.00000000       0.37500000 </v>
   <v>       0.50000000       0.00000000       0.87500000 </v>
   <v>       0.50000000       0.50000000       0.37500000 </v>
   <v>       0.50000000       0.50000000       0.87500000 </v>
   <v>       0.25000000       0.25000000       0.37500000 </v>
   <v>       0.25000000       0.25000000       0.87500000 </v>
   <v>       0.25000000       0.75000000       0.37500000 </v>
   <v>       0.25000000       0.75000000       0.87500000 </v>
   <v>       0.75000000       0.25000000       0.37500000 </v>
   <v>       0.75000000       0.25000000       0.87500000 </v>
   <v>       0.75000000       0.75000000       0.37500000 </v>
   <v>       0.75000000       0.75000000       0.87500000 </v>
   <v>       0.25000000       0.25000000       0.12500000 </v>
   <v>       0.25000000       0.75000000       0.12500000 </v>
   <v>       0.75000000       0.25000000       0.12500000 </v>
   <v>       0.75000000       0.75000000       0.12500000 </v>
  </varray>
 </structure>
 <calculation>
  <scstep>
   <time name="dav">   70.57   70.59</time>
   <time name="total">   71.16   71.19</time>
   <energy>
    <i name="alphaZ">   5618.33838386 </i>
    <i name="ewald"> -62840.39129225 </i>
    <i name="hartreedc"> -16048.48700815 </i>
    <i name="XCdc">   3085.81640173 </i>
    <i name="pawpsdc">  61524.22494215 </i>
    <i name="pawaedc"> -60469.96712830 </i>
    <i name="eentropy">     -0.05985023 </i>
    <i name="bandstr">   5815.88176326 </i>
    <i name="atom">  76050.17612637 </i>
    <i name="e_fr_energy">  12735.53233844 </i>
    <i name="e_wo_entrp">  12735.59218867 </i>
    <i name="e_0_energy">  12735.56226355 </i>
   </energy>
  </scstep>
  <scstep>
   <time name="dav">   71.66   71.67</time>
   <time name="total">   71.68   71.71</time>
   <energy>
    <i name="e_fr_energy">    974.76880759 </i>
    <i name="e_wo_entrp">    974.79521102 </i>
    <i name="e_0_energy">    974.78200930 </i>
   </energy>
  </scstep>
  <scstep>
   <time name="dav">   75.38   75.38</time>
   <time name="total">   75.38   75.41</time>
   <energy>
    <i name="e_fr_energy">  -1184.35974322 </i>
    <i name="e_wo_entrp">  -1184.35974322 </i>
    <i name="e_0_energy">  -1184.35974322 </i>
   </energy>
  </scstep>
  <scstep>
   <time name="dav">   93.45   93.45</time>
   <time name="total">   93.46   93.51</time>
   <energy>
    <i name="e_fr_energy">  -1372.37315170 </i>
    <i name="e_wo_entrp">  -1372.37315170 </i>
    <i name="e_0_energy">  -1372.37315170 </i>
   </energy>
  </scstep>
  <scstep>
   <time name="dav">  117.03  117.03</time>
   <time name="total">  118.54  118.59</time>
   <energy>
    <i name="e_fr_energy">  -1382.03967060 </i>
    <i name="e_wo_entrp">  -1382.03967060 </i>
    <i name="e_0_energy">  -1382.03967060 </i>
   </energy>
  </scstep>
  <scstep>
   <time name="diag">    8.30    8.30</time>
   <time name="diis">   14.26   14.26</time>
   <time name="orth">    4.74    4.74</time>
   <time name="total">   29.35   29.37</time>
   <energy>
    <i name="e_fr_energy">  -1065.70171462 </i>
    <i name="e_wo_entrp">  -1065.70171462 </i>
    <i name="e_0_energy">  -1065.70171462 </i>
   </energy>
  </scstep>
  <scstep>
   <time name="diag">    8.29    8.29</time>
   <time name="diis">   13.56   13.56</time>
   <time name="orth">    4.75    4.75</time>
   <time name="total">   28.65   28.71</time>
   <energy>
    <i name="e_fr_energy">  -1042.64791951 </i>
    <i name="e_wo_entrp">  -1042.64791951 </i>
    <i name="e_0_energy">  -1042.64791951 </i>
   </energy>
  </scstep>
  <scstep>
   <time name="diag">    8.29    8.30</time>
   <time name="diis">   13.94   13.94</time>
   <time name="orth">    4.74    4.75</time>
   <time name="total">   29.03   29.04</time>
   <energy>
    <i name="e_fr_energy">  -1040.45794892 </i>
    <i name="e_wo_entrp">  -1040.45794892 </i>
    <i name="e_0_energy">  -1040.45794892 </i>
   </energy>
  </scstep>
  <scstep>
   <time name="diag">    8.30    8.30</time>
   <time name="diis">   13.03   13.03</time>
   <time name="orth">    4.76    4.76</time>
   <time name="total">   28.13   28.16</time>
   <energy>
    <i name="e_fr_energy">  -1045.11500544 </i>
    <i name="e_wo_entrp">  -1045.11500544 </i>
    <i name="e_0_energy">  -1045.11500544 </i>
   </energy>
  </scstep>
  <scstep>
   <time name="diag">    8.32    8.32</time>
   <time name="diis">   13.80   13.80</time>
   <time name="orth">    4.75    4.75</time>
   <time name="total">   28.92   28.98</time>
   <energy>
    <i name="e_fr_energy">  -1044.92888117 </i>
    <i name="e_wo_entrp">  -1044.92888117 </i>
    <i name="e_0_energy">  -1044.92888117 </i>
   </energy>
  </scstep>
  <scstep>
   <time name="diag">    8.31    8.31</time>
   <time name="diis">   14.58   14.58</time>
   <time name="orth">    4.72    4.72</time>
   <time name="total">   29.67   29.71</time>
   <energy>
    <i name="e_fr_energy">  -1045.52668502 </i>
    <i name="e_wo_entrp">  -1045.52668502 </i>
    <i name="e_0_energy">  -1045.52668502 </i>
   </energy>
  </scstep>
  <scstep>
   <time name="diag">    8.30    8.30</time>
   <time name="diis">   13.80   13.80</time>
   <time name="orth">    4.72    4.73</time>
   <time name="total">   28.89   28.94</time>
   <energy>
    <i name="e_fr_energy">  -1046.28039808 </i>
    <i name="e_wo_entrp">  -1046.28039808 </i>
    <i name="e_0_energy">  -1046.28039808 </i>
   </energy>
  </scstep>
  <scstep>
   <time name="diag">    8.30    8.30</time>
   <time name="diis">   14.07   14.08</time>
   <time name="orth">    4.72    4.73</time>
   <time name="total">   29.15   29.20</time>
   <energy>
    <i name="e_fr_energy">  -1046.64803738 </i>
    <i name="e_wo_entrp">  -1046.64803738 </i>
    <i name="e_0_energy">  -1046.64803738 </i>
   </energy>
  </scstep>
  <scstep>
   <time name="diag">    8.29    8.30</time>
   <time name="diis">   15.47   15.47</time>
   <time name="orth">    4.73    4.73</time>
   <time name="total">   30.57   30.59</time>
   <energy>
    <i name="e_fr_energy">  -1046.72605324 </i>
    <i name="e_wo_entrp">  -1046.72605324 </i>
    <i name="e_0_energy">  -1046.72605324 </i>
   </energy>
  </scstep>
  <scstep>
   <time name="diag">    8.31    8.32</time>
   <time name="diis">   14.44   14.45</time>
   <time name="orth">    4.74    4.75</time>
   <time name="total">   29.56   29.64</time>
   <energy>
    <i name="e_fr_energy">  -1046.78042330 </i>
    <i name="e_wo_entrp">  -1046.78042330 </i>
    <i name="e_0_energy">  -1046.78042330 </i>
   </energy>
  </scstep>
  <scstep>
   <time name="diag">    8.31    8.31</time>
   <time name="diis">   15.16   15.16</time>
   <time name="orth">    4.75    4.75</time>
   <time name="total">   30.30   30.39</time>
   <energy>
    <i name="e_fr_energy">  -1046.78972905 </i>
    <i name="e_wo_entrp">  -1046.78972905 </i>
    <i name="e_0_energy">  -1046.78972905 </i>
   </energy>
  </scstep>
  <scstep>
   <time name="diag">    8.30    8.30</time>
   <time name="diis">   16.35   16.34</time>
   <time name="orth">    4.74    4.74</time>
   <time name="total">   31.46   32.10</time>
   <energy>
    <i name="e_fr_energy">  -1046.79075115 </i>
    <i name="e_wo_entrp">  -1046.79075115 </i>
    <i name="e_0_energy">  -1046.79075115 </i>
   </energy>
  </scstep>
  <scstep>
   <time name="diag">    8.30    8.30</time>
   <time name="diis">   14.14   14.14</time>
   <time name="orth">    4.73    4.73</time>
   <time name="total">   29.25   29.34</time>
   <energy>
    <i name="e_fr_energy">  -1046.79090097 </i>
    <i name="e_wo_entrp">  -1046.79090097 </i>
    <i name="e_0_energy">  -1046.79090097 </i>
   </energy>
  </scstep>
  <scstep>
   <time name="diag">    8.31    8.32</time>
   <time name="diis">   12.58   12.58</time>
   <time name="orth">    4.72    4.74</time>
   <time name="total">   27.69   27.75</time>
   <energy>
    <i name="e_fr_energy">  -1046.79103488 </i>
    <i name="e_wo_entrp">  -1046.79103488 </i>
    <i name="e_0_energy">  -1046.79103488 </i>
   </energy>
  </scstep>
  <scstep>
   <time name="diag">    8.30    8.31</time>
   <time name="diis">   10.15   10.15</time>
   <time name="orth">    4.72    4.73</time>
   <time name="total">   23.76   23.97</time>
   <energy>
    <i name="alphaZ">   5618.33838386 </i>
    <i name="ewald"> -62840.39129225 </i>
    <i name="hartreedc"> -16791.06956616 </i>
    <i name="XCdc">   3177.49450305 </i>
    <i name="pawpsdc"> 110696.09548864 </i>
    <i name="pawaedc">-109897.40366780 </i>
    <i name="eentropy">     -0.00000000 </i>
    <i name="bandstr">  -7060.03104569 </i>
    <i name="atom">  76050.17612637 </i>
    <i name="e_fr_energy">  -1046.79106998 </i>
    <i name="e_wo_entrp">  -1046.79106998 </i>
    <i name="e_0_energy">  -1046.79106998 </i>
   </energy>
  </scstep>
  <structure>
   <crystal>
    <varray name="basis" >
     <v>      11.19900000       0.00000000       0.00000000 </v>
     <v>       0.00000000      11.19900000       0.00000000 </v>
     <v>       0.00000000       0.00000000      15.98300000 </v>
    </varray>
    <i name="volume">   2004.54951678 </i>
    <varray name="rec_basis" >
     <v>       0.08929369       0.00000000       0.00000000 </v>
     <v>       0.00000000       0.08929369       0.00000000 </v>
     <v>       0.00000000       0.00000000       0.06256648 </v>
    </varray>
   </crystal>
   <varray name="positions" >
    <v>       0.00000000       0.25000000       0.12500000 </v>
    <v>       0.00000000       0.25000000       0.62500000 </v>
    <v>       0.00000000       0.75000000       0.12500000 </v>
    <v>       0.00000000       0.75000000       0.62500000 </v>
    <v>       0.50000000       0.25000000       0.12500000 </v>
    <v>       0.50000000       0.25000000       0.62500000 </v>
    <v>       0.50000000       0.75000000       0.12500000 </v>
    <v>       0.50000000       0.75000000       0.62500000 </v>
    <v>       0.00000000       0.25000000       0.37500000 </v>
    <v>       0.00000000       0.25000000       0.87500000 </v>
    <v>       0.00000000       0.75000000       0.37500000 </v>
    <v>       0.00000000       0.75000000       0.87500000 </v>
    <v>       0.50000000       0.25000000       0.37500000 </v>
    <v>       0.50000000       0.25000000       0.87500000 </v>
    <v>       0.50000000       0.75000000       0.37500000 </v>
    <v>       0.50000000       0.75000000       0.87500000 </v>
    <v>       0.25000000       0.00000000       0.12500000 </v>
    <v>       0.25000000       0.00000000       0.62500000 </v>
    <v>       0.25000000       0.50000000       0.12500000 </v>
    <v>       0.25000000       0.50000000       0.62500000 </v>
    <v>       0.75000000       0.00000000       0.12500000 </v>
    <v>       0.75000000       0.00000000       0.62500000 </v>
    <v>       0.75000000       0.50000000       0.12500000 </v>
    <v>       0.75000000       0.50000000       0.62500000 </v>
    <v>       0.25000000       0.00000000       0.37500000 </v>
    <v>       0.25000000       0.00000000       0.87500000 </v>
    <v>       0.25000000       0.50000000       0.37500000 </v>
    <v>       0.25000000       0.50000000       0.87500000 </v>
    <v>       0.75000000       0.00000000       0.37500000 </v>
    <v>       0.75000000       0.00000000       0.87500000 </v>
    <v>       0.75000000       0.50000000       0.37500000 </v>
    <v>       0.75000000       0.50000000       0.87500000 </v>
    <v>       0.00000000       0.00000000       0.50000000 </v>
    <v>       0.00000000       0.50000000       0.50000000 </v>
    <v>       0.50000000       0.00000000       0.50000000 </v>
    <v>       0.50000000       0.50000000       0.50000000 </v>
    <v>       0.25000000       0.25000000       0.00000000 </v>
    <v>       0.25000000       0.75000000       0.00000000 </v>
    <v>       0.75000000       0.25000000       0.00000000 </v>
    <v>       0.75000000       0.75000000       0.00000000 </v>
    <v>       0.25000000       0.25000000       0.25000000 </v>
    <v>       0.25000000       0.75000000       0.25000000 </v>
    <v>       0.75000000       0.25000000       0.25000000 </v>
    <v>       0.75000000       0.75000000       0.25000000 </v>
    <v>       0.00000000       0.00000000       0.75000000 </v>
    <v>       0.00000000       0.50000000       0.75000000 </v>
    <v>       0.50000000       0.00000000       0.75000000 </v>
    <v>       0.50000000       0.50000000       0.75000000 </v>
    <v>       0.00000000       0.00000000       0.25000000 </v>
    <v>       0.00000000       0.00000000       0.00000000 </v>
    <v>       0.50000000       0.00000000       0.25000000 </v>
    <v>       0.50000000       0.00000000       0.00000000 </v>
    <v>       0.00000000       0.50000000       0.25000000 </v>
    <v>       0.00000000       0.50000000       0.00000000 </v>
    <v>       0.50000000       0.50000000       0.25000000 </v>
    <v>       0.25000000       0.25000000       0.75000000 </v>
    <v>       0.25000000       0.25000000       0.50000000 </v>
    <v>       0.75000000       0.25000000       0.75000000 </v>
    <v>       0.75000000       0.25000000       0.50000000 </v>
    <v>       0.25000000       0.75000000       0.75000000 </v>
    <v>       0.25000000       0.75000000       0.50000000 </v>
    <v>       0.75000000       0.75000000       0.75000000 </v>
    <v>       0.75000000       0.75000000       0.50000000 </v>
    <v>       0.50000000       0.50000000       0.00000000 </v>
    <v>       0.10900000       0.14100000       0.25000000 </v>
    <v>       0.10900000       0.14100000       0.75000000 </v>
    <v>       0.10900000       0.64100000       0.25000000 </v>
    <v>       0.10900000       0.64100000       0.75000000 </v>
    <v>       0.60900000       0.14100000       0.25000000 </v>
    <v>       0.60900000       0.14100000       0.75000000 </v>
    <v>       0.60900000       0.64100000       0.25000000 </v>
    <v>       0.60900000       0.64100000       0.75000000 </v>
    <v>       0.39100000       0.35900000       0.25000000 </v>
    <v>       0.39100000       0.35900000       0.75000000 </v>
    <v>       0.39100000       0.85900000       0.25000000 </v>
    <v>       0.39100000       0.85900000       0.75000000 </v>
    <v>       0.89100000       0.35900000       0.25000000 </v>
    <v>       0.89100000       0.35900000       0.75000000 </v>
    <v>       0.89100000       0.85900000       0.25000000 </v>
    <v>       0.89100000       0.85900000       0.75000000 </v>
    <v>       0.35900000       0.10900000       0.25000000 </v>
    <v>       0.35900000       0.10900000       0.75000000 </v>
    <v>       0.35900000       0.60900000       0.25000000 </v>
    <v>       0.35900000       0.60900000       0.75000000 </v>
    <v>       0.85900000       0.10900000       0.25000000 </v>
    <v>       0.85900000       0.10900000       0.75000000 </v>
    <v>       0.85900000       0.60900000       0.25000000 </v>
    <v>       0.85900000       0.60900000       0.75000000 </v>
    <v>       0.14100000       0.39100000       0.25000000 </v>
    <v>       0.14100000       0.39100000       0.75000000 </v>
    <v>       0.14100000       0.89100000       0.25000000 </v>
    <v>       0.14100000       0.89100000       0.75000000 </v>
    <v>       0.64100000       0.39100000       0.25000000 </v>
    <v>       0.64100000       0.39100000       0.75000000 </v>
    <v>       0.64100000       0.89100000       0.25000000 </v>
    <v>       0.64100000       0.89100000       0.75000000 </v>
    <v>       0.35900000       0.39100000       0.00000000 </v>
    <v>       0.35900000       0.39100000       0.50000000 </v>
    <v>       0.35900000       0.89100000       0.00000000 </v>
    <v>       0.35900000       0.89100000       0.50000000 </v>
    <v>       0.85900000       0.39100000       0.00000000 </v>
    <v>       0.85900000       0.39100000       0.50000000 </v>
    <v>       0.85900000       0.89100000       0.00000000 </v>
    <v>       0.85900000       0.89100000       0.50000000 </v>
    <v>       0.14100000       0.10900000       0.00000000 </v>
    <v>       0.14100000       0.10900000       0.50000000 </v>
    <v>       0.14100000       0.60900000       0.00000000 </v>
    <v>       0.14100000       0.60900000       0.50000000 </v>
    <v>       0.64100000       0.10900000       0.00000000 </v>
    <v>       0.64100000       0.10900000       0.50000000 </v>
    <v>       0.64100000       0.60900000       0.00000000 </v>
    <v>       0.64100000       0.60900000       0.50000000 </v>
    <v>       0.10900000       0.35900000       0.00000000 </v>
    <v>       0.10900000       0.35900000       0.50000000 </v>
    <v>       0.10900000       0.85900000       0.00000000 </v>
    <v>       0.10900000       0.85900000       0.50000000 </v>
    <v>       0.60900000       0.35900000       0.00000000 </v>
    <v>       0.60900000       0.35900000       0.50000000 </v>
    <v>       0.60900000       0.85900000       0.00000000 </v>
    <v>       0.60900000       0.85900000       0.50000000 </v>
    <v>       0.39100000       0.14100000       0.00000000 </v>
    <v>       0.39100000       0.14100000       0.50000000 </v>
    <v>       0.39100000       0.64100000       0.00000000 </v>
    <v>       0.39100000       0.64100000       0.50000000 </v>
    <v>       0.89100000       0.14100000       0.00000000 </v>
    <v>       0.89100000       0.14100000       0.50000000 </v>
    <v>       0.89100000       0.64100000       0.00000000 </v>
    <v>       0.89100000       0.64100000       0.50000000 </v>
    <v>       0.00000000       0.00000000       0.62500000 </v>
    <v>       0.00000000       0.50000000       0.62500000 </v>
    <v>       0.50000000       0.00000000       0.62500000 </v>
    <v>       0.50000000       0.50000000       0.62500000 </v>
    <v>       0.00000000       0.00000000       0.37500000 </v>
    <v>       0.00000000       0.00000000       0.87500000 </v>
    <v>       0.00000000       0.50000000       0.37500000 </v>
    <v>       0.00000000       0.50000000       0.87500000 </v>
    <v>       0.50000000       0.00000000       0.37500000 </v>
    <v>       0.50000000       0.00000000       0.87500000 </v>
    <v>       0.50000000       0.50000000       0.37500000 </v>
    <v>       0.50000000       0.50000000       0.87500000 </v>
    <v>       0.25000000       0.25000000       0.37500000 </v>
    <v>       0.25000000       0.25000000       0.87500000 </v>
    <v>       0.25000000       0.75000000       0.37500000 </v>
    <v>       0.25000000       0.75000000       0.87500000 </v>
    <v>       0.75000000       0.25000000       0.37500000 </v>
    <v>       0.75000000       0.25000000       0.87500000 </v>
    <v>       0.75000000       0.75000000       0.37500000 </v>
    <v>       0.75000000       0.75000000       0.87500000 </v>
    <v>       0.25000000       0.25000000       0.12500000 </v>
    <v>       0.25000000       0.75000000       0.12500000 </v>
    <v>       0.75000000       0.25000000       0.12500000 </v>
    <v>       0.75000000       0.75000000       0.12500000 </v>
   </varray>
  </structure>
  <varray name="forces" >
   <v>       0.00000000       0.00000000      -0.00000000 </v>
   <v>       0.00000000       0.00000000      -0.00000000 </v>
   <v>       0.00000000       0.00000000      -0.00000000 </v>
   <v>       0.00000000       0.00000000      -0.00000000 </v>
   <v>       0.00000000       0.00000000      -0.00000000 </v>
   <v>       0.00000000       0.00000000      -0.00000000 </v>
   <v>       0.00000000       0.00000000      -0.00000000 </v>
   <v>       0.00000000       0.00000000      -0.00000000 </v>
   <v>       0.00000000       0.00000000      -0.00000000 </v>
   <v>       0.00000000       0.00000000      -0.00000000 </v>
   <v>       0.00000000       0.00000000      -0.00000000 </v>
   <v>       0.00000000       0.00000000      -0.00000000 </v>
   <v>       0.00000000       0.00000000      -0.00000000 </v>
   <v>       0.00000000       0.00000000      -0.00000000 </v>
   <v>       0.00000000       0.00000000      -0.00000000 </v>
   <v>       0.00000000       0.00000000      -0.00000000 </v>
   <v>       0.00000000       0.00000000      -0.00000000 </v>
   <v>       0.00000000       0.00000000      -0.00000000 </v>
   <v>       0.00000000       0.00000000      -0.00000000 </v>
   <v>       0.00000000       0.00000000      -0.00000000 </v>
   <v>       0.00000000       0.00000000      -0.00000000 </v>
   <v>       0.00000000       0.00000000      -0.00000000 </v>
   <v>       0.00000000       0.00000000      -0.00000000 </v>
   <v>       0.00000000       0.00000000      -0.00000000 </v>
   <v>       0.00000000       0.00000000      -0.00000000 </v>
   <v>       0.00000000       0.00000000      -0.00000000 </v>
   <v>       0.00000000       0.00000000      -0.00000000 </v>
   <v>       0.00000000       0.00000000      -0.00000000 </v>
   <v>       0.00000000       0.00000000      -0.00000000 </v>
   <v>       0.00000000       0.00000000      -0.00000000 </v>
   <v>       0.00000000       0.00000000      -0.00000000 </v>
   <v>       0.00000000       0.00000000      -0.00000000 </v>
   <v>       0.00000000       0.00000000      -0.45956217 </v>
   <v>       0.00000000       0.00000000      -0.45956217 </v>
   <v>       0.00000000       0.00000000      -0.45956217 </v>
   <v>       0.00000000       0.00000000      -0.45956217 </v>
   <v>       0.00000000       0.00000000      -0.45956217 </v>
   <v>       0.00000000       0.00000000      -0.45956217 </v>
   <v>       0.00000000       0.00000000      -0.45956217 </v>
   <v>       0.00000000       0.00000000      -0.45956217 </v>
   <v>       0.00000000       0.00000000       0.45956217 </v>
   <v>       0.00000000       0.00000000       0.45956217 </v>
   <v>       0.00000000       0.00000000       0.45956217 </v>
   <v>       0.00000000       0.00000000       0.45956217 </v>
   <v>       0.00000000       0.00000000       0.45956217 </v>
   <v>       0.00000000       0.00000000       0.45956217 </v>
   <v>       0.00000000       0.00000000       0.45956217 </v>
   <v>       0.00000000       0.00000000       0.45956217 </v>
   <v>       0.00000000       0.00000000       2.97256027 </v>
   <v>       0.00000000       0.00000000      -2.97256027 </v>
   <v>       0.00000000       0.00000000       2.97256027 </v>
   <v>       0.00000000       0.00000000      -2.97256027 </v>
   <v>       0.00000000       0.00000000       2.97256027 </v>
   <v>       0.00000000       0.00000000      -2.97256027 </v>
   <v>       0.00000000       0.00000000       2.97256027 </v>
   <v>       0.00000000       0.00000000       2.97256027 </v>
   <v>       0.00000000       0.00000000      -2.97256027 </v>
   <v>       0.00000000       0.00000000       2.97256027 </v>
   <v>       0.00000000       0.00000000      -2.97256027 </v>
   <v>       0.00000000       0.00000000       2.97256027 </v>
   <v>       0.00000000       0.00000000      -2.97256027 </v>
   <v>       0.00000000       0.00000000       2.97256027 </v>
   <v>       0.00000000       0.00000000      -2.97256027 </v>
   <v>       0.00000000       0.00000000      -2.97256027 </v>
   <v>      -0.41484830      -0.49721247      -1.01318645 </v>
   <v>       0.49721247       0.41484830      -1.01318645 </v>
   <v>      -0.41484830      -0.49721247      -1.01318645 </v>
   <v>       0.49721247       0.41484830      -1.01318645 </v>
   <v>      -0.41484830      -0.49721247      -1.01318645 </v>
   <v>       0.49721247       0.41484830      -1.01318645 </v>
   <v>      -0.41484830      -0.49721247      -1.01318645 </v>
   <v>       0.49721247       0.41484830      -1.01318645 </v>
   <v>       0.41484830       0.49721247      -1.01318645 </v>
   <v>      -0.49721247      -0.41484830      -1.01318645 </v>
   <v>       0.41484830       0.49721247      -1.01318645 </v>
   <v>      -0.49721247      -0.41484830      -1.01318645 </v>
   <v>       0.41484830       0.49721247      -1.01318645 </v>
   <v>      -0.49721247      -0.41484830      -1.01318645 </v>
   <v>       0.41484830       0.49721247      -1.01318645 </v>
   <v>      -0.49721247      -0.41484830      -1.01318645 </v>
   <v>       0.49721247      -0.41484830      -1.01318645 </v>
   <v>      -0.41484830       0.49721247      -1.01318645 </v>
   <v>       0.49721247      -0.41484830      -1.01318645 </v>
   <v>      -0.41484830       0.49721247      -1.01318645 </v>
   <v>       0.49721247      -0.41484830      -1.01318645 </v>
   <v>      -0.41484830       0.49721247      -1.01318645 </v>
   <v>       0.49721247      -0.41484830      -1.01318645 </v>
   <v>      -0.41484830       0.49721247      -1.01318645 </v>
   <v>      -0.49721247       0.41484830      -1.01318645 </v>
   <v>       0.41484830      -0.49721247      -1.01318645 </v>
   <v>      -0.49721247       0.41484830      -1.01318645 </v>
   <v>       0.41484830      -0.49721247      -1.01318645 </v>
   <v>      -0.49721247       0.41484830      -1.01318645 </v>
   <v>       0.41484830      -0.49721247      -1.01318645 </v>
   <v>      -0.49721247       0.41484830      -1.01318645 </v>
   <v>       0.41484830      -0.49721247      -1.01318645 </v>
   <v>       0.49721247       0.41484830       1.01318645 </v>
   <v>      -0.41484830      -0.49721247       1.01318645 </v>
   <v>       0.49721247       0.41484830       1.01318645 </v>
   <v>      -0.41484830      -0.49721247       1.01318645 </v>
   <v>       0.49721247       0.41484830       1.01318645 </v>
   <v>      -0.41484830      -0.49721247       1.01318645 </v>
   <v>       0.49721247       0.41484830       1.01318645 </v>
   <v>      -0.41484830      -0.49721247       1.01318645 </v>
   <v>      -0.49721247      -0.41484830       1.01318645 </v>
   <v>       0.41484830       0.49721247       1.01318645 </v>
   <v>      -0.49721247      -0.41484830       1.01318645 </v>
   <v>       0.41484830       0.49721247       1.01318645 </v>
   <v>      -0.49721247      -0.41484830       1.01318645 </v>
   <v>       0.41484830       0.49721247       1.01318645 </v>
   <v>      -0.49721247      -0.41484830       1.01318645 </v>
   <v>       0.41484830       0.49721247       1.01318645 </v>
   <v>      -0.41484830       0.49721247       1.01318645 </v>
   <v>       0.49721247      -0.41484830       1.01318645 </v>
   <v>      -0.41484830       0.49721247       1.01318645 </v>
   <v>       0.49721247      -0.41484830       1.01318645 </v>
   <v>      -0.41484830       0.49721247       1.01318645 </v>
   <v>       0.49721247      -0.41484830       1.01318645 </v>
   <v>      -0.41484830       0.49721247       1.01318645 </v>
   <v>       0.49721247      -0.41484830       1.01318645 </v>
   <v>       0.41484830      -0.49721247       1.01318645 </v>
   <v>      -0.49721247       0.41484830       1.01318645 </v>
   <v>       0.41484830      -0.49721247       1.01318645 </v>
   <v>      -0.49721247       0.41484830       1.01318645 </v>
   <v>       0.41484830      -0.49721247       1.01318645 </v>
   <v>      -0.49721247       0.41484830       1.01318645 </v>
   <v>       0.41484830      -0.49721247       1.01318645 </v>
   <v>      -0.49721247       0.41484830       1.01318645 </v>
   <v>       0.00000000       0.00000000      -0.00000000 </v>
   <v>       0.00000000       0.00000000      -0.00000000 </v>
   <v>       0.00000000       0.00000000      -0.00000000 </v>
   <v>       0.00000000       0.00000000      -0.00000000 </v>
   <v>       0.00000000       0.00000000       0.24058884 </v>
   <v>       0.00000000       0.00000000      -0.24058884 </v>
   <v>       0.00000000       0.00000000       0.24058884 </v>
   <v>       0.00000000       0.00000000      -0.24058884 </v>
   <v>       0.00000000       0.00000000       0.24058884 </v>
   <v>       0.00000000       0.00000000      -0.24058884 </v>
   <v>       0.00000000       0.00000000       0.24058884 </v>
   <v>       0.00000000       0.00000000      -0.24058884 </v>
   <v>       0.00000000       0.00000000      -0.24058884 </v>
   <v>       0.00000000       0.00000000       0.24058884 </v>
   <v>       0.00000000       0.00000000      -0.24058884 </v>
   <v>       0.00000000       0.00000000       0.24058884 </v>
   <v>       0.00000000       0.00000000      -0.24058884 </v>
   <v>       0.00000000       0.00000000       0.24058884 </v>
   <v>       0.00000000       0.00000000      -0.24058884 </v>
   <v>       0.00000000       0.00000000       0.24058884 </v>
   <v>       0.00000000       0.00000000      -0.00000000 </v>
   <v>       0.00000000       0.00000000      -0.00000000 </v>
   <v>       0.00000000       0.00000000      -0.00000000 </v>
   <v>       0.00000000       0.00000000      -0.00000000 </v>
  </varray>
  <varray name="stress" >
   <v>      -6.03004324       0.00000000       0.00000000 </v>
   <v>       0.00000000      -6.03004324       0.00000000 </v>
   <v>       0.00000000      -0.00000000     -48.22378117 </v>
  </varray>
  <energy>
   <i name="e_fr_energy">  -1046.79106998 </i>
   <i name="e_wo_entrp">  -1046.79106998 </i>
   <i name="e_0_energy">     -0.00000000 </i>
  </energy>
  <time name="totalsc">  925.95  929.32</time>
 </calculation>
 <calculation>
  <scstep>
   <time name="dav">   73.46   73.47</time>
   <time name="total">   75.50   75.56</time>
   <energy>
    <i name="alphaZ">   5755.55695560 </i>
    <i name="ewald"> -63082.55302938 </i>
    <i name="hartreedc"> -17176.97210876 </i>
    <i name="XCdc">   3279.93011615 </i>
    <i name="pawpsdc"> 110694.95217597 </i>
    <i name="pawaedc">-109896.25134809 </i>
    <i name="eentropy">     -0.00000000 </i>
    <i name="bandstr">  -6582.75101673 </i>
    <i name="atom">  76050.17612637 </i>
    <i name="e_fr_energy">   -957.91212886 </i>
    <i name="e_wo_entrp">   -957.91212886 </i>
    <i name="e_0_energy">   -957.91212886 </i>
   </energy>
  </scstep>
  <scstep>
   <time name="diag">    8.31    8.31</time>
   <time name="diis">   13.66   13.67</time>
   <time name="orth">    4.71    4.71</time>
   <time name="total">   28.75   28.79</time>
   <energy>
    <i name="e_fr_energy">  -1051.93570868 </i>
    <i name="e_wo_entrp">  -1051.93570868 </i>
    <i name="e_0_energy">  -1051.93570868 </i>
   </energy>
  </scstep>
  <scstep>
   <time name="diag">    8.29    8.30</time>
   <time name="diis">   13.65   13.65</time>
   <time name="orth">    4.71    4.71</time>
   <time name="total">   28.71   28.74</time>
   <energy>
    <i name="e_fr_energy">  -1053.55805352 </i>
    <i name="e_wo_entrp">  -1053.55805352 </i>
    <i name="e_0_energy">  -1053.55805352 </i>
   </energy>
  </scstep>
  <scstep>
   <time name="diag">    8.30    8.30</time>
   <time name="diis">   13.39   13.39</time>
   <time name="orth">    4.71    4.71</time>
   <time name="total">   28.47   28.48</time>
   <energy>
    <i name="e_fr_energy">  -1053.22234867 </i>
    <i name="e_wo_entrp">  -1053.22234867 </i>
    <i name="e_0_energy">  -1053.22234867 </i>
   </energy>
  </scstep>
  <scstep>
   <time name="diag">    8.29    8.29</time>
   <time name="diis">   14.13   14.13</time>
   <time name="orth">    4.73    4.73</time>
   <time name="total">   29.20   29.21</time>
   <energy>
    <i name="e_fr_energy">  -1053.04064774 </i>
    <i name="e_wo_entrp">  -1053.04064774 </i>
    <i name="e_0_energy">  -1053.04064774 </i>
   </energy>
  </scstep>
  <scstep>
   <time name="diag">    8.29    8.30</time>
   <time name="diis">   15.40   15.40</time>
   <time name="orth">    4.71    4.71</time>
   <time name="total">   30.46   30.51</time>
   <energy>
    <i name="e_fr_energy">  -1053.04020361 </i>
    <i name="e_wo_entrp">  -1053.04020361 </i>
    <i name="e_0_energy">  -1053.04020361 </i>
   </energy>
  </scstep>
  <scstep>
   <time name="diag">    8.30    8.31</time>
   <time name="diis">   17.04   17.04</time>
   <time name="orth">    4.74    4.74</time>
   <time name="total">   32.15   32.16</time>
   <energy>
    <i name="e_fr_energy">  -1053.05689088 </i>
    <i name="e_wo_entrp">  -1053.05689088 </i>
    <i name="e_0_energy">  -1053.05689088 </i>
   </energy>
  </scstep>
  <scstep>
   <time name="diag">    8.30    8.30</time>
   <time name="diis">   16.65   16.65</time>
   <time name="orth">    4.69    4.69</time>
   <time name="total">   31.74   31.77</time>
   <energy>
    <i name="e_fr_energy">  -1053.05750100 </i>
    <i name="e_wo_entrp">  -1053.05750100 </i>
    <i name="e_0_energy">  -1053.05750100 </i>
   </energy>
  </scstep>
  <scstep>
   <time name="diag">    8.31    8.31</time>
   <time name="diis">   16.82   16.84</time>
   <time name="orth">    4.73    4.73</time>
   <time name="total">   31.93   31.98</time>
   <energy>
    <i name="e_fr_energy">  -1053.05641057 </i>
    <i name="e_wo_entrp">  -1053.05641057 </i>
    <i name="e_0_energy">  -1053.05641057 </i>
   </energy>
  </scstep>
  <scstep>
   <time name="diag">    8.29    8.29</time>
   <time name="diis">   15.30   15.31</time>
   <time name="orth">    4.71    4.71</time>
   <time name="total">   30.38   30.40</time>
   <energy>
    <i name="e_fr_energy">  -1053.05656367 </i>
    <i name="e_wo_entrp">  -1053.05656367 </i>
    <i name="e_0_energy">  -1053.05656367 </i>
   </energy>
  </scstep>
  <scstep>
   <time name="diag">    8.29    8.31</time>
   <time name="diis">   14.86   14.87</time>
   <time name="orth">    4.70    4.70</time>
   <time name="total">   29.93   30.04</time>
   <energy>
    <i name="e_fr_energy">  -1053.05657151 </i>
    <i name="e_wo_entrp">  -1053.05657151 </i>
    <i name="e_0_energy">  -1053.05657151 </i>
   </energy>
  </scstep>
  <scstep>
   <time name="diag">    8.30    8.31</time>
   <time name="diis">   11.92   11.92</time>
   <time name="orth">    4.71    4.71</time>
   <time name="total">   25.50   25.53</time>
   <energy>
    <i name="alphaZ">   5755.55695560 </i>
    <i name="ewald"> -63082.55302938 </i>
    <i name="hartreedc"> -16835.28659979 </i>
    <i name="XCdc">   3191.34350036 </i>
    <i name="pawpsdc"> 116650.77738610 </i>
    <i name="pawaedc">-115856.00199732 </i>
    <i name="eentropy">     -0.00000000 </i>
    <i name="bandstr">  -6927.06895152 </i>
    <i name="atom">  76050.17612637 </i>
    <i name="e_fr_energy">  -1053.05660958 </i>
    <i name="e_wo_entrp">  -1053.05660958 </i>
    <i name="e_0_energy">  -1053.05660958 </i>
   </energy>
  </scstep>
  <structure>
   <crystal>
    <varray name="basis" >
     <v>      11.17218403       0.00000000       0.00000000 </v>
     <v>       0.00000000      11.17218403       0.00000000 </v>
     <v>       0.00000000      -0.00000000      15.67693521 </v>
    </varray>
    <i name="volume">   1956.75893391 </i>
    <varray name="rec_basis" >
     <v>       0.08950801       0.00000000       0.00000000 </v>
     <v>       0.00000000       0.08950801       0.00000000 </v>
     <v>       0.00000000      -0.00000000       0.06378798 </v>
    </varray>
   </crystal>
   <varray name="positions" >
    <v>       0.00000000       0.25000000       0.12500000 </v>
    <v>       0.00000000       0.25000000       0.62500000 </v>
    <v>       0.00000000       0.75000000       0.12500000 </v>
    <v>       0.00000000       0.75000000       0.62500000 </v>
    <v>       0.50000000       0.25000000       0.12500000 </v>
    <v>       0.50000000       0.25000000       0.62500000 </v>
    <v>       0.50000000       0.75000000       0.12500000 </v>
    <v>       0.50000000       0.75000000       0.62500000 </v>
    <v>       0.00000000       0.25000000       0.37500000 </v>
    <v>       0.00000000       0.25000000       0.87500000 </v>
    <v>       0.00000000       0.75000000       0.37500000 </v>
    <v>       0.00000000       0.75000000       0.87500000 </v>
    <v>       0.50000000       0.25000000       0.37500000 </v>
    <v>       0.50000000       0.25000000       0.87500000 </v>
    <v>       0.50000000       0.75000000       0.37500000 </v>
    <v>       0.50000000       0.75000000       0.87500000 </v>
    <v>       0.25000000       0.00000000       0.12500000 </v>
    <v>       0.25000000       0.00000000       0.62500000 </v>
    <v>       0.25000000       0.50000000       0.12500000 </v>
    <v>       0.25000000       0.50000000       0.62500000 </v>
    <v>       0.75000000       0.00000000       0.12500000 </v>
    <v>       0.75000000       0.00000000       0.62500000 </v>
    <v>       0.75000000       0.50000000       0.12500000 </v>
    <v>       0.75000000       0.50000000       0.62500000 </v>
    <v>       0.25000000       0.00000000       0.37500000 </v>
    <v>       0.25000000       0.00000000       0.87500000 </v>
    <v>       0.25000000       0.50000000       0.37500000 </v>
    <v>       0.25000000       0.50000000       0.87500000 </v>
    <v>       0.75000000       0.00000000       0.37500000 </v>
    <v>       0.75000000       0.00000000       0.87500000 </v>
    <v>       0.75000000       0.50000000       0.37500000 </v>
    <v>       0.75000000       0.50000000       0.87500000 </v>
    <v>       0.00000000       0.00000000       0.49861287 </v>
    <v>       0.00000000       0.50000000       0.49861287 </v>
    <v>       0.50000000       0.00000000       0.49861287 </v>
    <v>       0.50000000       0.50000000       0.49861287 </v>
    <v>       0.25000000       0.25000000      -0.00138713 </v>
    <v>       0.25000000       0.75000000      -0.00138713 </v>
    <v>       0.75000000       0.25000000      -0.00138713 </v>
    <v>       0.75000000       0.75000000      -0.00138713 </v>
    <v>       0.25000000       0.25000000       0.25138713 </v>
    <v>       0.25000000       0.75000000       0.25138713 </v>
    <v>       0.75000000       0.25000000       0.25138713 </v>
    <v>       0.75000000       0.75000000       0.25138713 </v>
    <v>       0.00000000       0.00000000       0.75138713 </v>
    <v>       0.00000000       0.50000000       0.75138713 </v>
    <v>       0.50000000       0.00000000       0.75138713 </v>
    <v>       0.50000000       0.50000000       0.75138713 </v>
    <v>       0.00000000       0.00000000       0.25897230 </v>
    <v>       0.00000000       0.00000000      -0.00897230 </v>
    <v>       0.50000000       0.00000000       0.25897230 </v>
    <v>       0.50000000       0.00000000      -0.00897230 </v>
    <v>       0.00000000       0.50000000       0.25897230 </v>
    <v>       0.00000000       0.50000000      -0.00897230 </v>
    <v>       0.50000000       0.50000000       0.25897230 </v>
    <v>       0.25000000       0.25000000       0.75897230 </v>
    <v>       0.25000000       0.25000000       0.49102770 </v>
    <v>       0.75000000       0.25000000       0.75897230 </v>
    <v>       0.75000000       0.25000000       0.49102770 </v>
    <v>       0.25000000       0.75000000       0.75897230 </v>
    <v>       0.25000000       0.75000000       0.49102770 </v>
    <v>       0.75000000       0.75000000       0.75897230 </v>
    <v>       0.75000000       0.75000000       0.49102770 </v>
    <v>       0.50000000       0.50000000      -0.00897230 </v>
    <v>       0.10721293       0.13885813       0.24694183 </v>
    <v>       0.11114187       0.14278707       0.74694183 </v>
    <v>       0.10721293       0.63885813       0.24694183 </v>
    <v>       0.11114187       0.64278707       0.74694183 </v>
    <v>       0.60721293       0.13885813       0.24694183 </v>
    <v>       0.61114187       0.14278707       0.74694183 </v>
    <v>       0.60721293       0.63885813       0.24694183 </v>
    <v>       0.61114187       0.64278707       0.74694183 </v>
    <v>       0.39278707       0.36114187       0.24694183 </v>
    <v>       0.38885813       0.35721293       0.74694183 </v>
    <v>       0.39278707       0.86114187       0.24694183 </v>
    <v>       0.38885813       0.85721293       0.74694183 </v>
    <v>       0.89278707       0.36114187       0.24694183 </v>
    <v>       0.88885813       0.35721293       0.74694183 </v>
    <v>       0.89278707       0.86114187       0.24694183 </v>
    <v>       0.88885813       0.85721293       0.74694183 </v>
    <v>       0.36114187       0.10721293       0.24694183 </v>
    <v>       0.35721293       0.11114187       0.74694183 </v>
    <v>       0.36114187       0.60721293       0.24694183 </v>
    <v>       0.35721293       0.61114187       0.74694183 </v>
    <v>       0.86114187       0.10721293       0.24694183 </v>
    <v>       0.85721293       0.11114187       0.74694183 </v>
    <v>       0.86114187       0.60721293       0.24694183 </v>
    <v>       0.85721293       0.61114187       0.74694183 </v>
    <v>       0.13885813       0.39278707       0.24694183 </v>
    <v>       0.14278707       0.38885813       0.74694183 </v>
    <v>       0.13885813       0.89278707       0.24694183 </v>
    <v>       0.14278707       0.88885813       0.74694183 </v>
    <v>       0.63885813       0.39278707       0.24694183 </v>
    <v>       0.64278707       0.38885813       0.74694183 </v>
    <v>       0.63885813       0.89278707       0.24694183 </v>
    <v>       0.64278707       0.88885813       0.74694183 </v>
    <v>       0.36114187       0.39278707       0.00305817 </v>
    <v>       0.35721293       0.38885813       0.50305817 </v>
    <v>       0.36114187       0.89278707       0.00305817 </v>
    <v>       0.35721293       0.88885813       0.50305817 </v>
    <v>       0.86114187       0.39278707       0.00305817 </v>
    <v>       0.85721293       0.38885813       0.50305817 </v>
    <v>       0.86114187       0.89278707       0.00305817 </v>
    <v>       0.85721293       0.88885813       0.50305817 </v>
    <v>       0.13885813       0.10721293       0.00305817 </v>
    <v>       0.14278707       0.11114187       0.50305817 </v>
    <v>       0.13885813       0.60721293       0.00305817 </v>
    <v>       0.14278707       0.61114187       0.50305817 </v>
    <v>       0.63885813       0.10721293       0.00305817 </v>
    <v>       0.64278707       0.11114187       0.50305817 </v>
    <v>       0.63885813       0.60721293       0.00305817 </v>
    <v>       0.64278707       0.61114187       0.50305817 </v>
    <v>       0.10721293       0.36114187       0.00305817 </v>
    <v>       0.11114187       0.35721293       0.50305817 </v>
    <v>       0.10721293       0.86114187       0.00305817 </v>
    <v>       0.11114187       0.85721293       0.50305817 </v>
    <v>       0.60721293       0.36114187       0.00305817 </v>
    <v>       0.61114187       0.35721293       0.50305817 </v>
    <v>       0.60721293       0.86114187       0.00305817 </v>
    <v>       0.61114187       0.85721293       0.50305817 </v>
    <v>       0.39278707       0.13885813       0.00305817 </v>
    <v>       0.38885813       0.14278707       0.50305817 </v>
    <v>       0.39278707       0.63885813       0.00305817 </v>
    <v>       0.38885813       0.64278707       0.50305817 </v>
    <v>       0.89278707       0.13885813       0.00305817 </v>
    <v>       0.88885813       0.14278707       0.50305817 </v>
    <v>       0.89278707       0.63885813       0.00305817 </v>
    <v>       0.88885813       0.64278707       0.50305817 </v>
    <v>       0.00000000       0.00000000       0.62500000 </v>
    <v>       0.00000000       0.50000000       0.62500000 </v>
    <v>       0.50000000       0.00000000       0.62500000 </v>
    <v>       0.50000000       0.50000000       0.62500000 </v>
    <v>       0.00000000       0.00000000       0.37572619 </v>
    <v>       0.00000000       0.00000000       0.87427381 </v>
    <v>       0.00000000       0.50000000       0.37572619 </v>
    <v>       0.00000000       0.50000000       0.87427381 </v>
    <v>       0.50000000       0.00000000       0.37572619 </v>
    <v>       0.50000000       0.00000000       0.87427381 </v>
    <v>       0.50000000       0.50000000       0.37572619 </v>
    <v>       0.50000000       0.50000000       0.87427381 </v>
    <v>       0.25000000       0.25000000       0.37427381 </v>
    <v>       0.25000000       0.25000000       0.87572619 </v>
    <v>       0.25000000       0.75000000       0.37427381 </v>
    <v>       0.25000000       0.75000000       0.87572619 </v>
    <v>       0.75000000       0.25000000       0.37427381 </v>
    <v>       0.75000000       0.25000000       0.87572619 </v>
    <v>       0.75000000       0.75000000       0.37427381 </v>
    <v>       0.75000000       0.75000000       0.87572619 </v>
    <v>       0.25000000       0.25000000       0.12500000 </v>
    <v>       0.25000000       0.75000000       0.12500000 </v>
    <v>       0.75000000       0.25000000       0.12500000 </v>
    <v>       0.75000000       0.75000000       0.12500000 </v>
   </varray>
  </structure>
  <varray name="forces" >
   <v>      -0.00000000       0.00000000      -0.00000000 </v>
   <v>      -0.00000000       0.00000000      -0.00000000 </v>
   <v>      -0.00000000       0.00000000      -0.00000000 </v>
   <v>      -0.00000000       0.00000000      -0.00000000 </v>
[...]
       <r>   -17.0826     0.0000    32.0000 </r>
       <r>   -16.9289     0.0000    32.0000 </r>
       <r>   -16.7752     0.0000    32.0000 </r>
       <r>   -16.6215     0.0000    32.0000 </r>
       <r>   -16.4678     0.0000    32.0000 </r>
       <r>   -16.3141     0.0000    32.0000 </r>
       <r>   -16.1604     0.0000    32.0000 </r>
       <r>   -16.0066     0.0000    32.0000 </r>
       <r>   -15.8529     0.0000    32.0000 </r>
       <r>   -15.6992     0.0000    32.0000 </r>
       <r>   -15.5455     0.0000    32.0000 </r>
       <r>   -15.3918     0.0000    32.0000 </r>
       <r>   -15.2381     0.0000    32.0000 </r>
       <r>   -15.0843     0.6829    32.1050 </r>
       <r>   -14.9306    18.4666    34.9436 </r>
       <r>   -14.7769    60.0945    44.1810 </r>
       <r>   -14.6232    34.3818    49.4660 </r>
       <r>   -14.4695    38.8375    55.4359 </r>
       <r>   -14.3158    22.7669    58.9356 </r>
       <r>   -14.1621    38.0417    64.7832 </r>
       <r>   -14.0083    79.4011    76.9883 </r>
       <r>   -13.8546    90.8155    90.9481 </r>
       <r>   -13.7009    81.4985   103.4756 </r>
       <r>   -13.5472    72.7046   114.6514 </r>
       <r>   -13.3935    34.4861   119.9525 </r>
       <r>   -13.2398     0.3092   120.0000 </r>
       <r>   -13.0860     0.0000   120.0000 </r>
       <r>   -12.9323     0.3575   120.0550 </r>
       <r>   -12.7786    59.0210   129.1274 </r>
       <r>   -12.6249   129.4669   149.0284 </r>
       <r>   -12.4712   106.8751   165.4568 </r>
       <r>   -12.3175    30.6410   170.1667 </r>
       <r>   -12.1638    99.7883   185.5057 </r>
       <r>   -12.0100    74.8026   197.0040 </r>
       <r>   -11.8563    76.2949   208.7317 </r>
       <r>   -11.7026    46.2842   215.8463 </r>
       <r>   -11.5489     0.9997   216.0000 </r>
       <r>   -11.3952     0.0000   216.0000 </r>
       <r>   -11.2415     0.0000   216.0000 </r>
       <r>   -11.0877     0.0000   216.0000 </r>
       <r>   -10.9340     0.0000   216.0000 </r>
       <r>   -10.7803     0.0000   216.0000 </r>
       <r>   -10.6266     0.0000   216.0000 </r>
       <r>   -10.4729     0.0000   216.0000 </r>
       <r>   -10.3192     0.0000   216.0000 </r>
       <r>   -10.1655     0.0000   216.0000 </r>
       <r>   -10.0117     0.0000   216.0000 </r>
       <r>    -9.8580     0.0000   216.0000 </r>
       <r>    -9.7043     0.0000   216.0000 </r>
       <r>    -9.5506     0.0000   216.0000 </r>
       <r>    -9.3969     0.0000   216.0000 </r>
       <r>    -9.2432     0.0000   216.0000 </r>
       <r>    -9.0894     0.0000   216.0000 </r>
       <r>    -8.9357     0.0000   216.0000 </r>
       <r>    -8.7820     0.0000   216.0000 </r>
       <r>    -8.6283     0.0000   216.0000 </r>
       <r>    -8.4746     0.0000   216.0000 </r>
       <r>    -8.3209     0.0000   216.0000 </r>
       <r>    -8.1672     0.0000   216.0000 </r>
       <r>    -8.0134     0.0000   216.0000 </r>
       <r>    -7.8597     0.0000   216.0000 </r>
       <r>    -7.7060     0.0000   216.0000 </r>
       <r>    -7.5523     0.0000   216.0000 </r>
       <r>    -7.3986     0.0000   216.0000 </r>
       <r>    -7.2449     0.0000   216.0000 </r>
       <r>    -7.0911     0.0000   216.0000 </r>
       <r>    -6.9374     0.0000   216.0000 </r>
       <r>    -6.7837     0.0000   216.0000 </r>
       <r>    -6.6300     0.0000   216.0000 </r>
       <r>    -6.4763     0.0000   216.0000 </r>
       <r>    -6.3226     0.0000   216.0000 </r>
       <r>    -6.1689     0.0000   216.0000 </r>
       <r>    -6.0151     0.0000   216.0000 </r>
       <r>    -5.8614     0.0000   216.0000 </r>
       <r>    -5.7077     0.0000   216.0000 </r>
       <r>    -5.5540     0.0000   216.0000 </r>
       <r>    -5.4003     0.0000   216.0000 </r>
       <r>    -5.2466     0.0000   216.0000 </r>
       <r>    -5.0929     0.0000   216.0000 </r>
       <r>    -4.9391     0.0000   216.0000 </r>
       <r>    -4.7854     0.0000   216.0000 </r>
       <r>    -4.6317     0.0000   216.0000 </r>
       <r>    -4.4780     0.0000   216.0000 </r>
       <r>    -4.3243     0.0000   216.0000 </r>
       <r>    -4.1706     0.0000   216.0000 </r>
       <r>    -4.0168     0.0000   216.0000 </r>
       <r>    -3.8631     0.0000   216.0000 </r>
       <r>    -3.7094     0.0000   216.0000 </r>
       <r>    -3.5557     0.0000   216.0000 </r>
       <r>    -3.4020     0.0000   216.0000 </r>
       <r>    -3.2483     0.0000   216.0000 </r>
       <r>    -3.0946     0.0000   216.0000 </r>
       <r>    -2.9408     0.0000   216.0000 </r>
       <r>    -2.7871     0.0000   216.0000 </r>
       <r>    -2.6334     0.0000   216.0000 </r>
       <r>    -2.4797     0.0001   216.0000 </r>
       <r>    -2.3260     3.8227   216.5876 </r>
       <r>    -2.1723    19.0206   219.5114 </r>
       <r>    -2.0185    37.9717   225.3482 </r>
       <r>    -1.8648    22.7506   228.8453 </r>
       <r>    -1.7111    30.2018   233.4878 </r>
       <r>    -1.5574    30.4622   238.1703 </r>
       <r>    -1.4037    25.8772   242.1481 </r>
       <r>    -1.2500    50.8428   249.9634 </r>
       <r>    -1.0963    96.4852   264.7946 </r>
       <r>    -0.9425    77.9050   276.7698 </r>
       <r>    -0.7888    59.8320   285.9669 </r>
       <r>    -0.6351    71.0377   296.8865 </r>
       <r>    -0.4814   118.2925   315.0699 </r>
       <r>    -0.3277   112.2610   332.3261 </r>
       <r>    -0.1740    51.1060   340.1819 </r>
       <r>    -0.0202    32.6094   345.1944 </r>
       <r>     0.1335    53.4486   353.4103 </r>
       <r>     0.2872    49.6282   361.0389 </r>
       <r>     0.4409    46.5538   368.1949 </r>
       <r>     0.5946    62.8755   377.8599 </r>
       <r>     0.7483    76.1329   389.5627 </r>
       <r>     0.9020    46.0608   396.6429 </r>
       <r>     1.0558    65.1450   406.6567 </r>
       <r>     1.2095    41.3144   413.0074 </r>
       <r>     1.3632    54.5691   421.3955 </r>
       <r>     1.5169    62.7321   431.0384 </r>
       <r>     1.6706    66.9633   441.3317 </r>
       <r>     1.8243    99.4069   456.6120 </r>
       <r>     1.9781    60.7094   465.9440 </r>
       <r>     2.1318    39.5856   472.0289 </r>
       <r>     2.2855    25.8134   475.9968 </r>
       <r>     2.4392     0.9158   476.1376 </r>
       <r>     2.5929    24.7804   479.9467 </r>
       <r>     2.7466     0.3466   480.0000 </r>
       <r>     2.9003     0.0000   480.0000 </r>
       <r>     3.0541     0.0000   480.0000 </r>
       <r>     3.2078     0.0000   480.0000 </r>
       <r>     3.3615     0.0000   480.0000 </r>
       <r>     3.5152     0.0000   480.0000 </r>
       <r>     3.6689     0.0000   480.0000 </r>
       <r>     3.8226     0.0000   480.0000 </r>
       <r>     3.9764     0.0000   480.0000 </r>
       <r>     4.1301     0.0000   480.0000 </r>
       <r>     4.2838     0.0477   480.0073 </r>
       <r>     4.4375     6.8142   481.0548 </r>
       <r>     4.5912    33.2745   486.1696 </r>
       <r>     4.7449    49.0996   493.7169 </r>
       <r>     4.8986    55.4997   502.2481 </r>
       <r>     5.0524    46.2386   509.3557 </r>
       <r>     5.2061    44.0371   516.1248 </r>
       <r>     5.3598    87.4612   529.5690 </r>
       <r>     5.5135    84.1303   542.5011 </r>
       <r>     5.6672    52.9066   550.6337 </r>
       <r>     5.8209    40.9756   556.9322 </r>
       <r>     5.9747    80.3035   569.2761 </r>
       <r>     6.1284    83.5626   582.1210 </r>
       <r>     6.2821    74.0688   593.5065 </r>
       <r>     6.4358    92.2990   607.6942 </r>
       <r>     6.5895     8.4945   609.0000 </r>
       <r>     6.7432     0.4161   609.0639 </r>
       <r>     6.8969    15.2631   611.4101 </r>
       <r>     7.0507     4.7942   612.1470 </r>
       <r>     7.2044    12.0876   614.0051 </r>
       <r>     7.3581    21.3078   617.2804 </r>
       <r>     7.5118    22.5277   620.7433 </r>
       <r>     7.6655    15.4379   623.1163 </r>
       <r>     7.8192    24.8297   626.9330 </r>
       <r>     7.9730    24.5652   630.7091 </r>
       <r>     8.1267    29.6014   635.2592 </r>
       <r>     8.2804    11.6446   637.0492 </r>
       <r>     8.4341    19.4698   640.0420 </r>
       <r>     8.5878    30.3587   644.7086 </r>
       <r>     8.7415    53.7695   652.9738 </r>
       <r>     8.8952    27.5070   657.2021 </r>
       <r>     9.0490    28.6480   661.6057 </r>
       <r>     9.2027    29.9050   666.2026 </r>
       <r>     9.3564    37.6628   671.9919 </r>
       <r>     9.5101    46.7381   679.1763 </r>
       <r>     9.6638    49.7951   686.8305 </r>
       <r>     9.8175    62.1585   696.3852 </r>
       <r>     9.9713    64.6705   706.3261 </r>
       <r>    10.1250    66.3237   716.5211 </r>
       <r>    10.2787    71.9257   727.5771 </r>
       <r>    10.4324    71.6280   738.5875 </r>
       <r>    10.5861    39.8003   744.7054 </r>
       <r>    10.7398    38.0507   750.5544 </r>
       <r>    10.8935    36.8763   756.2228 </r>
       <r>    11.0473    62.9982   765.9066 </r>
       <r>    11.2010    13.6003   767.9972 </r>
       <r>    11.3547     0.0185   768.0000 </r>
       <r>    11.5084     0.0000   768.0000 </r>
       <r>    11.6621     0.0000   768.0000 </r>
       <r>    11.8158     0.0000   768.0000 </r>
       <r>    11.9695     0.0000   768.0000 </r>
       <r>    12.1233     0.0000   768.0000 </r>
       <r>    12.2770     0.0000   768.0000 </r>
       <r>    12.4307     0.0000   768.0000 </r>
       <r>    12.5844     0.0000   768.0000 </r>
       <r>    12.7381     0.0000   768.0000 </r>
       <r>    12.8918     0.0000   768.0000 </r>
       <r>    13.0456     0.0000   768.0000 </r>
       <r>    13.1993     0.0000   768.0000 </r>
      </set>
     </set>
    </array>
   </total>
  </dos>
 </calculation>
 <structure name="finalpos" >
  <crystal>
   <varray name="basis" >
    <v>      11.16791299       0.00000000       0.00000000 </v>
    <v>       0.00000000      11.16791299       0.00000000 </v>
    <v>       0.00000000      -0.00000000      15.98454803 </v>
   </varray>
   <i name="volume">   1993.62928255 </i>
   <varray name="rec_basis" >
    <v>       0.08954224       0.00000000       0.00000000 </v>
    <v>       0.00000000       0.08954224       0.00000000 </v>
    <v>       0.00000000      -0.00000000       0.06256042 </v>
   </varray>
  </crystal>
  <varray name="positions" >
   <v>      -0.00000000       0.25000000       0.12500000 </v>
   <v>      -0.00000000       0.25000000       0.62500000 </v>
   <v>      -0.00000000       0.75000000       0.12500000 </v>
   <v>      -0.00000000       0.75000000       0.62500000 </v>
   <v>       0.50000000       0.25000000       0.12500000 </v>
   <v>       0.50000000       0.25000000       0.62500000 </v>
   <v>       0.50000000       0.75000000       0.12500000 </v>
   <v>       0.50000000       0.75000000       0.62500000 </v>
   <v>      -0.00000000       0.25000000       0.37500000 </v>
   <v>      -0.00000000       0.25000000       0.87500000 </v>
   <v>      -0.00000000       0.75000000       0.37500000 </v>
   <v>      -0.00000000       0.75000000       0.87500000 </v>
   <v>       0.50000000       0.25000000       0.37500000 </v>
   <v>       0.50000000       0.25000000       0.87500000 </v>
   <v>       0.50000000       0.75000000       0.37500000 </v>
   <v>       0.50000000       0.75000000       0.87500000 </v>
   <v>       0.25000000       0.00000000       0.12500000 </v>
   <v>       0.25000000       0.00000000       0.62500000 </v>
   <v>       0.25000000       0.50000000       0.12500000 </v>
   <v>       0.25000000       0.50000000       0.62500000 </v>
   <v>       0.75000000       0.00000000       0.12500000 </v>
   <v>       0.75000000       0.00000000       0.62500000 </v>
   <v>       0.75000000       0.50000000       0.12500000 </v>
   <v>       0.75000000       0.50000000       0.62500000 </v>
   <v>       0.25000000       0.00000000       0.37500000 </v>
   <v>       0.25000000       0.00000000       0.87500000 </v>
   <v>       0.25000000       0.50000000       0.37500000 </v>
   <v>       0.25000000       0.50000000       0.87500000 </v>
   <v>       0.75000000       0.00000000       0.37500000 </v>
   <v>       0.75000000       0.00000000       0.87500000 </v>
   <v>       0.75000000       0.50000000       0.37500000 </v>
   <v>       0.75000000       0.50000000       0.87500000 </v>
   <v>      -0.00000000       0.00000000       0.50449975 </v>
   <v>      -0.00000000       0.50000000       0.50449975 </v>
   <v>       0.50000000       0.00000000       0.50449975 </v>
   <v>       0.50000000       0.50000000       0.50449975 </v>
   <v>       0.25000000       0.25000000       0.00449975 </v>
   <v>       0.25000000       0.75000000       0.00449975 </v>
   <v>       0.75000000       0.25000000       0.00449975 </v>
   <v>       0.75000000       0.75000000       0.00449975 </v>
   <v>       0.25000000       0.25000000       0.24550025 </v>
   <v>       0.25000000       0.75000000       0.24550025 </v>
   <v>       0.75000000       0.25000000       0.24550025 </v>
   <v>       0.75000000       0.75000000       0.24550025 </v>
   <v>      -0.00000000       0.00000000       0.74550025 </v>
   <v>      -0.00000000       0.50000000       0.74550025 </v>
   <v>       0.50000000       0.00000000       0.74550025 </v>
   <v>       0.50000000       0.50000000       0.74550025 </v>
   <v>      -0.00000000       0.00000000       0.26189883 </v>
   <v>      -0.00000000       0.00000000      -0.01189883 </v>
   <v>       0.50000000       0.00000000       0.26189883 </v>
   <v>       0.50000000       0.00000000      -0.01189883 </v>
   <v>      -0.00000000       0.50000000       0.26189883 </v>
   <v>      -0.00000000       0.50000000      -0.01189883 </v>
   <v>       0.50000000       0.50000000       0.26189883 </v>
   <v>       0.25000000       0.25000000       0.76189883 </v>
   <v>       0.25000000       0.25000000       0.48810117 </v>
   <v>       0.75000000       0.25000000       0.76189883 </v>
   <v>       0.75000000       0.25000000       0.48810117 </v>
   <v>       0.25000000       0.75000000       0.76189883 </v>
   <v>       0.25000000       0.75000000       0.48810117 </v>
   <v>       0.75000000       0.75000000       0.76189883 </v>
   <v>       0.75000000       0.75000000       0.48810117 </v>
   <v>       0.50000000       0.50000000      -0.01189883 </v>
   <v>       0.11293191       0.13262573       0.24230256 </v>
   <v>       0.11737427       0.13706809       0.74230256 </v>
   <v>       0.11293191       0.63262573       0.24230256 </v>
   <v>       0.11737427       0.63706809       0.74230256 </v>
   <v>       0.61293191       0.13262573       0.24230256 </v>
   <v>       0.61737427       0.13706809       0.74230256 </v>
   <v>       0.61293191       0.63262573       0.24230256 </v>
   <v>       0.61737427       0.63706809       0.74230256 </v>
   <v>       0.38706809       0.36737427       0.24230256 </v>
   <v>       0.38262573       0.36293191       0.74230256 </v>
   <v>       0.38706809       0.86737427       0.24230256 </v>
   <v>       0.38262573       0.86293191       0.74230256 </v>
   <v>       0.88706809       0.36737427       0.24230256 </v>
   <v>       0.88262573       0.36293191       0.74230256 </v>
   <v>       0.88706809       0.86737427       0.24230256 </v>
   <v>       0.88262573       0.86293191       0.74230256 </v>
   <v>       0.36737427       0.11293191       0.24230256 </v>
   <v>       0.36293191       0.11737427       0.74230256 </v>
   <v>       0.36737427       0.61293191       0.24230256 </v>
   <v>       0.36293191       0.61737427       0.74230256 </v>
   <v>       0.86737427       0.11293191       0.24230256 </v>
   <v>       0.86293191       0.11737427       0.74230256 </v>
   <v>       0.86737427       0.61293191       0.24230256 </v>
   <v>       0.86293191       0.61737427       0.74230256 </v>
   <v>       0.13262573       0.38706809       0.24230256 </v>
   <v>       0.13706809       0.38262573       0.74230256 </v>
   <v>       0.13262573       0.88706809       0.24230256 </v>
   <v>       0.13706809       0.88262573       0.74230256 </v>
   <v>       0.63262573       0.38706809       0.24230256 </v>
   <v>       0.63706809       0.38262573       0.74230256 </v>
   <v>       0.63262573       0.88706809       0.24230256 </v>
   <v>       0.63706809       0.88262573       0.74230256 </v>
   <v>       0.36737427       0.38706809       0.00769744 </v>
   <v>       0.36293191       0.38262573       0.50769744 </v>
   <v>       0.36737427       0.88706809       0.00769744 </v>
   <v>       0.36293191       0.88262573       0.50769744 </v>
   <v>       0.86737427       0.38706809       0.00769744 </v>
   <v>       0.86293191       0.38262573       0.50769744 </v>
   <v>       0.86737427       0.88706809       0.00769744 </v>
   <v>       0.86293191       0.88262573       0.50769744 </v>
   <v>       0.13262573       0.11293191       0.00769744 </v>
   <v>       0.13706809       0.11737427       0.50769744 </v>
   <v>       0.13262573       0.61293191       0.00769744 </v>
   <v>       0.13706809       0.61737427       0.50769744 </v>
   <v>       0.63262573       0.11293191       0.00769744 </v>
   <v>       0.63706809       0.11737427       0.50769744 </v>
   <v>       0.63262573       0.61293191       0.00769744 </v>
   <v>       0.63706809       0.61737427       0.50769744 </v>
   <v>       0.11293191       0.36737427       0.00769744 </v>
   <v>       0.11737427       0.36293191       0.50769744 </v>
   <v>       0.11293191       0.86737427       0.00769744 </v>
   <v>       0.11737427       0.86293191       0.50769744 </v>
   <v>       0.61293191       0.36737427       0.00769744 </v>
   <v>       0.61737427       0.36293191       0.50769744 </v>
   <v>       0.61293191       0.86737427       0.00769744 </v>
   <v>       0.61737427       0.86293191       0.50769744 </v>
   <v>       0.38706809       0.13262573       0.00769744 </v>
   <v>       0.38262573       0.13706809       0.50769744 </v>
   <v>       0.38706809       0.63262573       0.00769744 </v>
   <v>       0.38262573       0.63706809       0.50769744 </v>
   <v>       0.88706809       0.13262573       0.00769744 </v>
   <v>       0.88262573       0.13706809       0.50769744 </v>
   <v>       0.88706809       0.63262573       0.00769744 </v>
   <v>       0.88262573       0.63706809       0.50769744 </v>
   <v>      -0.00000000       0.00000000       0.62500000 </v>
   <v>      -0.00000000       0.50000000       0.62500000 </v>
   <v>       0.50000000       0.00000000       0.62500000 </v>
   <v>       0.50000000       0.50000000       0.62500000 </v>
   <v>      -0.00000000       0.00000000       0.38076736 </v>
   <v>      -0.00000000       0.00000000       0.86923264 </v>
   <v>      -0.00000000       0.50000000       0.38076736 </v>
   <v>      -0.00000000       0.50000000       0.86923264 </v>
   <v>       0.50000000       0.00000000       0.38076736 </v>
   <v>       0.50000000       0.00000000       0.86923264 </v>
   <v>       0.50000000       0.50000000       0.38076736 </v>
   <v>       0.50000000       0.50000000       0.86923264 </v>
   <v>       0.25000000       0.25000000       0.36923264 </v>
   <v>       0.25000000       0.25000000       0.88076736 </v>
   <v>       0.25000000       0.75000000       0.36923264 </v>
   <v>       0.25000000       0.75000000       0.88076736 </v>
   <v>       0.75000000       0.25000000       0.36923264 </v>
   <v>       0.75000000       0.25000000       0.88076736 </v>
   <v>       0.75000000       0.75000000       0.36923264 </v>
   <v>       0.75000000       0.75000000       0.88076736 </v>
   <v>       0.25000000       0.25000000       0.12500000 </v>
   <v>       0.25000000       0.75000000       0.12500000 </v>
   <v>       0.75000000       0.25000000       0.12500000 </v>
   <v>       0.75000000       0.75000000       0.12500000 </v>
  </varray>
 </structure>
</modeling>
