       N       E                     dE             d eps       ncg     rms          rms(c)
DAV:   1    -0.115358075958E+04   -0.11536E+04   -0.35536E-05  2032   0.227E-02    0.401E-02
RMM:   2    -0.115358075676E+04    0.28251E-05   -0.37374E-05  1706   0.115E-02    0.699E-02
RMM:   3    -0.115358075756E+04   -0.80366E-06   -0.13317E-05  1556   0.562E-03    0.559E-03
RMM:   4    -0.115358075776E+04   -0.20054E-06   -0.59011E-06  1100   0.338E-03    0.800E-03
RMM:   5    -0.115358075781E+04   -0.47890E-07   -0.41620E-06   836   0.293E-03    0.604E-03
RMM:   6    -0.115358075783E+04   -0.21741E-07   -0.26771E-06   703   0.250E-03    0.170E-03
RMM:   7    -0.115358075785E+04   -0.20678E-07   -0.17688E-06   644   0.224E-03    0.281E-03
RMM:   8    -0.115358075775E+04    0.10383E-06   -0.11151E-06   573   0.215E-03
   1 F= -.11535808E+04 E0= -.11535808E+04  d E =-.115358E+04  mag=    20.0000
       N       E                     dE             d eps       ncg     rms          rms(c)
DAV:   1    -0.115358187038E+04   -0.11125E-02   -0.45746E-01  3168   0.794E-01    0.203E-01
RMM:   2    -0.115358266172E+04   -0.79135E-03   -0.12669E-02  3076   0.145E-01    0.150E-01
RMM:   3    -0.115358256938E+04    0.92341E-04   -0.61804E-04  2777   0.439E-02    0.104E-01
RMM:   4    -0.115358248228E+04    0.87099E-04   -0.24992E-04  2116   0.172E-02    0.586E-02
RMM:   5    -0.115358246487E+04    0.17410E-04   -0.82140E-05  1808   0.121E-02    0.488E-02
RMM:   6    -0.115358246724E+04   -0.23694E-05   -0.30669E-05  1731   0.873E-03    0.280E-02
RMM:   7    -0.115358246843E+04   -0.11858E-05   -0.14016E-05  1648   0.525E-03    0.129E-02
RMM:   8    -0.115358246932E+04   -0.89451E-06   -0.83881E-06  1537   0.463E-03
   2 F= -.11535825E+04 E0= -.11535825E+04  d E =-.171157E-02  mag=    20.0000
       N       E                     dE             d eps       ncg     rms          rms(c)
DAV:   1    -0.115358249387E+04   -0.25440E-04   -0.16573E-02  3328   0.151E-01    0.388E-02
RMM:   2    -0.115358252307E+04   -0.29200E-04   -0.46003E-04  2526   0.285E-02    0.314E-02
RMM:   3    -0.115358252143E+04    0.16400E-05   -0.29864E-05  1718   0.963E-03    0.234E-02
RMM:   4    -0.115358251939E+04    0.20379E-05   -0.11901E-05  1637   0.466E-03    0.145E-02
RMM:   5    -0.115358251853E+04    0.85669E-06   -0.70673E-06  1473   0.363E-03    0.528E-03
RMM:   6    -0.115358251875E+04   -0.22301E-06   -0.26094E-06  1048   0.271E-03    0.287E-03
RMM:   7    -0.115358251887E+04   -0.11409E-06   -0.11358E-06   806   0.228E-03    0.198E-03
RMM:   8    -0.115358251893E+04   -0.62646E-07   -0.48668E-07   637   0.206E-03
   3 F= -.11535825E+04 E0= -.11535825E+04  d E =-.176118E-02  mag=    20.0000
       N       E                     dE             d eps       ncg     rms          rms(c)
DAV:   1    -0.115358306035E+04   -0.54148E-03   -0.34135E-01  3120   0.690E-01    0.162E-01
RMM:   2    -0.115358381036E+04   -0.75002E-03   -0.89435E-03  3072   0.118E-01    0.118E-01
RMM:   3    -0.115358379388E+04    0.16483E-04   -0.38212E-04  2270   0.381E-02    0.761E-02
RMM:   4    -0.115358376694E+04    0.26941E-04   -0.13474E-04  1779   0.140E-02    0.408E-02
RMM:   5    -0.115358376642E+04    0.52516E-06   -0.39948E-05  1744   0.947E-03    0.376E-02
RMM:   6    -0.115358376772E+04   -0.13037E-05   -0.17761E-05  1676   0.617E-03    0.115E-02
RMM:   7    -0.115358376823E+04   -0.50772E-06   -0.93204E-06  1537   0.443E-03    0.981E-03
RMM:   8    -0.115358376837E+04   -0.14243E-06   -0.58306E-06  1350   0.368E-03
   4 F= -.11535838E+04 E0= -.11535838E+04  d E =-.124944E-02  mag=    20.0000
       N       E                     dE             d eps       ncg     rms          rms(c)
DAV:   1    -0.115358275386E+04    0.10144E-02   -0.85062E-01  3136   0.109E+00    0.255E-01
RMM:   2    -0.115358462466E+04   -0.18708E-02   -0.22294E-02  3076   0.187E-01    0.187E-01
RMM:   3    -0.115358459159E+04    0.33073E-04   -0.10343E-03  2987   0.589E-02    0.119E-01
RMM:   4    -0.115358452622E+04    0.65365E-04   -0.35971E-04  2284   0.199E-02    0.599E-02
RMM:   5    -0.115358451701E+04    0.92109E-05   -0.77210E-05  1788   0.130E-02    0.440E-02
RMM:   6    -0.115358451966E+04   -0.26514E-05   -0.29954E-05  1748   0.839E-03    0.181E-02
RMM:   7    -0.115358452073E+04   -0.10696E-05   -0.17095E-05  1681   0.592E-03    0.112E-02
RMM:   8    -0.115358452096E+04   -0.22912E-06   -0.11036E-05  1616   0.497E-03
   5 F= -.11535845E+04 E0= -.11535845E+04  d E =-.200203E-02  mag=    20.0000
       N       E                     dE             d eps       ncg     rms          rms(c)
DAV:   1    -0.115358467520E+04   -0.15447E-03   -0.33258E-01  3232   0.677E-01    0.158E-01
RMM:   2    -0.115358541984E+04   -0.74464E-03   -0.87056E-03  3081   0.116E-01    0.123E-01
RMM:   3    -0.115358539536E+04    0.24486E-04   -0.37932E-04  2329   0.369E-02    0.784E-02
RMM:   4    -0.115358537776E+04    0.17593E-04   -0.11334E-04  1779   0.130E-02    0.571E-02
RMM:   5    -0.115358537669E+04    0.10782E-05   -0.42367E-05  1744   0.959E-03    0.443E-02
RMM:   6    -0.115358537992E+04   -0.32363E-05   -0.21673E-05  1728   0.666E-03    0.101E-02
RMM:   7    -0.115358538211E+04   -0.21900E-05   -0.11127E-05  1621   0.493E-03    0.931E-03
RMM:   8    -0.115358538370E+04   -0.15870E-05   -0.72584E-06  1433   0.402E-03
   6 F= -.11535854E+04 E0= -.11535854E+04  d E =-.862738E-03  mag=    20.0000
