<?xml version="1.0" encoding="ISO-8859-1"?>
<modeling>
 <generator>
  <i name="program" type="string">vasp </i>
  <i name="version" type="string">5.4.1  </i>
  <i name="subversion" type="string">05Feb16 (build Jan 25 2017 20:16:33) complex                          parallel </i>
  <i name="platform" type="string">BWXE6 </i>
  <i name="date" type="string">2019 07 24 </i>
  <i name="time" type="string">19:59:01 </i>
 </generator>
 <incar>
  <i type="string" name="SYSTEM"> STF</i>
  <i type="string" name="PREC">normal</i>
  <i type="string" name="ALGO"> Fast</i>
  <i type="int" name="ISPIN">     2</i>
  <i type="int" name="NELM">    40</i>
  <i type="int" name="NELMIN">     8</i>
  <i type="int" name="IBRION">     2</i>
  <i name="EDIFF">      0.00010000</i>
  <i name="EDIFFG">     -0.03000000</i>
  <i type="int" name="NSW">    30</i>
  <i type="int" name="ISIF">     3</i>
  <i name="ENCUT">    520.00000000</i>
  <i type="int" name="NBANDS">   768</i>
  <v name="MAGMOM">      0.60000000      0.60000000      0.60000000      0.60000000      0.60000000      0.60000000      0.60000000      0.60000000      0.60000000      0.60000000      0.60000000      0.60000000      0.60000000      0.60000000      0.60000000      0.60000000      0.60000000      0.60000000      0.60000000      0.60000000
      0.60000000      0.60000000      0.60000000      0.60000000      0.60000000      0.60000000      0.60000000      0.60000000      0.60000000      0.60000000      0.60000000      0.60000000      0.60000000      0.60000000      0.60000000      0.60000000      0.60000000      0.60000000      0.60000000      0.60000000
      0.60000000      0.60000000      0.60000000      0.60000000      0.60000000      0.60000000      0.60000000      0.60000000      0.60000000      0.60000000      0.60000000      0.60000000      0.60000000      0.60000000      0.60000000      0.60000000      0.60000000      0.60000000      0.60000000      0.60000000
      5.00000000      5.00000000      5.00000000      5.00000000      0.60000000      0.60000000      0.60000000      0.60000000      0.60000000      0.60000000      0.60000000      0.60000000      0.60000000      0.60000000      0.60000000      0.60000000      0.60000000      0.60000000      0.60000000      0.60000000
      0.60000000      0.60000000      0.60000000      0.60000000      0.60000000      0.60000000      0.60000000      0.60000000      0.60000000      0.60000000      0.60000000      0.60000000      0.60000000      0.60000000      0.60000000      0.60000000      0.60000000      0.60000000      0.60000000      0.60000000
      0.60000000      0.60000000      0.60000000      0.60000000      0.60000000      0.60000000      0.60000000      0.60000000      0.60000000      0.60000000      0.60000000      0.60000000      0.60000000      0.60000000      0.60000000      0.60000000      0.60000000      0.60000000      0.60000000      0.60000000
      0.60000000      0.60000000      0.60000000      0.60000000      0.60000000      0.60000000      0.60000000      0.60000000      0.60000000      0.60000000      0.60000000      0.60000000      0.60000000      0.60000000      0.60000000      0.60000000      0.60000000      0.60000000      0.60000000      0.60000000
      0.60000000      0.60000000      0.60000000      0.60000000      0.60000000      0.60000000      0.60000000      0.60000000      0.60000000      0.60000000      0.60000000      0.60000000      0.60000000      0.60000000      0.60000000      0.60000000      0.60000000      0.60000000</v>
  <i type="string" name="LREAL"> Auto</i>
  <i type="int" name="ISMEAR">     0</i>
  <i name="SIGMA">      0.05000000</i>
  <i type="int" name="LMAXMIX">     4</i>
  <v type="int" name="KPOINT_BSE">    -1     0     0     0</v>
  <i type="int" name="NELM">    40</i>
  <i type="logical" name="LDAU"> T  </i>
  <v type="int" name="LDAUTYPE">     2</v>
  <v type="int" name="LDAUL">     0     2     2     0</v>
  <v name="LDAUU">      0.00000000      3.00000000      5.00000000      0.00000000</v>
  <v name="LDAUJ">      0.00000000      0.00000000      0.00000000      0.00000000</v>
  <i type="int" name="LDAUPRINT">     1</i>
 </incar>
 <kpoints>
  <generation param="Monkhorst-Pack">
   <v type="int" name="divisions">       2        2        2 </v>
   <v name="usershift">      0.00000000       0.00000000       0.00000000 </v>
   <v name="genvec1">      0.50000000       0.00000000       0.00000000 </v>
   <v name="genvec2">      0.00000000       0.50000000       0.00000000 </v>
   <v name="genvec3">      0.00000000       0.00000000       0.50000000 </v>
   <v name="shift">      0.50000000       0.50000000       0.50000000 </v>
  </generation>
  <varray name="kpointlist" >
   <v>       0.25000000       0.25000000       0.25000000 </v>
  </varray>
  <varray name="weights" >
   <v>       1.00000000 </v>
  </varray>
 </kpoints>
 <parameters>
  <separator name="general" >
   <i type="string" name="SYSTEM">STF</i>
   <i type="logical" name="LCOMPAT"> F  </i>
  </separator>
  <separator name="electronic" >
   <i type="string" name="PREC">normal</i>
   <i name="ENMAX">    520.00000000</i>
   <i name="ENAUG">    605.39200000</i>
   <i name="EDIFF">      0.00010000</i>
   <i type="int" name="IALGO">    68</i>
   <i type="int" name="IWAVPR">    11</i>
   <i type="int" name="NBANDS">   768</i>
   <i name="NELECT">   1028.00000000</i>
   <i type="int" name="TURBO">     0</i>
   <i type="int" name="IRESTART">     0</i>
   <i type="int" name="NREBOOT">     0</i>
   <i type="int" name="NMIN">     0</i>
   <i name="EREF">      0.00000000</i>
   <separator name="electronic smearing" >
    <i type="int" name="ISMEAR">     0</i>
    <i name="SIGMA">      0.05000000</i>
    <i name="KSPACING">      0.50000000</i>
    <i type="logical" name="KGAMMA"> T  </i>
   </separator>
   <separator name="electronic projectors" >
    <i type="logical" name="LREAL"> T  </i>
    <v name="ROPT">     -0.00050000     -0.00050000     -0.00050000     -0.00050000</v>
    <i type="int" name="LMAXPAW">  -100</i>
    <i type="int" name="LMAXMIX">     4</i>
    <i type="logical" name="NLSPLINE"> F  </i>
   </separator>
   <separator name="electronic startup" >
    <i type="int" name="ISTART">     1</i>
    <i type="int" name="ICHARG">     0</i>
    <i type="int" name="INIWAV">     1</i>
   </separator>
   <separator name="electronic spin" >
    <i type="int" name="ISPIN">     2</i>
    <i type="logical" name="LNONCOLLINEAR"> F  </i>
    <v name="MAGMOM">      0.60000000      0.60000000      0.60000000      0.60000000      0.60000000      0.60000000      0.60000000      0.60000000      0.60000000      0.60000000      0.60000000      0.60000000      0.60000000      0.60000000      0.60000000      0.60000000      0.60000000      0.60000000      0.60000000      0.60000000
      0.60000000      0.60000000      0.60000000      0.60000000      0.60000000      0.60000000      0.60000000      0.60000000      0.60000000      0.60000000      0.60000000      0.60000000      0.60000000      0.60000000      0.60000000      0.60000000      0.60000000      0.60000000      0.60000000      0.60000000
      0.60000000      0.60000000      0.60000000      0.60000000      0.60000000      0.60000000      0.60000000      0.60000000      0.60000000      0.60000000      0.60000000      0.60000000      0.60000000      0.60000000      0.60000000      0.60000000      0.60000000      0.60000000      0.60000000      0.60000000
      5.00000000      5.00000000      5.00000000      5.00000000      0.60000000      0.60000000      0.60000000      0.60000000      0.60000000      0.60000000      0.60000000      0.60000000      0.60000000      0.60000000      0.60000000      0.60000000      0.60000000      0.60000000      0.60000000      0.60000000
      0.60000000      0.60000000      0.60000000      0.60000000      0.60000000      0.60000000      0.60000000      0.60000000      0.60000000      0.60000000      0.60000000      0.60000000      0.60000000      0.60000000      0.60000000      0.60000000      0.60000000      0.60000000      0.60000000      0.60000000
      0.60000000      0.60000000      0.60000000      0.60000000      0.60000000      0.60000000      0.60000000      0.60000000      0.60000000      0.60000000      0.60000000      0.60000000      0.60000000      0.60000000      0.60000000      0.60000000      0.60000000      0.60000000      0.60000000      0.60000000
      0.60000000      0.60000000      0.60000000      0.60000000      0.60000000      0.60000000      0.60000000      0.60000000      0.60000000      0.60000000      0.60000000      0.60000000      0.60000000      0.60000000      0.60000000      0.60000000      0.60000000      0.60000000      0.60000000      0.60000000
      0.60000000      0.60000000      0.60000000      0.60000000      0.60000000      0.60000000      0.60000000      0.60000000      0.60000000      0.60000000      0.60000000      0.60000000      0.60000000      0.60000000      0.60000000      0.60000000      0.60000000      0.60000000</v>
    <i name="NUPDOWN">     -1.00000000</i>
    <i type="logical" name="LSORBIT"> F  </i>
    <v name="SAXIS">      0.00000000      0.00000000      1.00000000</v>
    <i type="logical" name="LSPIRAL"> F  </i>
    <v name="QSPIRAL">      0.00000000      0.00000000      0.00000000</v>
    <i type="logical" name="LZEROZ"> F  </i>
   </separator>
   <separator name="electronic exchange-correlation" >
    <i type="logical" name="LASPH"> F  </i>
    <i type="logical" name="LMETAGGA"> F  </i>
   </separator>
   <separator name="electronic convergence" >
    <i type="int" name="NELM">    40</i>
    <i type="int" name="NELMDL">     0</i>
    <i type="int" name="NELMIN">     8</i>
    <i name="ENINI">    520.00000000</i>
    <separator name="electronic convergence detail" >
     <i type="logical" name="LDIAG"> T  </i>
     <i type="logical" name="LSUBROT"> F  </i>
     <i name="WEIMIN">      0.00100000</i>
     <i name="EBREAK">      0.00000003</i>
     <i name="DEPER">      0.30000000</i>
     <i type="int" name="NRMM">     4</i>
     <i name="TIME">      0.40000000</i>
    </separator>
   </separator>
   <separator name="electronic mixer" >
    <i name="AMIX">      0.40000000</i>
    <i name="BMIX">      1.00000000</i>
    <i name="AMIN">      0.10000000</i>
    <i name="AMIX_MAG">      1.60000000</i>
    <i name="BMIX_MAG">      1.00000000</i>
    <separator name="electronic mixer details" >
     <i type="int" name="IMIX">     4</i>
     <i type="logical" name="MIXFIRST"> F  </i>
     <i type="int" name="MAXMIX">   -45</i>
     <i name="WC">    100.00000000</i>
     <i type="int" name="INIMIX">     1</i>
     <i type="int" name="MIXPRE">     1</i>
     <i type="int" name="MREMOVE">     5</i>
    </separator>
   </separator>
   <separator name="electronic dipolcorrection" >
    <i type="logical" name="LDIPOL"> F  </i>
    <i type="logical" name="LMONO"> F  </i>
    <i type="int" name="IDIPOL">     0</i>
    <i name="EPSILON">      1.00000000</i>
    <v name="DIPOL">   -100.00000000   -100.00000000   -100.00000000</v>
    <i name="EFIELD">      0.00000000</i>
   </separator>
  </separator>
  <separator name="grids" >
   <i type="int" name="NGX">    64</i>
   <i type="int" name="NGY">    64</i>
   <i type="int" name="NGZ">    90</i>
   <i type="int" name="NGXF">   128</i>
   <i type="int" name="NGYF">   128</i>
   <i type="int" name="NGZF">   180</i>
   <i type="logical" name="ADDGRID"> F  </i>
  </separator>
  <separator name="ionic" >
   <i type="int" name="NSW">    30</i>
   <i type="int" name="IBRION">     2</i>
   <i type="int" name="ISIF">     3</i>
   <i name="PSTRESS">      0.00000000</i>
   <i name="EDIFFG">     -0.03000000</i>
   <i type="int" name="NFREE">     1</i>
   <i name="POTIM">      0.50000000</i>
   <i name="SMASS">     -3.00000000</i>
   <i name="SCALEE">      1.00000000</i>
  </separator>
  <separator name="ionic md" >
   <i name="TEBEG">      0.00010000</i>
   <i name="TEEND">      0.00010000</i>
   <i type="int" name="NBLOCK">     1</i>
   <i type="int" name="KBLOCK">    30</i>
   <i type="int" name="NPACO">   256</i>
   <i name="APACO">     16.00000000</i>
  </separator>
  <separator name="symmetry" >
   <i type="int" name="ISYM">     2</i>
   <i name="SYMPREC">      0.00001000</i>
  </separator>
  <separator name="dos" >
   <i type="logical" name="LORBIT"> F  </i>
   <v name="RWIGS">     -1.00000000     -1.00000000     -1.00000000     -1.00000000</v>
   <i type="int" name="NEDOS">   301</i>
   <i name="EMIN">     10.00000000</i>
   <i name="EMAX">    -10.00000000</i>
   <i name="EFERMI">      0.00000000</i>
  </separator>
  <separator name="writing" >
   <i type="int" name="NWRITE">     2</i>
   <i type="logical" name="LWAVE"> T  </i>
   <i type="logical" name="LCHARG"> T  </i>
   <i type="logical" name="LPARD"> F  </i>
   <i type="logical" name="LVTOT"> F  </i>
   <i type="logical" name="LVHAR"> F  </i>
   <i type="logical" name="LELF"> F  </i>
   <i type="logical" name="LOPTICS"> F  </i>
   <v name="STM">      0.00000000      0.00000000      0.00000000      0.00000000      0.00000000      0.00000000      0.00000000</v>
  </separator>
  <separator name="performance" >
   <i type="int" name="NPAR">     2</i>
   <i type="int" name="NSIM">     4</i>
   <i type="int" name="NBLK">    -1</i>
   <i type="logical" name="LPLANE"> T  </i>
   <i type="logical" name="LSCALAPACK"> T  </i>
   <i type="logical" name="LSCAAWARE"> F  </i>
   <i type="logical" name="LSCALU"> F  </i>
   <i type="logical" name="LASYNC"> F  </i>
   <i type="logical" name="LORBITALREAL"> F  </i>
  </separator>
  <separator name="miscellaneous" >
   <i type="int" name="IDIOT">     3</i>
   <i type="logical" name="LMUSIC"> F  </i>
   <v name="POMASS">     87.62000000     47.88000000     55.84700000     16.00000000</v>
   <v name="DARWINR">      0.00000000      0.00000000      0.00000000      0.00000000</v>
   <v name="DARWINV">      1.00000000      1.00000000      1.00000000      1.00000000</v>
   <i type="logical" name="LCORR"> T  </i>
  </separator>
  <i type="logical" name="GGA_COMPAT"> T  </i>
  <i type="logical" name="LBERRY"> F  </i>
  <i type="int" name="ICORELEVEL">     0</i>
  <i type="logical" name="LDAU"> T  </i>
  <v type="int" name="LDAUTYPE">     2</v>
  <v type="int" name="LDAUL">     0</v>
  <v name="LDAUU">      0.00000000</v>
  <v name="LDAUJ">      0.00000000</v>
  <i type="int" name="LDAUPRINT">     1</i>
  <i type="int" name="I_CONSTRAINED_M">     0</i>
  <separator name="electronic exchange-correlation" >
   <i type="string" name="GGA">--</i>
   <i type="int" name="VOSKOWN">     0</i>
   <i type="logical" name="LHFCALC"> F  </i>
   <i type="string" name="PRECFOCK"></i>
   <i type="logical" name="LSYMGRAD"> F  </i>
   <i type="logical" name="LHFONE"> F  </i>
   <i type="logical" name="LRHFCALC"> F  </i>
   <i type="logical" name="LTHOMAS"> F  </i>
   <i type="logical" name="LMODELHF"> F  </i>
   <i name="ENCUT4O">     -1.00000000</i>
   <i type="int" name="EXXOEP">     0</i>
   <i type="int" name="FOURORBIT">     0</i>
   <i name="AEXX">      0.00000000</i>
   <i name="HFALPHA">      0.00000000</i>
   <i name="MCALPHA">      0.00000000</i>
   <i name="ALDAX">      1.00000000</i>
   <i name="AGGAX">      1.00000000</i>
   <i name="ALDAC">      1.00000000</i>
   <i name="AGGAC">      1.00000000</i>
   <i type="int" name="NKREDX">     1</i>
   <i type="int" name="NKREDY">     1</i>
   <i type="int" name="NKREDZ">     1</i>
   <i type="logical" name="SHIFTRED"> F  </i>
   <i type="logical" name="ODDONLY"> F  </i>
   <i type="logical" name="EVENONLY"> F  </i>
   <i type="int" name="LMAXFOCK">     0</i>
   <i type="int" name="NMAXFOCKAE">     0</i>
   <i type="logical" name="LFOCKAEDFT"> F  </i>
   <i name="HFSCREEN">      0.00000000</i>
   <i name="HFSCREENC">      0.00000000</i>
   <i type="int" name="NBANDSGWLOW">     0</i>
  </separator>
  <separator name="vdW DFT" >
   <i type="logical" name="LUSE_VDW"> F  </i>
   <i name="Zab_VDW">     -0.84910000</i>
   <i name="PARAM1">      0.12340000</i>
   <i name="PARAM2">      1.00000000</i>
   <i name="PARAM3">      0.00000000</i>
  </separator>
  <separator name="model GW" >
   <i type="int" name="MODEL_GW">     0</i>
   <i name="MODEL_EPS0">      7.59570320</i>
   <i name="MODEL_ALPHA">      1.00000000</i>
  </separator>
  <separator name="linear response parameters" >
   <i type="logical" name="LEPSILON"> F  </i>
   <i type="logical" name="LRPA"> F  </i>
   <i type="logical" name="LNABLA"> F  </i>
   <i type="logical" name="LVEL"> F  </i>
   <i type="int" name="KINTER">     0</i>
   <i name="CSHIFT">      0.10000000</i>
   <i name="OMEGAMAX">     -1.00000000</i>
   <i name="DEG_THRESHOLD">      0.00200000</i>
  </separator>
  <separator name="orbital magnetization" >
   <i type="logical" name="NUCIND"> F  </i>
   <v name="MAGPOS">      0.00000000      0.00000000      0.00000000</v>
   <i type="logical" name="LNICSALL"> T  </i>
   <i type="logical" name="ORBITALMAG"> F  </i>
   <i type="logical" name="LMAGBLOCH"> F  </i>
   <i type="logical" name="LCHIMAG"> F  </i>
   <i type="logical" name="LGAUGE"> T  </i>
   <i type="int" name="MAGATOM">     0</i>
   <v name="MAGDIPOL">      0.00000000      0.00000000      0.00000000</v>
   <v name="AVECCONST">      0.00000000      0.00000000      0.00000000</v>
  </separator>
  <separator name="response functions" >
   <i type="logical" name="LADDER"> F  </i>
   <i type="logical" name="LFXC"> F  </i>
   <i type="logical" name="LHARTREE"> T  </i>
   <i type="int" name="IBSE">     0</i>
   <v type="int" name="KPOINT">    -1     0     0     0</v>
   <i type="logical" name="LTCTE"> F  </i>
   <i type="logical" name="LTETE"> F  </i>
   <i type="logical" name="LTRIPLET"> F  </i>
   <i type="logical" name="LFXCEPS"> F  </i>
   <i type="logical" name="LFXHEG"> F  </i>
   <i type="int" name="NATURALO">     0</i>
   <i type="logical" name="L2ORDER"> F  </i>
   <i type="logical" name="LUSEW"> F  </i>
   <i name="ENCUTGW">     -2.00000000</i>
   <i name="ENCUTGWSOFT">     -2.00000000</i>
   <i name="ENCUTLF">     -1.00000000</i>
   <i type="int" name="LMAXMP2">    -1</i>
   <i name="SCISSOR">      0.00000000</i>
   <i type="int" name="NOMEGA">     0</i>
   <i type="int" name="NOMEGAR">     0</i>
   <i type="int" name="NBANDSGW">    -1</i>
   <i type="int" name="NBANDSO">    -1</i>
   <i type="int" name="NBANDSV">    -1</i>
   <i type="int" name="NELM">    40</i>
   <i type="int" name="NELMHF">     1</i>
   <i type="int" name="DIM">     3</i>
   <i type="int" name="ANTIRES">     0</i>
   <i name="OMEGAMAX">    -30.00000000</i>
   <i name="OMEGAMIN">    -30.00000000</i>
   <i name="OMEGATL">   -200.00000000</i>
   <i type="int" name="OMEGAGRID">     0</i>
   <i name="CSHIFT">     -0.10000000</i>
   <i type="logical" name="SELFENERGY"> F  </i>
   <i type="logical" name="LSPECTRAL"> F  </i>
   <i type="logical" name="LSPECTRALGW"> F  </i>
   <i type="logical" name="LSINGLES"> F  </i>
   <i type="logical" name="LFERMIGW"> F  </i>
   <i type="logical" name="ODDONLYGW"> F  </i>
   <i type="logical" name="EVENONLYGW"> F  </i>
   <i type="int" name="NKREDLFX">     1</i>
   <i type="int" name="NKREDLFY">     1</i>
   <i type="int" name="NKREDLFZ">     1</i>
   <i type="int" name="MAXMEM">  1800</i>
   <i type="int" name="TELESCOPE">     0</i>
   <i type="int" name="TAUPAR">     1</i>
   <i type="int" name="OMEGAPAR">    -1</i>
   <i name="LAMBDA">      1.00000000</i>
  </separator>
  <separator name="External order field" >
   <i name="OFIELD_KAPPA">      0.00000000</i>
   <v name="OFIELD_K">      0.00000000      0.00000000      0.00000000</v>
   <i name="OFIELD_Q6_NEAR">      0.00000000</i>
   <i name="OFIELD_Q6_FAR">      0.00000000</i>
   <i name="OFIELD_A">      0.00000000</i>
  </separator>
 </parameters>
 <atominfo>
  <atoms>     158 </atoms>
  <types>       4 </types>
  <array name="atoms" >
   <dimension dim="1">ion</dimension>
   <field type="string">element</field>
   <field type="int">atomtype</field>
   <set>
    <rc><c>Sr</c><c>   1</c></rc>
    <rc><c>Sr</c><c>   1</c></rc>
    <rc><c>Sr</c><c>   1</c></rc>
    <rc><c>Sr</c><c>   1</c></rc>
    <rc><c>Sr</c><c>   1</c></rc>
    <rc><c>Sr</c><c>   1</c></rc>
    <rc><c>Sr</c><c>   1</c></rc>
    <rc><c>Sr</c><c>   1</c></rc>
    <rc><c>Sr</c><c>   1</c></rc>
    <rc><c>Sr</c><c>   1</c></rc>
    <rc><c>Sr</c><c>   1</c></rc>
    <rc><c>Sr</c><c>   1</c></rc>
    <rc><c>Sr</c><c>   1</c></rc>
    <rc><c>Sr</c><c>   1</c></rc>
    <rc><c>Sr</c><c>   1</c></rc>
    <rc><c>Sr</c><c>   1</c></rc>
    <rc><c>Sr</c><c>   1</c></rc>
    <rc><c>Sr</c><c>   1</c></rc>
    <rc><c>Sr</c><c>   1</c></rc>
    <rc><c>Sr</c><c>   1</c></rc>
    <rc><c>Sr</c><c>   1</c></rc>
    <rc><c>Sr</c><c>   1</c></rc>
    <rc><c>Sr</c><c>   1</c></rc>
    <rc><c>Sr</c><c>   1</c></rc>
    <rc><c>Sr</c><c>   1</c></rc>
    <rc><c>Sr</c><c>   1</c></rc>
    <rc><c>Sr</c><c>   1</c></rc>
    <rc><c>Sr</c><c>   1</c></rc>
    <rc><c>Sr</c><c>   1</c></rc>
    <rc><c>Sr</c><c>   1</c></rc>
    <rc><c>Sr</c><c>   1</c></rc>
    <rc><c>Sr</c><c>   1</c></rc>
    <rc><c>Ti</c><c>   2</c></rc>
    <rc><c>Ti</c><c>   2</c></rc>
    <rc><c>Ti</c><c>   2</c></rc>
    <rc><c>Ti</c><c>   2</c></rc>
    <rc><c>Ti</c><c>   2</c></rc>
    <rc><c>Ti</c><c>   2</c></rc>
    <rc><c>Ti</c><c>   2</c></rc>
    <rc><c>Ti</c><c>   2</c></rc>
    <rc><c>Ti</c><c>   2</c></rc>
    <rc><c>Ti</c><c>   2</c></rc>
    <rc><c>Ti</c><c>   2</c></rc>
    <rc><c>Ti</c><c>   2</c></rc>
    <rc><c>Ti</c><c>   2</c></rc>
    <rc><c>Ti</c><c>   2</c></rc>
    <rc><c>Ti</c><c>   2</c></rc>
    <rc><c>Ti</c><c>   2</c></rc>
    <rc><c>Ti</c><c>   2</c></rc>
    <rc><c>Ti</c><c>   2</c></rc>
    <rc><c>Ti</c><c>   2</c></rc>
    <rc><c>Ti</c><c>   2</c></rc>
    <rc><c>Ti</c><c>   2</c></rc>
    <rc><c>Ti</c><c>   2</c></rc>
    <rc><c>Ti</c><c>   2</c></rc>
    <rc><c>Ti</c><c>   2</c></rc>
    <rc><c>Ti</c><c>   2</c></rc>
    <rc><c>Ti</c><c>   2</c></rc>
    <rc><c>Ti</c><c>   2</c></rc>
    <rc><c>Ti</c><c>   2</c></rc>
    <rc><c>Fe</c><c>   3</c></rc>
    <rc><c>Fe</c><c>   3</c></rc>
    <rc><c>Fe</c><c>   3</c></rc>
    <rc><c>Fe</c><c>   3</c></rc>
    <rc><c>O </c><c>   4</c></rc>
    <rc><c>O </c><c>   4</c></rc>
    <rc><c>O </c><c>   4</c></rc>
    <rc><c>O </c><c>   4</c></rc>
    <rc><c>O </c><c>   4</c></rc>
    <rc><c>O </c><c>   4</c></rc>
    <rc><c>O </c><c>   4</c></rc>
    <rc><c>O </c><c>   4</c></rc>
    <rc><c>O </c><c>   4</c></rc>
    <rc><c>O </c><c>   4</c></rc>
    <rc><c>O </c><c>   4</c></rc>
    <rc><c>O </c><c>   4</c></rc>
    <rc><c>O </c><c>   4</c></rc>
    <rc><c>O </c><c>   4</c></rc>
    <rc><c>O </c><c>   4</c></rc>
    <rc><c>O </c><c>   4</c></rc>
    <rc><c>O </c><c>   4</c></rc>
    <rc><c>O </c><c>   4</c></rc>
    <rc><c>O </c><c>   4</c></rc>
    <rc><c>O </c><c>   4</c></rc>
    <rc><c>O </c><c>   4</c></rc>
    <rc><c>O </c><c>   4</c></rc>
    <rc><c>O </c><c>   4</c></rc>
    <rc><c>O </c><c>   4</c></rc>
    <rc><c>O </c><c>   4</c></rc>
    <rc><c>O </c><c>   4</c></rc>
    <rc><c>O </c><c>   4</c></rc>
    <rc><c>O </c><c>   4</c></rc>
    <rc><c>O </c><c>   4</c></rc>
    <rc><c>O </c><c>   4</c></rc>
    <rc><c>O </c><c>   4</c></rc>
    <rc><c>O </c><c>   4</c></rc>
    <rc><c>O </c><c>   4</c></rc>
    <rc><c>O </c><c>   4</c></rc>
    <rc><c>O </c><c>   4</c></rc>
    <rc><c>O </c><c>   4</c></rc>
    <rc><c>O </c><c>   4</c></rc>
    <rc><c>O </c><c>   4</c></rc>
    <rc><c>O </c><c>   4</c></rc>
    <rc><c>O </c><c>   4</c></rc>
    <rc><c>O </c><c>   4</c></rc>
    <rc><c>O </c><c>   4</c></rc>
    <rc><c>O </c><c>   4</c></rc>
    <rc><c>O </c><c>   4</c></rc>
    <rc><c>O </c><c>   4</c></rc>
    <rc><c>O </c><c>   4</c></rc>
    <rc><c>O </c><c>   4</c></rc>
    <rc><c>O </c><c>   4</c></rc>
    <rc><c>O </c><c>   4</c></rc>
    <rc><c>O </c><c>   4</c></rc>
    <rc><c>O </c><c>   4</c></rc>
    <rc><c>O </c><c>   4</c></rc>
    <rc><c>O </c><c>   4</c></rc>
    <rc><c>O </c><c>   4</c></rc>
    <rc><c>O </c><c>   4</c></rc>
    <rc><c>O </c><c>   4</c></rc>
    <rc><c>O </c><c>   4</c></rc>
    <rc><c>O </c><c>   4</c></rc>
    <rc><c>O </c><c>   4</c></rc>
    <rc><c>O </c><c>   4</c></rc>
    <rc><c>O </c><c>   4</c></rc>
    <rc><c>O </c><c>   4</c></rc>
    <rc><c>O </c><c>   4</c></rc>
    <rc><c>O </c><c>   4</c></rc>
    <rc><c>O </c><c>   4</c></rc>
    <rc><c>O </c><c>   4</c></rc>
    <rc><c>O </c><c>   4</c></rc>
    <rc><c>O </c><c>   4</c></rc>
    <rc><c>O </c><c>   4</c></rc>
    <rc><c>O </c><c>   4</c></rc>
    <rc><c>O </c><c>   4</c></rc>
    <rc><c>O </c><c>   4</c></rc>
    <rc><c>O </c><c>   4</c></rc>
    <rc><c>O </c><c>   4</c></rc>
    <rc><c>O </c><c>   4</c></rc>
    <rc><c>O </c><c>   4</c></rc>
    <rc><c>O </c><c>   4</c></rc>
    <rc><c>O </c><c>   4</c></rc>
    <rc><c>O </c><c>   4</c></rc>
    <rc><c>O </c><c>   4</c></rc>
    <rc><c>O </c><c>   4</c></rc>
    <rc><c>O </c><c>   4</c></rc>
    <rc><c>O </c><c>   4</c></rc>
    <rc><c>O </c><c>   4</c></rc>
    <rc><c>O </c><c>   4</c></rc>
    <rc><c>O </c><c>   4</c></rc>
    <rc><c>O </c><c>   4</c></rc>
    <rc><c>O </c><c>   4</c></rc>
    <rc><c>O </c><c>   4</c></rc>
    <rc><c>O </c><c>   4</c></rc>
    <rc><c>O </c><c>   4</c></rc>
    <rc><c>O </c><c>   4</c></rc>
    <rc><c>O </c><c>   4</c></rc>
    <rc><c>O </c><c>   4</c></rc>
   </set>
  </array>
  <array name="atomtypes" >
   <dimension dim="1">type</dimension>
   <field type="int">atomspertype</field>
   <field type="string">element</field>
   <field>mass</field>
   <field>valence</field>
   <field type="string">pseudopotential</field>
   <set>
    <rc><c>  32</c><c>Sr</c><c>     87.62000000</c><c>     10.00000000</c><c>  PAW_PBE Sr_sv 07Sep2000               </c></rc>
    <rc><c>  28</c><c>Ti</c><c>     47.88000000</c><c>      4.00000000</c><c>  PAW_PBE Ti 08Apr2002                  </c></rc>
    <rc><c>   4</c><c>Fe</c><c>     55.84700000</c><c>      8.00000000</c><c>  PAW_PBE Fe 06Sep2000                  </c></rc>
    <rc><c>  94</c><c>O </c><c>     16.00000000</c><c>      6.00000000</c><c>  PAW_PBE O 08Apr2002                   </c></rc>
   </set>
  </array>
 </atominfo>
 <structure name="initialpos" >
  <crystal>
   <varray name="basis" >
    <v>      11.19708037       0.00000002       0.00000000 </v>
    <v>      -0.00000002      11.19708037       0.00000000 </v>
    <v>       0.00000000       0.00000000      15.95380326 </v>
   </varray>
   <i name="volume">   2000.20184177 </i>
   <varray name="rec_basis" >
    <v>       0.08930900       0.00000000       0.00000000 </v>
    <v>      -0.00000000       0.08930900       0.00000000 </v>
    <v>       0.00000000       0.00000000       0.06268098 </v>
   </varray>
  </crystal>
  <varray name="positions" >
   <v>       0.00025540       0.25594731       0.12369021 </v>
   <v>       0.99948939       0.25041124       0.62629137 </v>
   <v>       0.99974460       0.74405269       0.12369021 </v>
   <v>       0.00051061       0.74958876       0.62629137 </v>
   <v>       0.49983052       0.25096234       0.12427843 </v>
   <v>       0.49990405       0.24949890       0.62564909 </v>
   <v>       0.50016948       0.74903766       0.12427843 </v>
   <v>       0.50009595       0.75050110       0.62564909 </v>
   <v>       0.00009595       0.25050110       0.37435091 </v>
   <v>       0.00016948       0.24903766       0.87572157 </v>
   <v>       0.99990405       0.74949890       0.37435091 </v>
   <v>       0.99983052       0.75096234       0.87572157 </v>
   <v>       0.50051061       0.24958876       0.37370863 </v>
   <v>       0.49974460       0.24405269       0.87630979 </v>
   <v>       0.49948939       0.75041124       0.37370863 </v>
   <v>       0.50025540       0.75594731       0.87630979 </v>
   <v>       0.25594731       0.99974460       0.12369021 </v>
   <v>       0.25041124       0.00051061       0.62629137 </v>
   <v>       0.25096234       0.50016948       0.12427843 </v>
   <v>       0.24949890       0.50009595       0.62564909 </v>
   <v>       0.74405269       0.00025540       0.12369021 </v>
   <v>       0.74958876       0.99948939       0.62629137 </v>
   <v>       0.74903766       0.49983052       0.12427843 </v>
   <v>       0.75050110       0.49990405       0.62564909 </v>
   <v>       0.25050110       0.99990405       0.37435091 </v>
   <v>       0.24903766       0.99983052       0.87572157 </v>
   <v>       0.24958876       0.49948939       0.37370863 </v>
   <v>       0.24405269       0.50025540       0.87630979 </v>
   <v>       0.74949890       0.00009595       0.37435091 </v>
   <v>       0.75096234       0.00016948       0.87572157 </v>
   <v>       0.75041124       0.50051061       0.37370863 </v>
   <v>       0.75594731       0.49974460       0.87630979 </v>
   <v>       0.00000000       0.00000000       0.50207806 </v>
   <v>       0.74886668       0.74868045       0.75146475 </v>
   <v>       0.00000000       0.50000000       0.00000000 </v>
   <v>       0.25000000       0.75000000       0.50000000 </v>
   <v>       0.50000000       0.00000000       0.50000000 </v>
   <v>       0.50000000       0.00000000       0.74981451 </v>
   <v>       0.50000000       0.50000000       0.49792194 </v>
   <v>       0.25000000       0.25000000       0.00000000 </v>
   <v>       0.50000000       0.00000000       0.00000000 </v>
   <v>       0.25000000       0.75000000       0.00000000 </v>
   <v>       0.00000000       0.50000000       0.25018549 </v>
   <v>       0.75000000       0.25000000       0.00000000 </v>
   <v>       0.75000000       0.25000000       0.50000000 </v>
   <v>       0.75000000       0.75000000       0.00000000 </v>
   <v>       0.75000000       0.75000000       0.50000000 </v>
   <v>       0.25113332       0.25131955       0.75146475 </v>
   <v>       0.24868045       0.75113332       0.24853525 </v>
   <v>       0.25131955       0.74886668       0.75146475 </v>
   <v>       0.75131955       0.24886668       0.24853525 </v>
   <v>       0.74868045       0.25113332       0.75146475 </v>
   <v>       0.75113332       0.75131955       0.24853525 </v>
   <v>       0.00000000       0.00000000       0.74800211 </v>
   <v>       0.00000000       0.50000000       0.74981451 </v>
   <v>       0.24886668       0.24868045       0.24853525 </v>
   <v>       0.50000000       0.50000000       0.25199789 </v>
   <v>       0.50000000       0.00000000       0.25018549 </v>
   <v>       0.00000000       0.50000000       0.50000000 </v>
   <v>       0.25000000       0.25000000       0.50000000 </v>
   <v>       0.00000000       0.00000000       0.25842565 </v>
   <v>       0.50000000       0.50000000       0.74157435 </v>
   <v>       0.00000000       0.00000000       0.99195522 </v>
   <v>       0.50000000       0.50000000       0.00804478 </v>
   <v>       0.11195260       0.13520472       0.23764485 </v>
   <v>       0.11069879       0.13940693       0.74634565 </v>
   <v>       0.11105266       0.63837924       0.24962416 </v>
   <v>       0.11154684       0.63846793       0.75025969 </v>
   <v>       0.61154684       0.13846793       0.24974031 </v>
   <v>       0.61105266       0.13837924       0.75037584 </v>
   <v>       0.61069879       0.63940693       0.25365435 </v>
   <v>       0.61195260       0.63520472       0.76235515 </v>
   <v>       0.38930121       0.36059307       0.25365435 </v>
   <v>       0.38804740       0.36479528       0.76235515 </v>
   <v>       0.38845316       0.86153207       0.24974031 </v>
   <v>       0.38894734       0.86162076       0.75037584 </v>
   <v>       0.88894734       0.36162076       0.24962416 </v>
   <v>       0.88845316       0.36153207       0.75025969 </v>
   <v>       0.88804740       0.86479528       0.23764485 </v>
   <v>       0.88930121       0.86059307       0.74634565 </v>
   <v>       0.36162076       0.11105266       0.24962416 </v>
   <v>       0.36153207       0.11154684       0.75025969 </v>
   <v>       0.36059307       0.61069879       0.25365435 </v>
   <v>       0.36479528       0.61195260       0.76235515 </v>
   <v>       0.86479528       0.11195260       0.23764485 </v>
   <v>       0.86059307       0.11069879       0.74634565 </v>
   <v>       0.86153207       0.61154684       0.24974031 </v>
   <v>       0.86162076       0.61105266       0.75037584 </v>
   <v>       0.13846793       0.38845316       0.24974031 </v>
   <v>       0.13520472       0.88804740       0.23764485 </v>
   <v>       0.13940693       0.88930121       0.74634565 </v>
   <v>       0.63940693       0.38930121       0.25365435 </v>
   <v>       0.63520472       0.38804740       0.76235515 </v>
   <v>       0.63837924       0.88894734       0.24962416 </v>
   <v>       0.63846793       0.88845316       0.75025969 </v>
   <v>       0.36654604       0.38643694       0.98707591 </v>
   <v>       0.35834950       0.39100761       0.49769394 </v>
   <v>       0.36421213       0.88630048       0.99964306 </v>
   <v>       0.35855697       0.89140600       0.50056171 </v>
   <v>       0.86421213       0.38630048       0.00035694 </v>
   <v>       0.85855697       0.39140600       0.49943829 </v>
   <v>       0.86654604       0.88643694       0.01292409 </v>
   <v>       0.85834950       0.89100761       0.50230606 </v>
   <v>       0.13345396       0.11356306       0.01292409 </v>
   <v>       0.74371845       0.74512783       0.62594270 </v>
   <v>       0.13578787       0.61369952       0.00035694 </v>
   <v>       0.14144303       0.60859400       0.49943829 </v>
   <v>       0.63578787       0.11369952       0.99964306 </v>
   <v>       0.64144303       0.10859400       0.50056171 </v>
   <v>       0.63345396       0.61356306       0.98707591 </v>
   <v>       0.64165050       0.60899239       0.49769394 </v>
   <v>       0.11369952       0.36421213       0.99964306 </v>
   <v>       0.10859400       0.35855697       0.50056171 </v>
   <v>       0.11356306       0.86654604       0.01292409 </v>
   <v>       0.10899239       0.85834950       0.50230606 </v>
   <v>       0.61356306       0.36654604       0.98707591 </v>
   <v>       0.60899239       0.35834950       0.49769394 </v>
   <v>       0.61369952       0.86421213       0.00035694 </v>
   <v>       0.60859400       0.85855697       0.49943829 </v>
   <v>       0.38630048       0.13578787       0.00035694 </v>
   <v>       0.39140600       0.14144303       0.49943829 </v>
   <v>       0.38643694       0.63345396       0.98707591 </v>
   <v>       0.39100761       0.64165050       0.49769394 </v>
   <v>       0.88643694       0.13345396       0.01292409 </v>
   <v>       0.89100761       0.14165050       0.50230606 </v>
   <v>       0.88630048       0.63578787       0.99964306 </v>
   <v>       0.89140600       0.64144303       0.50056171 </v>
   <v>       0.00000000       0.00000000       0.37687370 </v>
   <v>       0.00000000       0.50000000       0.12496481 </v>
   <v>       0.13837924       0.38894734       0.75037584 </v>
   <v>       0.50000000       0.50000000       0.12690386 </v>
   <v>       0.50000000       0.00000000       0.12496481 </v>
   <v>       0.50000000       0.00000000       0.62488765 </v>
   <v>       0.75984408       0.76105944       0.87587512 </v>
   <v>       0.50000000       0.50000000       0.62312630 </v>
   <v>       0.00000000       0.50000000       0.62488765 </v>
   <v>       0.00000000       0.00000000       0.62418413 </v>
   <v>       0.00000000       0.50000000       0.37511235 </v>
   <v>       0.00000000       0.50000000       0.87503519 </v>
   <v>       0.50000000       0.00000000       0.37511235 </v>
   <v>       0.50000000       0.00000000       0.87503519 </v>
   <v>       0.50000000       0.50000000       0.37581587 </v>
   <v>       0.14165050       0.10899239       0.50230606 </v>
   <v>       0.25628155       0.25487217       0.62594270 </v>
   <v>       0.24015592       0.23894056       0.87587512 </v>
   <v>       0.24512783       0.75628155       0.37405730 </v>
   <v>       0.23894056       0.75984408       0.87587512 </v>
   <v>       0.75487217       0.24371845       0.37405730 </v>
   <v>       0.76105944       0.24015592       0.87587512 </v>
   <v>       0.75628155       0.75487217       0.37405730 </v>
   <v>       0.25984408       0.26105944       0.12412488 </v>
   <v>       0.00000000       0.00000000       0.87309614 </v>
   <v>       0.26105944       0.74015592       0.12412488 </v>
   <v>       0.25487217       0.74371845       0.62594270 </v>
   <v>       0.73894056       0.25984408       0.12412488 </v>
   <v>       0.74512783       0.25628155       0.62594270 </v>
   <v>       0.74015592       0.73894056       0.12412488 </v>
   <v>       0.24371845       0.24512783       0.37405730 </v>
  </varray>
 </structure>
 <calculation>
  <scstep>
   <time name="dav">   50.95   51.00</time>
   <time name="total">   52.53   52.66</time>
   <energy>
    <i name="alphaZ">   5647.56887774 </i>
    <i name="ewald"> -61388.15964058 </i>
    <i name="hartreedc"> -15136.84608090 </i>
    <i name="XCdc">   2852.72907978 </i>
    <i name="pawpsdc"> 111551.79612044 </i>
    <i name="pawaedc">-110300.44625416 </i>
    <i name="eentropy">     -0.00000000 </i>
    <i name="bandstr">  -7030.30649374 </i>
    <i name="atom">  72650.08363186 </i>
    <i name="e_fr_energy">  -1153.58075958 </i>
    <i name="e_wo_entrp">  -1153.58075958 </i>
    <i name="e_0_energy">  -1153.58075958 </i>
   </energy>
  </scstep>
  <scstep>
   <time name="diag">    8.27    8.27</time>
   <time name="diis">    7.68    7.68</time>
   <time name="orth">    4.71    4.71</time>
   <time name="total">   22.27   22.33</time>
   <energy>
    <i name="e_fr_energy">  -1153.58075676 </i>
    <i name="e_wo_entrp">  -1153.58075676 </i>
    <i name="e_0_energy">  -1153.58075676 </i>
   </energy>
  </scstep>
  <scstep>
   <time name="diag">    8.28    8.28</time>
   <time name="diis">    7.30    7.30</time>
   <time name="orth">    4.68    4.68</time>
   <time name="total">   21.89   21.90</time>
   <energy>
    <i name="e_fr_energy">  -1153.58075756 </i>
    <i name="e_wo_entrp">  -1153.58075756 </i>
    <i name="e_0_energy">  -1153.58075756 </i>
   </energy>
  </scstep>
  <scstep>
   <time name="diag">    8.27    8.27</time>
   <time name="diis">    6.59    6.59</time>
   <time name="orth">    4.68    4.68</time>
   <time name="total">   21.15   21.23</time>
   <energy>
    <i name="e_fr_energy">  -1153.58075776 </i>
    <i name="e_wo_entrp">  -1153.58075776 </i>
    <i name="e_0_energy">  -1153.58075776 </i>
   </energy>
  </scstep>
  <scstep>
   <time name="diag">    8.27    8.27</time>
   <time name="diis">    6.22    6.22</time>
   <time name="orth">    4.68    4.68</time>
   <time name="total">   20.79   20.85</time>
   <energy>
    <i name="e_fr_energy">  -1153.58075781 </i>
    <i name="e_wo_entrp">  -1153.58075781 </i>
    <i name="e_0_energy">  -1153.58075781 </i>
   </energy>
  </scstep>
  <scstep>
   <time name="diag">    8.25    8.27</time>
   <time name="diis">    6.02    6.02</time>
   <time name="orth">    4.69    4.69</time>
   <time name="total">   20.58   20.64</time>
   <energy>
    <i name="e_fr_energy">  -1153.58075783 </i>
    <i name="e_wo_entrp">  -1153.58075783 </i>
    <i name="e_0_energy">  -1153.58075783 </i>
   </energy>
  </scstep>
  <scstep>
   <time name="diag">    8.27    8.27</time>
   <time name="diis">    5.90    5.90</time>
   <time name="orth">    4.66    4.67</time>
   <time name="total">   20.45   20.49</time>
   <energy>
    <i name="e_fr_energy">  -1153.58075785 </i>
    <i name="e_wo_entrp">  -1153.58075785 </i>
    <i name="e_0_energy">  -1153.58075785 </i>
   </energy>
  </scstep>
  <scstep>
   <time name="diag">    8.26    8.27</time>
   <time name="diis">    5.81    5.81</time>
   <time name="orth">    4.71    4.71</time>
   <time name="total">   19.35   19.39</time>
   <energy>
    <i name="alphaZ">   5647.56887774 </i>
    <i name="ewald"> -61388.15964058 </i>
    <i name="hartreedc"> -15136.84260100 </i>
    <i name="XCdc">   2852.72759164 </i>
    <i name="pawpsdc"> 111551.66489830 </i>
    <i name="pawaedc">-110300.33265548 </i>
    <i name="eentropy">     -0.00000000 </i>
    <i name="bandstr">  -7030.29086021 </i>
    <i name="atom">  72650.08363186 </i>
    <i name="e_fr_energy">  -1153.58075775 </i>
    <i name="e_wo_entrp">  -1153.58075775 </i>
    <i name="e_0_energy">  -1153.58075775 </i>
   </energy>
  </scstep>
  <structure>
   <crystal>
    <varray name="basis" >
     <v>      11.19708037       0.00000002       0.00000000 </v>
     <v>      -0.00000002      11.19708037       0.00000000 </v>
     <v>       0.00000000       0.00000000      15.95380326 </v>
    </varray>
    <i name="volume">   2000.20184177 </i>
    <varray name="rec_basis" >
     <v>       0.08930900       0.00000000       0.00000000 </v>
     <v>      -0.00000000       0.08930900       0.00000000 </v>
     <v>       0.00000000       0.00000000       0.06268098 </v>
    </varray>
   </crystal>
   <varray name="positions" >
    <v>       0.00025540       0.25594731       0.12369021 </v>
    <v>       0.99948939       0.25041124       0.62629137 </v>
    <v>       0.99974460       0.74405269       0.12369021 </v>
    <v>       0.00051061       0.74958876       0.62629137 </v>
    <v>       0.49983052       0.25096234       0.12427843 </v>
    <v>       0.49990405       0.24949890       0.62564909 </v>
    <v>       0.50016948       0.74903766       0.12427843 </v>
    <v>       0.50009595       0.75050110       0.62564909 </v>
    <v>       0.00009595       0.25050110       0.37435091 </v>
    <v>       0.00016948       0.24903766       0.87572157 </v>
    <v>       0.99990405       0.74949890       0.37435091 </v>
    <v>       0.99983052       0.75096234       0.87572157 </v>
    <v>       0.50051061       0.24958876       0.37370863 </v>
    <v>       0.49974460       0.24405269       0.87630979 </v>
    <v>       0.49948939       0.75041124       0.37370863 </v>
    <v>       0.50025540       0.75594731       0.87630979 </v>
    <v>       0.25594731       0.99974460       0.12369021 </v>
    <v>       0.25041124       0.00051061       0.62629137 </v>
    <v>       0.25096234       0.50016948       0.12427843 </v>
    <v>       0.24949890       0.50009595       0.62564909 </v>
    <v>       0.74405269       0.00025540       0.12369021 </v>
    <v>       0.74958876       0.99948939       0.62629137 </v>
    <v>       0.74903766       0.49983052       0.12427843 </v>
    <v>       0.75050110       0.49990405       0.62564909 </v>
    <v>       0.25050110       0.99990405       0.37435091 </v>
    <v>       0.24903766       0.99983052       0.87572157 </v>
    <v>       0.24958876       0.49948939       0.37370863 </v>
    <v>       0.24405269       0.50025540       0.87630979 </v>
    <v>       0.74949890       0.00009595       0.37435091 </v>
    <v>       0.75096234       0.00016948       0.87572157 </v>
    <v>       0.75041124       0.50051061       0.37370863 </v>
    <v>       0.75594731       0.49974460       0.87630979 </v>
    <v>       0.00000000       0.00000000       0.50207806 </v>
    <v>       0.74886668       0.74868045       0.75146475 </v>
    <v>       0.00000000       0.50000000       0.00000000 </v>
    <v>       0.25000000       0.75000000       0.50000000 </v>
    <v>       0.50000000       0.00000000       0.50000000 </v>
    <v>       0.50000000       0.00000000       0.74981451 </v>
    <v>       0.50000000       0.50000000       0.49792194 </v>
    <v>       0.25000000       0.25000000       0.00000000 </v>
    <v>       0.50000000       0.00000000       0.00000000 </v>
    <v>       0.25000000       0.75000000       0.00000000 </v>
    <v>       0.00000000       0.50000000       0.25018549 </v>
    <v>       0.75000000       0.25000000       0.00000000 </v>
    <v>       0.75000000       0.25000000       0.50000000 </v>
    <v>       0.75000000       0.75000000       0.00000000 </v>
    <v>       0.75000000       0.75000000       0.50000000 </v>
    <v>       0.25113332       0.25131955       0.75146475 </v>
    <v>       0.24868045       0.75113332       0.24853525 </v>
    <v>       0.25131955       0.74886668       0.75146475 </v>
    <v>       0.75131955       0.24886668       0.24853525 </v>
    <v>       0.74868045       0.25113332       0.75146475 </v>
    <v>       0.75113332       0.75131955       0.24853525 </v>
    <v>       0.00000000       0.00000000       0.74800211 </v>
    <v>       0.00000000       0.50000000       0.74981451 </v>
    <v>       0.24886668       0.24868045       0.24853525 </v>
    <v>       0.50000000       0.50000000       0.25199789 </v>
    <v>       0.50000000       0.00000000       0.25018549 </v>
    <v>       0.00000000       0.50000000       0.50000000 </v>
    <v>       0.25000000       0.25000000       0.50000000 </v>
    <v>       0.00000000       0.00000000       0.25842565 </v>
    <v>       0.50000000       0.50000000       0.74157435 </v>
    <v>       0.00000000       0.00000000       0.99195522 </v>
    <v>       0.50000000       0.50000000       0.00804478 </v>
    <v>       0.11195260       0.13520472       0.23764485 </v>
    <v>       0.11069879       0.13940693       0.74634565 </v>
    <v>       0.11105266       0.63837924       0.24962416 </v>
    <v>       0.11154684       0.63846793       0.75025969 </v>
    <v>       0.61154684       0.13846793       0.24974031 </v>
    <v>       0.61105266       0.13837924       0.75037584 </v>
    <v>       0.61069879       0.63940693       0.25365435 </v>
    <v>       0.61195260       0.63520472       0.76235515 </v>
    <v>       0.38930121       0.36059307       0.25365435 </v>
    <v>       0.38804740       0.36479528       0.76235515 </v>
    <v>       0.38845316       0.86153207       0.24974031 </v>
    <v>       0.38894734       0.86162076       0.75037584 </v>
    <v>       0.88894734       0.36162076       0.24962416 </v>
    <v>       0.88845316       0.36153207       0.75025969 </v>
    <v>       0.88804740       0.86479528       0.23764485 </v>
    <v>       0.88930121       0.86059307       0.74634565 </v>
    <v>       0.36162076       0.11105266       0.24962416 </v>
    <v>       0.36153207       0.11154684       0.75025969 </v>
    <v>       0.36059307       0.61069879       0.25365435 </v>
    <v>       0.36479528       0.61195260       0.76235515 </v>
    <v>       0.86479528       0.11195260       0.23764485 </v>
    <v>       0.86059307       0.11069879       0.74634565 </v>
    <v>       0.86153207       0.61154684       0.24974031 </v>
    <v>       0.86162076       0.61105266       0.75037584 </v>
    <v>       0.13846793       0.38845316       0.24974031 </v>
    <v>       0.13520472       0.88804740       0.23764485 </v>
    <v>       0.13940693       0.88930121       0.74634565 </v>
    <v>       0.63940693       0.38930121       0.25365435 </v>
    <v>       0.63520472       0.38804740       0.76235515 </v>
    <v>       0.63837924       0.88894734       0.24962416 </v>
    <v>       0.63846793       0.88845316       0.75025969 </v>
    <v>       0.36654604       0.38643694       0.98707591 </v>
    <v>       0.35834950       0.39100761       0.49769394 </v>
    <v>       0.36421213       0.88630048       0.99964306 </v>
    <v>       0.35855697       0.89140600       0.50056171 </v>
    <v>       0.86421213       0.38630048       0.00035694 </v>
    <v>       0.85855697       0.39140600       0.49943829 </v>
    <v>       0.86654604       0.88643694       0.01292409 </v>
    <v>       0.85834950       0.89100761       0.50230606 </v>
    <v>       0.13345396       0.11356306       0.01292409 </v>
    <v>       0.74371845       0.74512783       0.62594270 </v>
    <v>       0.13578787       0.61369952       0.00035694 </v>
    <v>       0.14144303       0.60859400       0.49943829 </v>
    <v>       0.63578787       0.11369952       0.99964306 </v>
    <v>       0.64144303       0.10859400       0.50056171 </v>
    <v>       0.63345396       0.61356306       0.98707591 </v>
    <v>       0.64165050       0.60899239       0.49769394 </v>
    <v>       0.11369952       0.36421213       0.99964306 </v>
    <v>       0.10859400       0.35855697       0.50056171 </v>
    <v>       0.11356306       0.86654604       0.01292409 </v>
    <v>       0.10899239       0.85834950       0.50230606 </v>
    <v>       0.61356306       0.36654604       0.98707591 </v>
    <v>       0.60899239       0.35834950       0.49769394 </v>
    <v>       0.61369952       0.86421213       0.00035694 </v>
    <v>       0.60859400       0.85855697       0.49943829 </v>
    <v>       0.38630048       0.13578787       0.00035694 </v>
    <v>       0.39140600       0.14144303       0.49943829 </v>
    <v>       0.38643694       0.63345396       0.98707591 </v>
    <v>       0.39100761       0.64165050       0.49769394 </v>
    <v>       0.88643694       0.13345396       0.01292409 </v>
    <v>       0.89100761       0.14165050       0.50230606 </v>
    <v>       0.88630048       0.63578787       0.99964306 </v>
    <v>       0.89140600       0.64144303       0.50056171 </v>
    <v>       0.00000000       0.00000000       0.37687370 </v>
    <v>       0.00000000       0.50000000       0.12496481 </v>
    <v>       0.13837924       0.38894734       0.75037584 </v>
    <v>       0.50000000       0.50000000       0.12690386 </v>
    <v>       0.50000000       0.00000000       0.12496481 </v>
    <v>       0.50000000       0.00000000       0.62488765 </v>
    <v>       0.75984408       0.76105944       0.87587512 </v>
    <v>       0.50000000       0.50000000       0.62312630 </v>
    <v>       0.00000000       0.50000000       0.62488765 </v>
    <v>       0.00000000       0.00000000       0.62418413 </v>
    <v>       0.00000000       0.50000000       0.37511235 </v>
    <v>       0.00000000       0.50000000       0.87503519 </v>
    <v>       0.50000000       0.00000000       0.37511235 </v>
    <v>       0.50000000       0.00000000       0.87503519 </v>
    <v>       0.50000000       0.50000000       0.37581587 </v>
    <v>       0.14165050       0.10899239       0.50230606 </v>
    <v>       0.25628155       0.25487217       0.62594270 </v>
    <v>       0.24015592       0.23894056       0.87587512 </v>
    <v>       0.24512783       0.75628155       0.37405730 </v>
    <v>       0.23894056       0.75984408       0.87587512 </v>
    <v>       0.75487217       0.24371845       0.37405730 </v>
    <v>       0.76105944       0.24015592       0.87587512 </v>
    <v>       0.75628155       0.75487217       0.37405730 </v>
    <v>       0.25984408       0.26105944       0.12412488 </v>
    <v>       0.00000000       0.00000000       0.87309614 </v>
    <v>       0.26105944       0.74015592       0.12412488 </v>
    <v>       0.25487217       0.74371845       0.62594270 </v>
    <v>       0.73894056       0.25984408       0.12412488 </v>
    <v>       0.74512783       0.25628155       0.62594270 </v>
    <v>       0.74015592       0.73894056       0.12412488 </v>
    <v>       0.24371845       0.24512783       0.37405730 </v>
   </varray>
  </structure>
  <varray name="forces" >
   <v>       0.00392183      -0.00480516      -0.00535636 </v>
   <v>       0.00143110      -0.01255757       0.00295425 </v>
   <v>      -0.00392183       0.00480516      -0.00535636 </v>
   <v>      -0.00143110       0.01255757       0.00295425 </v>
   <v>       0.00993857       0.01914587       0.01680336 </v>
   <v>      -0.00669209       0.00271156      -0.00703093 </v>
   <v>      -0.00993857      -0.01914587       0.01680336 </v>
   <v>       0.00669209      -0.00271156      -0.00703093 </v>
   <v>       0.00669198      -0.00271149       0.00703057 </v>
   <v>      -0.00993875      -0.01914586      -0.01680302 </v>
   <v>      -0.00669198       0.00271149       0.00703057 </v>
   <v>       0.00993875       0.01914586      -0.01680302 </v>
   <v>      -0.00143083       0.01255726      -0.00295419 </v>
   <v>      -0.00392206       0.00480514       0.00535522 </v>
   <v>       0.00143083      -0.01255726      -0.00295419 </v>
   <v>       0.00392206      -0.00480514       0.00535522 </v>
   <v>      -0.00480516      -0.00392183      -0.00535636 </v>
   <v>      -0.01255757      -0.00143110       0.00295425 </v>
   <v>       0.01914587      -0.00993857       0.01680336 </v>
   <v>       0.00271156       0.00669209      -0.00703093 </v>
   <v>       0.00480516       0.00392183      -0.00535636 </v>
   <v>       0.01255757       0.00143110       0.00295425 </v>
   <v>      -0.01914587       0.00993857       0.01680336 </v>
   <v>      -0.00271156      -0.00669209      -0.00703093 </v>
   <v>      -0.00271149      -0.00669198       0.00703057 </v>
   <v>      -0.01914586       0.00993875      -0.01680302 </v>
   <v>       0.01255726       0.00143083      -0.00295419 </v>
   <v>       0.00480514       0.00392206       0.00535522 </v>
   <v>       0.00271149       0.00669198       0.00703057 </v>
   <v>       0.01914586      -0.00993875      -0.01680302 </v>
   <v>      -0.01255726      -0.00143083      -0.00295419 </v>
   <v>      -0.00480514      -0.00392206       0.00535522 </v>
   <v>      -0.00000000      -0.00000000       0.00470762 </v>
   <v>      -0.00000559      -0.00473780       0.01773096 </v>
   <v>      -0.00000000      -0.00000000       0.00000007 </v>
   <v>      -0.00000002       0.00000002       0.00000006 </v>
   <v>      -0.00000000      -0.00000000       0.00000003 </v>
   <v>      -0.00000000      -0.00000000       0.06822497 </v>
   <v>      -0.00000000      -0.00000000      -0.00470751 </v>
   <v>       0.00000004      -0.00000004       0.00000004 </v>
   <v>      -0.00000000      -0.00000000       0.00000007 </v>
   <v>      -0.00000004      -0.00000004       0.00000004 </v>
   <v>      -0.00000000      -0.00000000      -0.06822498 </v>
   <v>       0.00000004       0.00000004       0.00000004 </v>
   <v>       0.00000002      -0.00000002       0.00000006 </v>
   <v>      -0.00000004       0.00000004       0.00000004 </v>
   <v>       0.00000002       0.00000002       0.00000006 </v>
   <v>       0.00000559       0.00473780       0.01773096 </v>
   <v>      -0.00473775       0.00000562      -0.01773088 </v>
   <v>       0.00473780      -0.00000559       0.01773096 </v>
   <v>       0.00473775      -0.00000562      -0.01773088 </v>
   <v>      -0.00473780       0.00000559       0.01773096 </v>
   <v>       0.00000562       0.00473775      -0.01773088 </v>
   <v>      -0.00000000      -0.00000000       0.01970054 </v>
   <v>      -0.00000000      -0.00000000       0.06822497 </v>
   <v>      -0.00000562      -0.00473775      -0.01773088 </v>
   <v>      -0.00000000      -0.00000000      -0.01970054 </v>
   <v>      -0.00000000      -0.00000000      -0.06822498 </v>
   <v>      -0.00000000      -0.00000000       0.00000003 </v>
   <v>      -0.00000002      -0.00000002       0.00000006 </v>
   <v>      -0.00000000      -0.00000000       0.00172923 </v>
   <v>      -0.00000000      -0.00000000      -0.00172913 </v>
   <v>      -0.00000000      -0.00000000       0.01218278 </v>
   <v>      -0.00000000      -0.00000000      -0.01218271 </v>
   <v>      -0.01404856      -0.00151398       0.00791650 </v>
   <v>      -0.00539672       0.00575273       0.00753632 </v>
   <v>       0.01867351      -0.01785461       0.01413677 </v>
   <v>       0.01565644      -0.00607481       0.00580447 </v>
   <v>       0.01565627      -0.00607470      -0.00580471 </v>
   <v>       0.01867376      -0.01785490      -0.01413709 </v>
   <v>      -0.00539655       0.00575264      -0.00753630 </v>
   <v>      -0.01404849      -0.00151418      -0.00791628 </v>
   <v>       0.00539655      -0.00575264      -0.00753630 </v>
   <v>       0.01404849       0.00151418      -0.00791628 </v>
   <v>      -0.01565627       0.00607470      -0.00580471 </v>
   <v>      -0.01867376       0.01785490      -0.01413709 </v>
   <v>      -0.01867351       0.01785461       0.01413677 </v>
   <v>      -0.01565644       0.00607481       0.00580447 </v>
   <v>       0.01404856       0.00151398       0.00791650 </v>
   <v>       0.00539672      -0.00575273       0.00753632 </v>
   <v>       0.01785461       0.01867351       0.01413677 </v>
   <v>       0.00607481       0.01565644       0.00580447 </v>
   <v>      -0.00575264      -0.00539655      -0.00753630 </v>
   <v>       0.00151418      -0.01404849      -0.00791628 </v>
   <v>       0.00151398      -0.01404856       0.00791650 </v>
   <v>      -0.00575273      -0.00539672       0.00753632 </v>
   <v>       0.00607470       0.01565627      -0.00580471 </v>
   <v>       0.01785490       0.01867376      -0.01413709 </v>
   <v>      -0.00607470      -0.01565627      -0.00580471 </v>
   <v>      -0.00151398       0.01404856       0.00791650 </v>
   <v>       0.00575273       0.00539672       0.00753632 </v>
   <v>       0.00575264       0.00539655      -0.00753630 </v>
   <v>      -0.00151418       0.01404849      -0.00791628 </v>
   <v>      -0.01785461      -0.01867351       0.01413677 </v>
   <v>      -0.00607481      -0.01565644       0.00580447 </v>
   <v>       0.00089755      -0.00442510       0.00496942 </v>
   <v>       0.00085655       0.01205701      -0.00473292 </v>
   <v>       0.02559221      -0.02422464      -0.01100166 </v>
   <v>       0.00259872      -0.00666723      -0.00313693 </v>
   <v>       0.02559219      -0.02422460       0.01100194 </v>
   <v>       0.00259882      -0.00666726       0.00313706 </v>
   <v>       0.00089752      -0.00442505      -0.00496938 </v>
   <v>       0.00085653       0.01205697       0.00473316 </v>
   <v>      -0.00089752       0.00442505      -0.00496938 </v>
   <v>       0.00623612      -0.00356060      -0.00843575 </v>
   <v>      -0.02559219       0.02422460       0.01100194 </v>
   <v>      -0.00259882       0.00666726       0.00313706 </v>
   <v>      -0.02559221       0.02422464      -0.01100166 </v>
   <v>      -0.00259872       0.00666723      -0.00313693 </v>
   <v>      -0.00089755       0.00442510       0.00496942 </v>
   <v>      -0.00085655      -0.01205701      -0.00473292 </v>
   <v>       0.02422464       0.02559221      -0.01100166 </v>
   <v>       0.00666723       0.00259872      -0.00313693 </v>
   <v>       0.00442505       0.00089752      -0.00496938 </v>
   <v>      -0.01205697       0.00085653       0.00473316 </v>
   <v>       0.00442510       0.00089755       0.00496942 </v>
   <v>      -0.01205701       0.00085655      -0.00473292 </v>
   <v>       0.02422460       0.02559219       0.01100194 </v>
   <v>       0.00666726       0.00259882       0.00313706 </v>
   <v>      -0.02422460      -0.02559219       0.01100194 </v>
   <v>      -0.00666726      -0.00259882       0.00313706 </v>
   <v>      -0.00442510      -0.00089755       0.00496942 </v>
   <v>       0.01205701      -0.00085655      -0.00473292 </v>
   <v>      -0.00442505      -0.00089752      -0.00496938 </v>
   <v>       0.01205697      -0.00085653       0.00473316 </v>
   <v>      -0.02422464      -0.02559221      -0.01100166 </v>
   <v>      -0.00666723      -0.00259872      -0.00313693 </v>
   <v>      -0.00000000      -0.00000000      -0.02818451 </v>
   <v>      -0.00000000      -0.00000000       0.01084206 </v>
   <v>      -0.01785490      -0.01867376      -0.01413709 </v>
   <v>      -0.00000000      -0.00000000      -0.01817800 </v>
   <v>      -0.00000000      -0.00000000       0.01084206 </v>
   <v>      -0.00000000      -0.00000000       0.00227113 </v>
   <v>       0.00423609      -0.00362892      -0.00525786 </v>
   <v>      -0.00000000      -0.00000000       0.02818429 </v>
   <v>      -0.00000000      -0.00000000       0.00227113 </v>
   <v>      -0.00000000      -0.00000000      -0.01856141 </v>
   <v>      -0.00000000      -0.00000000      -0.00227110 </v>
   <v>      -0.00000000      -0.00000000      -0.01084188 </v>
   <v>      -0.00000000      -0.00000000      -0.00227110 </v>
   <v>      -0.00000000      -0.00000000      -0.01084188 </v>
   <v>      -0.00000000      -0.00000000       0.01856152 </v>
   <v>      -0.00085653      -0.01205697       0.00473316 </v>
   <v>      -0.00623612       0.00356060      -0.00843575 </v>
   <v>      -0.00423609       0.00362892      -0.00525786 </v>
   <v>      -0.00356079      -0.00623611       0.00843591 </v>
   <v>       0.00362892       0.00423609      -0.00525786 </v>
   <v>       0.00356079       0.00623611       0.00843591 </v>
   <v>      -0.00362892      -0.00423609      -0.00525786 </v>
   <v>      -0.00623611       0.00356079       0.00843591 </v>
   <v>       0.00423617      -0.00362881       0.00525799 </v>
   <v>      -0.00000000      -0.00000000       0.01817833 </v>
   <v>      -0.00362881      -0.00423617       0.00525799 </v>
   <v>       0.00356060       0.00623612      -0.00843575 </v>
   <v>       0.00362881       0.00423617       0.00525799 </v>
   <v>      -0.00356060      -0.00623612      -0.00843575 </v>
   <v>      -0.00423617       0.00362881       0.00525799 </v>
   <v>       0.00623611      -0.00356079       0.00843591 </v>
  </varray>
  <varray name="stress" >
   <v>      -0.05263118       0.00000004       0.00000000 </v>
   <v>      -0.00000004      -0.05263118       0.00000000 </v>
   <v>       0.00000000       0.00000000       0.03092755 </v>
  </varray>
  <energy>
   <i name="e_fr_energy">  -1153.58075775 </i>
   <i name="e_wo_entrp">  -1153.58075775 </i>
   <i name="e_0_energy">     -0.00000000 </i>
  </energy>
  <time name="totalsc">  260.91  263.30</time>
 </calculation>
 <calculation>
  <scstep>
   <time name="dav">   72.32   72.33</time>
   <time name="total">   73.90   73.97</time>
   <energy>
    <i name="alphaZ">   5647.72890886 </i>
    <i name="ewald"> -61388.21363898 </i>
    <i name="hartreedc"> -15137.46526353 </i>
    <i name="XCdc">   2852.76481756 </i>
    <i name="pawpsdc"> 111551.60964918 </i>
    <i name="pawaedc">-110300.27963694 </i>
    <i name="eentropy">     -0.00000000 </i>
    <i name="bandstr">  -7029.81033838 </i>
    <i name="atom">  72650.08363186 </i>
    <i name="e_fr_energy">  -1153.58187038 </i>
    <i name="e_wo_entrp">  -1153.58187038 </i>
    <i name="e_0_energy">  -1153.58187038 </i>
   </energy>
  </scstep>
  <scstep>
   <time name="diag">    8.26    8.27</time>
   <time name="diis">   12.97   12.97</time>
   <time name="orth">    4.66    4.66</time>
   <time name="total">   27.51   27.57</time>
   <energy>
    <i name="e_fr_energy">  -1153.58266172 </i>
    <i name="e_wo_entrp">  -1153.58266172 </i>
    <i name="e_0_energy">  -1153.58266172 </i>
   </energy>
  </scstep>
  <scstep>
   <time name="diag">    8.27    8.28</time>
   <time name="diis">   11.82   11.81</time>
   <time name="orth">    4.68    4.69</time>
   <time name="total">   26.39   26.42</time>
   <energy>
    <i name="e_fr_energy">  -1153.58256938 </i>
    <i name="e_wo_entrp">  -1153.58256938 </i>
    <i name="e_0_energy">  -1153.58256938 </i>
   </energy>
  </scstep>
  <scstep>
   <time name="diag">    8.25    8.26</time>
   <time name="diis">    9.26    9.26</time>
   <time name="orth">    4.69    4.69</time>
   <time name="total">   23.81   23.86</time>
   <energy>
    <i name="e_fr_energy">  -1153.58248228 </i>
    <i name="e_wo_entrp">  -1153.58248228 </i>
    <i name="e_0_energy">  -1153.58248228 </i>
   </energy>
  </scstep>
  <scstep>
   <time name="diag">    8.26    8.27</time>
   <time name="diis">    8.06    8.07</time>
   <time name="orth">    4.67    4.67</time>
   <time name="total">   22.61   22.72</time>
   <energy>
    <i name="e_fr_energy">  -1153.58246487 </i>
    <i name="e_wo_entrp">  -1153.58246487 </i>
    <i name="e_0_energy">  -1153.58246487 </i>
   </energy>
  </scstep>
  <scstep>
   <time name="diag">    8.26    8.26</time>
   <time name="diis">    7.85    7.85</time>
   <time name="orth">    4.66    4.66</time>
   <time name="total">   22.40   22.46</time>
   <energy>
    <i name="e_fr_energy">  -1153.58246724 </i>
    <i name="e_wo_entrp">  -1153.58246724 </i>
    <i name="e_0_energy">  -1153.58246724 </i>
   </energy>
  </scstep>
  <scstep>
   <time name="diag">    8.26    8.27</time>
   <time name="diis">    7.66    7.66</time>
   <time name="orth">    4.70    4.70</time>
   <time name="total">   22.23   22.24</time>
   <energy>
    <i name="e_fr_energy">  -1153.58246843 </i>
    <i name="e_wo_entrp">  -1153.58246843 </i>
    <i name="e_0_energy">  -1153.58246843 </i>
   </energy>
  </scstep>
  <scstep>
   <time name="diag">    8.24    8.25</time>
   <time name="diis">    7.49    7.49</time>
   <time name="orth">    4.72    4.72</time>
   <time name="total">   21.03   21.12</time>
   <energy>
    <i name="alphaZ">   5647.72890886 </i>
    <i name="ewald"> -61388.21363898 </i>
    <i name="hartreedc"> -15137.07175862 </i>
    <i name="XCdc">   2852.73643060 </i>
    <i name="pawpsdc"> 111544.91322479 </i>
    <i name="pawaedc">-110293.60394078 </i>
    <i name="eentropy">     -0.00000000 </i>
    <i name="bandstr">  -7030.15532706 </i>
    <i name="atom">  72650.08363186 </i>
    <i name="e_fr_energy">  -1153.58246932 </i>
    <i name="e_wo_entrp">  -1153.58246932 </i>
    <i name="e_0_energy">  -1153.58246932 </i>
   </energy>
  </scstep>
  <structure>
   <crystal>
    <varray name="basis" >
     <v>      11.19685573       0.00000002       0.00000000 </v>
     <v>      -0.00000002      11.19685573       0.00000000 </v>
     <v>       0.00000000       0.00000000      15.95399134 </v>
    </varray>
    <i name="volume">   2000.14516508 </i>
    <varray name="rec_basis" >
     <v>       0.08931079       0.00000000       0.00000000 </v>
     <v>      -0.00000000       0.08931079       0.00000000 </v>
     <v>       0.00000000      -0.00000000       0.06268024 </v>
    </varray>
   </crystal>
   <varray name="positions" >
    <v>       0.00027230       0.25592661       0.12367401 </v>
    <v>       0.99949556       0.25035714       0.62630030 </v>
    <v>       0.99972770       0.74407339       0.12367401 </v>
    <v>       0.00050444       0.74964286       0.62630030 </v>
    <v>       0.49987334       0.25104483       0.12432924 </v>
    <v>       0.49987521       0.24951059       0.62562783 </v>
    <v>       0.50012666       0.74895517       0.12432924 </v>
    <v>       0.50012479       0.75048941       0.62562783 </v>
    <v>       0.00012479       0.25048941       0.37437217 </v>
    <v>       0.00012666       0.24895517       0.87567076 </v>
    <v>       0.99987521       0.74951059       0.37437217 </v>
    <v>       0.99987334       0.75104483       0.87567076 </v>
    <v>       0.50050444       0.24964286       0.37369970 </v>
    <v>       0.49972770       0.24407339       0.87632598 </v>
    <v>       0.49949556       0.75035714       0.37369970 </v>
    <v>       0.50027230       0.75592661       0.87632598 </v>
    <v>       0.25592661       0.99972770       0.12367401 </v>
    <v>       0.25035714       0.00050444       0.62630030 </v>
    <v>       0.25104483       0.50012666       0.12432924 </v>
    <v>       0.24951059       0.50012479       0.62562783 </v>
    <v>       0.74407339       0.00027230       0.12367401 </v>
    <v>       0.74964286       0.99949556       0.62630030 </v>
    <v>       0.74895517       0.49987334       0.12432924 </v>
    <v>       0.75048941       0.49987521       0.62562783 </v>
    <v>       0.25048941       0.99987521       0.37437217 </v>
    <v>       0.24895517       0.99987334       0.87567076 </v>
    <v>       0.24964286       0.49949556       0.37369970 </v>
    <v>       0.24407339       0.50027230       0.87632598 </v>
    <v>       0.74951059       0.00012479       0.37437217 </v>
    <v>       0.75104483       0.00012666       0.87567076 </v>
    <v>       0.75035714       0.50050444       0.37369970 </v>
    <v>       0.75592661       0.49972770       0.87632598 </v>
    <v>      -0.00000000      -0.00000000       0.50209230 </v>
    <v>       0.74886666       0.74866004       0.75151836 </v>
    <v>      -0.00000000       0.50000000       0.00000000 </v>
    <v>       0.25000000       0.75000000       0.50000000 </v>
    <v>       0.50000000      -0.00000000       0.50000000 </v>
    <v>       0.50000000      -0.00000000       0.75002082 </v>
    <v>       0.50000000       0.50000000       0.49790770 </v>
    <v>       0.25000000       0.25000000       0.00000000 </v>
    <v>       0.50000000      -0.00000000       0.00000000 </v>
    <v>       0.25000000       0.75000000       0.00000000 </v>
    <v>      -0.00000000       0.50000000       0.24997918 </v>
    <v>       0.75000000       0.25000000       0.00000000 </v>
    <v>       0.75000000       0.25000000       0.50000000 </v>
    <v>       0.75000000       0.75000000       0.00000000 </v>
    <v>       0.75000000       0.75000000       0.50000000 </v>
    <v>       0.25113334       0.25133996       0.75151836 </v>
    <v>       0.24866004       0.75113334       0.24848164 </v>
    <v>       0.25133996       0.74886666       0.75151836 </v>
    <v>       0.75133996       0.24886666       0.24848164 </v>
    <v>       0.74866004       0.25113334       0.75151836 </v>
    <v>       0.75113334       0.75133996       0.24848164 </v>
    <v>      -0.00000000      -0.00000000       0.74806168 </v>
    <v>      -0.00000000       0.50000000       0.75002082 </v>
    <v>       0.24886666       0.24866004       0.24848164 </v>
    <v>       0.50000000       0.50000000       0.25193832 </v>
    <v>       0.50000000      -0.00000000       0.24997918 </v>
    <v>      -0.00000000       0.50000000       0.50000000 </v>
    <v>       0.25000000       0.25000000       0.50000000 </v>
    <v>      -0.00000000      -0.00000000       0.25843088 </v>
    <v>       0.50000000       0.50000000       0.74156912 </v>
    <v>      -0.00000000      -0.00000000       0.99199206 </v>
    <v>       0.50000000       0.50000000       0.00800794 </v>
    <v>       0.11189207       0.13519819       0.23766879 </v>
    <v>       0.11067553       0.13943172       0.74636844 </v>
    <v>       0.11113311       0.63830231       0.24966691 </v>
    <v>       0.11161429       0.63844176       0.75027724 </v>
    <v>       0.61161429       0.13844176       0.24972276 </v>
    <v>       0.61113311       0.13830231       0.75033309 </v>
    <v>       0.61067553       0.63943172       0.25363156 </v>
    <v>       0.61189207       0.63519819       0.76233121 </v>
    <v>       0.38932447       0.36056828       0.25363156 </v>
    <v>       0.38810793       0.36480181       0.76233121 </v>
    <v>       0.38838571       0.86155824       0.24972276 </v>
    <v>       0.38886689       0.86169769       0.75033309 </v>
    <v>       0.88886689       0.36169769       0.24966691 </v>
    <v>       0.88838571       0.36155824       0.75027724 </v>
    <v>       0.88810793       0.86480181       0.23766879 </v>
    <v>       0.88932447       0.86056828       0.74636844 </v>
    <v>       0.36169769       0.11113311       0.24966691 </v>
    <v>       0.36155824       0.11161429       0.75027724 </v>
    <v>       0.36056828       0.61067553       0.25363156 </v>
    <v>       0.36480181       0.61189207       0.76233121 </v>
    <v>       0.86480181       0.11189207       0.23766879 </v>
    <v>       0.86056828       0.11067553       0.74636844 </v>
    <v>       0.86155824       0.61161429       0.24972276 </v>
    <v>       0.86169769       0.61113311       0.75033309 </v>
    <v>       0.13844176       0.38838571       0.24972276 </v>
    <v>       0.13519819       0.88810793       0.23766879 </v>
    <v>       0.13943172       0.88932447       0.74636844 </v>
    <v>       0.63943172       0.38932447       0.25363156 </v>
    <v>       0.63519819       0.38810793       0.76233121 </v>
    <v>       0.63830231       0.88886689       0.24966691 </v>
    <v>       0.63844176       0.88838571       0.75027724 </v>
    <v>       0.36654991       0.38641788       0.98709094 </v>
    <v>       0.35835319       0.39105955       0.49767963 </v>
    <v>       0.36432239       0.88619611       0.99960979 </v>
    <v>       0.35856816       0.89137728       0.50055222 </v>
    <v>       0.86432239       0.38619611       0.00039021 </v>
    <v>       0.85856817       0.39137728       0.49944778 </v>
    <v>       0.86654991       0.88641788       0.01290906 </v>
    <v>       0.85835319       0.89105955       0.50232037 </v>
    <v>       0.13345009       0.11358212       0.01290906 </v>
    <v>       0.74374532       0.74511249       0.62591720 </v>
    <v>       0.13567761       0.61380389       0.00039021 </v>
    <v>       0.14143183       0.60862272       0.49944778 </v>
    <v>       0.63567761       0.11380389       0.99960979 </v>
    <v>       0.64143184       0.10862272       0.50055222 </v>
    <v>       0.63345009       0.61358212       0.98709094 </v>
    <v>       0.64164681       0.60894045       0.49767963 </v>
    <v>       0.11380389       0.36432239       0.99960979 </v>
    <v>       0.10862272       0.35856816       0.50055222 </v>
    <v>       0.11358212       0.86654991       0.01290906 </v>
    <v>       0.10894045       0.85835319       0.50232037 </v>
    <v>       0.61358212       0.36654991       0.98709094 </v>
    <v>       0.60894045       0.35835319       0.49767963 </v>
    <v>       0.61380389       0.86432239       0.00039021 </v>
    <v>       0.60862272       0.85856817       0.49944778 </v>
    <v>       0.38619611       0.13567761       0.00039021 </v>
    <v>       0.39137728       0.14143183       0.49944778 </v>
    <v>       0.38641788       0.63345009       0.98709094 </v>
    <v>       0.39105955       0.64164681       0.49767963 </v>
    <v>       0.88641788       0.13345009       0.01290906 </v>
    <v>       0.89105955       0.14164681       0.50232037 </v>
    <v>       0.88619611       0.63567761       0.99960979 </v>
    <v>       0.89137728       0.64143184       0.50055222 </v>
    <v>      -0.00000000      -0.00000000       0.37678848 </v>
    <v>      -0.00000000       0.50000000       0.12499759 </v>
    <v>       0.13830231       0.38886689       0.75033309 </v>
    <v>       0.50000000       0.50000000       0.12684889 </v>
    <v>       0.50000000      -0.00000000       0.12499759 </v>
    <v>       0.50000000      -0.00000000       0.62489451 </v>
    <v>       0.75986233       0.76104381       0.87585922 </v>
    <v>       0.50000000       0.50000000       0.62321152 </v>
    <v>      -0.00000000       0.50000000       0.62489451 </v>
    <v>      -0.00000000      -0.00000000       0.62412800 </v>
    <v>      -0.00000000       0.50000000       0.37510549 </v>
    <v>      -0.00000000       0.50000000       0.87500241 </v>
    <v>       0.50000000      -0.00000000       0.37510549 </v>
    <v>       0.50000000      -0.00000000       0.87500241 </v>
    <v>       0.50000000       0.50000000       0.37587200 </v>
    <v>       0.14164681       0.10894045       0.50232037 </v>
    <v>       0.25625468       0.25488751       0.62591720 </v>
    <v>       0.24013767       0.23895619       0.87585922 </v>
    <v>       0.24511248       0.75625468       0.37408281 </v>
    <v>       0.23895619       0.75986233       0.87585922 </v>
    <v>       0.75488752       0.24374532       0.37408281 </v>
    <v>       0.76104381       0.24013767       0.87585922 </v>
    <v>       0.75625468       0.75488752       0.37408281 </v>
    <v>       0.25986233       0.26104381       0.12414078 </v>
    <v>      -0.00000000      -0.00000000       0.87315111 </v>
    <v>       0.26104381       0.74013767       0.12414078 </v>
    <v>       0.25488751       0.74374532       0.62591720 </v>
    <v>       0.73895619       0.25986233       0.12414078 </v>
    <v>       0.74511249       0.25625468       0.62591720 </v>
    <v>       0.74013767       0.73895619       0.12414078 </v>
    <v>       0.24374532       0.24511248       0.37408281 </v>
   </varray>
  </structure>
  <varray name="forces" >
   <v>       0.00370405      -0.00620903       0.00288687 </v>
   <v>       0.00253954      -0.00122655      -0.00148402 </v>
   <v>      -0.00370405       0.00620903       0.00288687 </v>
   <v>      -0.00253954       0.00122655      -0.00148402 </v>
   <v>       0.00963986       0.02001332       0.01774462 </v>
   <v>      -0.00539354      -0.00276743      -0.01062486 </v>
   <v>      -0.00963986      -0.02001332       0.01774462 </v>
   <v>       0.00539354       0.00276743      -0.01062486 </v>
   <v>       0.00539368       0.00276748       0.01062602 </v>
   <v>      -0.00964010      -0.02001314      -0.01774617 </v>
   <v>      -0.00539368      -0.00276748       0.01062602 </v>
   <v>       0.00964010       0.02001314      -0.01774617 </v>
   <v>      -0.00254026       0.00122631       0.00148478 </v>
   <v>      -0.00370359       0.00620921      -0.00288692 </v>
   <v>       0.00254026      -0.00122631       0.00148478 </v>
   <v>       0.00370359      -0.00620921      -0.00288692 </v>
   <v>      -0.00620903      -0.00370405       0.00288687 </v>
   <v>      -0.00122655      -0.00253954      -0.00148402 </v>
   <v>       0.02001332      -0.00963986       0.01774462 </v>
   <v>      -0.00276743       0.00539354      -0.01062486 </v>
   <v>       0.00620903       0.00370405       0.00288687 </v>
   <v>       0.00122655       0.00253954      -0.00148402 </v>
   <v>      -0.02001332       0.00963986       0.01774462 </v>
   <v>       0.00276743      -0.00539354      -0.01062486 </v>
   <v>       0.00276748      -0.00539368       0.01062602 </v>
   <v>      -0.02001314       0.00964010      -0.01774617 </v>
   <v>       0.00122631       0.00254026       0.00148478 </v>
   <v>       0.00620921       0.00370359      -0.00288692 </v>
   <v>      -0.00276748       0.00539368       0.01062602 </v>
   <v>       0.02001314      -0.00964010      -0.01774617 </v>
   <v>      -0.00122631      -0.00254026       0.00148478 </v>
   <v>      -0.00620921      -0.00370359      -0.00288692 </v>
   <v>      -0.00000000      -0.00000000      -0.01036777 </v>
   <v>      -0.00813263      -0.01049808      -0.01696521 </v>
   <v>      -0.00000000      -0.00000000       0.00000008 </v>
   <v>       0.00000009      -0.00000005       0.00000002 </v>
   <v>      -0.00000000      -0.00000000      -0.00000002 </v>
   <v>      -0.00000000      -0.00000000      -0.04429284 </v>
   <v>      -0.00000000      -0.00000000       0.01036769 </v>
   <v>       0.00000026       0.00000040      -0.00000004 </v>
   <v>      -0.00000000      -0.00000000       0.00000008 </v>
   <v>       0.00000040      -0.00000026      -0.00000004 </v>
   <v>      -0.00000000      -0.00000000       0.04429272 </v>
   <v>      -0.00000040       0.00000026      -0.00000004 </v>
   <v>      -0.00000009       0.00000005       0.00000002 </v>
   <v>      -0.00000026      -0.00000040      -0.00000004 </v>
   <v>      -0.00000005      -0.00000009       0.00000002 </v>
   <v>       0.00813263       0.01049808      -0.01696521 </v>
   <v>      -0.01049813       0.00813244       0.01696509 </v>
   <v>       0.01049808      -0.00813263      -0.01696521 </v>
   <v>       0.01049813      -0.00813244       0.01696509 </v>
   <v>      -0.01049808       0.00813263      -0.01696521 </v>
   <v>       0.00813244       0.01049813       0.01696509 </v>
   <v>      -0.00000000      -0.00000000      -0.01235482 </v>
   <v>      -0.00000000      -0.00000000      -0.04429284 </v>
   <v>      -0.00813244      -0.01049813       0.01696509 </v>
   <v>      -0.00000000      -0.00000000       0.01235477 </v>
   <v>      -0.00000000      -0.00000000       0.04429272 </v>
   <v>      -0.00000000      -0.00000000      -0.00000002 </v>
   <v>       0.00000005       0.00000009       0.00000002 </v>
   <v>      -0.00000000      -0.00000000       0.00102568 </v>
   <v>      -0.00000000      -0.00000000      -0.00102634 </v>
[...]
       <r>   -15.7654     0.0000    32.0000 </r>
       <r>   -15.6138     0.0000    32.0000 </r>
       <r>   -15.4621     0.0000    32.0000 </r>
       <r>   -15.3105     0.0000    32.0000 </r>
       <r>   -15.1588     0.0582    32.0088 </r>
       <r>   -15.0072    20.0402    35.0477 </r>
       <r>   -14.8556    53.8881    43.2191 </r>
       <r>   -14.7039    49.8249    50.7744 </r>
       <r>   -14.5523    29.4309    55.2373 </r>
       <r>   -14.4007    27.2238    59.3654 </r>
       <r>   -14.2490    31.9299    64.2072 </r>
       <r>   -14.0974   103.9363    79.9678 </r>
       <r>   -13.9457   154.0927   103.3340 </r>
       <r>   -13.7941   114.0225   120.6241 </r>
       <r>   -13.6425    22.4562   124.0293 </r>
       <r>   -13.4908    12.5885   125.9382 </r>
       <r>   -13.3392     0.4075   126.0000 </r>
       <r>   -13.1876     0.0000   126.0000 </r>
       <r>   -13.0359     0.0000   126.0000 </r>
       <r>   -12.8843     0.0000   126.0000 </r>
       <r>   -12.7326     0.0225   126.0034 </r>
       <r>   -12.5810    19.1059   128.9006 </r>
       <r>   -12.4294   118.8299   146.9196 </r>
       <r>   -12.2777   172.1456   173.0234 </r>
       <r>   -12.1261   131.9364   193.0299 </r>
       <r>   -11.9745   123.3943   211.7411 </r>
       <r>   -11.8228    62.4236   221.2068 </r>
       <r>   -11.6712     5.2304   221.9999 </r>
       <r>   -11.5195     0.0004   222.0000 </r>
       <r>   -11.3679     0.0000   222.0000 </r>
       <r>   -11.2163     0.0000   222.0000 </r>
       <r>   -11.0646     0.0000   222.0000 </r>
       <r>   -10.9130     0.0000   222.0000 </r>
       <r>   -10.7614     0.0000   222.0000 </r>
       <r>   -10.6097     0.0000   222.0000 </r>
       <r>   -10.4581     0.0000   222.0000 </r>
       <r>   -10.3064     0.0000   222.0000 </r>
       <r>   -10.1548     0.0000   222.0000 </r>
       <r>   -10.0032     0.0000   222.0000 </r>
       <r>    -9.8515     0.0000   222.0000 </r>
       <r>    -9.6999     0.0000   222.0000 </r>
       <r>    -9.5483     0.0000   222.0000 </r>
       <r>    -9.3966     0.0000   222.0000 </r>
       <r>    -9.2450     0.0000   222.0000 </r>
       <r>    -9.0933     0.0000   222.0000 </r>
       <r>    -8.9417     0.0000   222.0000 </r>
       <r>    -8.7901     0.0000   222.0000 </r>
       <r>    -8.6384     0.0000   222.0000 </r>
       <r>    -8.4868     0.0000   222.0000 </r>
       <r>    -8.3352     0.0000   222.0000 </r>
       <r>    -8.1835     0.0000   222.0000 </r>
       <r>    -8.0319     0.0000   222.0000 </r>
       <r>    -7.8802     0.0000   222.0000 </r>
       <r>    -7.7286     0.0000   222.0000 </r>
       <r>    -7.5770     0.0000   222.0000 </r>
       <r>    -7.4253     0.0000   222.0000 </r>
       <r>    -7.2737     0.0000   222.0000 </r>
       <r>    -7.1221     0.0000   222.0000 </r>
       <r>    -6.9704     0.0000   222.0000 </r>
       <r>    -6.8188     0.0000   222.0000 </r>
       <r>    -6.6671     0.0000   222.0000 </r>
       <r>    -6.5155     0.0000   222.0000 </r>
       <r>    -6.3639     0.0000   222.0000 </r>
       <r>    -6.2122     0.0000   222.0000 </r>
       <r>    -6.0606     0.0000   222.0000 </r>
       <r>    -5.9090     0.0000   222.0000 </r>
       <r>    -5.7573     0.0000   222.0000 </r>
       <r>    -5.6057     0.0000   222.0000 </r>
       <r>    -5.4540     0.0000   222.0000 </r>
       <r>    -5.3024     0.0000   222.0000 </r>
       <r>    -5.1508     0.0000   222.0000 </r>
       <r>    -4.9991     0.0000   222.0000 </r>
       <r>    -4.8475     0.0000   222.0000 </r>
       <r>    -4.6959     0.0000   222.0000 </r>
       <r>    -4.5442     0.0000   222.0000 </r>
       <r>    -4.3926     0.0000   222.0000 </r>
       <r>    -4.2409     0.0000   222.0000 </r>
       <r>    -4.0893     0.0000   222.0000 </r>
       <r>    -3.9377     0.0000   222.0000 </r>
       <r>    -3.7860     0.0000   222.0000 </r>
       <r>    -3.6344     0.0000   222.0000 </r>
       <r>    -3.4828     0.0000   222.0000 </r>
       <r>    -3.3311     0.0000   222.0000 </r>
       <r>    -3.1795     0.0000   222.0000 </r>
       <r>    -3.0278     0.0000   222.0000 </r>
       <r>    -2.8762     0.0000   222.0000 </r>
       <r>    -2.7246     0.0000   222.0000 </r>
       <r>    -2.5729     0.0000   222.0000 </r>
       <r>    -2.4213     0.0000   222.0000 </r>
       <r>    -2.2697     0.3336   222.0506 </r>
       <r>    -2.1180    16.8926   224.6122 </r>
       <r>    -1.9664    35.4066   229.9811 </r>
       <r>    -1.8147    45.4515   236.8733 </r>
       <r>    -1.6631    63.0273   246.4306 </r>
       <r>    -1.5115    54.0639   254.6287 </r>
       <r>    -1.3598    55.8060   263.0910 </r>
       <r>    -1.2082    63.1039   272.6599 </r>
       <r>    -1.0566    76.9955   284.3353 </r>
       <r>    -0.9049    71.5826   295.1899 </r>
       <r>    -0.7533    76.4487   306.7824 </r>
       <r>    -0.6016   101.0651   322.1076 </r>
       <r>    -0.4500   134.6249   342.5218 </r>
       <r>    -0.2984    77.5155   354.2761 </r>
       <r>    -0.1467    52.3333   362.2118 </r>
       <r>     0.0049    47.0692   369.3492 </r>
       <r>     0.1565    35.7497   374.7702 </r>
       <r>     0.3082    44.9121   381.5806 </r>
       <r>     0.4598    56.1444   390.0942 </r>
       <r>     0.6115    61.1561   399.3677 </r>
       <r>     0.7631    44.9127   406.1782 </r>
       <r>     0.9147    45.1121   413.0189 </r>
       <r>     1.0664    59.6615   422.0658 </r>
       <r>     1.2180    83.6264   434.7467 </r>
       <r>     1.3696    82.9674   447.3276 </r>
       <r>     1.5213   104.9903   463.2481 </r>
       <r>     1.6729    83.0681   475.8443 </r>
       <r>     1.8246    70.3688   486.5149 </r>
       <r>     1.9762    48.1985   493.8236 </r>
       <r>     2.1278    43.9347   500.4857 </r>
       <r>     2.2795    20.2108   503.5505 </r>
       <r>     2.4311     2.9645   504.0000 </r>
       <r>     2.5827     0.0000   504.0000 </r>
       <r>     2.7344     0.0000   504.0000 </r>
       <r>     2.8860     0.0000   504.0000 </r>
       <r>     3.0377     0.0000   504.0000 </r>
       <r>     3.1893     0.0000   504.0000 </r>
       <r>     3.3409     0.0000   504.0000 </r>
       <r>     3.4926     0.0000   504.0000 </r>
       <r>     3.6442     0.0000   504.0000 </r>
       <r>     3.7958     0.0000   504.0000 </r>
       <r>     3.9475     0.0000   504.0000 </r>
       <r>     4.0991     0.0000   504.0000 </r>
       <r>     4.2508     0.0000   504.0000 </r>
       <r>     4.4024     0.1675   504.0254 </r>
       <r>     4.5540    20.8302   507.1840 </r>
       <r>     4.7057    22.3394   510.5715 </r>
       <r>     4.8573    47.3085   517.7453 </r>
       <r>     5.0089    28.2218   522.0247 </r>
       <r>     5.1606    25.9142   525.9543 </r>
       <r>     5.3122    40.0032   532.0203 </r>
       <r>     5.4639    68.9611   542.4774 </r>
       <r>     5.6155    45.3205   549.3497 </r>
       <r>     5.7671    67.9805   559.6581 </r>
       <r>     5.9188    93.3722   573.8168 </r>
       <r>     6.0704   105.3593   589.7932 </r>
       <r>     6.2220    75.3115   601.2132 </r>
       <r>     6.3737    49.2567   608.6824 </r>
       <r>     6.5253    40.6461   614.8459 </r>
       <r>     6.6770    24.4309   618.5505 </r>
       <r>     6.8286    22.6225   621.9809 </r>
       <r>     6.9802    26.8748   626.0562 </r>
       <r>     7.1319    18.4179   628.8490 </r>
       <r>     7.2835    15.1312   631.1435 </r>
       <r>     7.4351    19.9609   634.1703 </r>
       <r>     7.5868    12.0873   636.0032 </r>
       <r>     7.7384     9.8632   637.4988 </r>
       <r>     7.8901    14.7264   639.7319 </r>
       <r>     8.0417    29.8007   644.2508 </r>
       <r>     8.1933    26.2723   648.2347 </r>
       <r>     8.3450    16.0264   650.6649 </r>
       <r>     8.4966    27.1128   654.7762 </r>
       <r>     8.6482    23.1700   658.2896 </r>
       <r>     8.7999    29.7587   662.8022 </r>
       <r>     8.9515    23.9962   666.4409 </r>
       <r>     9.1032    33.4375   671.5113 </r>
       <r>     9.2548    46.6782   678.5894 </r>
       <r>     9.4064    30.2203   683.1720 </r>
       <r>     9.5581    48.0209   690.4537 </r>
       <r>     9.7097    44.5771   697.2133 </r>
       <r>     9.8613    49.2226   704.6773 </r>
       <r>    10.0130    73.3936   715.8065 </r>
       <r>    10.1646    84.7711   728.6610 </r>
       <r>    10.3163    66.7654   738.7851 </r>
       <r>    10.4679    54.2253   747.0077 </r>
       <r>    10.6195    55.1639   755.3726 </r>
       <r>    10.7712    57.0408   764.0221 </r>
       <r>    10.9228    26.2079   767.9962 </r>
       <r>    11.0744     0.0248   768.0000 </r>
       <r>    11.2261     0.0000   768.0000 </r>
       <r>    11.3777     0.0000   768.0000 </r>
       <r>    11.5294     0.0000   768.0000 </r>
       <r>    11.6810     0.0000   768.0000 </r>
       <r>    11.8326     0.0000   768.0000 </r>
       <r>    11.9843     0.0000   768.0000 </r>
       <r>    12.1359     0.0000   768.0000 </r>
       <r>    12.2875     0.0000   768.0000 </r>
       <r>    12.4392     0.0000   768.0000 </r>
       <r>    12.5908     0.0000   768.0000 </r>
       <r>    12.7425     0.0000   768.0000 </r>
       <r>    12.8941     0.0000   768.0000 </r>
      </set>
     </set>
    </array>
   </total>
  </dos>
 </calculation>
 <structure name="finalpos" >
  <crystal>
   <varray name="basis" >
    <v>      11.19689107       0.00000002       0.00000000 </v>
    <v>      -0.00000002      11.19689107       0.00000000 </v>
    <v>       0.00000000      -0.00000000      15.95451102 </v>
   </varray>
   <i name="volume">   2000.22294189 </i>
   <varray name="rec_basis" >
    <v>       0.08931051       0.00000000       0.00000000 </v>
    <v>      -0.00000000       0.08931051       0.00000000 </v>
    <v>       0.00000000      -0.00000000       0.06267820 </v>
   </varray>
  </crystal>
  <varray name="positions" >
   <v>       0.00031245       0.25587115       0.12363528 </v>
   <v>       0.99954139       0.25027501       0.62632693 </v>
   <v>       0.99968755       0.74412885       0.12363528 </v>
   <v>       0.00045861       0.74972499       0.62632693 </v>
   <v>       0.50003831       0.25132858       0.12450688 </v>
   <v>       0.49977451       0.24948403       0.62553386 </v>
   <v>       0.49996169       0.74867142       0.12450688 </v>
   <v>       0.50022549       0.75051597       0.62553386 </v>
   <v>       0.00022549       0.25051597       0.37446615 </v>
   <v>      -0.00003832       0.24867143       0.87549311 </v>
   <v>       0.99977451       0.74948403       0.37446615 </v>
   <v>       0.00003832       0.75132857       0.87549311 </v>
   <v>       0.50045861       0.24972498       0.37367308 </v>
   <v>       0.49968755       0.24412885       0.87636471 </v>
   <v>       0.49954139       0.75027502       0.37367308 </v>
   <v>       0.50031245       0.75587115       0.87636471 </v>
   <v>       0.25587115       0.99968755       0.12363528 </v>
   <v>       0.25027501       0.00045861       0.62632693 </v>
   <v>       0.25132858       0.49996169       0.12450688 </v>
   <v>       0.24948403       0.50022549       0.62553386 </v>
   <v>       0.74412885       0.00031245       0.12363528 </v>
   <v>       0.74972499       0.99954139       0.62632693 </v>
   <v>       0.74867142       0.50003831       0.12450688 </v>
   <v>       0.75051597       0.49977451       0.62553386 </v>
   <v>       0.25051597       0.99977451       0.37446615 </v>
   <v>       0.24867143       0.00003832       0.87549311 </v>
   <v>       0.24972498       0.49954139       0.37367308 </v>
   <v>       0.24412885       0.50031245       0.87636471 </v>
   <v>       0.74948403       0.00022549       0.37446615 </v>
   <v>       0.75132857      -0.00003832       0.87549311 </v>
   <v>       0.75027502       0.50045861       0.37367308 </v>
   <v>       0.75587115       0.49968755       0.87636471 </v>
   <v>      -0.00000000      -0.00000000       0.50205147 </v>
   <v>       0.74881623       0.74854071       0.75152235 </v>
   <v>      -0.00000000       0.50000000       0.00000000 </v>
   <v>       0.25000000       0.75000000       0.50000000 </v>
   <v>       0.50000000      -0.00000000       0.50000000 </v>
   <v>       0.50000000      -0.00000000       0.75003951 </v>
   <v>       0.50000000       0.50000000       0.49794853 </v>
   <v>       0.25000000       0.25000000       0.00000000 </v>
   <v>       0.50000000      -0.00000000       0.00000000 </v>
   <v>       0.25000000       0.75000000       0.00000000 </v>
   <v>      -0.00000000       0.50000000       0.24996049 </v>
   <v>       0.75000000       0.25000000       0.00000000 </v>
   <v>       0.75000000       0.25000000       0.50000000 </v>
   <v>       0.75000000       0.75000000       0.00000000 </v>
   <v>       0.75000000       0.75000000       0.50000000 </v>
   <v>       0.25118377       0.25145929       0.75152235 </v>
   <v>       0.24854071       0.75118377       0.24847765 </v>
   <v>       0.25145929       0.74881623       0.75152235 </v>
   <v>       0.75145929       0.24881623       0.24847765 </v>
   <v>       0.74854071       0.25118377       0.75152235 </v>
   <v>       0.75118377       0.75145929       0.24847765 </v>
   <v>      -0.00000000      -0.00000000       0.74809912 </v>
   <v>      -0.00000000       0.50000000       0.75003951 </v>
   <v>       0.24881623       0.24854071       0.24847765 </v>
   <v>       0.50000000       0.50000000       0.25190088 </v>
   <v>       0.50000000      -0.00000000       0.24996049 </v>
   <v>      -0.00000000       0.50000000       0.50000000 </v>
   <v>       0.25000000       0.25000000       0.50000000 </v>
   <v>      -0.00000000      -0.00000000       0.25840850 </v>
   <v>       0.50000000       0.50000000       0.74159150 </v>
   <v>      -0.00000000      -0.00000000       0.99209498 </v>
   <v>       0.50000000       0.50000000       0.00790502 </v>
   <v>       0.11181865       0.13524918       0.23768327 </v>
   <v>       0.11058530       0.13942395       0.74649261 </v>
   <v>       0.11138246       0.63805445       0.24971865 </v>
   <v>       0.11185621       0.63832969       0.75040680 </v>
   <v>       0.61185620       0.13832970       0.24959321 </v>
   <v>       0.61138246       0.13805444       0.75028135 </v>
   <v>       0.61058530       0.63942396       0.25350739 </v>
   <v>       0.61181866       0.63524918       0.76231673 </v>
   <v>       0.38941470       0.36057604       0.25350739 </v>
   <v>       0.38818134       0.36475082       0.76231673 </v>
   <v>       0.38814380       0.86167030       0.24959321 </v>
   <v>       0.38861754       0.86194556       0.75028135 </v>
   <v>       0.88861754       0.36194555       0.24971865 </v>
   <v>       0.88814379       0.36167031       0.75040680 </v>
   <v>       0.88818135       0.86475082       0.23768327 </v>
   <v>       0.88941470       0.86057605       0.74649261 </v>
   <v>       0.36194555       0.11138246       0.24971865 </v>
   <v>       0.36167031       0.11185621       0.75040680 </v>
   <v>       0.36057604       0.61058530       0.25350739 </v>
   <v>       0.36475082       0.61181866       0.76231673 </v>
   <v>       0.86475082       0.11181865       0.23768327 </v>
   <v>       0.86057605       0.11058530       0.74649261 </v>
   <v>       0.86167030       0.61185620       0.24959321 </v>
   <v>       0.86194556       0.61138246       0.75028135 </v>
   <v>       0.13832970       0.38814380       0.24959321 </v>
   <v>       0.13524918       0.88818135       0.23768327 </v>
   <v>       0.13942395       0.88941470       0.74649261 </v>
   <v>       0.63942396       0.38941470       0.25350739 </v>
   <v>       0.63524918       0.38818134       0.76231673 </v>
   <v>       0.63805445       0.88861754       0.24971865 </v>
   <v>       0.63832969       0.88814379       0.75040680 </v>
   <v>       0.36664192       0.38633914       0.98710940 </v>
   <v>       0.35831384       0.39118319       0.49765360 </v>
   <v>       0.36471325       0.88579640       0.99950620 </v>
   <v>       0.35859540       0.89128514       0.50051388 </v>
   <v>       0.86471325       0.38579640       0.00049380 </v>
   <v>       0.85859540       0.39128514       0.49948612 </v>
   <v>       0.86664192       0.88633914       0.01289060 </v>
   <v>       0.85831384       0.89118319       0.50234640 </v>
   <v>       0.13335808       0.11366086       0.01289060 </v>
   <v>       0.74383638       0.74507237       0.62591594 </v>
   <v>       0.13528675       0.61420360       0.00049380 </v>
   <v>       0.14140460       0.60871486       0.49948612 </v>
   <v>       0.63528675       0.11420360       0.99950620 </v>
   <v>       0.64140460       0.10871486       0.50051388 </v>
   <v>       0.63335808       0.61366086       0.98710940 </v>
   <v>       0.64168616       0.60881681       0.49765360 </v>
   <v>       0.11420360       0.36471325       0.99950620 </v>
   <v>       0.10871486       0.35859540       0.50051388 </v>
   <v>       0.11366086       0.86664192       0.01289060 </v>
   <v>       0.10881681       0.85831384       0.50234640 </v>
   <v>       0.61366086       0.36664192       0.98710940 </v>
   <v>       0.60881681       0.35831384       0.49765360 </v>
   <v>       0.61420360       0.86471325       0.00049380 </v>
   <v>       0.60871486       0.85859540       0.49948612 </v>
   <v>       0.38579640       0.13528675       0.00049380 </v>
   <v>       0.39128514       0.14140460       0.49948612 </v>
   <v>       0.38633914       0.63335808       0.98710940 </v>
   <v>       0.39118319       0.64168616       0.49765360 </v>
   <v>       0.88633914       0.13335808       0.01289060 </v>
   <v>       0.89118319       0.14168616       0.50234640 </v>
   <v>       0.88579640       0.63528675       0.99950620 </v>
   <v>       0.89128514       0.64140460       0.50051388 </v>
   <v>      -0.00000000      -0.00000000       0.37671222 </v>
   <v>      -0.00000000       0.50000000       0.12496938 </v>
   <v>       0.13805444       0.38861754       0.75028135 </v>
   <v>       0.50000000       0.50000000       0.12670236 </v>
   <v>       0.50000000      -0.00000000       0.12496938 </v>
   <v>       0.50000000      -0.00000000       0.62497909 </v>
   <v>       0.75991041       0.76096727       0.87587789 </v>
   <v>       0.50000000       0.50000000       0.62328778 </v>
   <v>      -0.00000000       0.50000000       0.62497909 </v>
   <v>      -0.00000000      -0.00000000       0.62418341 </v>
   <v>      -0.00000000       0.50000000       0.37502091 </v>
   <v>      -0.00000000       0.50000000       0.87503062 </v>
   <v>       0.50000000      -0.00000000       0.37502091 </v>
   <v>       0.50000000      -0.00000000       0.87503062 </v>
   <v>       0.50000000       0.50000000       0.37581659 </v>
   <v>       0.14168616       0.10881681       0.50234640 </v>
   <v>       0.25616362       0.25492763       0.62591594 </v>
   <v>       0.24008959       0.23903273       0.87587789 </v>
   <v>       0.24507237       0.75616362       0.37408406 </v>
   <v>       0.23903273       0.75991041       0.87587789 </v>
   <v>       0.75492763       0.24383638       0.37408406 </v>
   <v>       0.76096727       0.24008959       0.87587789 </v>
   <v>       0.75616362       0.75492763       0.37408406 </v>
   <v>       0.25991041       0.26096727       0.12412211 </v>
   <v>      -0.00000000      -0.00000000       0.87329764 </v>
   <v>       0.26096727       0.74008959       0.12412211 </v>
   <v>       0.25492763       0.74383638       0.62591594 </v>
   <v>       0.73903273       0.25991041       0.12412211 </v>
   <v>       0.74507237       0.25616362       0.62591594 </v>
   <v>       0.74008959       0.73903273       0.12412211 </v>
   <v>       0.24383638       0.24507237       0.37408406 </v>
  </varray>
 </structure>
</modeling>
