       N       E                     dE             d eps       ncg     rms          rms(c)
DAV:   1    -0.115345290548E+04   -0.11535E+04   -0.20076E-05  2008   0.115E-02    0.151E-02
RMM:   2    -0.115345290592E+04   -0.43586E-06   -0.83022E-06  1592   0.638E-03    0.250E-02
RMM:   3    -0.115345290618E+04   -0.26374E-06   -0.37869E-06  1186   0.321E-03    0.302E-03
RMM:   4    -0.115345290614E+04    0.40294E-07   -0.11976E-06   687   0.219E-03    0.210E-03
RMM:   5    -0.115345290615E+04   -0.97352E-08   -0.65442E-07   528   0.188E-03    0.291E-03
RMM:   6    -0.115345290610E+04    0.47381E-07   -0.37538E-07   422   0.183E-03    0.596E-04
RMM:   7    -0.115345290610E+04   -0.12515E-08   -0.14073E-07   367   0.174E-03    0.295E-04
RMM:   8    -0.115345290610E+04    0.72760E-08   -0.72228E-08   317   0.171E-03
   1 F= -.11534529E+04 E0= -.11534529E+04  d E =-.115345E+04  mag=    20.0000
       N       E                     dE             d eps       ncg     rms          rms(c)
DAV:   1    -0.115345389912E+04   -0.99301E-03   -0.42497E-01  3232   0.764E-01    0.224E-01
RMM:   2    -0.115345443204E+04   -0.53292E-03   -0.13925E-02  3054   0.155E-01    0.227E-01
RMM:   3    -0.115345430017E+04    0.13187E-03   -0.63187E-04  2843   0.437E-02    0.151E-01
RMM:   4    -0.115345415858E+04    0.14160E-03   -0.29333E-04  2316   0.199E-02    0.865E-02
RMM:   5    -0.115345411111E+04    0.47469E-04   -0.11789E-04  1990   0.140E-02    0.587E-02
RMM:   6    -0.115345411240E+04   -0.12938E-05   -0.34960E-05  1772   0.981E-03    0.277E-02
RMM:   7    -0.115345411064E+04    0.17618E-05   -0.14076E-05  1719   0.519E-03    0.131E-02
RMM:   8    -0.115345410988E+04    0.75797E-06   -0.72207E-06  1581   0.452E-03
   2 F= -.11534541E+04 E0= -.11534541E+04  d E =-.120378E-02  mag=    20.0000
       N       E                     dE             d eps       ncg     rms          rms(c)
DAV:   1    -0.115345415011E+04   -0.39469E-04   -0.13283E-02  3264   0.135E-01    0.406E-02
RMM:   2    -0.115345416396E+04   -0.13857E-04   -0.41044E-04  2440   0.277E-02    0.426E-02
RMM:   3    -0.115345416144E+04    0.25240E-05   -0.24571E-05  1658   0.940E-03    0.265E-02
RMM:   4    -0.115345415732E+04    0.41183E-05   -0.88100E-06  1557   0.440E-03    0.159E-02
RMM:   5    -0.115345415587E+04    0.14545E-05   -0.56808E-06  1394   0.326E-03    0.490E-03
RMM:   6    -0.115345415587E+04   -0.41618E-08   -0.75224E-07   698   0.205E-03    0.237E-03
RMM:   7    -0.115345415589E+04   -0.21610E-07   -0.31381E-08   365   0.156E-03    0.125E-03
RMM:   8    -0.115345415592E+04   -0.31723E-07   -0.15469E-08   273   0.157E-03
   3 F= -.11534542E+04 E0= -.11534542E+04  d E =-.124983E-02  mag=    20.0000
