<?xml version="1.0" encoding="ISO-8859-1"?>
<modeling>
 <generator>
  <i name="program" type="string">vasp </i>
  <i name="version" type="string">5.4.1  </i>
  <i name="subversion" type="string">05Feb16 (build Jan 25 2017 20:16:33) complex                          parallel </i>
  <i name="platform" type="string">BWXE6 </i>
  <i name="date" type="string">2019 07 24 </i>
  <i name="time" type="string">19:59:01 </i>
 </generator>
 <incar>
  <i type="string" name="SYSTEM"> STF</i>
  <i type="string" name="PREC">normal</i>
  <i type="string" name="ALGO"> Fast</i>
  <i type="int" name="ISPIN">     2</i>
  <i type="int" name="NELM">    40</i>
  <i type="int" name="NELMIN">     8</i>
  <i type="int" name="IBRION">     2</i>
  <i name="EDIFF">      0.00010000</i>
  <i name="EDIFFG">     -0.03000000</i>
  <i type="int" name="NSW">    30</i>
  <i type="int" name="ISIF">     3</i>
  <i name="ENCUT">    520.00000000</i>
  <i type="int" name="NBANDS">   768</i>
  <v name="MAGMOM">      0.60000000      0.60000000      0.60000000      0.60000000      0.60000000      0.60000000      0.60000000      0.60000000      0.60000000      0.60000000      0.60000000      0.60000000      0.60000000      0.60000000      0.60000000      0.60000000      0.60000000      0.60000000      0.60000000      0.60000000
      0.60000000      0.60000000      0.60000000      0.60000000      0.60000000      0.60000000      0.60000000      0.60000000      0.60000000      0.60000000      0.60000000      0.60000000      0.60000000      0.60000000      0.60000000      0.60000000      0.60000000      0.60000000      0.60000000      0.60000000
      0.60000000      0.60000000      0.60000000      0.60000000      0.60000000      0.60000000      0.60000000      0.60000000      0.60000000      0.60000000      0.60000000      0.60000000      0.60000000      0.60000000      0.60000000      0.60000000      0.60000000      0.60000000      0.60000000      0.60000000
      5.00000000      5.00000000      5.00000000      5.00000000      0.60000000      0.60000000      0.60000000      0.60000000      0.60000000      0.60000000      0.60000000      0.60000000      0.60000000      0.60000000      0.60000000      0.60000000      0.60000000      0.60000000      0.60000000      0.60000000
      0.60000000      0.60000000      0.60000000      0.60000000      0.60000000      0.60000000      0.60000000      0.60000000      0.60000000      0.60000000      0.60000000      0.60000000      0.60000000      0.60000000      0.60000000      0.60000000      0.60000000      0.60000000      0.60000000      0.60000000
      0.60000000      0.60000000      0.60000000      0.60000000      0.60000000      0.60000000      0.60000000      0.60000000      0.60000000      0.60000000      0.60000000      0.60000000      0.60000000      0.60000000      0.60000000      0.60000000      0.60000000      0.60000000      0.60000000      0.60000000
      0.60000000      0.60000000      0.60000000      0.60000000      0.60000000      0.60000000      0.60000000      0.60000000      0.60000000      0.60000000      0.60000000      0.60000000      0.60000000      0.60000000      0.60000000      0.60000000      0.60000000      0.60000000      0.60000000      0.60000000
      0.60000000      0.60000000      0.60000000      0.60000000      0.60000000      0.60000000      0.60000000      0.60000000      0.60000000      0.60000000      0.60000000      0.60000000      0.60000000      0.60000000      0.60000000      0.60000000      0.60000000      0.60000000</v>
  <i type="string" name="LREAL"> Auto</i>
  <i type="int" name="ISMEAR">     0</i>
  <i name="SIGMA">      0.05000000</i>
  <i type="int" name="LMAXMIX">     4</i>
  <v type="int" name="KPOINT_BSE">    -1     0     0     0</v>
  <i type="int" name="NELM">    40</i>
  <i type="logical" name="LDAU"> T  </i>
  <v type="int" name="LDAUTYPE">     2</v>
  <v type="int" name="LDAUL">     0     2     2     0</v>
  <v name="LDAUU">      0.00000000      3.00000000      5.00000000      0.00000000</v>
  <v name="LDAUJ">      0.00000000      0.00000000      0.00000000      0.00000000</v>
  <i type="int" name="LDAUPRINT">     1</i>
 </incar>
 <kpoints>
  <generation param="Monkhorst-Pack">
   <v type="int" name="divisions">       2        2        2 </v>
   <v name="usershift">      0.00000000       0.00000000       0.00000000 </v>
   <v name="genvec1">      0.50000000       0.00000000       0.00000000 </v>
   <v name="genvec2">      0.00000000       0.50000000       0.00000000 </v>
   <v name="genvec3">      0.00000000       0.00000000       0.50000000 </v>
   <v name="shift">      0.50000000       0.50000000       0.50000000 </v>
  </generation>
  <varray name="kpointlist" >
   <v>       0.25000000       0.25000000       0.25000000 </v>
  </varray>
  <varray name="weights" >
   <v>       1.00000000 </v>
  </varray>
 </kpoints>
 <parameters>
  <separator name="general" >
   <i type="string" name="SYSTEM">STF</i>
   <i type="logical" name="LCOMPAT"> F  </i>
  </separator>
  <separator name="electronic" >
   <i type="string" name="PREC">normal</i>
   <i name="ENMAX">    520.00000000</i>
   <i name="ENAUG">    605.39200000</i>
   <i name="EDIFF">      0.00010000</i>
   <i type="int" name="IALGO">    68</i>
   <i type="int" name="IWAVPR">    11</i>
   <i type="int" name="NBANDS">   768</i>
   <i name="NELECT">   1028.00000000</i>
   <i type="int" name="TURBO">     0</i>
   <i type="int" name="IRESTART">     0</i>
   <i type="int" name="NREBOOT">     0</i>
   <i type="int" name="NMIN">     0</i>
   <i name="EREF">      0.00000000</i>
   <separator name="electronic smearing" >
    <i type="int" name="ISMEAR">     0</i>
    <i name="SIGMA">      0.05000000</i>
    <i name="KSPACING">      0.50000000</i>
    <i type="logical" name="KGAMMA"> T  </i>
   </separator>
   <separator name="electronic projectors" >
    <i type="logical" name="LREAL"> T  </i>
    <v name="ROPT">     -0.00050000     -0.00050000     -0.00050000     -0.00050000</v>
    <i type="int" name="LMAXPAW">  -100</i>
    <i type="int" name="LMAXMIX">     4</i>
    <i type="logical" name="NLSPLINE"> F  </i>
   </separator>
   <separator name="electronic startup" >
    <i type="int" name="ISTART">     1</i>
    <i type="int" name="ICHARG">     0</i>
    <i type="int" name="INIWAV">     1</i>
   </separator>
   <separator name="electronic spin" >
    <i type="int" name="ISPIN">     2</i>
    <i type="logical" name="LNONCOLLINEAR"> F  </i>
    <v name="MAGMOM">      0.60000000      0.60000000      0.60000000      0.60000000      0.60000000      0.60000000      0.60000000      0.60000000      0.60000000      0.60000000      0.60000000      0.60000000      0.60000000      0.60000000      0.60000000      0.60000000      0.60000000      0.60000000      0.60000000      0.60000000
      0.60000000      0.60000000      0.60000000      0.60000000      0.60000000      0.60000000      0.60000000      0.60000000      0.60000000      0.60000000      0.60000000      0.60000000      0.60000000      0.60000000      0.60000000      0.60000000      0.60000000      0.60000000      0.60000000      0.60000000
      0.60000000      0.60000000      0.60000000      0.60000000      0.60000000      0.60000000      0.60000000      0.60000000      0.60000000      0.60000000      0.60000000      0.60000000      0.60000000      0.60000000      0.60000000      0.60000000      0.60000000      0.60000000      0.60000000      0.60000000
      5.00000000      5.00000000      5.00000000      5.00000000      0.60000000      0.60000000      0.60000000      0.60000000      0.60000000      0.60000000      0.60000000      0.60000000      0.60000000      0.60000000      0.60000000      0.60000000      0.60000000      0.60000000      0.60000000      0.60000000
      0.60000000      0.60000000      0.60000000      0.60000000      0.60000000      0.60000000      0.60000000      0.60000000      0.60000000      0.60000000      0.60000000      0.60000000      0.60000000      0.60000000      0.60000000      0.60000000      0.60000000      0.60000000      0.60000000      0.60000000
      0.60000000      0.60000000      0.60000000      0.60000000      0.60000000      0.60000000      0.60000000      0.60000000      0.60000000      0.60000000      0.60000000      0.60000000      0.60000000      0.60000000      0.60000000      0.60000000      0.60000000      0.60000000      0.60000000      0.60000000
      0.60000000      0.60000000      0.60000000      0.60000000      0.60000000      0.60000000      0.60000000      0.60000000      0.60000000      0.60000000      0.60000000      0.60000000      0.60000000      0.60000000      0.60000000      0.60000000      0.60000000      0.60000000      0.60000000      0.60000000
      0.60000000      0.60000000      0.60000000      0.60000000      0.60000000      0.60000000      0.60000000      0.60000000      0.60000000      0.60000000      0.60000000      0.60000000      0.60000000      0.60000000      0.60000000      0.60000000      0.60000000      0.60000000</v>
    <i name="NUPDOWN">     -1.00000000</i>
    <i type="logical" name="LSORBIT"> F  </i>
    <v name="SAXIS">      0.00000000      0.00000000      1.00000000</v>
    <i type="logical" name="LSPIRAL"> F  </i>
    <v name="QSPIRAL">      0.00000000      0.00000000      0.00000000</v>
    <i type="logical" name="LZEROZ"> F  </i>
   </separator>
   <separator name="electronic exchange-correlation" >
    <i type="logical" name="LASPH"> F  </i>
    <i type="logical" name="LMETAGGA"> F  </i>
   </separator>
   <separator name="electronic convergence" >
    <i type="int" name="NELM">    40</i>
    <i type="int" name="NELMDL">     0</i>
    <i type="int" name="NELMIN">     8</i>
    <i name="ENINI">    520.00000000</i>
    <separator name="electronic convergence detail" >
     <i type="logical" name="LDIAG"> T  </i>
     <i type="logical" name="LSUBROT"> F  </i>
     <i name="WEIMIN">      0.00100000</i>
     <i name="EBREAK">      0.00000003</i>
     <i name="DEPER">      0.30000000</i>
     <i type="int" name="NRMM">     4</i>
     <i name="TIME">      0.40000000</i>
    </separator>
   </separator>
   <separator name="electronic mixer" >
    <i name="AMIX">      0.40000000</i>
    <i name="BMIX">      1.00000000</i>
    <i name="AMIN">      0.10000000</i>
    <i name="AMIX_MAG">      1.60000000</i>
    <i name="BMIX_MAG">      1.00000000</i>
    <separator name="electronic mixer details" >
     <i type="int" name="IMIX">     4</i>
     <i type="logical" name="MIXFIRST"> F  </i>
     <i type="int" name="MAXMIX">   -45</i>
     <i name="WC">    100.00000000</i>
     <i type="int" name="INIMIX">     1</i>
     <i type="int" name="MIXPRE">     1</i>
     <i type="int" name="MREMOVE">     5</i>
    </separator>
   </separator>
   <separator name="electronic dipolcorrection" >
    <i type="logical" name="LDIPOL"> F  </i>
    <i type="logical" name="LMONO"> F  </i>
    <i type="int" name="IDIPOL">     0</i>
    <i name="EPSILON">      1.00000000</i>
    <v name="DIPOL">   -100.00000000   -100.00000000   -100.00000000</v>
    <i name="EFIELD">      0.00000000</i>
   </separator>
  </separator>
  <separator name="grids" >
   <i type="int" name="NGX">    64</i>
   <i type="int" name="NGY">    64</i>
   <i type="int" name="NGZ">    90</i>
   <i type="int" name="NGXF">   128</i>
   <i type="int" name="NGYF">   128</i>
   <i type="int" name="NGZF">   180</i>
   <i type="logical" name="ADDGRID"> F  </i>
  </separator>
  <separator name="ionic" >
   <i type="int" name="NSW">    30</i>
   <i type="int" name="IBRION">     2</i>
   <i type="int" name="ISIF">     3</i>
   <i name="PSTRESS">      0.00000000</i>
   <i name="EDIFFG">     -0.03000000</i>
   <i type="int" name="NFREE">     1</i>
   <i name="POTIM">      0.50000000</i>
   <i name="SMASS">     -3.00000000</i>
   <i name="SCALEE">      1.00000000</i>
  </separator>
  <separator name="ionic md" >
   <i name="TEBEG">      0.00010000</i>
   <i name="TEEND">      0.00010000</i>
   <i type="int" name="NBLOCK">     1</i>
   <i type="int" name="KBLOCK">    30</i>
   <i type="int" name="NPACO">   256</i>
   <i name="APACO">     16.00000000</i>
  </separator>
  <separator name="symmetry" >
   <i type="int" name="ISYM">     2</i>
   <i name="SYMPREC">      0.00001000</i>
  </separator>
  <separator name="dos" >
   <i type="logical" name="LORBIT"> F  </i>
   <v name="RWIGS">     -1.00000000     -1.00000000     -1.00000000     -1.00000000</v>
   <i type="int" name="NEDOS">   301</i>
   <i name="EMIN">     10.00000000</i>
   <i name="EMAX">    -10.00000000</i>
   <i name="EFERMI">      0.00000000</i>
  </separator>
  <separator name="writing" >
   <i type="int" name="NWRITE">     2</i>
   <i type="logical" name="LWAVE"> T  </i>
   <i type="logical" name="LCHARG"> T  </i>
   <i type="logical" name="LPARD"> F  </i>
   <i type="logical" name="LVTOT"> F  </i>
   <i type="logical" name="LVHAR"> F  </i>
   <i type="logical" name="LELF"> F  </i>
   <i type="logical" name="LOPTICS"> F  </i>
   <v name="STM">      0.00000000      0.00000000      0.00000000      0.00000000      0.00000000      0.00000000      0.00000000</v>
  </separator>
  <separator name="performance" >
   <i type="int" name="NPAR">     2</i>
   <i type="int" name="NSIM">     4</i>
   <i type="int" name="NBLK">    -1</i>
   <i type="logical" name="LPLANE"> T  </i>
   <i type="logical" name="LSCALAPACK"> T  </i>
   <i type="logical" name="LSCAAWARE"> F  </i>
   <i type="logical" name="LSCALU"> F  </i>
   <i type="logical" name="LASYNC"> F  </i>
   <i type="logical" name="LORBITALREAL"> F  </i>
  </separator>
  <separator name="miscellaneous" >
   <i type="int" name="IDIOT">     3</i>
   <i type="logical" name="LMUSIC"> F  </i>
   <v name="POMASS">     87.62000000     47.88000000     55.84700000     16.00000000</v>
   <v name="DARWINR">      0.00000000      0.00000000      0.00000000      0.00000000</v>
   <v name="DARWINV">      1.00000000      1.00000000      1.00000000      1.00000000</v>
   <i type="logical" name="LCORR"> T  </i>
  </separator>
  <i type="logical" name="GGA_COMPAT"> T  </i>
  <i type="logical" name="LBERRY"> F  </i>
  <i type="int" name="ICORELEVEL">     0</i>
  <i type="logical" name="LDAU"> T  </i>
  <v type="int" name="LDAUTYPE">     2</v>
  <v type="int" name="LDAUL">     0</v>
  <v name="LDAUU">      0.00000000</v>
  <v name="LDAUJ">      0.00000000</v>
  <i type="int" name="LDAUPRINT">     1</i>
  <i type="int" name="I_CONSTRAINED_M">     0</i>
  <separator name="electronic exchange-correlation" >
   <i type="string" name="GGA">--</i>
   <i type="int" name="VOSKOWN">     0</i>
   <i type="logical" name="LHFCALC"> F  </i>
   <i type="string" name="PRECFOCK"></i>
   <i type="logical" name="LSYMGRAD"> F  </i>
   <i type="logical" name="LHFONE"> F  </i>
   <i type="logical" name="LRHFCALC"> F  </i>
   <i type="logical" name="LTHOMAS"> F  </i>
   <i type="logical" name="LMODELHF"> F  </i>
   <i name="ENCUT4O">     -1.00000000</i>
   <i type="int" name="EXXOEP">     0</i>
   <i type="int" name="FOURORBIT">     0</i>
   <i name="AEXX">      0.00000000</i>
   <i name="HFALPHA">      0.00000000</i>
   <i name="MCALPHA">      0.00000000</i>
   <i name="ALDAX">      1.00000000</i>
   <i name="AGGAX">      1.00000000</i>
   <i name="ALDAC">      1.00000000</i>
   <i name="AGGAC">      1.00000000</i>
   <i type="int" name="NKREDX">     1</i>
   <i type="int" name="NKREDY">     1</i>
   <i type="int" name="NKREDZ">     1</i>
   <i type="logical" name="SHIFTRED"> F  </i>
   <i type="logical" name="ODDONLY"> F  </i>
   <i type="logical" name="EVENONLY"> F  </i>
   <i type="int" name="LMAXFOCK">     0</i>
   <i type="int" name="NMAXFOCKAE">     0</i>
   <i type="logical" name="LFOCKAEDFT"> F  </i>
   <i name="HFSCREEN">      0.00000000</i>
   <i name="HFSCREENC">      0.00000000</i>
   <i type="int" name="NBANDSGWLOW">     0</i>
  </separator>
  <separator name="vdW DFT" >
   <i type="logical" name="LUSE_VDW"> F  </i>
   <i name="Zab_VDW">     -0.84910000</i>
   <i name="PARAM1">      0.12340000</i>
   <i name="PARAM2">      1.00000000</i>
   <i name="PARAM3">      0.00000000</i>
  </separator>
  <separator name="model GW" >
   <i type="int" name="MODEL_GW">     0</i>
   <i name="MODEL_EPS0">      7.59553620</i>
   <i name="MODEL_ALPHA">      1.00000000</i>
  </separator>
  <separator name="linear response parameters" >
   <i type="logical" name="LEPSILON"> F  </i>
   <i type="logical" name="LRPA"> F  </i>
   <i type="logical" name="LNABLA"> F  </i>
   <i type="logical" name="LVEL"> F  </i>
   <i type="int" name="KINTER">     0</i>
   <i name="CSHIFT">      0.10000000</i>
   <i name="OMEGAMAX">     -1.00000000</i>
   <i name="DEG_THRESHOLD">      0.00200000</i>
  </separator>
  <separator name="orbital magnetization" >
   <i type="logical" name="NUCIND"> F  </i>
   <v name="MAGPOS">      0.00000000      0.00000000      0.00000000</v>
   <i type="logical" name="LNICSALL"> T  </i>
   <i type="logical" name="ORBITALMAG"> F  </i>
   <i type="logical" name="LMAGBLOCH"> F  </i>
   <i type="logical" name="LCHIMAG"> F  </i>
   <i type="logical" name="LGAUGE"> T  </i>
   <i type="int" name="MAGATOM">     0</i>
   <v name="MAGDIPOL">      0.00000000      0.00000000      0.00000000</v>
   <v name="AVECCONST">      0.00000000      0.00000000      0.00000000</v>
  </separator>
  <separator name="response functions" >
   <i type="logical" name="LADDER"> F  </i>
   <i type="logical" name="LFXC"> F  </i>
   <i type="logical" name="LHARTREE"> T  </i>
   <i type="int" name="IBSE">     0</i>
   <v type="int" name="KPOINT">    -1     0     0     0</v>
   <i type="logical" name="LTCTE"> F  </i>
   <i type="logical" name="LTETE"> F  </i>
   <i type="logical" name="LTRIPLET"> F  </i>
   <i type="logical" name="LFXCEPS"> F  </i>
   <i type="logical" name="LFXHEG"> F  </i>
   <i type="int" name="NATURALO">     0</i>
   <i type="logical" name="L2ORDER"> F  </i>
   <i type="logical" name="LUSEW"> F  </i>
   <i name="ENCUTGW">     -2.00000000</i>
   <i name="ENCUTGWSOFT">     -2.00000000</i>
   <i name="ENCUTLF">     -1.00000000</i>
   <i type="int" name="LMAXMP2">    -1</i>
   <i name="SCISSOR">      0.00000000</i>
   <i type="int" name="NOMEGA">     0</i>
   <i type="int" name="NOMEGAR">     0</i>
   <i type="int" name="NBANDSGW">    -1</i>
   <i type="int" name="NBANDSO">    -1</i>
   <i type="int" name="NBANDSV">    -1</i>
   <i type="int" name="NELM">    40</i>
   <i type="int" name="NELMHF">     1</i>
   <i type="int" name="DIM">     3</i>
   <i type="int" name="ANTIRES">     0</i>
   <i name="OMEGAMAX">    -30.00000000</i>
   <i name="OMEGAMIN">    -30.00000000</i>
   <i name="OMEGATL">   -200.00000000</i>
   <i type="int" name="OMEGAGRID">     0</i>
   <i name="CSHIFT">     -0.10000000</i>
   <i type="logical" name="SELFENERGY"> F  </i>
   <i type="logical" name="LSPECTRAL"> F  </i>
   <i type="logical" name="LSPECTRALGW"> F  </i>
   <i type="logical" name="LSINGLES"> F  </i>
   <i type="logical" name="LFERMIGW"> F  </i>
   <i type="logical" name="ODDONLYGW"> F  </i>
   <i type="logical" name="EVENONLYGW"> F  </i>
   <i type="int" name="NKREDLFX">     1</i>
   <i type="int" name="NKREDLFY">     1</i>
   <i type="int" name="NKREDLFZ">     1</i>
   <i type="int" name="MAXMEM">  1800</i>
   <i type="int" name="TELESCOPE">     0</i>
   <i type="int" name="TAUPAR">     1</i>
   <i type="int" name="OMEGAPAR">    -1</i>
   <i name="LAMBDA">      1.00000000</i>
  </separator>
  <separator name="External order field" >
   <i name="OFIELD_KAPPA">      0.00000000</i>
   <v name="OFIELD_K">      0.00000000      0.00000000      0.00000000</v>
   <i name="OFIELD_Q6_NEAR">      0.00000000</i>
   <i name="OFIELD_Q6_FAR">      0.00000000</i>
   <i name="OFIELD_A">      0.00000000</i>
  </separator>
 </parameters>
 <atominfo>
  <atoms>     158 </atoms>
  <types>       4 </types>
  <array name="atoms" >
   <dimension dim="1">ion</dimension>
   <field type="string">element</field>
   <field type="int">atomtype</field>
   <set>
    <rc><c>Sr</c><c>   1</c></rc>
    <rc><c>Sr</c><c>   1</c></rc>
    <rc><c>Sr</c><c>   1</c></rc>
    <rc><c>Sr</c><c>   1</c></rc>
    <rc><c>Sr</c><c>   1</c></rc>
    <rc><c>Sr</c><c>   1</c></rc>
    <rc><c>Sr</c><c>   1</c></rc>
    <rc><c>Sr</c><c>   1</c></rc>
    <rc><c>Sr</c><c>   1</c></rc>
    <rc><c>Sr</c><c>   1</c></rc>
    <rc><c>Sr</c><c>   1</c></rc>
    <rc><c>Sr</c><c>   1</c></rc>
    <rc><c>Sr</c><c>   1</c></rc>
    <rc><c>Sr</c><c>   1</c></rc>
    <rc><c>Sr</c><c>   1</c></rc>
    <rc><c>Sr</c><c>   1</c></rc>
    <rc><c>Sr</c><c>   1</c></rc>
    <rc><c>Sr</c><c>   1</c></rc>
    <rc><c>Sr</c><c>   1</c></rc>
    <rc><c>Sr</c><c>   1</c></rc>
    <rc><c>Sr</c><c>   1</c></rc>
    <rc><c>Sr</c><c>   1</c></rc>
    <rc><c>Sr</c><c>   1</c></rc>
    <rc><c>Sr</c><c>   1</c></rc>
    <rc><c>Sr</c><c>   1</c></rc>
    <rc><c>Sr</c><c>   1</c></rc>
    <rc><c>Sr</c><c>   1</c></rc>
    <rc><c>Sr</c><c>   1</c></rc>
    <rc><c>Sr</c><c>   1</c></rc>
    <rc><c>Sr</c><c>   1</c></rc>
    <rc><c>Sr</c><c>   1</c></rc>
    <rc><c>Sr</c><c>   1</c></rc>
    <rc><c>Ti</c><c>   2</c></rc>
    <rc><c>Ti</c><c>   2</c></rc>
    <rc><c>Ti</c><c>   2</c></rc>
    <rc><c>Ti</c><c>   2</c></rc>
    <rc><c>Ti</c><c>   2</c></rc>
    <rc><c>Ti</c><c>   2</c></rc>
    <rc><c>Ti</c><c>   2</c></rc>
    <rc><c>Ti</c><c>   2</c></rc>
    <rc><c>Ti</c><c>   2</c></rc>
    <rc><c>Ti</c><c>   2</c></rc>
    <rc><c>Ti</c><c>   2</c></rc>
    <rc><c>Ti</c><c>   2</c></rc>
    <rc><c>Ti</c><c>   2</c></rc>
    <rc><c>Ti</c><c>   2</c></rc>
    <rc><c>Ti</c><c>   2</c></rc>
    <rc><c>Ti</c><c>   2</c></rc>
    <rc><c>Ti</c><c>   2</c></rc>
    <rc><c>Ti</c><c>   2</c></rc>
    <rc><c>Ti</c><c>   2</c></rc>
    <rc><c>Ti</c><c>   2</c></rc>
    <rc><c>Ti</c><c>   2</c></rc>
    <rc><c>Ti</c><c>   2</c></rc>
    <rc><c>Ti</c><c>   2</c></rc>
    <rc><c>Ti</c><c>   2</c></rc>
    <rc><c>Ti</c><c>   2</c></rc>
    <rc><c>Ti</c><c>   2</c></rc>
    <rc><c>Ti</c><c>   2</c></rc>
    <rc><c>Ti</c><c>   2</c></rc>
    <rc><c>Fe</c><c>   3</c></rc>
    <rc><c>Fe</c><c>   3</c></rc>
    <rc><c>Fe</c><c>   3</c></rc>
    <rc><c>Fe</c><c>   3</c></rc>
    <rc><c>O </c><c>   4</c></rc>
    <rc><c>O </c><c>   4</c></rc>
    <rc><c>O </c><c>   4</c></rc>
    <rc><c>O </c><c>   4</c></rc>
    <rc><c>O </c><c>   4</c></rc>
    <rc><c>O </c><c>   4</c></rc>
    <rc><c>O </c><c>   4</c></rc>
    <rc><c>O </c><c>   4</c></rc>
    <rc><c>O </c><c>   4</c></rc>
    <rc><c>O </c><c>   4</c></rc>
    <rc><c>O </c><c>   4</c></rc>
    <rc><c>O </c><c>   4</c></rc>
    <rc><c>O </c><c>   4</c></rc>
    <rc><c>O </c><c>   4</c></rc>
    <rc><c>O </c><c>   4</c></rc>
    <rc><c>O </c><c>   4</c></rc>
    <rc><c>O </c><c>   4</c></rc>
    <rc><c>O </c><c>   4</c></rc>
    <rc><c>O </c><c>   4</c></rc>
    <rc><c>O </c><c>   4</c></rc>
    <rc><c>O </c><c>   4</c></rc>
    <rc><c>O </c><c>   4</c></rc>
    <rc><c>O </c><c>   4</c></rc>
    <rc><c>O </c><c>   4</c></rc>
    <rc><c>O </c><c>   4</c></rc>
    <rc><c>O </c><c>   4</c></rc>
    <rc><c>O </c><c>   4</c></rc>
    <rc><c>O </c><c>   4</c></rc>
    <rc><c>O </c><c>   4</c></rc>
    <rc><c>O </c><c>   4</c></rc>
    <rc><c>O </c><c>   4</c></rc>
    <rc><c>O </c><c>   4</c></rc>
    <rc><c>O </c><c>   4</c></rc>
    <rc><c>O </c><c>   4</c></rc>
    <rc><c>O </c><c>   4</c></rc>
    <rc><c>O </c><c>   4</c></rc>
    <rc><c>O </c><c>   4</c></rc>
    <rc><c>O </c><c>   4</c></rc>
    <rc><c>O </c><c>   4</c></rc>
    <rc><c>O </c><c>   4</c></rc>
    <rc><c>O </c><c>   4</c></rc>
    <rc><c>O </c><c>   4</c></rc>
    <rc><c>O </c><c>   4</c></rc>
    <rc><c>O </c><c>   4</c></rc>
    <rc><c>O </c><c>   4</c></rc>
    <rc><c>O </c><c>   4</c></rc>
    <rc><c>O </c><c>   4</c></rc>
    <rc><c>O </c><c>   4</c></rc>
    <rc><c>O </c><c>   4</c></rc>
    <rc><c>O </c><c>   4</c></rc>
    <rc><c>O </c><c>   4</c></rc>
    <rc><c>O </c><c>   4</c></rc>
    <rc><c>O </c><c>   4</c></rc>
    <rc><c>O </c><c>   4</c></rc>
    <rc><c>O </c><c>   4</c></rc>
    <rc><c>O </c><c>   4</c></rc>
    <rc><c>O </c><c>   4</c></rc>
    <rc><c>O </c><c>   4</c></rc>
    <rc><c>O </c><c>   4</c></rc>
    <rc><c>O </c><c>   4</c></rc>
    <rc><c>O </c><c>   4</c></rc>
    <rc><c>O </c><c>   4</c></rc>
    <rc><c>O </c><c>   4</c></rc>
    <rc><c>O </c><c>   4</c></rc>
    <rc><c>O </c><c>   4</c></rc>
    <rc><c>O </c><c>   4</c></rc>
    <rc><c>O </c><c>   4</c></rc>
    <rc><c>O </c><c>   4</c></rc>
    <rc><c>O </c><c>   4</c></rc>
    <rc><c>O </c><c>   4</c></rc>
    <rc><c>O </c><c>   4</c></rc>
    <rc><c>O </c><c>   4</c></rc>
    <rc><c>O </c><c>   4</c></rc>
    <rc><c>O </c><c>   4</c></rc>
    <rc><c>O </c><c>   4</c></rc>
    <rc><c>O </c><c>   4</c></rc>
    <rc><c>O </c><c>   4</c></rc>
    <rc><c>O </c><c>   4</c></rc>
    <rc><c>O </c><c>   4</c></rc>
    <rc><c>O </c><c>   4</c></rc>
    <rc><c>O </c><c>   4</c></rc>
    <rc><c>O </c><c>   4</c></rc>
    <rc><c>O </c><c>   4</c></rc>
    <rc><c>O </c><c>   4</c></rc>
    <rc><c>O </c><c>   4</c></rc>
    <rc><c>O </c><c>   4</c></rc>
    <rc><c>O </c><c>   4</c></rc>
    <rc><c>O </c><c>   4</c></rc>
    <rc><c>O </c><c>   4</c></rc>
    <rc><c>O </c><c>   4</c></rc>
    <rc><c>O </c><c>   4</c></rc>
    <rc><c>O </c><c>   4</c></rc>
    <rc><c>O </c><c>   4</c></rc>
    <rc><c>O </c><c>   4</c></rc>
   </set>
  </array>
  <array name="atomtypes" >
   <dimension dim="1">type</dimension>
   <field type="int">atomspertype</field>
   <field type="string">element</field>
   <field>mass</field>
   <field>valence</field>
   <field type="string">pseudopotential</field>
   <set>
    <rc><c>  32</c><c>Sr</c><c>     87.62000000</c><c>     10.00000000</c><c>  PAW_PBE Sr_sv 07Sep2000               </c></rc>
    <rc><c>  28</c><c>Ti</c><c>     47.88000000</c><c>      4.00000000</c><c>  PAW_PBE Ti 08Apr2002                  </c></rc>
    <rc><c>   4</c><c>Fe</c><c>     55.84700000</c><c>      8.00000000</c><c>  PAW_PBE Fe 06Sep2000                  </c></rc>
    <rc><c>  94</c><c>O </c><c>     16.00000000</c><c>      6.00000000</c><c>  PAW_PBE O 08Apr2002                   </c></rc>
   </set>
  </array>
 </atominfo>
 <structure name="initialpos" >
  <crystal>
   <varray name="basis" >
    <v>      11.18982693       0.00000000       0.00000000 </v>
    <v>       0.00000000      11.19755641       0.00000000 </v>
    <v>       0.00000000       0.00000000      15.96311514 </v>
   </varray>
   <i name="volume">   2000.15786636 </i>
   <varray name="rec_basis" >
    <v>       0.08936689       0.00000000       0.00000000 </v>
    <v>       0.00000000       0.08930520       0.00000000 </v>
    <v>       0.00000000       0.00000000       0.06264441 </v>
   </varray>
  </crystal>
  <varray name="positions" >
   <v>       0.00000000       0.25850394       0.12500000 </v>
   <v>       0.00000000       0.25098296       0.62500000 </v>
   <v>       0.00000000       0.74149606       0.12500000 </v>
   <v>       0.00000000       0.74901704       0.62500000 </v>
   <v>       0.50000000       0.25850394       0.12500000 </v>
   <v>       0.50000000       0.25098296       0.62500000 </v>
   <v>       0.50000000       0.74149606       0.12500000 </v>
   <v>       0.50000000       0.74901704       0.62500000 </v>
   <v>       0.00074494       0.25063159       0.37281966 </v>
   <v>       0.99925506       0.25063159       0.87718034 </v>
   <v>       0.99925506       0.74936841       0.37281966 </v>
   <v>       0.00074494       0.74936841       0.87718034 </v>
   <v>       0.50074494       0.25063159       0.37281966 </v>
   <v>       0.49925506       0.25063159       0.87718034 </v>
   <v>       0.49925506       0.74936841       0.37281966 </v>
   <v>       0.50074494       0.74936841       0.87718034 </v>
   <v>       0.25000000       0.00000000       0.12500000 </v>
   <v>       0.25000000       0.00000000       0.62500000 </v>
   <v>       0.25000000       0.50000000       0.12500000 </v>
   <v>       0.25000000       0.50000000       0.62500000 </v>
   <v>       0.75000000       0.00000000       0.12500000 </v>
   <v>       0.75000000       0.00000000       0.62500000 </v>
   <v>       0.75000000       0.50000000       0.12500000 </v>
   <v>       0.75000000       0.50000000       0.62500000 </v>
   <v>       0.25000000       0.00000000       0.37340867 </v>
   <v>       0.25000000       0.00000000       0.87659133 </v>
   <v>       0.25000000       0.50000000       0.37291445 </v>
   <v>       0.25000000       0.50000000       0.87708555 </v>
   <v>       0.75000000       0.00000000       0.37340867 </v>
   <v>       0.75000000       0.00000000       0.87659133 </v>
   <v>       0.75000000       0.50000000       0.37291445 </v>
   <v>       0.75000000       0.50000000       0.87708555 </v>
   <v>       0.50000000       0.00000000       0.74870624 </v>
   <v>       0.00000000       0.50000000       0.99883784 </v>
   <v>       0.74991623       0.24894514       0.75039356 </v>
   <v>       0.50000000       0.50000000       0.99883784 </v>
   <v>       0.75011553       0.75308788       0.00216108 </v>
   <v>       0.50000000       0.50000000       0.25116216 </v>
   <v>       0.50000000       0.50000000       0.49936329 </v>
   <v>       0.24988447       0.24691212       0.00216108 </v>
   <v>       0.00000000       0.50000000       0.49936329 </v>
   <v>       0.24991623       0.75105486       0.49960644 </v>
   <v>       0.74988447       0.75308788       0.24783892 </v>
   <v>       0.74988447       0.24691212       0.00216108 </v>
   <v>       0.25011553       0.24691212       0.24783892 </v>
   <v>       0.74991623       0.75105486       0.49960644 </v>
   <v>       0.25011553       0.75308788       0.00216108 </v>
   <v>       0.24991623       0.24894514       0.75039356 </v>
   <v>       0.24988447       0.75308788       0.24783892 </v>
   <v>       0.25008377       0.75105486       0.75039356 </v>
   <v>       0.75011553       0.24691212       0.24783892 </v>
   <v>       0.25008377       0.24894514       0.49960644 </v>
   <v>       0.75008377       0.75105486       0.75039356 </v>
   <v>       0.50000000       0.50000000       0.75063671 </v>
   <v>       0.00000000       0.00000000       0.74870624 </v>
   <v>       0.50000000       0.00000000       0.50129376 </v>
   <v>       0.75008377       0.24894514       0.49960644 </v>
   <v>       0.00000000       0.50000000       0.75063671 </v>
   <v>       0.00000000       0.50000000       0.25116216 </v>
   <v>       0.00000000       0.00000000       0.50129376 </v>
   <v>       0.00000000       0.00000000       0.25898786 </v>
   <v>       0.50000000       0.00000000       0.25898786 </v>
   <v>       0.00000000       0.00000000       0.99101214 </v>
   <v>       0.50000000       0.00000000       0.99101214 </v>
   <v>       0.36405218       0.38567199       0.99762061 </v>
   <v>       0.10800318       0.14181195       0.74953749 </v>
   <v>       0.11347028       0.63627540       0.25269714 </v>
   <v>       0.10900031       0.64178156       0.75113981 </v>
   <v>       0.61370943       0.13249842       0.23828306 </v>
   <v>       0.60800318       0.14181195       0.74953749 </v>
   <v>       0.61347028       0.63627540       0.25269714 </v>
   <v>       0.60900031       0.64178156       0.75113981 </v>
   <v>       0.38652972       0.36372460       0.25269714 </v>
   <v>       0.39099969       0.35821844       0.75113981 </v>
   <v>       0.38629057       0.86750158       0.23828306 </v>
   <v>       0.39199682       0.85818805       0.74953749 </v>
   <v>       0.88652972       0.36372460       0.25269714 </v>
   <v>       0.14168019       0.39062487       0.75151975 </v>
   <v>       0.00000000       0.50000000       0.37596546 </v>
   <v>       0.89199682       0.85818805       0.74953749 </v>
   <v>       0.36757782       0.11350904       0.23939766 </v>
   <v>       0.35806072       0.10767916       0.74883330 </v>
   <v>       0.64168019       0.39062487       0.75151975 </v>
   <v>       0.35831981       0.60937513       0.75151975 </v>
   <v>       0.86757782       0.11350904       0.23939766 </v>
   <v>       0.85806072       0.10767916       0.74883330 </v>
   <v>       0.86405218       0.61432801       0.25237939 </v>
   <v>       0.89099969       0.35821844       0.75113981 </v>
   <v>       0.13594782       0.38567199       0.25237939 </v>
   <v>       0.00000000       0.00000000       0.62500000 </v>
   <v>       0.13242218       0.88649096       0.23939766 </v>
   <v>       0.14193928       0.89232084       0.74883330 </v>
   <v>       0.63594782       0.38567199       0.25237939 </v>
   <v>       0.63594782       0.61432801       0.99762061 </v>
   <v>       0.63242218       0.88649096       0.23939766 </v>
   <v>       0.64193928       0.89232084       0.74883330 </v>
   <v>       0.24830851       0.24050617       0.37335594 </v>
   <v>       0.35831981       0.39062487       0.49848025 </v>
   <v>       0.35806072       0.89232084       0.50116670 </v>
   <v>       0.86405218       0.38567199       0.99762061 </v>
   <v>       0.85831981       0.39062487       0.49848025 </v>
   <v>       0.88629057       0.13249842       0.01171694 </v>
   <v>       0.85806072       0.89232084       0.50116670 </v>
   <v>       0.13242218       0.11350904       0.01060234 </v>
   <v>       0.14193928       0.10767916       0.50116670 </v>
   <v>       0.13594782       0.61432801       0.99762061 </v>
   <v>       0.14168019       0.60937513       0.49848025 </v>
   <v>       0.63242218       0.11350904       0.01060234 </v>
   <v>       0.64193928       0.10767916       0.50116670 </v>
   <v>       0.75169149       0.24050617       0.87664406 </v>
   <v>       0.64168019       0.60937513       0.49848025 </v>
   <v>       0.11347028       0.36372460       0.99730286 </v>
   <v>       0.10900031       0.35821844       0.49886019 </v>
   <v>       0.11370943       0.86750158       0.01171694 </v>
   <v>       0.10800318       0.85818805       0.50046251 </v>
   <v>       0.61347028       0.36372460       0.99730286 </v>
   <v>       0.60900031       0.35821844       0.49886019 </v>
   <v>       0.61370943       0.86750158       0.01171694 </v>
   <v>       0.60800318       0.85818805       0.50046251 </v>
   <v>       0.38629057       0.13249842       0.01171694 </v>
   <v>       0.39199682       0.14181195       0.50046251 </v>
   <v>       0.38652972       0.63627540       0.99730286 </v>
   <v>       0.39099969       0.64178156       0.49886019 </v>
   <v>       0.88629057       0.86750158       0.23828306 </v>
   <v>       0.89199682       0.14181195       0.50046251 </v>
   <v>       0.88652972       0.63627540       0.99730286 </v>
   <v>       0.89099969       0.64178156       0.49886019 </v>
   <v>       0.50000000       0.00000000       0.62500000 </v>
   <v>       0.00000000       0.00000000       0.87319421 </v>
   <v>       0.00000000       0.50000000       0.12500000 </v>
   <v>       0.24830851       0.75949383       0.87664406 </v>
   <v>       0.50000000       0.00000000       0.37680579 </v>
   <v>       0.86757782       0.88649096       0.01060234 </v>
   <v>       0.50000000       0.50000000       0.12500000 </v>
   <v>       0.50000000       0.50000000       0.62500000 </v>
   <v>       0.85831981       0.60937513       0.75151975 </v>
   <v>       0.00000000       0.00000000       0.37680579 </v>
   <v>       0.00000000       0.50000000       0.87403454 </v>
   <v>       0.00000000       0.50000000       0.62500000 </v>
   <v>       0.36405218       0.61432801       0.25237939 </v>
   <v>       0.50000000       0.00000000       0.87319421 </v>
   <v>       0.50000000       0.50000000       0.37596546 </v>
   <v>       0.50000000       0.50000000       0.87403454 </v>
   <v>       0.36757782       0.88649096       0.01060234 </v>
   <v>       0.25169149       0.24050617       0.87664406 </v>
   <v>       0.25169149       0.75949383       0.37335594 </v>
   <v>       0.11370943       0.13249842       0.23828306 </v>
   <v>       0.74830851       0.24050617       0.37335594 </v>
   <v>       0.75169149       0.75949383       0.37335594 </v>
   <v>       0.74830851       0.75949383       0.87664406 </v>
   <v>       0.25000000       0.26314401       0.12500000 </v>
   <v>       0.25000000       0.25100802       0.62500000 </v>
   <v>       0.25000000       0.73685599       0.12500000 </v>
   <v>       0.25000000       0.74899198       0.62500000 </v>
   <v>       0.75000000       0.26314401       0.12500000 </v>
   <v>       0.75000000       0.25100802       0.62500000 </v>
   <v>       0.75000000       0.73685599       0.12500000 </v>
   <v>       0.75000000       0.74899198       0.62500000 </v>
  </varray>
 </structure>
 <calculation>
  <scstep>
   <time name="dav">   50.43   50.43</time>
   <time name="total">   52.15   52.21</time>
   <energy>
    <i name="alphaZ">   5647.69304502 </i>
    <i name="ewald"> -61361.52189989 </i>
    <i name="hartreedc"> -15165.19768643 </i>
    <i name="XCdc">   2852.78990624 </i>
    <i name="pawpsdc"> 111372.72794831 </i>
    <i name="pawaedc">-110121.64396086 </i>
    <i name="eentropy">     -0.00000000 </i>
    <i name="bandstr">  -7028.38388974 </i>
    <i name="atom">  72650.08363186 </i>
    <i name="e_fr_energy">  -1153.45290548 </i>
    <i name="e_wo_entrp">  -1153.45290548 </i>
    <i name="e_0_energy">  -1153.45290548 </i>
   </energy>
  </scstep>
  <scstep>
   <time name="diag">    8.24    8.25</time>
   <time name="diis">    7.38    7.38</time>
   <time name="orth">    4.70    4.70</time>
   <time name="total">   22.06   22.07</time>
   <energy>
    <i name="e_fr_energy">  -1153.45290592 </i>
    <i name="e_wo_entrp">  -1153.45290592 </i>
    <i name="e_0_energy">  -1153.45290592 </i>
   </energy>
  </scstep>
  <scstep>
   <time name="diag">    8.27    8.27</time>
   <time name="diis">    6.67    6.67</time>
   <time name="orth">    4.70    4.71</time>
   <time name="total">   21.38   21.39</time>
   <energy>
    <i name="e_fr_energy">  -1153.45290618 </i>
    <i name="e_wo_entrp">  -1153.45290618 </i>
    <i name="e_0_energy">  -1153.45290618 </i>
   </energy>
  </scstep>
  <scstep>
   <time name="diag">    8.26    8.26</time>
   <time name="diis">    5.95    5.95</time>
   <time name="orth">    4.70    4.70</time>
   <time name="total">   20.63   20.67</time>
   <energy>
    <i name="e_fr_energy">  -1153.45290614 </i>
    <i name="e_wo_entrp">  -1153.45290614 </i>
    <i name="e_0_energy">  -1153.45290614 </i>
   </energy>
  </scstep>
  <scstep>
   <time name="diag">    8.26    8.26</time>
   <time name="diis">    5.68    5.68</time>
   <time name="orth">    4.70    4.70</time>
   <time name="total">   20.39   20.42</time>
   <energy>
    <i name="e_fr_energy">  -1153.45290615 </i>
    <i name="e_wo_entrp">  -1153.45290615 </i>
    <i name="e_0_energy">  -1153.45290615 </i>
   </energy>
  </scstep>
  <scstep>
   <time name="diag">    8.26    8.26</time>
   <time name="diis">    5.54    5.54</time>
   <time name="orth">    4.70    4.70</time>
   <time name="total">   20.23   20.31</time>
   <energy>
    <i name="e_fr_energy">  -1153.45290610 </i>
    <i name="e_wo_entrp">  -1153.45290610 </i>
    <i name="e_0_energy">  -1153.45290610 </i>
   </energy>
  </scstep>
  <scstep>
   <time name="diag">    8.25    8.25</time>
   <time name="diis">    5.44    5.45</time>
   <time name="orth">    4.72    4.72</time>
   <time name="total">   20.14   20.19</time>
   <energy>
    <i name="e_fr_energy">  -1153.45290610 </i>
    <i name="e_wo_entrp">  -1153.45290610 </i>
    <i name="e_0_energy">  -1153.45290610 </i>
   </energy>
  </scstep>
  <scstep>
   <time name="diag">    8.27    8.27</time>
   <time name="diis">    5.36    5.36</time>
   <time name="orth">    4.70    4.72</time>
   <time name="total">   18.91   18.97</time>
   <energy>
    <i name="alphaZ">   5647.69304502 </i>
    <i name="ewald"> -61361.52189989 </i>
    <i name="hartreedc"> -15165.18784900 </i>
    <i name="XCdc">   2852.78956510 </i>
    <i name="pawpsdc"> 111372.50380982 </i>
    <i name="pawaedc">-110121.41997963 </i>
    <i name="eentropy">     -0.00000000 </i>
    <i name="bandstr">  -7028.39322940 </i>
    <i name="atom">  72650.08363186 </i>
    <i name="e_fr_energy">  -1153.45290610 </i>
    <i name="e_wo_entrp">  -1153.45290610 </i>
    <i name="e_0_energy">  -1153.45290610 </i>
   </energy>
  </scstep>
  <structure>
   <crystal>
    <varray name="basis" >
     <v>      11.18982693       0.00000000       0.00000000 </v>
     <v>       0.00000000      11.19755641       0.00000000 </v>
     <v>       0.00000000       0.00000000      15.96311514 </v>
    </varray>
    <i name="volume">   2000.15786636 </i>
    <varray name="rec_basis" >
     <v>       0.08936689       0.00000000       0.00000000 </v>
     <v>       0.00000000       0.08930520       0.00000000 </v>
     <v>       0.00000000       0.00000000       0.06264441 </v>
    </varray>
   </crystal>
   <varray name="positions" >
    <v>       0.00000000       0.25850394       0.12500000 </v>
    <v>       0.00000000       0.25098296       0.62500000 </v>
    <v>       0.00000000       0.74149606       0.12500000 </v>
    <v>       0.00000000       0.74901704       0.62500000 </v>
    <v>       0.50000000       0.25850394       0.12500000 </v>
    <v>       0.50000000       0.25098296       0.62500000 </v>
    <v>       0.50000000       0.74149606       0.12500000 </v>
    <v>       0.50000000       0.74901704       0.62500000 </v>
    <v>       0.00074494       0.25063159       0.37281966 </v>
    <v>       0.99925506       0.25063159       0.87718034 </v>
    <v>       0.99925506       0.74936841       0.37281966 </v>
    <v>       0.00074494       0.74936841       0.87718034 </v>
    <v>       0.50074494       0.25063159       0.37281966 </v>
    <v>       0.49925506       0.25063159       0.87718034 </v>
    <v>       0.49925506       0.74936841       0.37281966 </v>
    <v>       0.50074494       0.74936841       0.87718034 </v>
    <v>       0.25000000       0.00000000       0.12500000 </v>
    <v>       0.25000000       0.00000000       0.62500000 </v>
    <v>       0.25000000       0.50000000       0.12500000 </v>
    <v>       0.25000000       0.50000000       0.62500000 </v>
    <v>       0.75000000       0.00000000       0.12500000 </v>
    <v>       0.75000000       0.00000000       0.62500000 </v>
    <v>       0.75000000       0.50000000       0.12500000 </v>
    <v>       0.75000000       0.50000000       0.62500000 </v>
    <v>       0.25000000       0.00000000       0.37340867 </v>
    <v>       0.25000000       0.00000000       0.87659133 </v>
    <v>       0.25000000       0.50000000       0.37291445 </v>
    <v>       0.25000000       0.50000000       0.87708555 </v>
    <v>       0.75000000       0.00000000       0.37340867 </v>
    <v>       0.75000000       0.00000000       0.87659133 </v>
    <v>       0.75000000       0.50000000       0.37291445 </v>
    <v>       0.75000000       0.50000000       0.87708555 </v>
    <v>       0.50000000       0.00000000       0.74870624 </v>
    <v>       0.00000000       0.50000000       0.99883784 </v>
    <v>       0.74991623       0.24894514       0.75039356 </v>
    <v>       0.50000000       0.50000000       0.99883784 </v>
    <v>       0.75011553       0.75308788       0.00216108 </v>
    <v>       0.50000000       0.50000000       0.25116216 </v>
    <v>       0.50000000       0.50000000       0.49936329 </v>
    <v>       0.24988447       0.24691212       0.00216108 </v>
    <v>       0.00000000       0.50000000       0.49936329 </v>
    <v>       0.24991623       0.75105486       0.49960644 </v>
    <v>       0.74988447       0.75308788       0.24783892 </v>
    <v>       0.74988447       0.24691212       0.00216108 </v>
    <v>       0.25011553       0.24691212       0.24783892 </v>
    <v>       0.74991623       0.75105486       0.49960644 </v>
    <v>       0.25011553       0.75308788       0.00216108 </v>
    <v>       0.24991623       0.24894514       0.75039356 </v>
    <v>       0.24988447       0.75308788       0.24783892 </v>
    <v>       0.25008377       0.75105486       0.75039356 </v>
    <v>       0.75011553       0.24691212       0.24783892 </v>
    <v>       0.25008377       0.24894514       0.49960644 </v>
    <v>       0.75008377       0.75105486       0.75039356 </v>
    <v>       0.50000000       0.50000000       0.75063671 </v>
    <v>       0.00000000       0.00000000       0.74870624 </v>
    <v>       0.50000000       0.00000000       0.50129376 </v>
    <v>       0.75008377       0.24894514       0.49960644 </v>
    <v>       0.00000000       0.50000000       0.75063671 </v>
    <v>       0.00000000       0.50000000       0.25116216 </v>
    <v>       0.00000000       0.00000000       0.50129376 </v>
    <v>       0.00000000       0.00000000       0.25898786 </v>
    <v>       0.50000000       0.00000000       0.25898786 </v>
    <v>       0.00000000       0.00000000       0.99101214 </v>
    <v>       0.50000000       0.00000000       0.99101214 </v>
    <v>       0.36405218       0.38567199       0.99762061 </v>
    <v>       0.10800318       0.14181195       0.74953749 </v>
    <v>       0.11347028       0.63627540       0.25269714 </v>
    <v>       0.10900031       0.64178156       0.75113981 </v>
    <v>       0.61370943       0.13249842       0.23828306 </v>
    <v>       0.60800318       0.14181195       0.74953749 </v>
    <v>       0.61347028       0.63627540       0.25269714 </v>
    <v>       0.60900031       0.64178156       0.75113981 </v>
    <v>       0.38652972       0.36372460       0.25269714 </v>
    <v>       0.39099969       0.35821844       0.75113981 </v>
    <v>       0.38629057       0.86750158       0.23828306 </v>
    <v>       0.39199682       0.85818805       0.74953749 </v>
    <v>       0.88652972       0.36372460       0.25269714 </v>
    <v>       0.14168019       0.39062487       0.75151975 </v>
    <v>       0.00000000       0.50000000       0.37596546 </v>
    <v>       0.89199682       0.85818805       0.74953749 </v>
    <v>       0.36757782       0.11350904       0.23939766 </v>
    <v>       0.35806072       0.10767916       0.74883330 </v>
    <v>       0.64168019       0.39062487       0.75151975 </v>
    <v>       0.35831981       0.60937513       0.75151975 </v>
    <v>       0.86757782       0.11350904       0.23939766 </v>
    <v>       0.85806072       0.10767916       0.74883330 </v>
    <v>       0.86405218       0.61432801       0.25237939 </v>
    <v>       0.89099969       0.35821844       0.75113981 </v>
    <v>       0.13594782       0.38567199       0.25237939 </v>
    <v>       0.00000000       0.00000000       0.62500000 </v>
    <v>       0.13242218       0.88649096       0.23939766 </v>
    <v>       0.14193928       0.89232084       0.74883330 </v>
    <v>       0.63594782       0.38567199       0.25237939 </v>
    <v>       0.63594782       0.61432801       0.99762061 </v>
    <v>       0.63242218       0.88649096       0.23939766 </v>
    <v>       0.64193928       0.89232084       0.74883330 </v>
    <v>       0.24830851       0.24050617       0.37335594 </v>
    <v>       0.35831981       0.39062487       0.49848025 </v>
    <v>       0.35806072       0.89232084       0.50116670 </v>
    <v>       0.86405218       0.38567199       0.99762061 </v>
    <v>       0.85831981       0.39062487       0.49848025 </v>
    <v>       0.88629057       0.13249842       0.01171694 </v>
    <v>       0.85806072       0.89232084       0.50116670 </v>
    <v>       0.13242218       0.11350904       0.01060234 </v>
    <v>       0.14193928       0.10767916       0.50116670 </v>
    <v>       0.13594782       0.61432801       0.99762061 </v>
    <v>       0.14168019       0.60937513       0.49848025 </v>
    <v>       0.63242218       0.11350904       0.01060234 </v>
    <v>       0.64193928       0.10767916       0.50116670 </v>
    <v>       0.75169149       0.24050617       0.87664406 </v>
    <v>       0.64168019       0.60937513       0.49848025 </v>
    <v>       0.11347028       0.36372460       0.99730286 </v>
    <v>       0.10900031       0.35821844       0.49886019 </v>
    <v>       0.11370943       0.86750158       0.01171694 </v>
    <v>       0.10800318       0.85818805       0.50046251 </v>
    <v>       0.61347028       0.36372460       0.99730286 </v>
    <v>       0.60900031       0.35821844       0.49886019 </v>
    <v>       0.61370943       0.86750158       0.01171694 </v>
    <v>       0.60800318       0.85818805       0.50046251 </v>
    <v>       0.38629057       0.13249842       0.01171694 </v>
    <v>       0.39199682       0.14181195       0.50046251 </v>
    <v>       0.38652972       0.63627540       0.99730286 </v>
    <v>       0.39099969       0.64178156       0.49886019 </v>
    <v>       0.88629057       0.86750158       0.23828306 </v>
    <v>       0.89199682       0.14181195       0.50046251 </v>
    <v>       0.88652972       0.63627540       0.99730286 </v>
    <v>       0.89099969       0.64178156       0.49886019 </v>
    <v>       0.50000000       0.00000000       0.62500000 </v>
    <v>       0.00000000       0.00000000       0.87319421 </v>
    <v>       0.00000000       0.50000000       0.12500000 </v>
    <v>       0.24830851       0.75949383       0.87664406 </v>
    <v>       0.50000000       0.00000000       0.37680579 </v>
    <v>       0.86757782       0.88649096       0.01060234 </v>
    <v>       0.50000000       0.50000000       0.12500000 </v>
    <v>       0.50000000       0.50000000       0.62500000 </v>
    <v>       0.85831981       0.60937513       0.75151975 </v>
    <v>       0.00000000       0.00000000       0.37680579 </v>
    <v>       0.00000000       0.50000000       0.87403454 </v>
    <v>       0.00000000       0.50000000       0.62500000 </v>
    <v>       0.36405218       0.61432801       0.25237939 </v>
    <v>       0.50000000       0.00000000       0.87319421 </v>
    <v>       0.50000000       0.50000000       0.37596546 </v>
    <v>       0.50000000       0.50000000       0.87403454 </v>
    <v>       0.36757782       0.88649096       0.01060234 </v>
    <v>       0.25169149       0.24050617       0.87664406 </v>
    <v>       0.25169149       0.75949383       0.37335594 </v>
    <v>       0.11370943       0.13249842       0.23828306 </v>
    <v>       0.74830851       0.24050617       0.37335594 </v>
    <v>       0.75169149       0.75949383       0.37335594 </v>
    <v>       0.74830851       0.75949383       0.87664406 </v>
    <v>       0.25000000       0.26314401       0.12500000 </v>
    <v>       0.25000000       0.25100802       0.62500000 </v>
    <v>       0.25000000       0.73685599       0.12500000 </v>
    <v>       0.25000000       0.74899198       0.62500000 </v>
    <v>       0.75000000       0.26314401       0.12500000 </v>
    <v>       0.75000000       0.25100802       0.62500000 </v>
    <v>       0.75000000       0.73685599       0.12500000 </v>
    <v>       0.75000000       0.74899198       0.62500000 </v>
   </varray>
  </structure>
  <varray name="forces" >
   <v>      -0.00000000      -0.01827131       0.00000000 </v>
   <v>      -0.00000000       0.00276176       0.00000000 </v>
   <v>      -0.00000000       0.01827131       0.00000000 </v>
   <v>      -0.00000000      -0.00276176       0.00000000 </v>
   <v>      -0.00000000      -0.01827131       0.00000000 </v>
   <v>      -0.00000000       0.00276176       0.00000000 </v>
   <v>      -0.00000000       0.01827131       0.00000000 </v>
   <v>      -0.00000000      -0.00276176       0.00000000 </v>
   <v>       0.00408971       0.00950499       0.01260827 </v>
   <v>      -0.00408971       0.00950499      -0.01260827 </v>
   <v>      -0.00408971      -0.00950499       0.01260827 </v>
   <v>       0.00408971      -0.00950499      -0.01260827 </v>
   <v>       0.00408971       0.00950499       0.01260827 </v>
   <v>      -0.00408971       0.00950499      -0.01260827 </v>
   <v>      -0.00408971      -0.00950499       0.01260827 </v>
   <v>       0.00408971      -0.00950499      -0.01260827 </v>
   <v>      -0.00000000      -0.00000000       0.00000000 </v>
   <v>      -0.00000000      -0.00000000       0.00000000 </v>
   <v>      -0.00000000      -0.00000000       0.00000000 </v>
   <v>      -0.00000000      -0.00000000       0.00000000 </v>
   <v>      -0.00000000      -0.00000000       0.00000000 </v>
   <v>      -0.00000000      -0.00000000       0.00000000 </v>
   <v>      -0.00000000      -0.00000000       0.00000000 </v>
   <v>      -0.00000000      -0.00000000       0.00000000 </v>
   <v>      -0.00000000      -0.00000000       0.02149580 </v>
   <v>      -0.00000000      -0.00000000      -0.02149580 </v>
   <v>      -0.00000000      -0.00000000      -0.01882596 </v>
   <v>      -0.00000000      -0.00000000       0.01882596 </v>
   <v>      -0.00000000      -0.00000000       0.02149580 </v>
   <v>      -0.00000000      -0.00000000      -0.02149580 </v>
   <v>      -0.00000000      -0.00000000      -0.01882596 </v>
   <v>      -0.00000000      -0.00000000       0.01882596 </v>
   <v>      -0.00000000      -0.00000000       0.04976777 </v>
   <v>      -0.00000000      -0.00000000      -0.00203415 </v>
   <v>      -0.00016277       0.01903814      -0.02658693 </v>
   <v>      -0.00000000      -0.00000000      -0.00203415 </v>
   <v>       0.00632035       0.02267627       0.02418727 </v>
   <v>      -0.00000000      -0.00000000       0.00203415 </v>
   <v>      -0.00000000      -0.00000000      -0.00055696 </v>
   <v>      -0.00632035      -0.02267627       0.02418727 </v>
   <v>      -0.00000000      -0.00000000      -0.00055696 </v>
   <v>      -0.00016277      -0.01903814       0.02658693 </v>
   <v>      -0.00632035       0.02267627      -0.02418727 </v>
   <v>      -0.00632035      -0.02267627       0.02418727 </v>
   <v>       0.00632035      -0.02267627      -0.02418727 </v>
   <v>      -0.00016277      -0.01903814       0.02658693 </v>
   <v>       0.00632035       0.02267627       0.02418727 </v>
   <v>      -0.00016277       0.01903814      -0.02658693 </v>
   <v>      -0.00632035       0.02267627      -0.02418727 </v>
   <v>       0.00016277      -0.01903814      -0.02658693 </v>
   <v>       0.00632035      -0.02267627      -0.02418727 </v>
   <v>       0.00016277       0.01903814       0.02658693 </v>
   <v>       0.00016277      -0.01903814      -0.02658693 </v>
   <v>      -0.00000000      -0.00000000       0.00055696 </v>
   <v>      -0.00000000      -0.00000000       0.04976777 </v>
   <v>      -0.00000000      -0.00000000      -0.04976777 </v>
   <v>       0.00016277       0.01903814       0.02658693 </v>
   <v>      -0.00000000      -0.00000000       0.00055696 </v>
   <v>      -0.00000000      -0.00000000       0.00203415 </v>
   <v>      -0.00000000      -0.00000000      -0.04976777 </v>
   <v>      -0.00000000      -0.00000000      -0.00077793 </v>
   <v>      -0.00000000      -0.00000000      -0.00077793 </v>
   <v>      -0.00000000      -0.00000000       0.00077793 </v>
   <v>      -0.00000000      -0.00000000       0.00077793 </v>
   <v>       0.01100614       0.00156714      -0.00065482 </v>
   <v>      -0.02072233      -0.01420287      -0.00062540 </v>
   <v>       0.01031238      -0.02440504       0.00405111 </v>
   <v>       0.00999130       0.00149797       0.01224018 </v>
   <v>      -0.00320133       0.00199386       0.00203985 </v>
   <v>      -0.02072233      -0.01420287      -0.00062540 </v>
   <v>       0.01031238      -0.02440504       0.00405111 </v>
   <v>       0.00999130       0.00149797       0.01224018 </v>
   <v>      -0.01031238       0.02440504       0.00405111 </v>
   <v>      -0.00999130      -0.00149797       0.01224018 </v>
   <v>       0.00320133      -0.00199386       0.00203985 </v>
   <v>       0.02072233       0.01420287      -0.00062540 </v>
   <v>      -0.01031238       0.02440504       0.00405111 </v>
   <v>      -0.00437685      -0.00206326       0.01463641 </v>
   <v>      -0.00000000      -0.00000000       0.01634037 </v>
   <v>       0.02072233       0.01420287      -0.00062540 </v>
   <v>       0.00261604       0.00776568      -0.00795581 </v>
   <v>       0.01348207      -0.01551047       0.00899323 </v>
   <v>      -0.00437685      -0.00206326       0.01463641 </v>
   <v>       0.00437685       0.00206326       0.01463641 </v>
   <v>       0.00261604       0.00776568      -0.00795581 </v>
   <v>       0.01348207      -0.01551047       0.00899323 </v>
   <v>       0.01100614      -0.00156714       0.00065482 </v>
   <v>      -0.00999130      -0.00149797       0.01224018 </v>
   <v>      -0.01100614       0.00156714       0.00065482 </v>
   <v>      -0.00000000      -0.00000000       0.00000000 </v>
   <v>      -0.00261604      -0.00776568      -0.00795581 </v>
   <v>      -0.01348207       0.01551047       0.00899323 </v>
   <v>      -0.01100614       0.00156714       0.00065482 </v>
   <v>      -0.01100614      -0.00156714      -0.00065482 </v>
   <v>      -0.00261604      -0.00776568      -0.00795581 </v>
   <v>      -0.01348207       0.01551047       0.00899323 </v>
   <v>       0.01149107       0.00411237      -0.01645210 </v>
   <v>       0.00437685      -0.00206326      -0.01463641 </v>
   <v>       0.01348207       0.01551047      -0.00899323 </v>
   <v>       0.01100614       0.00156714      -0.00065482 </v>
   <v>       0.00437685      -0.00206326      -0.01463641 </v>
   <v>       0.00320133       0.00199386      -0.00203985 </v>
   <v>       0.01348207       0.01551047      -0.00899323 </v>
   <v>      -0.00261604       0.00776568       0.00795581 </v>
   <v>      -0.01348207      -0.01551047      -0.00899323 </v>
   <v>      -0.01100614      -0.00156714      -0.00065482 </v>
   <v>      -0.00437685       0.00206326      -0.01463641 </v>
   <v>      -0.00261604       0.00776568       0.00795581 </v>
   <v>      -0.01348207      -0.01551047      -0.00899323 </v>
   <v>      -0.01149107       0.00411237       0.01645210 </v>
   <v>      -0.00437685       0.00206326      -0.01463641 </v>
   <v>       0.01031238       0.02440504      -0.00405111 </v>
   <v>       0.00999130      -0.00149797      -0.01224018 </v>
   <v>      -0.00320133      -0.00199386      -0.00203985 </v>
   <v>      -0.02072233       0.01420287       0.00062540 </v>
   <v>       0.01031238       0.02440504      -0.00405111 </v>
   <v>       0.00999130      -0.00149797      -0.01224018 </v>
   <v>      -0.00320133      -0.00199386      -0.00203985 </v>
   <v>      -0.02072233       0.01420287       0.00062540 </v>
   <v>       0.00320133       0.00199386      -0.00203985 </v>
   <v>       0.02072233      -0.01420287       0.00062540 </v>
   <v>      -0.01031238      -0.02440504      -0.00405111 </v>
   <v>      -0.00999130       0.00149797      -0.01224018 </v>
   <v>       0.00320133      -0.00199386       0.00203985 </v>
   <v>       0.02072233      -0.01420287       0.00062540 </v>
   <v>      -0.01031238      -0.02440504      -0.00405111 </v>
   <v>      -0.00999130       0.00149797      -0.01224018 </v>
   <v>      -0.00000000      -0.00000000       0.00000000 </v>
   <v>      -0.00000000      -0.00000000      -0.02248549 </v>
   <v>      -0.00000000      -0.00000000       0.00000000 </v>
   <v>       0.01149107      -0.00411237       0.01645210 </v>
   <v>      -0.00000000      -0.00000000       0.02248549 </v>
   <v>       0.00261604      -0.00776568       0.00795581 </v>
   <v>      -0.00000000      -0.00000000       0.00000000 </v>
   <v>      -0.00000000      -0.00000000       0.00000000 </v>
   <v>       0.00437685       0.00206326       0.01463641 </v>
   <v>      -0.00000000      -0.00000000       0.02248549 </v>
   <v>      -0.00000000      -0.00000000      -0.01634037 </v>
   <v>      -0.00000000      -0.00000000       0.00000000 </v>
   <v>       0.01100614      -0.00156714       0.00065482 </v>
   <v>      -0.00000000      -0.00000000      -0.02248549 </v>
   <v>      -0.00000000      -0.00000000       0.01634037 </v>
   <v>      -0.00000000      -0.00000000      -0.01634037 </v>
   <v>       0.00261604      -0.00776568       0.00795581 </v>
   <v>      -0.01149107       0.00411237       0.01645210 </v>
   <v>      -0.01149107      -0.00411237      -0.01645210 </v>
   <v>      -0.00320133       0.00199386       0.00203985 </v>
   <v>       0.01149107       0.00411237      -0.01645210 </v>
   <v>      -0.01149107      -0.00411237      -0.01645210 </v>
   <v>       0.01149107      -0.00411237       0.01645210 </v>
   <v>      -0.00000000      -0.00713668       0.00000000 </v>
   <v>      -0.00000000       0.00957591       0.00000000 </v>
   <v>      -0.00000000       0.00713668       0.00000000 </v>
   <v>      -0.00000000      -0.00957591       0.00000000 </v>
   <v>      -0.00000000      -0.00713668       0.00000000 </v>
   <v>      -0.00000000       0.00957591       0.00000000 </v>
   <v>      -0.00000000       0.00713668       0.00000000 </v>
   <v>      -0.00000000      -0.00957591       0.00000000 </v>
  </varray>
  <varray name="stress" >
   <v>       0.08490976       0.00000000       0.00000000 </v>
   <v>       0.00000000       0.10978623       0.00000000 </v>
   <v>       0.00000000       0.00000000       0.12511573 </v>
  </varray>
  <energy>
   <i name="e_fr_energy">  -1153.45290610 </i>
   <i name="e_wo_entrp">  -1153.45290610 </i>
   <i name="e_0_energy">     -0.00000000 </i>
  </energy>
  <time name="totalsc">  257.32  259.30</time>
 </calculation>
 <calculation>
  <scstep>
   <time name="dav">   73.35   73.36</time>
   <time name="total">   75.07   75.13</time>
   <energy>
    <i name="alphaZ">   5647.00461825 </i>
    <i name="ewald"> -61359.55632045 </i>
    <i name="hartreedc"> -15164.02971129 </i>
    <i name="XCdc">   2852.62790055 </i>
    <i name="pawpsdc"> 111372.49627362 </i>
    <i name="pawaedc">-110121.41262266 </i>
    <i name="eentropy">     -0.00000000 </i>
    <i name="bandstr">  -7030.66766901 </i>
    <i name="atom">  72650.08363186 </i>
    <i name="e_fr_energy">  -1153.45389912 </i>
    <i name="e_wo_entrp">  -1153.45389912 </i>
    <i name="e_0_energy">  -1153.45389912 </i>
   </energy>
  </scstep>
  <scstep>
   <time name="diag">    8.25    8.25</time>
   <time name="diis">   12.80   12.80</time>
   <time name="orth">    4.73    4.73</time>
   <time name="total">   27.50   27.53</time>
   <energy>
    <i name="e_fr_energy">  -1153.45443204 </i>
    <i name="e_wo_entrp">  -1153.45443204 </i>
    <i name="e_0_energy">  -1153.45443204 </i>
   </energy>
  </scstep>
  <scstep>
   <time name="diag">    8.24    8.25</time>
   <time name="diis">   12.06   12.06</time>
   <time name="orth">    4.69    4.69</time>
   <time name="total">   26.73   26.79</time>
   <energy>
    <i name="e_fr_energy">  -1153.45430017 </i>
    <i name="e_wo_entrp">  -1153.45430017 </i>
    <i name="e_0_energy">  -1153.45430017 </i>
   </energy>
  </scstep>
  <scstep>
   <time name="diag">    8.25    8.26</time>
   <time name="diis">   10.02   10.02</time>
   <time name="orth">    4.68    4.68</time>
   <time name="total">   24.68   24.76</time>
   <energy>
    <i name="e_fr_energy">  -1153.45415858 </i>
    <i name="e_wo_entrp">  -1153.45415858 </i>
    <i name="e_0_energy">  -1153.45415858 </i>
   </energy>
  </scstep>
  <scstep>
   <time name="diag">    8.24    8.24</time>
   <time name="diis">    8.70    8.70</time>
   <time name="orth">    4.68    4.68</time>
   <time name="total">   23.37   23.44</time>
   <energy>
    <i name="e_fr_energy">  -1153.45411111 </i>
    <i name="e_wo_entrp">  -1153.45411111 </i>
    <i name="e_0_energy">  -1153.45411111 </i>
   </energy>
  </scstep>
  <scstep>
   <time name="diag">    8.24    8.25</time>
   <time name="diis">    7.87    7.87</time>
   <time name="orth">    4.69    4.69</time>
   <time name="total">   22.54   22.59</time>
   <energy>
    <i name="e_fr_energy">  -1153.45411240 </i>
    <i name="e_wo_entrp">  -1153.45411240 </i>
    <i name="e_0_energy">  -1153.45411240 </i>
   </energy>
  </scstep>
  <scstep>
   <time name="diag">    8.28    8.28</time>
   <time name="diis">    7.77    7.77</time>
   <time name="orth">    4.70    4.70</time>
   <time name="total">   22.48   22.57</time>
   <energy>
    <i name="e_fr_energy">  -1153.45411064 </i>
    <i name="e_wo_entrp">  -1153.45411064 </i>
    <i name="e_0_energy">  -1153.45411064 </i>
   </energy>
  </scstep>
  <scstep>
   <time name="diag">    8.27    8.27</time>
   <time name="diis">    7.52    7.54</time>
   <time name="orth">    4.70    4.71</time>
   <time name="total">   21.07   21.16</time>
   <energy>
    <i name="alphaZ">   5647.00461825 </i>
    <i name="ewald"> -61359.55632045 </i>
    <i name="hartreedc"> -15165.65150725 </i>
    <i name="XCdc">   2852.74624838 </i>
    <i name="pawpsdc"> 111345.94853117 </i>
    <i name="pawaedc">-110094.83806659 </i>
    <i name="eentropy">     -0.00000000 </i>
    <i name="bandstr">  -7029.19124526 </i>
    <i name="atom">  72650.08363186 </i>
    <i name="e_fr_energy">  -1153.45410988 </i>
    <i name="e_wo_entrp">  -1153.45410988 </i>
    <i name="e_0_energy">  -1153.45410988 </i>
   </energy>
  </scstep>
  <structure>
   <crystal>
    <varray name="basis" >
     <v>      11.19018910       0.00000000       0.00000000 </v>
     <v>       0.00000000      11.19802500       0.00000000 </v>
     <v>       0.00000000       0.00000000      15.96387644 </v>
    </varray>
    <i name="volume">   2000.40170576 </i>
    <varray name="rec_basis" >
     <v>       0.08936399       0.00000000       0.00000000 </v>
     <v>       0.00000000       0.08930146       0.00000000 </v>
     <v>       0.00000000       0.00000000       0.06264143 </v>
    </varray>
   </crystal>
   <varray name="positions" >
    <v>      -0.00000000       0.25842522       0.12500000 </v>
    <v>      -0.00000000       0.25099486       0.62500000 </v>
    <v>      -0.00000000       0.74157478       0.12500000 </v>
    <v>      -0.00000000       0.74900514       0.62500000 </v>
    <v>       0.50000000       0.25842522       0.12500000 </v>
    <v>       0.50000000       0.25099486       0.62500000 </v>
    <v>       0.50000000       0.74157478       0.12500000 </v>
    <v>       0.50000000       0.74900514       0.62500000 </v>
    <v>       0.00076257       0.25067254       0.37285776 </v>
    <v>       0.99923743       0.25067254       0.87714224 </v>
    <v>       0.99923743       0.74932746       0.37285776 </v>
    <v>       0.00076257       0.74932746       0.87714224 </v>
    <v>       0.50076257       0.25067254       0.37285776 </v>
    <v>       0.49923743       0.25067254       0.87714224 </v>
    <v>       0.49923743       0.74932746       0.37285776 </v>
    <v>       0.50076257       0.74932746       0.87714224 </v>
    <v>       0.25000000      -0.00000000       0.12500000 </v>
    <v>       0.25000000      -0.00000000       0.62500000 </v>
    <v>       0.25000000       0.50000000       0.12500000 </v>
    <v>       0.25000000       0.50000000       0.62500000 </v>
    <v>       0.75000000      -0.00000000       0.12500000 </v>
    <v>       0.75000000      -0.00000000       0.62500000 </v>
    <v>       0.75000000       0.50000000       0.12500000 </v>
    <v>       0.75000000       0.50000000       0.62500000 </v>
    <v>       0.25000000      -0.00000000       0.37347363 </v>
    <v>       0.25000000      -0.00000000       0.87652637 </v>
    <v>       0.25000000       0.50000000       0.37285756 </v>
    <v>       0.25000000       0.50000000       0.87714244 </v>
    <v>       0.75000000      -0.00000000       0.37347363 </v>
    <v>       0.75000000      -0.00000000       0.87652637 </v>
    <v>       0.75000000       0.50000000       0.37285756 </v>
    <v>       0.75000000       0.50000000       0.87714244 </v>
    <v>       0.50000000      -0.00000000       0.74885665 </v>
    <v>      -0.00000000       0.50000000       0.99883169 </v>
    <v>       0.74991553       0.24902716       0.75031321 </v>
    <v>       0.50000000       0.50000000       0.99883169 </v>
    <v>       0.75014277       0.75318557       0.00223418 </v>
    <v>       0.50000000       0.50000000       0.25116831 </v>
    <v>       0.50000000       0.50000000       0.49936160 </v>
    <v>       0.24985723       0.24681443       0.00223418 </v>
    <v>      -0.00000000       0.50000000       0.49936160 </v>
    <v>       0.24991553       0.75097284       0.49968679 </v>
    <v>       0.74985723       0.75318557       0.24776582 </v>
    <v>       0.74985723       0.24681443       0.00223418 </v>
    <v>       0.25014277       0.24681443       0.24776582 </v>
    <v>       0.74991553       0.75097284       0.49968679 </v>
    <v>       0.25014277       0.75318557       0.00223418 </v>
    <v>       0.24991553       0.24902716       0.75031321 </v>
    <v>       0.24985723       0.75318557       0.24776582 </v>
    <v>       0.25008447       0.75097284       0.75031321 </v>
    <v>       0.75014277       0.24681443       0.24776582 </v>
    <v>       0.25008447       0.24902716       0.49968679 </v>
    <v>       0.75008447       0.75097284       0.75031321 </v>
    <v>       0.50000000       0.50000000       0.75063840 </v>
    <v>      -0.00000000      -0.00000000       0.74885665 </v>
    <v>       0.50000000      -0.00000000       0.50114335 </v>
    <v>       0.75008447       0.24902716       0.49968679 </v>
    <v>      -0.00000000       0.50000000       0.75063840 </v>
    <v>      -0.00000000       0.50000000       0.25116831 </v>
    <v>      -0.00000000      -0.00000000       0.50114335 </v>
    <v>      -0.00000000      -0.00000000       0.25898551 </v>
    <v>       0.50000000      -0.00000000       0.25898551 </v>
    <v>      -0.00000000      -0.00000000       0.99101449 </v>
    <v>       0.50000000      -0.00000000       0.99101449 </v>
    <v>       0.36409963       0.38567874       0.99761863 </v>
    <v>       0.10791384       0.14175076       0.74953560 </v>
    <v>       0.11351474       0.63617026       0.25270939 </v>
    <v>       0.10904339       0.64178801       0.75117681 </v>
    <v>       0.61369563       0.13250701       0.23828923 </v>
    <v>       0.60791384       0.14175076       0.74953560 </v>
    <v>       0.61351474       0.63617026       0.25270939 </v>
    <v>       0.60904339       0.64178801       0.75117681 </v>
    <v>       0.38648526       0.36382974       0.25270939 </v>
    <v>       0.39095661       0.35821199       0.75117681 </v>
    <v>       0.38630437       0.86749299       0.23828923 </v>
    <v>       0.39208616       0.85824924       0.74953560 </v>
    <v>       0.88648526       0.36382974       0.25270939 </v>
    <v>       0.14166132       0.39061598       0.75156398 </v>
    <v>      -0.00000000       0.50000000       0.37601485 </v>
    <v>       0.89208616       0.85824924       0.74953560 </v>
    <v>       0.36758910       0.11354250       0.23937362 </v>
    <v>       0.35811885       0.10761233       0.74886048 </v>
    <v>       0.64166132       0.39061598       0.75156398 </v>
    <v>       0.35833868       0.60938402       0.75156398 </v>
    <v>       0.86758910       0.11354250       0.23937362 </v>
    <v>       0.85811885       0.10761233       0.74886048 </v>
    <v>       0.86409963       0.61432126       0.25238137 </v>
    <v>       0.89095661       0.35821199       0.75117681 </v>
    <v>       0.13590037       0.38567874       0.25238137 </v>
    <v>      -0.00000000      -0.00000000       0.62500000 </v>
    <v>       0.13241090       0.88645750       0.23937362 </v>
    <v>       0.14188115       0.89238767       0.74886048 </v>
    <v>       0.63590037       0.38567874       0.25238137 </v>
    <v>       0.63590037       0.61432126       0.99761863 </v>
    <v>       0.63241090       0.88645750       0.23937362 </v>
    <v>       0.64188115       0.89238767       0.74886048 </v>
    <v>       0.24835806       0.24052389       0.37330622 </v>
    <v>       0.35833868       0.39061598       0.49843602 </v>
    <v>       0.35811885       0.89238767       0.50113952 </v>
    <v>       0.86409963       0.38567874       0.99761863 </v>
    <v>       0.85833868       0.39061598       0.49843602 </v>
    <v>       0.88630437       0.13250701       0.01171077 </v>
    <v>       0.85811885       0.89238767       0.50113952 </v>
    <v>       0.13241090       0.11354250       0.01062638 </v>
    <v>       0.14188115       0.10761233       0.50113952 </v>
    <v>       0.13590037       0.61432126       0.99761863 </v>
    <v>       0.14166132       0.60938402       0.49843602 </v>
    <v>       0.63241090       0.11354250       0.01062638 </v>
    <v>       0.64188115       0.10761233       0.50113952 </v>
    <v>       0.75164194       0.24052389       0.87669378 </v>
    <v>       0.64166132       0.60938402       0.49843602 </v>
    <v>       0.11351474       0.36382974       0.99729061 </v>
    <v>       0.10904339       0.35821199       0.49882319 </v>
    <v>       0.11369563       0.86749299       0.01171077 </v>
    <v>       0.10791384       0.85824924       0.50046440 </v>
    <v>       0.61351474       0.36382974       0.99729061 </v>
    <v>       0.60904339       0.35821199       0.49882319 </v>
    <v>       0.61369563       0.86749299       0.01171077 </v>
    <v>       0.60791384       0.85824924       0.50046440 </v>
    <v>       0.38630437       0.13250701       0.01171077 </v>
    <v>       0.39208616       0.14175076       0.50046440 </v>
    <v>       0.38648526       0.63617026       0.99729061 </v>
    <v>       0.39095661       0.64178801       0.49882319 </v>
    <v>       0.88630437       0.86749299       0.23828923 </v>
    <v>       0.89208616       0.14175076       0.50046440 </v>
    <v>       0.88648526       0.63617026       0.99729061 </v>
    <v>       0.89095661       0.64178801       0.49882319 </v>
    <v>       0.50000000      -0.00000000       0.62500000 </v>
    <v>      -0.00000000      -0.00000000       0.87312626 </v>
    <v>      -0.00000000       0.50000000       0.12500000 </v>
    <v>       0.24835806       0.75947611       0.87669378 </v>
    <v>       0.50000000      -0.00000000       0.37687374 </v>
    <v>       0.86758910       0.88645750       0.01062638 </v>
    <v>       0.50000000       0.50000000       0.12500000 </v>
    <v>       0.50000000       0.50000000       0.62500000 </v>
    <v>       0.85833868       0.60938402       0.75156398 </v>
    <v>      -0.00000000      -0.00000000       0.37687374 </v>
    <v>      -0.00000000       0.50000000       0.87398515 </v>
    <v>      -0.00000000       0.50000000       0.62500000 </v>
    <v>       0.36409963       0.61432126       0.25238137 </v>
    <v>       0.50000000      -0.00000000       0.87312626 </v>
    <v>       0.50000000       0.50000000       0.37601485 </v>
    <v>       0.50000000       0.50000000       0.87398515 </v>
    <v>       0.36758910       0.88645750       0.01062638 </v>
    <v>       0.25164194       0.24052389       0.87669378 </v>
    <v>       0.25164194       0.75947611       0.37330622 </v>
    <v>       0.11369563       0.13250701       0.23828923 </v>
    <v>       0.74835806       0.24052389       0.37330622 </v>
    <v>       0.75164194       0.75947611       0.37330622 </v>
    <v>       0.74835806       0.75947611       0.87669378 </v>
    <v>       0.25000000       0.26311326       0.12500000 </v>
    <v>       0.25000000       0.25104928       0.62500000 </v>
    <v>       0.25000000       0.73688674       0.12500000 </v>
    <v>       0.25000000       0.74895072       0.62500000 </v>
    <v>       0.75000000       0.26311326       0.12500000 </v>
    <v>       0.75000000       0.25104928       0.62500000 </v>
    <v>       0.75000000       0.73688674       0.12500000 </v>
    <v>       0.75000000       0.74895072       0.62500000 </v>
   </varray>
  </structure>
  <varray name="forces" >
   <v>      -0.00000000      -0.00529145      -0.00000000 </v>
   <v>      -0.00000000      -0.01667815      -0.00000000 </v>
   <v>      -0.00000000       0.00529145      -0.00000000 </v>
   <v>      -0.00000000       0.01667815      -0.00000000 </v>
   <v>      -0.00000000      -0.00529145      -0.00000000 </v>
   <v>      -0.00000000      -0.01667815      -0.00000000 </v>
   <v>      -0.00000000       0.00529145      -0.00000000 </v>
   <v>      -0.00000000       0.01667815      -0.00000000 </v>
   <v>       0.00292726       0.00942549       0.00918553 </v>
   <v>      -0.00292726       0.00942549      -0.00918553 </v>
   <v>      -0.00292726      -0.00942549       0.00918553 </v>
   <v>       0.00292726      -0.00942549      -0.00918553 </v>
   <v>       0.00292726       0.00942549       0.00918553 </v>
   <v>      -0.00292726       0.00942549      -0.00918553 </v>
   <v>      -0.00292726      -0.00942549       0.00918553 </v>
   <v>       0.00292726      -0.00942549      -0.00918553 </v>
   <v>      -0.00000000      -0.00000000      -0.00000000 </v>
   <v>      -0.00000000      -0.00000000      -0.00000000 </v>
   <v>      -0.00000000      -0.00000000      -0.00000000 </v>
   <v>      -0.00000000      -0.00000000      -0.00000000 </v>
   <v>      -0.00000000      -0.00000000      -0.00000000 </v>
   <v>      -0.00000000      -0.00000000      -0.00000000 </v>
   <v>      -0.00000000      -0.00000000      -0.00000000 </v>
   <v>      -0.00000000      -0.00000000      -0.00000000 </v>
   <v>      -0.00000000      -0.00000000       0.02477570 </v>
   <v>      -0.00000000      -0.00000000      -0.02477570 </v>
   <v>      -0.00000000      -0.00000000      -0.02327720 </v>
   <v>      -0.00000000      -0.00000000       0.02327720 </v>
   <v>      -0.00000000      -0.00000000       0.02477570 </v>
   <v>      -0.00000000      -0.00000000      -0.02477570 </v>
   <v>      -0.00000000      -0.00000000      -0.02327720 </v>
   <v>      -0.00000000      -0.00000000       0.02327720 </v>
   <v>      -0.00000000      -0.00000000      -0.03080768 </v>
   <v>      -0.00000000      -0.00000000       0.01048107 </v>
   <v>      -0.00218716      -0.02182819       0.02116458 </v>
   <v>      -0.00000000      -0.00000000       0.01048107 </v>
   <v>       0.00147562      -0.01032499      -0.01359725 </v>
   <v>      -0.00000000      -0.00000000      -0.01048107 </v>
   <v>      -0.00000000      -0.00000000      -0.01461234 </v>
   <v>      -0.00147562       0.01032499      -0.01359725 </v>
   <v>      -0.00000000      -0.00000000      -0.01461234 </v>
   <v>      -0.00218716       0.02182819      -0.02116458 </v>
   <v>      -0.00147562      -0.01032499       0.01359725 </v>
   <v>      -0.00147562       0.01032499      -0.01359725 </v>
   <v>       0.00147562       0.01032499       0.01359725 </v>
   <v>      -0.00218716       0.02182819      -0.02116458 </v>
   <v>       0.00147562      -0.01032499      -0.01359725 </v>
   <v>      -0.00218716      -0.02182819       0.02116458 </v>
   <v>      -0.00147562      -0.01032499       0.01359725 </v>
   <v>       0.00218716       0.02182819       0.02116458 </v>
   <v>       0.00147562       0.01032499       0.01359725 </v>
   <v>       0.00218716      -0.02182819      -0.02116458 </v>
   <v>       0.00218716       0.02182819       0.02116458 </v>
   <v>      -0.00000000      -0.00000000       0.01461234 </v>
   <v>      -0.00000000      -0.00000000      -0.03080768 </v>
   <v>      -0.00000000      -0.00000000       0.03080768 </v>
   <v>       0.00218716      -0.02182819      -0.02116458 </v>
   <v>      -0.00000000      -0.00000000       0.01461234 </v>
   <v>      -0.00000000      -0.00000000      -0.01048107 </v>
   <v>      -0.00000000      -0.00000000       0.03080768 </v>
   <v>      -0.00000000      -0.00000000       0.01180353 </v>
   <v>      -0.00000000      -0.00000000       0.01180353 </v>
[...]
       <r>   -15.8017     0.0000    32.0000 </r>
       <r>   -15.6498     0.0000    32.0000 </r>
       <r>   -15.4980     0.0000    32.0000 </r>
       <r>   -15.3461     0.0000    32.0000 </r>
       <r>   -15.1943     0.0002    32.0000 </r>
       <r>   -15.0424     8.3048    33.2612 </r>
       <r>   -14.8905    49.5540    40.7861 </r>
       <r>   -14.7387    56.7871    49.4094 </r>
       <r>   -14.5868    31.6432    54.2145 </r>
       <r>   -14.4350    27.5759    58.4020 </r>
       <r>   -14.2831    27.8082    62.6248 </r>
       <r>   -14.1313    73.8131    73.8335 </r>
       <r>   -13.9794   145.2184    95.8854 </r>
       <r>   -13.8276   158.8269   120.0038 </r>
       <r>   -13.6757    29.8723   124.5400 </r>
       <r>   -13.5239     9.5892   125.9961 </r>
       <r>   -13.3720     0.0254   126.0000 </r>
       <r>   -13.2202     0.0000   126.0000 </r>
       <r>   -13.0683     0.0000   126.0000 </r>
       <r>   -12.9165     0.0000   126.0000 </r>
       <r>   -12.7646     0.0083   126.0013 </r>
       <r>   -12.6127    13.0188   127.9782 </r>
       <r>   -12.4609   101.5520   143.3992 </r>
       <r>   -12.3090   160.9859   167.8454 </r>
       <r>   -12.1572   142.9882   189.5586 </r>
       <r>   -12.0053   130.8848   209.4339 </r>
       <r>   -11.8535    71.6454   220.3135 </r>
       <r>   -11.7016    11.0943   221.9982 </r>
       <r>   -11.5498     0.0119   222.0000 </r>
       <r>   -11.3979     0.0000   222.0000 </r>
       <r>   -11.2461     0.0000   222.0000 </r>
       <r>   -11.0942     0.0000   222.0000 </r>
       <r>   -10.9424     0.0000   222.0000 </r>
       <r>   -10.7905     0.0000   222.0000 </r>
       <r>   -10.6387     0.0000   222.0000 </r>
       <r>   -10.4868     0.0000   222.0000 </r>
       <r>   -10.3349     0.0000   222.0000 </r>
       <r>   -10.1831     0.0000   222.0000 </r>
       <r>   -10.0312     0.0000   222.0000 </r>
       <r>    -9.8794     0.0000   222.0000 </r>
       <r>    -9.7275     0.0000   222.0000 </r>
       <r>    -9.5757     0.0000   222.0000 </r>
       <r>    -9.4238     0.0000   222.0000 </r>
       <r>    -9.2720     0.0000   222.0000 </r>
       <r>    -9.1201     0.0000   222.0000 </r>
       <r>    -8.9683     0.0000   222.0000 </r>
       <r>    -8.8164     0.0000   222.0000 </r>
       <r>    -8.6646     0.0000   222.0000 </r>
       <r>    -8.5127     0.0000   222.0000 </r>
       <r>    -8.3609     0.0000   222.0000 </r>
       <r>    -8.2090     0.0000   222.0000 </r>
       <r>    -8.0572     0.0000   222.0000 </r>
       <r>    -7.9053     0.0000   222.0000 </r>
       <r>    -7.7534     0.0000   222.0000 </r>
       <r>    -7.6016     0.0000   222.0000 </r>
       <r>    -7.4497     0.0000   222.0000 </r>
       <r>    -7.2979     0.0000   222.0000 </r>
       <r>    -7.1460     0.0000   222.0000 </r>
       <r>    -6.9942     0.0000   222.0000 </r>
       <r>    -6.8423     0.0000   222.0000 </r>
       <r>    -6.6905     0.0000   222.0000 </r>
       <r>    -6.5386     0.0000   222.0000 </r>
       <r>    -6.3868     0.0000   222.0000 </r>
       <r>    -6.2349     0.0000   222.0000 </r>
       <r>    -6.0831     0.0000   222.0000 </r>
       <r>    -5.9312     0.0000   222.0000 </r>
       <r>    -5.7794     0.0000   222.0000 </r>
       <r>    -5.6275     0.0000   222.0000 </r>
       <r>    -5.4756     0.0000   222.0000 </r>
       <r>    -5.3238     0.0000   222.0000 </r>
       <r>    -5.1719     0.0000   222.0000 </r>
       <r>    -5.0201     0.0000   222.0000 </r>
       <r>    -4.8682     0.0000   222.0000 </r>
       <r>    -4.7164     0.0000   222.0000 </r>
       <r>    -4.5645     0.0000   222.0000 </r>
       <r>    -4.4127     0.0000   222.0000 </r>
       <r>    -4.2608     0.0000   222.0000 </r>
       <r>    -4.1090     0.0000   222.0000 </r>
       <r>    -3.9571     0.0000   222.0000 </r>
       <r>    -3.8053     0.0000   222.0000 </r>
       <r>    -3.6534     0.0000   222.0000 </r>
       <r>    -3.5016     0.0000   222.0000 </r>
       <r>    -3.3497     0.0000   222.0000 </r>
       <r>    -3.1978     0.0000   222.0000 </r>
       <r>    -3.0460     0.0000   222.0000 </r>
       <r>    -2.8941     0.0000   222.0000 </r>
       <r>    -2.7423     0.0000   222.0000 </r>
       <r>    -2.5904     0.0000   222.0000 </r>
       <r>    -2.4386     0.0000   222.0000 </r>
       <r>    -2.2867     1.0632   222.1614 </r>
       <r>    -2.1349    16.7624   224.7069 </r>
       <r>    -1.9830    25.6610   228.6036 </r>
       <r>    -1.8312    46.7445   235.7019 </r>
       <r>    -1.6793    54.0447   243.9087 </r>
       <r>    -1.5275    59.9909   253.0186 </r>
       <r>    -1.3756    56.4267   261.5871 </r>
       <r>    -1.2238    72.1491   272.5432 </r>
       <r>    -1.0719    71.0567   283.3334 </r>
       <r>    -0.9201    61.6754   292.6990 </r>
       <r>    -0.7682    85.2090   305.6383 </r>
       <r>    -0.6163    95.7188   320.1735 </r>
       <r>    -0.4645   131.9487   340.2103 </r>
       <r>    -0.3126    87.6753   353.5241 </r>
       <r>    -0.1608    50.0940   361.1310 </r>
       <r>    -0.0089    46.4164   368.1795 </r>
       <r>     0.1429    40.2023   374.2843 </r>
       <r>     0.2948    46.5026   381.3459 </r>
       <r>     0.4466    49.3320   388.8371 </r>
       <r>     0.5985    67.3856   399.0699 </r>
       <r>     0.7503    42.0837   405.4604 </r>
       <r>     0.9022    48.1818   412.7770 </r>
       <r>     1.0540    55.1703   421.1547 </r>
       <r>     1.2059    78.0041   432.9999 </r>
       <r>     1.3577    80.7039   445.2550 </r>
       <r>     1.5096   111.5159   462.1891 </r>
       <r>     1.6615    81.7500   474.6031 </r>
       <r>     1.8133    75.6770   486.0949 </r>
       <r>     1.9652    53.5708   494.2298 </r>
       <r>     2.1170    39.1661   500.1773 </r>
       <r>     2.2689    18.9856   503.0603 </r>
       <r>     2.4207     6.1880   504.0000 </r>
       <r>     2.5726     0.0001   504.0000 </r>
       <r>     2.7244     0.0000   504.0000 </r>
       <r>     2.8763     0.0000   504.0000 </r>
       <r>     3.0281     0.0000   504.0000 </r>
       <r>     3.1800     0.0000   504.0000 </r>
       <r>     3.3318     0.0000   504.0000 </r>
       <r>     3.4837     0.0000   504.0000 </r>
       <r>     3.6355     0.0000   504.0000 </r>
       <r>     3.7874     0.0000   504.0000 </r>
       <r>     3.9393     0.0000   504.0000 </r>
       <r>     4.0911     0.0000   504.0000 </r>
       <r>     4.2430     0.0000   504.0000 </r>
       <r>     4.3948     0.6617   504.1005 </r>
       <r>     4.5467    17.5522   506.7658 </r>
       <r>     4.6985    24.9422   510.5534 </r>
       <r>     4.8504    39.8981   516.6120 </r>
       <r>     5.0022    33.2108   521.6552 </r>
       <r>     5.1541    20.8872   524.8270 </r>
       <r>     5.3059    36.7446   530.4068 </r>
       <r>     5.4578    75.0959   541.8103 </r>
       <r>     5.6096    43.3407   548.3918 </r>
       <r>     5.7615    67.5920   558.6558 </r>
       <r>     5.9133    93.9637   572.9245 </r>
       <r>     6.0652   109.6172   589.5702 </r>
       <r>     6.2170    69.4738   600.1200 </r>
       <r>     6.3689    56.0309   608.6285 </r>
       <r>     6.5208    34.1101   613.8082 </r>
       <r>     6.6726    26.1052   617.7724 </r>
       <r>     6.8245    31.0193   622.4828 </r>
       <r>     6.9763    20.9377   625.6622 </r>
       <r>     7.1282    20.3237   628.7485 </r>
       <r>     7.2800    15.6457   631.1243 </r>
       <r>     7.4319    20.7625   634.2772 </r>
       <r>     7.5837    10.7407   635.9082 </r>
       <r>     7.7356    11.3503   637.6317 </r>
       <r>     7.8874    14.6619   639.8582 </r>
       <r>     8.0393    30.7396   644.5261 </r>
       <r>     8.1911    23.4144   648.0816 </r>
       <r>     8.3430    22.6081   651.5148 </r>
       <r>     8.4948    23.6122   655.1003 </r>
       <r>     8.6467    24.5479   658.8280 </r>
       <r>     8.7986    25.0165   662.6269 </r>
       <r>     8.9504    24.9623   666.4175 </r>
       <r>     9.1023    40.2164   672.5245 </r>
       <r>     9.2541    33.9100   677.6738 </r>
       <r>     9.4060    41.6960   684.0055 </r>
       <r>     9.5578    44.0832   690.6996 </r>
       <r>     9.7097    43.6291   697.3248 </r>
       <r>     9.8615    50.1812   704.9450 </r>
       <r>    10.0134    70.7415   715.6874 </r>
       <r>    10.1652    80.7954   727.9564 </r>
       <r>    10.3171    71.5831   738.8265 </r>
       <r>    10.4689    54.8450   747.1549 </r>
       <r>    10.6208    57.4481   755.8786 </r>
       <r>    10.7726    54.6182   764.1725 </r>
       <r>    10.9245    25.1787   767.9960 </r>
       <r>    11.0764     0.0263   768.0000 </r>
       <r>    11.2282     0.0000   768.0000 </r>
       <r>    11.3801     0.0000   768.0000 </r>
       <r>    11.5319     0.0000   768.0000 </r>
       <r>    11.6838     0.0000   768.0000 </r>
       <r>    11.8356     0.0000   768.0000 </r>
       <r>    11.9875     0.0000   768.0000 </r>
       <r>    12.1393     0.0000   768.0000 </r>
       <r>    12.2912     0.0000   768.0000 </r>
       <r>    12.4430     0.0000   768.0000 </r>
       <r>    12.5949     0.0000   768.0000 </r>
       <r>    12.7467     0.0000   768.0000 </r>
       <r>    12.8986     0.0000   768.0000 </r>
      </set>
     </set>
    </array>
   </total>
  </dos>
 </calculation>
 <structure name="finalpos" >
  <crystal>
   <varray name="basis" >
    <v>      11.19012494       0.00000000       0.00000000 </v>
    <v>       0.00000000      11.19794199       0.00000000 </v>
    <v>       0.00000000       0.00000000      15.96374157 </v>
   </varray>
   <i name="volume">   2000.35850661 </i>
   <varray name="rec_basis" >
    <v>       0.08936451       0.00000000       0.00000000 </v>
    <v>       0.00000000       0.08930212       0.00000000 </v>
    <v>       0.00000000       0.00000000       0.06264196 </v>
   </varray>
  </crystal>
  <varray name="positions" >
   <v>      -0.00000000       0.25843916       0.12500000 </v>
   <v>      -0.00000000       0.25099275       0.62500000 </v>
   <v>      -0.00000000       0.74156084       0.12500000 </v>
   <v>      -0.00000000       0.74900725       0.62500000 </v>
   <v>       0.50000000       0.25843916       0.12500000 </v>
   <v>       0.50000000       0.25099275       0.62500000 </v>
   <v>       0.50000000       0.74156084       0.12500000 </v>
   <v>       0.50000000       0.74900725       0.62500000 </v>
   <v>       0.00075945       0.25066528       0.37285101 </v>
   <v>       0.99924055       0.25066528       0.87714899 </v>
   <v>       0.99924055       0.74933472       0.37285101 </v>
   <v>       0.00075945       0.74933472       0.87714899 </v>
   <v>       0.50075945       0.25066528       0.37285101 </v>
   <v>       0.49924055       0.25066528       0.87714899 </v>
   <v>       0.49924055       0.74933472       0.37285101 </v>
   <v>       0.50075945       0.74933472       0.87714899 </v>
   <v>       0.25000000      -0.00000000       0.12500000 </v>
   <v>       0.25000000      -0.00000000       0.62500000 </v>
   <v>       0.25000000       0.50000000       0.12500000 </v>
   <v>       0.25000000       0.50000000       0.62500000 </v>
   <v>       0.75000000      -0.00000000       0.12500000 </v>
   <v>       0.75000000      -0.00000000       0.62500000 </v>
   <v>       0.75000000       0.50000000       0.12500000 </v>
   <v>       0.75000000       0.50000000       0.62500000 </v>
   <v>       0.25000000      -0.00000000       0.37346212 </v>
   <v>       0.25000000      -0.00000000       0.87653788 </v>
   <v>       0.25000000       0.50000000       0.37286764 </v>
   <v>       0.25000000       0.50000000       0.87713236 </v>
   <v>       0.75000000      -0.00000000       0.37346212 </v>
   <v>       0.75000000      -0.00000000       0.87653788 </v>
   <v>       0.75000000       0.50000000       0.37286764 </v>
   <v>       0.75000000       0.50000000       0.87713236 </v>
   <v>       0.50000000      -0.00000000       0.74883000 </v>
   <v>      -0.00000000       0.50000000       0.99883278 </v>
   <v>       0.74991565       0.24901263       0.75032744 </v>
   <v>       0.50000000       0.50000000       0.99883278 </v>
   <v>       0.75013795       0.75316827       0.00222123 </v>
   <v>       0.50000000       0.50000000       0.25116722 </v>
   <v>       0.50000000       0.50000000       0.49936190 </v>
   <v>       0.24986205       0.24683173       0.00222123 </v>
   <v>      -0.00000000       0.50000000       0.49936190 </v>
   <v>       0.24991565       0.75098737       0.49967256 </v>
   <v>       0.74986205       0.75316827       0.24777877 </v>
   <v>       0.74986205       0.24683173       0.00222123 </v>
   <v>       0.25013795       0.24683173       0.24777877 </v>
   <v>       0.74991565       0.75098737       0.49967256 </v>
   <v>       0.25013795       0.75316827       0.00222123 </v>
   <v>       0.24991565       0.24901263       0.75032744 </v>
   <v>       0.24986205       0.75316827       0.24777877 </v>
   <v>       0.25008435       0.75098737       0.75032744 </v>
   <v>       0.75013795       0.24683173       0.24777877 </v>
   <v>       0.25008435       0.24901263       0.49967256 </v>
   <v>       0.75008435       0.75098737       0.75032744 </v>
   <v>       0.50000000       0.50000000       0.75063810 </v>
   <v>      -0.00000000      -0.00000000       0.74883000 </v>
   <v>       0.50000000      -0.00000000       0.50117000 </v>
   <v>       0.75008435       0.24901263       0.49967256 </v>
   <v>      -0.00000000       0.50000000       0.75063810 </v>
   <v>      -0.00000000       0.50000000       0.25116722 </v>
   <v>      -0.00000000      -0.00000000       0.50117000 </v>
   <v>      -0.00000000      -0.00000000       0.25898592 </v>
   <v>       0.50000000      -0.00000000       0.25898592 </v>
   <v>      -0.00000000      -0.00000000       0.99101408 </v>
   <v>       0.50000000      -0.00000000       0.99101408 </v>
   <v>       0.36409123       0.38567755       0.99761898 </v>
   <v>       0.10792967       0.14176160       0.74953593 </v>
   <v>       0.11350686       0.63618888       0.25270722 </v>
   <v>       0.10903575       0.64178687       0.75117025 </v>
   <v>       0.61369807       0.13250549       0.23828814 </v>
   <v>       0.60792967       0.14176160       0.74953593 </v>
   <v>       0.61350686       0.63618888       0.25270722 </v>
   <v>       0.60903575       0.64178687       0.75117025 </v>
   <v>       0.38649314       0.36381112       0.25270722 </v>
   <v>       0.39096425       0.35821313       0.75117025 </v>
   <v>       0.38630193       0.86749451       0.23828814 </v>
   <v>       0.39207033       0.85823840       0.74953593 </v>
   <v>       0.88649314       0.36381112       0.25270722 </v>
   <v>       0.14166466       0.39061756       0.75155615 </v>
   <v>      -0.00000000       0.50000000       0.37600610 </v>
   <v>       0.89207033       0.85823840       0.74953593 </v>
   <v>       0.36758710       0.11353657       0.23937788 </v>
   <v>       0.35810855       0.10762417       0.74885567 </v>
   <v>       0.64166466       0.39061756       0.75155615 </v>
   <v>       0.35833534       0.60938244       0.75155615 </v>
   <v>       0.86758710       0.11353657       0.23937788 </v>
   <v>       0.85810855       0.10762417       0.74885567 </v>
   <v>       0.86409123       0.61432245       0.25238102 </v>
   <v>       0.89096425       0.35821313       0.75117025 </v>
   <v>       0.13590877       0.38567755       0.25238102 </v>
   <v>      -0.00000000      -0.00000000       0.62500000 </v>
   <v>       0.13241290       0.88646343       0.23937788 </v>
   <v>       0.14189145       0.89237583       0.74885567 </v>
   <v>       0.63590877       0.38567755       0.25238102 </v>
   <v>       0.63590877       0.61432245       0.99761898 </v>
   <v>       0.63241290       0.88646343       0.23937788 </v>
   <v>       0.64189145       0.89237583       0.74885567 </v>
   <v>       0.24834928       0.24052075       0.37331503 </v>
   <v>       0.35833534       0.39061756       0.49844385 </v>
   <v>       0.35810855       0.89237583       0.50114433 </v>
   <v>       0.86409123       0.38567755       0.99761898 </v>
   <v>       0.85833534       0.39061756       0.49844385 </v>
   <v>       0.88630193       0.13250549       0.01171186 </v>
   <v>       0.85810855       0.89237583       0.50114433 </v>
   <v>       0.13241290       0.11353657       0.01062212 </v>
   <v>       0.14189145       0.10762417       0.50114433 </v>
   <v>       0.13590877       0.61432245       0.99761898 </v>
   <v>       0.14166466       0.60938244       0.49844385 </v>
   <v>       0.63241290       0.11353657       0.01062212 </v>
   <v>       0.64189145       0.10762417       0.50114433 </v>
   <v>       0.75165072       0.24052075       0.87668497 </v>
   <v>       0.64166466       0.60938244       0.49844385 </v>
   <v>       0.11350686       0.36381112       0.99729278 </v>
   <v>       0.10903575       0.35821313       0.49882975 </v>
   <v>       0.11369807       0.86749451       0.01171186 </v>
   <v>       0.10792967       0.85823840       0.50046407 </v>
   <v>       0.61350686       0.36381112       0.99729278 </v>
   <v>       0.60903575       0.35821313       0.49882975 </v>
   <v>       0.61369807       0.86749451       0.01171186 </v>
   <v>       0.60792967       0.85823840       0.50046407 </v>
   <v>       0.38630193       0.13250549       0.01171186 </v>
   <v>       0.39207033       0.14176160       0.50046407 </v>
   <v>       0.38649314       0.63618888       0.99729278 </v>
   <v>       0.39096425       0.64178687       0.49882975 </v>
   <v>       0.88630193       0.86749451       0.23828814 </v>
   <v>       0.89207033       0.14176160       0.50046407 </v>
   <v>       0.88649314       0.63618888       0.99729278 </v>
   <v>       0.89096425       0.64178687       0.49882975 </v>
   <v>       0.50000000      -0.00000000       0.62500000 </v>
   <v>      -0.00000000      -0.00000000       0.87313830 </v>
   <v>      -0.00000000       0.50000000       0.12500000 </v>
   <v>       0.24834928       0.75947925       0.87668497 </v>
   <v>       0.50000000      -0.00000000       0.37686170 </v>
   <v>       0.86758710       0.88646343       0.01062212 </v>
   <v>       0.50000000       0.50000000       0.12500000 </v>
   <v>       0.50000000       0.50000000       0.62500000 </v>
   <v>       0.85833534       0.60938244       0.75155615 </v>
   <v>      -0.00000000      -0.00000000       0.37686170 </v>
   <v>      -0.00000000       0.50000000       0.87399390 </v>
   <v>      -0.00000000       0.50000000       0.62500000 </v>
   <v>       0.36409123       0.61432245       0.25238102 </v>
   <v>       0.50000000      -0.00000000       0.87313830 </v>
   <v>       0.50000000       0.50000000       0.37600610 </v>
   <v>       0.50000000       0.50000000       0.87399390 </v>
   <v>       0.36758710       0.88646343       0.01062212 </v>
   <v>       0.25165072       0.24052075       0.87668497 </v>
   <v>       0.25165072       0.75947925       0.37331503 </v>
   <v>       0.11369807       0.13250549       0.23828814 </v>
   <v>       0.74834928       0.24052075       0.37331503 </v>
   <v>       0.75165072       0.75947925       0.37331503 </v>
   <v>       0.74834928       0.75947925       0.87668497 </v>
   <v>       0.25000000       0.26311871       0.12500000 </v>
   <v>       0.25000000       0.25104197       0.62500000 </v>
   <v>       0.25000000       0.73688129       0.12500000 </v>
   <v>       0.25000000       0.74895803       0.62500000 </v>
   <v>       0.75000000       0.26311871       0.12500000 </v>
   <v>       0.75000000       0.25104197       0.62500000 </v>
   <v>       0.75000000       0.73688129       0.12500000 </v>
   <v>       0.75000000       0.74895803       0.62500000 </v>
  </varray>
 </structure>
</modeling>
