       N       E                     dE             d eps       ncg     rms          rms(c)
DAV:   1    -0.108681330881E+04   -0.10868E+04   -0.13660E-02 13480   0.275E-01    0.239E-02
RMM:   2    -0.108681330837E+04    0.43919E-06   -0.14286E-05  6473   0.639E-03    0.395E-02
RMM:   3    -0.108681330866E+04   -0.28951E-06   -0.45223E-06  5587   0.394E-03    0.323E-03
RMM:   4    -0.108681330878E+04   -0.11611E-06   -0.13826E-06  3051   0.193E-03    0.230E-03
RMM:   5    -0.108681330885E+04   -0.69675E-07   -0.86372E-07  2804   0.210E-03    0.272E-03
RMM:   6    -0.108681330889E+04   -0.44223E-07   -0.31231E-07  1942   0.167E-03    0.111E-03
RMM:   7    -0.108681330891E+04   -0.14596E-07   -0.19515E-07  1865   0.173E-03    0.454E-04
RMM:   8    -0.108681330892E+04   -0.90076E-08   -0.55231E-08  1474   0.164E-03
   1 F= -.10868133E+04 E0= -.10868133E+04  d E =-.108681E+04  mag=    60.0000
       N       E                     dE             d eps       ncg     rms          rms(c)
DAV:   1    -0.108681313035E+04    0.17856E-03   -0.34635E-01 12504   0.692E-01    0.288E-01
RMM:   2    -0.108681425959E+04   -0.11292E-02   -0.10527E-02 12309   0.141E-01    0.222E-01
RMM:   3    -0.108681430196E+04   -0.42363E-04   -0.54885E-04 10615   0.436E-02    0.126E-01
RMM:   4    -0.108681423310E+04    0.68856E-04   -0.16602E-04  7674   0.173E-02    0.689E-02
RMM:   5    -0.108681421887E+04    0.14234E-04   -0.71048E-05  7266   0.116E-02    0.390E-02
RMM:   6    -0.108681421957E+04   -0.70533E-06   -0.17717E-05  7068   0.739E-03    0.218E-02
RMM:   7    -0.108681421931E+04    0.26297E-06   -0.80115E-06  6309   0.381E-03    0.991E-03
RMM:   8    -0.108681421884E+04    0.46979E-06   -0.38967E-06  5731   0.360E-03
   2 F= -.10868142E+04 E0= -.10868142E+04  d E =-.909922E-03  mag=    60.0000
       N       E                     dE             d eps       ncg     rms          rms(c)
DAV:   1    -0.108681421616E+04    0.31436E-05   -0.11035E-03 12368   0.393E-02    0.161E-02
RMM:   2    -0.108681421978E+04   -0.36121E-05   -0.32060E-05  6487   0.885E-03    0.136E-02
RMM:   3    -0.108681422035E+04   -0.57524E-06   -0.40078E-06  5802   0.381E-03    0.681E-03
RMM:   4    -0.108681422020E+04    0.15176E-06   -0.51772E-07  2731   0.197E-03    0.477E-03
RMM:   5    -0.108681422008E+04    0.12232E-06   -0.14273E-07  1734   0.187E-03    0.146E-03
RMM:   6    -0.108681422009E+04   -0.88621E-08   -0.41220E-08  1301   0.184E-03    0.390E-04
RMM:   7    -0.108681422010E+04   -0.11103E-07   -0.47445E-08  1086   0.184E-03    0.228E-04
RMM:   8    -0.108681422011E+04   -0.95606E-08   -0.29120E-08   982   0.183E-03
   3 F= -.10868142E+04 E0= -.10868142E+04  d E =-.911191E-03  mag=    60.0000
       N       E                     dE             d eps       ncg     rms          rms(c)
DAV:   1    -0.108681397473E+04    0.24537E-03   -0.30859E-01 12480   0.662E-01    0.210E-01
RMM:   2    -0.108681488839E+04   -0.91366E-03   -0.83806E-03 12356   0.123E-01    0.137E-01
RMM:   3    -0.108681493059E+04   -0.42200E-04   -0.43045E-04  9913   0.405E-02    0.776E-02
RMM:   4    -0.108681490168E+04    0.28911E-04   -0.10982E-04  7240   0.143E-02    0.399E-02
RMM:   5    -0.108681489869E+04    0.29912E-05   -0.42985E-05  7090   0.955E-03    0.253E-02
RMM:   6    -0.108681490033E+04   -0.16398E-05   -0.14682E-05  6883   0.626E-03    0.136E-02
RMM:   7    -0.108681490116E+04   -0.83166E-06   -0.71993E-06  6030   0.391E-03    0.740E-03
RMM:   8    -0.108681490174E+04   -0.58192E-06   -0.40418E-06  5315   0.338E-03
   4 F= -.10868149E+04 E0= -.10868149E+04  d E =-.681634E-03  mag=    60.0000
       N       E                     dE             d eps       ncg     rms          rms(c)
DAV:   1    -0.108681480191E+04    0.99253E-04   -0.56032E-02 12400   0.282E-01    0.896E-02
RMM:   2    -0.108681497025E+04   -0.16834E-03   -0.15423E-03 12225   0.522E-02    0.589E-02
RMM:   3    -0.108681497637E+04   -0.61234E-05   -0.67991E-05  7056   0.176E-02    0.332E-02
RMM:   4    -0.108681497248E+04    0.38903E-05   -0.26520E-05  6956   0.723E-03    0.178E-02
RMM:   5    -0.108681497234E+04    0.13958E-06   -0.10282E-05  6247   0.514E-03    0.212E-02
RMM:   6    -0.108681497280E+04   -0.45267E-06   -0.47967E-06  5801   0.342E-03    0.538E-03
RMM:   7    -0.108681497304E+04   -0.23936E-06   -0.16490E-06  3990   0.260E-03    0.301E-03
RMM:   8    -0.108681497316E+04   -0.12633E-06   -0.76002E-07  2908   0.205E-03
   5 F= -.10868150E+04 E0= -.10868150E+04  d E =-.753055E-03  mag=    60.0000
       N       E                     dE             d eps       ncg     rms          rms(c)
DAV:   1    -0.108681501303E+04   -0.39994E-04   -0.17894E-01 12672   0.501E-01    0.128E-01
RMM:   2    -0.108681548300E+04   -0.46997E-03   -0.47410E-03 12376   0.907E-02    0.875E-02
RMM:   3    -0.108681549190E+04   -0.89047E-05   -0.21588E-04  7839   0.302E-02    0.526E-02
RMM:   4    -0.108681548200E+04    0.99023E-05   -0.62017E-05  7031   0.114E-02    0.301E-02
RMM:   5    -0.108681548149E+04    0.51547E-06   -0.26174E-05  6855   0.773E-03    0.270E-02
RMM:   6    -0.108681548259E+04   -0.11043E-05   -0.10504E-05  6353   0.496E-03    0.825E-03
RMM:   7    -0.108681548312E+04   -0.53181E-06   -0.47527E-06  5200   0.348E-03    0.509E-03
RMM:   8    -0.108681548342E+04   -0.29338E-06   -0.27159E-06  4079   0.268E-03
   6 F= -.10868155E+04 E0= -.10868155E+04  d E =-.510254E-03  mag=    60.0000
