<?xml version="1.0" encoding="ISO-8859-1"?>
<modeling>
 <generator>
  <i name="program" type="string">vasp </i>
  <i name="version" type="string">5.4.1  </i>
  <i name="subversion" type="string">05Feb16 (build Jan 25 2017 20:16:33) complex                          parallel </i>
  <i name="platform" type="string">BWXE6 </i>
  <i name="date" type="string">2019 07 01 </i>
  <i name="time" type="string">15:13:15 </i>
 </generator>
 <incar>
  <i type="string" name="SYSTEM"> STF</i>
  <i type="string" name="PREC">normal</i>
  <i type="string" name="ALGO"> Fast</i>
  <i type="int" name="ISPIN">     2</i>
  <i type="int" name="NELM">    40</i>
  <i type="int" name="NELMIN">     8</i>
  <i type="int" name="IBRION">     2</i>
  <i name="EDIFF">      0.00010000</i>
  <i name="EDIFFG">     -0.03000000</i>
  <i type="int" name="NSW">    30</i>
  <i type="int" name="ISIF">     3</i>
  <i name="ENCUT">    520.00000000</i>
  <i type="int" name="NBANDS">   768</i>
  <v name="MAGMOM">      0.60000000      0.60000000      0.60000000      0.60000000      0.60000000      0.60000000      0.60000000      0.60000000      0.60000000      0.60000000      0.60000000      0.60000000      0.60000000      0.60000000      0.60000000      0.60000000      0.60000000      0.60000000      0.60000000      0.60000000
      0.60000000      0.60000000      0.60000000      0.60000000      0.60000000      0.60000000      0.60000000      0.60000000      0.60000000      0.60000000      0.60000000      0.60000000      0.60000000      0.60000000      0.60000000      0.60000000      0.60000000      0.60000000      0.60000000      0.60000000
      5.00000000      5.00000000      5.00000000      5.00000000      5.00000000      5.00000000      5.00000000      5.00000000      5.00000000      5.00000000      5.00000000      5.00000000      5.00000000      5.00000000      5.00000000      5.00000000      5.00000000      5.00000000      5.00000000      5.00000000
      5.00000000      5.00000000      5.00000000      5.00000000      0.60000000      0.60000000      0.60000000      0.60000000      0.60000000      0.60000000      0.60000000      0.60000000      0.60000000      0.60000000      0.60000000      0.60000000      0.60000000      0.60000000      0.60000000      0.60000000
      0.60000000      0.60000000      0.60000000      0.60000000      0.60000000      0.60000000      0.60000000      0.60000000      0.60000000      0.60000000      0.60000000      0.60000000      0.60000000      0.60000000      0.60000000      0.60000000      0.60000000      0.60000000      0.60000000      0.60000000
      0.60000000      0.60000000      0.60000000      0.60000000      0.60000000      0.60000000      0.60000000      0.60000000      0.60000000      0.60000000      0.60000000      0.60000000      0.60000000      0.60000000      0.60000000      0.60000000      0.60000000      0.60000000      0.60000000      0.60000000
      0.60000000      0.60000000      0.60000000      0.60000000      0.60000000      0.60000000      0.60000000      0.60000000      0.60000000      0.60000000      0.60000000      0.60000000      0.60000000      0.60000000      0.60000000      0.60000000      0.60000000      0.60000000      0.60000000      0.60000000
      0.60000000      0.60000000      0.60000000      0.60000000      0.60000000      0.60000000      0.60000000      0.60000000</v>
  <i type="string" name="LREAL"> Auto</i>
  <i type="int" name="ISMEAR">     0</i>
  <i name="SIGMA">      0.05000000</i>
  <i type="int" name="LMAXMIX">     4</i>
  <v type="int" name="KPOINT_BSE">    -1     0     0     0</v>
  <i type="int" name="NELM">    40</i>
  <i type="logical" name="LDAU"> T  </i>
  <v type="int" name="LDAUTYPE">     2</v>
  <v type="int" name="LDAUL">     0     2     2     0</v>
  <v name="LDAUU">      0.00000000      3.00000000      5.00000000      0.00000000</v>
  <v name="LDAUJ">      0.00000000      0.00000000      0.00000000      0.00000000</v>
  <i type="int" name="LDAUPRINT">     1</i>
 </incar>
 <kpoints>
  <generation param="Monkhorst-Pack">
   <v type="int" name="divisions">       2        2        2 </v>
   <v name="usershift">      0.00000000       0.00000000       0.00000000 </v>
   <v name="genvec1">      0.50000000      -0.00000000       0.00000000 </v>
   <v name="genvec2">      0.00000000       0.50000000       0.00000000 </v>
   <v name="genvec3">      0.00000000       0.00000000       0.50000000 </v>
   <v name="shift">      0.50000000       0.50000000       0.50000000 </v>
  </generation>
  <varray name="kpointlist" >
   <v>       0.25000000       0.25000000       0.25000000 </v>
   <v>      -0.25000000       0.25000000       0.25000000 </v>
   <v>       0.25000000      -0.25000000       0.25000000 </v>
   <v>      -0.25000000      -0.25000000       0.25000000 </v>
  </varray>
  <varray name="weights" >
   <v>       0.25000000 </v>
   <v>       0.25000000 </v>
   <v>       0.25000000 </v>
   <v>       0.25000000 </v>
  </varray>
 </kpoints>
 <parameters>
  <separator name="general" >
   <i type="string" name="SYSTEM">STF</i>
   <i type="logical" name="LCOMPAT"> F  </i>
  </separator>
  <separator name="electronic" >
   <i type="string" name="PREC">normal</i>
   <i name="ENMAX">    520.00000000</i>
   <i name="ENAUG">    605.39200000</i>
   <i name="EDIFF">      0.00010000</i>
   <i type="int" name="IALGO">    68</i>
   <i type="int" name="IWAVPR">    11</i>
   <i type="int" name="NBANDS">   768</i>
   <i name="NELECT">   1048.00000000</i>
   <i type="int" name="TURBO">     0</i>
   <i type="int" name="IRESTART">     0</i>
   <i type="int" name="NREBOOT">     0</i>
   <i type="int" name="NMIN">     0</i>
   <i name="EREF">      0.00000000</i>
   <separator name="electronic smearing" >
    <i type="int" name="ISMEAR">     0</i>
    <i name="SIGMA">      0.05000000</i>
    <i name="KSPACING">      0.50000000</i>
    <i type="logical" name="KGAMMA"> T  </i>
   </separator>
   <separator name="electronic projectors" >
    <i type="logical" name="LREAL"> T  </i>
    <v name="ROPT">     -0.00050000     -0.00050000     -0.00050000     -0.00050000</v>
    <i type="int" name="LMAXPAW">  -100</i>
    <i type="int" name="LMAXMIX">     4</i>
    <i type="logical" name="NLSPLINE"> F  </i>
   </separator>
   <separator name="electronic startup" >
    <i type="int" name="ISTART">     1</i>
    <i type="int" name="ICHARG">     0</i>
    <i type="int" name="INIWAV">     1</i>
   </separator>
   <separator name="electronic spin" >
    <i type="int" name="ISPIN">     2</i>
    <i type="logical" name="LNONCOLLINEAR"> F  </i>
    <v name="MAGMOM">      0.60000000      0.60000000      0.60000000      0.60000000      0.60000000      0.60000000      0.60000000      0.60000000      0.60000000      0.60000000      0.60000000      0.60000000      0.60000000      0.60000000      0.60000000      0.60000000      0.60000000      0.60000000      0.60000000      0.60000000
      0.60000000      0.60000000      0.60000000      0.60000000      0.60000000      0.60000000      0.60000000      0.60000000      0.60000000      0.60000000      0.60000000      0.60000000      0.60000000      0.60000000      0.60000000      0.60000000      0.60000000      0.60000000      0.60000000      0.60000000
      5.00000000      5.00000000      5.00000000      5.00000000      5.00000000      5.00000000      5.00000000      5.00000000      5.00000000      5.00000000      5.00000000      5.00000000      5.00000000      5.00000000      5.00000000      5.00000000      5.00000000      5.00000000      5.00000000      5.00000000
      5.00000000      5.00000000      5.00000000      5.00000000      0.60000000      0.60000000      0.60000000      0.60000000      0.60000000      0.60000000      0.60000000      0.60000000      0.60000000      0.60000000      0.60000000      0.60000000      0.60000000      0.60000000      0.60000000      0.60000000
      0.60000000      0.60000000      0.60000000      0.60000000      0.60000000      0.60000000      0.60000000      0.60000000      0.60000000      0.60000000      0.60000000      0.60000000      0.60000000      0.60000000      0.60000000      0.60000000      0.60000000      0.60000000      0.60000000      0.60000000
      0.60000000      0.60000000      0.60000000      0.60000000      0.60000000      0.60000000      0.60000000      0.60000000      0.60000000      0.60000000      0.60000000      0.60000000      0.60000000      0.60000000      0.60000000      0.60000000      0.60000000      0.60000000      0.60000000      0.60000000
      0.60000000      0.60000000      0.60000000      0.60000000      0.60000000      0.60000000      0.60000000      0.60000000      0.60000000      0.60000000      0.60000000      0.60000000      0.60000000      0.60000000      0.60000000      0.60000000      0.60000000      0.60000000      0.60000000      0.60000000
      0.60000000      0.60000000      0.60000000      0.60000000      0.60000000      0.60000000      0.60000000      0.60000000</v>
    <i name="NUPDOWN">     -1.00000000</i>
    <i type="logical" name="LSORBIT"> F  </i>
    <v name="SAXIS">      0.00000000      0.00000000      1.00000000</v>
    <i type="logical" name="LSPIRAL"> F  </i>
    <v name="QSPIRAL">      0.00000000      0.00000000      0.00000000</v>
    <i type="logical" name="LZEROZ"> F  </i>
   </separator>
   <separator name="electronic exchange-correlation" >
    <i type="logical" name="LASPH"> F  </i>
    <i type="logical" name="LMETAGGA"> F  </i>
   </separator>
   <separator name="electronic convergence" >
    <i type="int" name="NELM">    40</i>
    <i type="int" name="NELMDL">     0</i>
    <i type="int" name="NELMIN">     8</i>
    <i name="ENINI">    520.00000000</i>
    <separator name="electronic convergence detail" >
     <i type="logical" name="LDIAG"> T  </i>
     <i type="logical" name="LSUBROT"> F  </i>
     <i name="WEIMIN">      0.00100000</i>
     <i name="EBREAK">      0.00000003</i>
     <i name="DEPER">      0.30000000</i>
     <i type="int" name="NRMM">     4</i>
     <i name="TIME">      0.40000000</i>
    </separator>
   </separator>
   <separator name="electronic mixer" >
    <i name="AMIX">      0.40000000</i>
    <i name="BMIX">      1.00000000</i>
    <i name="AMIN">      0.10000000</i>
    <i name="AMIX_MAG">      1.60000000</i>
    <i name="BMIX_MAG">      1.00000000</i>
    <separator name="electronic mixer details" >
     <i type="int" name="IMIX">     4</i>
     <i type="logical" name="MIXFIRST"> F  </i>
     <i type="int" name="MAXMIX">   -45</i>
     <i name="WC">    100.00000000</i>
     <i type="int" name="INIMIX">     1</i>
     <i type="int" name="MIXPRE">     1</i>
     <i type="int" name="MREMOVE">     5</i>
    </separator>
   </separator>
   <separator name="electronic dipolcorrection" >
    <i type="logical" name="LDIPOL"> F  </i>
    <i type="logical" name="LMONO"> F  </i>
    <i type="int" name="IDIPOL">     0</i>
    <i name="EPSILON">      1.00000000</i>
    <v name="DIPOL">   -100.00000000   -100.00000000   -100.00000000</v>
    <i name="EFIELD">      0.00000000</i>
   </separator>
  </separator>
  <separator name="grids" >
   <i type="int" name="NGX">    64</i>
   <i type="int" name="NGY">    64</i>
   <i type="int" name="NGZ">    90</i>
   <i type="int" name="NGXF">   128</i>
   <i type="int" name="NGYF">   128</i>
   <i type="int" name="NGZF">   180</i>
   <i type="logical" name="ADDGRID"> F  </i>
  </separator>
  <separator name="ionic" >
   <i type="int" name="NSW">    30</i>
   <i type="int" name="IBRION">     2</i>
   <i type="int" name="ISIF">     3</i>
   <i name="PSTRESS">      0.00000000</i>
   <i name="EDIFFG">     -0.03000000</i>
   <i type="int" name="NFREE">     1</i>
   <i name="POTIM">      0.50000000</i>
   <i name="SMASS">     -3.00000000</i>
   <i name="SCALEE">      1.00000000</i>
  </separator>
  <separator name="ionic md" >
   <i name="TEBEG">      0.00010000</i>
   <i name="TEEND">      0.00010000</i>
   <i type="int" name="NBLOCK">     1</i>
   <i type="int" name="KBLOCK">    30</i>
   <i type="int" name="NPACO">   256</i>
   <i name="APACO">     16.00000000</i>
  </separator>
  <separator name="symmetry" >
   <i type="int" name="ISYM">     2</i>
   <i name="SYMPREC">      0.00001000</i>
  </separator>
  <separator name="dos" >
   <i type="logical" name="LORBIT"> F  </i>
   <v name="RWIGS">     -1.00000000     -1.00000000     -1.00000000     -1.00000000</v>
   <i type="int" name="NEDOS">   301</i>
   <i name="EMIN">     10.00000000</i>
   <i name="EMAX">    -10.00000000</i>
   <i name="EFERMI">      0.00000000</i>
  </separator>
  <separator name="writing" >
   <i type="int" name="NWRITE">     2</i>
   <i type="logical" name="LWAVE"> T  </i>
   <i type="logical" name="LCHARG"> T  </i>
   <i type="logical" name="LPARD"> F  </i>
   <i type="logical" name="LVTOT"> F  </i>
   <i type="logical" name="LVHAR"> F  </i>
   <i type="logical" name="LELF"> F  </i>
   <i type="logical" name="LOPTICS"> F  </i>
   <v name="STM">      0.00000000      0.00000000      0.00000000      0.00000000      0.00000000      0.00000000      0.00000000</v>
  </separator>
  <separator name="performance" >
   <i type="int" name="NPAR">     2</i>
   <i type="int" name="NSIM">     4</i>
   <i type="int" name="NBLK">    -1</i>
   <i type="logical" name="LPLANE"> T  </i>
   <i type="logical" name="LSCALAPACK"> T  </i>
   <i type="logical" name="LSCAAWARE"> F  </i>
   <i type="logical" name="LSCALU"> F  </i>
   <i type="logical" name="LASYNC"> F  </i>
   <i type="logical" name="LORBITALREAL"> F  </i>
  </separator>
  <separator name="miscellaneous" >
   <i type="int" name="IDIOT">     3</i>
   <i type="logical" name="LMUSIC"> F  </i>
   <v name="POMASS">     87.62000000     47.88000000     55.84700000     16.00000000</v>
   <v name="DARWINR">      0.00000000      0.00000000      0.00000000      0.00000000</v>
   <v name="DARWINV">      1.00000000      1.00000000      1.00000000      1.00000000</v>
   <i type="logical" name="LCORR"> T  </i>
  </separator>
  <i type="logical" name="GGA_COMPAT"> T  </i>
  <i type="logical" name="LBERRY"> F  </i>
  <i type="int" name="ICORELEVEL">     0</i>
  <i type="logical" name="LDAU"> T  </i>
  <v type="int" name="LDAUTYPE">     2</v>
  <v type="int" name="LDAUL">     0</v>
  <v name="LDAUU">      0.00000000</v>
  <v name="LDAUJ">      0.00000000</v>
  <i type="int" name="LDAUPRINT">     1</i>
  <i type="int" name="I_CONSTRAINED_M">     0</i>
  <separator name="electronic exchange-correlation" >
   <i type="string" name="GGA">--</i>
   <i type="int" name="VOSKOWN">     0</i>
   <i type="logical" name="LHFCALC"> F  </i>
   <i type="string" name="PRECFOCK"></i>
   <i type="logical" name="LSYMGRAD"> F  </i>
   <i type="logical" name="LHFONE"> F  </i>
   <i type="logical" name="LRHFCALC"> F  </i>
   <i type="logical" name="LTHOMAS"> F  </i>
   <i type="logical" name="LMODELHF"> F  </i>
   <i name="ENCUT4O">     -1.00000000</i>
   <i type="int" name="EXXOEP">     0</i>
   <i type="int" name="FOURORBIT">     0</i>
   <i name="AEXX">      0.00000000</i>
   <i name="HFALPHA">      0.00000000</i>
   <i name="MCALPHA">      0.00000000</i>
   <i name="ALDAX">      1.00000000</i>
   <i name="AGGAX">      1.00000000</i>
   <i name="ALDAC">      1.00000000</i>
   <i name="AGGAC">      1.00000000</i>
   <i type="int" name="NKREDX">     1</i>
   <i type="int" name="NKREDY">     1</i>
   <i type="int" name="NKREDZ">     1</i>
   <i type="logical" name="SHIFTRED"> F  </i>
   <i type="logical" name="ODDONLY"> F  </i>
   <i type="logical" name="EVENONLY"> F  </i>
   <i type="int" name="LMAXFOCK">     0</i>
   <i type="int" name="NMAXFOCKAE">     0</i>
   <i type="logical" name="LFOCKAEDFT"> F  </i>
   <i name="HFSCREEN">      0.00000000</i>
   <i name="HFSCREENC">      0.00000000</i>
   <i type="int" name="NBANDSGWLOW">     0</i>
  </separator>
  <separator name="vdW DFT" >
   <i type="logical" name="LUSE_VDW"> F  </i>
   <i name="Zab_VDW">     -0.84910000</i>
   <i name="PARAM1">      0.12340000</i>
   <i name="PARAM2">      1.00000000</i>
   <i name="PARAM3">      0.00000000</i>
  </separator>
  <separator name="model GW" >
   <i type="int" name="MODEL_GW">     0</i>
   <i name="MODEL_EPS0">      8.08055333</i>
   <i name="MODEL_ALPHA">      1.00000000</i>
  </separator>
  <separator name="linear response parameters" >
   <i type="logical" name="LEPSILON"> F  </i>
   <i type="logical" name="LRPA"> F  </i>
   <i type="logical" name="LNABLA"> F  </i>
   <i type="logical" name="LVEL"> F  </i>
   <i type="int" name="KINTER">     0</i>
   <i name="CSHIFT">      0.10000000</i>
   <i name="OMEGAMAX">     -1.00000000</i>
   <i name="DEG_THRESHOLD">      0.00200000</i>
  </separator>
  <separator name="orbital magnetization" >
   <i type="logical" name="NUCIND"> F  </i>
   <v name="MAGPOS">      0.00000000      0.00000000      0.00000000</v>
   <i type="logical" name="LNICSALL"> T  </i>
   <i type="logical" name="ORBITALMAG"> F  </i>
   <i type="logical" name="LMAGBLOCH"> F  </i>
   <i type="logical" name="LCHIMAG"> F  </i>
   <i type="logical" name="LGAUGE"> T  </i>
   <i type="int" name="MAGATOM">     0</i>
   <v name="MAGDIPOL">      0.00000000      0.00000000      0.00000000</v>
   <v name="AVECCONST">      0.00000000      0.00000000      0.00000000</v>
  </separator>
  <separator name="response functions" >
   <i type="logical" name="LADDER"> F  </i>
   <i type="logical" name="LFXC"> F  </i>
   <i type="logical" name="LHARTREE"> T  </i>
   <i type="int" name="IBSE">     0</i>
   <v type="int" name="KPOINT">    -1     0     0     0</v>
   <i type="logical" name="LTCTE"> F  </i>
   <i type="logical" name="LTETE"> F  </i>
   <i type="logical" name="LTRIPLET"> F  </i>
   <i type="logical" name="LFXCEPS"> F  </i>
   <i type="logical" name="LFXHEG"> F  </i>
   <i type="int" name="NATURALO">     0</i>
   <i type="logical" name="L2ORDER"> F  </i>
   <i type="logical" name="LUSEW"> F  </i>
   <i name="ENCUTGW">     -2.00000000</i>
   <i name="ENCUTGWSOFT">     -2.00000000</i>
   <i name="ENCUTLF">     -1.00000000</i>
   <i type="int" name="LMAXMP2">    -1</i>
   <i name="SCISSOR">      0.00000000</i>
   <i type="int" name="NOMEGA">     0</i>
   <i type="int" name="NOMEGAR">     0</i>
   <i type="int" name="NBANDSGW">    -1</i>
   <i type="int" name="NBANDSO">    -1</i>
   <i type="int" name="NBANDSV">    -1</i>
   <i type="int" name="NELM">    40</i>
   <i type="int" name="NELMHF">     1</i>
   <i type="int" name="DIM">     3</i>
   <i type="int" name="ANTIRES">     0</i>
   <i name="OMEGAMAX">    -30.00000000</i>
   <i name="OMEGAMIN">    -30.00000000</i>
   <i name="OMEGATL">   -200.00000000</i>
   <i type="int" name="OMEGAGRID">     0</i>
   <i name="CSHIFT">     -0.10000000</i>
   <i type="logical" name="SELFENERGY"> F  </i>
   <i type="logical" name="LSPECTRAL"> F  </i>
   <i type="logical" name="LSPECTRALGW"> F  </i>
   <i type="logical" name="LSINGLES"> F  </i>
   <i type="logical" name="LFERMIGW"> F  </i>
   <i type="logical" name="ODDONLYGW"> F  </i>
   <i type="logical" name="EVENONLYGW"> F  </i>
   <i type="int" name="NKREDLFX">     1</i>
   <i type="int" name="NKREDLFY">     1</i>
   <i type="int" name="NKREDLFZ">     1</i>
   <i type="int" name="MAXMEM">  1800</i>
   <i type="int" name="TELESCOPE">     0</i>
   <i type="int" name="TAUPAR">     1</i>
   <i type="int" name="OMEGAPAR">    -1</i>
   <i name="LAMBDA">      1.00000000</i>
  </separator>
  <separator name="External order field" >
   <i name="OFIELD_KAPPA">      0.00000000</i>
   <v name="OFIELD_K">      0.00000000      0.00000000      0.00000000</v>
   <i name="OFIELD_Q6_NEAR">      0.00000000</i>
   <i name="OFIELD_Q6_FAR">      0.00000000</i>
   <i name="OFIELD_A">      0.00000000</i>
  </separator>
 </parameters>
 <atominfo>
  <atoms>     148 </atoms>
  <types>       4 </types>
  <array name="atoms" >
   <dimension dim="1">ion</dimension>
   <field type="string">element</field>
   <field type="int">atomtype</field>
   <set>
    <rc><c>Sr</c><c>   1</c></rc>
    <rc><c>Sr</c><c>   1</c></rc>
    <rc><c>Sr</c><c>   1</c></rc>
    <rc><c>Sr</c><c>   1</c></rc>
    <rc><c>Sr</c><c>   1</c></rc>
    <rc><c>Sr</c><c>   1</c></rc>
    <rc><c>Sr</c><c>   1</c></rc>
    <rc><c>Sr</c><c>   1</c></rc>
    <rc><c>Sr</c><c>   1</c></rc>
    <rc><c>Sr</c><c>   1</c></rc>
    <rc><c>Sr</c><c>   1</c></rc>
    <rc><c>Sr</c><c>   1</c></rc>
    <rc><c>Sr</c><c>   1</c></rc>
    <rc><c>Sr</c><c>   1</c></rc>
    <rc><c>Sr</c><c>   1</c></rc>
    <rc><c>Sr</c><c>   1</c></rc>
    <rc><c>Sr</c><c>   1</c></rc>
    <rc><c>Sr</c><c>   1</c></rc>
    <rc><c>Sr</c><c>   1</c></rc>
    <rc><c>Sr</c><c>   1</c></rc>
    <rc><c>Sr</c><c>   1</c></rc>
    <rc><c>Sr</c><c>   1</c></rc>
    <rc><c>Sr</c><c>   1</c></rc>
    <rc><c>Sr</c><c>   1</c></rc>
    <rc><c>Sr</c><c>   1</c></rc>
    <rc><c>Sr</c><c>   1</c></rc>
    <rc><c>Sr</c><c>   1</c></rc>
    <rc><c>Sr</c><c>   1</c></rc>
    <rc><c>Sr</c><c>   1</c></rc>
    <rc><c>Sr</c><c>   1</c></rc>
    <rc><c>Sr</c><c>   1</c></rc>
    <rc><c>Sr</c><c>   1</c></rc>
    <rc><c>Ti</c><c>   2</c></rc>
    <rc><c>Ti</c><c>   2</c></rc>
    <rc><c>Ti</c><c>   2</c></rc>
    <rc><c>Ti</c><c>   2</c></rc>
    <rc><c>Ti</c><c>   2</c></rc>
    <rc><c>Ti</c><c>   2</c></rc>
    <rc><c>Ti</c><c>   2</c></rc>
    <rc><c>Ti</c><c>   2</c></rc>
    <rc><c>Fe</c><c>   3</c></rc>
    <rc><c>Fe</c><c>   3</c></rc>
    <rc><c>Fe</c><c>   3</c></rc>
    <rc><c>Fe</c><c>   3</c></rc>
    <rc><c>Fe</c><c>   3</c></rc>
    <rc><c>Fe</c><c>   3</c></rc>
    <rc><c>Fe</c><c>   3</c></rc>
    <rc><c>Fe</c><c>   3</c></rc>
    <rc><c>Fe</c><c>   3</c></rc>
    <rc><c>Fe</c><c>   3</c></rc>
    <rc><c>Fe</c><c>   3</c></rc>
    <rc><c>Fe</c><c>   3</c></rc>
    <rc><c>Fe</c><c>   3</c></rc>
    <rc><c>Fe</c><c>   3</c></rc>
    <rc><c>Fe</c><c>   3</c></rc>
    <rc><c>Fe</c><c>   3</c></rc>
    <rc><c>Fe</c><c>   3</c></rc>
    <rc><c>Fe</c><c>   3</c></rc>
    <rc><c>Fe</c><c>   3</c></rc>
    <rc><c>Fe</c><c>   3</c></rc>
    <rc><c>Fe</c><c>   3</c></rc>
    <rc><c>Fe</c><c>   3</c></rc>
    <rc><c>Fe</c><c>   3</c></rc>
    <rc><c>Fe</c><c>   3</c></rc>
    <rc><c>O </c><c>   4</c></rc>
    <rc><c>O </c><c>   4</c></rc>
    <rc><c>O </c><c>   4</c></rc>
    <rc><c>O </c><c>   4</c></rc>
    <rc><c>O </c><c>   4</c></rc>
    <rc><c>O </c><c>   4</c></rc>
    <rc><c>O </c><c>   4</c></rc>
    <rc><c>O </c><c>   4</c></rc>
    <rc><c>O </c><c>   4</c></rc>
    <rc><c>O </c><c>   4</c></rc>
    <rc><c>O </c><c>   4</c></rc>
    <rc><c>O </c><c>   4</c></rc>
    <rc><c>O </c><c>   4</c></rc>
    <rc><c>O </c><c>   4</c></rc>
    <rc><c>O </c><c>   4</c></rc>
    <rc><c>O </c><c>   4</c></rc>
    <rc><c>O </c><c>   4</c></rc>
    <rc><c>O </c><c>   4</c></rc>
    <rc><c>O </c><c>   4</c></rc>
    <rc><c>O </c><c>   4</c></rc>
    <rc><c>O </c><c>   4</c></rc>
    <rc><c>O </c><c>   4</c></rc>
    <rc><c>O </c><c>   4</c></rc>
    <rc><c>O </c><c>   4</c></rc>
    <rc><c>O </c><c>   4</c></rc>
    <rc><c>O </c><c>   4</c></rc>
    <rc><c>O </c><c>   4</c></rc>
    <rc><c>O </c><c>   4</c></rc>
    <rc><c>O </c><c>   4</c></rc>
    <rc><c>O </c><c>   4</c></rc>
    <rc><c>O </c><c>   4</c></rc>
    <rc><c>O </c><c>   4</c></rc>
    <rc><c>O </c><c>   4</c></rc>
    <rc><c>O </c><c>   4</c></rc>
    <rc><c>O </c><c>   4</c></rc>
    <rc><c>O </c><c>   4</c></rc>
    <rc><c>O </c><c>   4</c></rc>
    <rc><c>O </c><c>   4</c></rc>
    <rc><c>O </c><c>   4</c></rc>
    <rc><c>O </c><c>   4</c></rc>
    <rc><c>O </c><c>   4</c></rc>
    <rc><c>O </c><c>   4</c></rc>
    <rc><c>O </c><c>   4</c></rc>
    <rc><c>O </c><c>   4</c></rc>
    <rc><c>O </c><c>   4</c></rc>
    <rc><c>O </c><c>   4</c></rc>
    <rc><c>O </c><c>   4</c></rc>
    <rc><c>O </c><c>   4</c></rc>
    <rc><c>O </c><c>   4</c></rc>
    <rc><c>O </c><c>   4</c></rc>
    <rc><c>O </c><c>   4</c></rc>
    <rc><c>O </c><c>   4</c></rc>
    <rc><c>O </c><c>   4</c></rc>
    <rc><c>O </c><c>   4</c></rc>
    <rc><c>O </c><c>   4</c></rc>
    <rc><c>O </c><c>   4</c></rc>
    <rc><c>O </c><c>   4</c></rc>
    <rc><c>O </c><c>   4</c></rc>
    <rc><c>O </c><c>   4</c></rc>
    <rc><c>O </c><c>   4</c></rc>
    <rc><c>O </c><c>   4</c></rc>
    <rc><c>O </c><c>   4</c></rc>
    <rc><c>O </c><c>   4</c></rc>
    <rc><c>O </c><c>   4</c></rc>
    <rc><c>O </c><c>   4</c></rc>
    <rc><c>O </c><c>   4</c></rc>
    <rc><c>O </c><c>   4</c></rc>
    <rc><c>O </c><c>   4</c></rc>
    <rc><c>O </c><c>   4</c></rc>
    <rc><c>O </c><c>   4</c></rc>
    <rc><c>O </c><c>   4</c></rc>
    <rc><c>O </c><c>   4</c></rc>
    <rc><c>O </c><c>   4</c></rc>
    <rc><c>O </c><c>   4</c></rc>
    <rc><c>O </c><c>   4</c></rc>
    <rc><c>O </c><c>   4</c></rc>
    <rc><c>O </c><c>   4</c></rc>
    <rc><c>O </c><c>   4</c></rc>
    <rc><c>O </c><c>   4</c></rc>
    <rc><c>O </c><c>   4</c></rc>
    <rc><c>O </c><c>   4</c></rc>
    <rc><c>O </c><c>   4</c></rc>
    <rc><c>O </c><c>   4</c></rc>
    <rc><c>O </c><c>   4</c></rc>
   </set>
  </array>
  <array name="atomtypes" >
   <dimension dim="1">type</dimension>
   <field type="int">atomspertype</field>
   <field type="string">element</field>
   <field>mass</field>
   <field>valence</field>
   <field type="string">pseudopotential</field>
   <set>
    <rc><c>  32</c><c>Sr</c><c>     87.62000000</c><c>     10.00000000</c><c>  PAW_PBE Sr_sv 07Sep2000               </c></rc>
    <rc><c>   8</c><c>Ti</c><c>     47.88000000</c><c>      4.00000000</c><c>  PAW_PBE Ti 08Apr2002                  </c></rc>
    <rc><c>  24</c><c>Fe</c><c>     55.84700000</c><c>      8.00000000</c><c>  PAW_PBE Fe 06Sep2000                  </c></rc>
    <rc><c>  84</c><c>O </c><c>     16.00000000</c><c>      6.00000000</c><c>  PAW_PBE O 08Apr2002                   </c></rc>
   </set>
  </array>
 </atominfo>
 <structure name="initialpos" >
  <crystal>
   <varray name="basis" >
    <v>      11.17453182      -0.01880675       0.01139902 </v>
    <v>      -0.01875121      11.19852421       0.00382439 </v>
    <v>       0.01655852       0.00520026      15.92807051 </v>
   </varray>
   <i name="volume">   1993.20315531 </i>
   <varray name="rec_basis" >
    <v>       0.08948955       0.00014988      -0.00009308 </v>
    <v>       0.00015032       0.08929774      -0.00002931 </v>
    <v>      -0.00006408      -0.00002155       0.06278232 </v>
   </varray>
  </crystal>
  <varray name="positions" >
   <v>       0.00503649       0.24582053       0.13363528 </v>
   <v>       0.98927648       0.25393883       0.62502464 </v>
   <v>       0.01301609       0.76040905       0.12368466 </v>
   <v>       0.98791649       0.74680621       0.63195430 </v>
   <v>       0.48799739       0.25981972       0.12666566 </v>
   <v>       0.51057519       0.25367649       0.62505235 </v>
   <v>       0.48396363       0.74812397       0.13396284 </v>
   <v>       0.51241971       0.74150512       0.62511191 </v>
   <v>       0.99467959       0.25977375       0.38186082 </v>
   <v>       0.00207220       0.24947459       0.86658254 </v>
   <v>       0.00144264       0.74668013       0.37615650 </v>
   <v>       0.00664548       0.74979199       0.87075006 </v>
   <v>       0.50433699       0.26200648       0.38521298 </v>
   <v>       0.49577328       0.25036161       0.85647555 </v>
   <v>       0.49922501       0.74067844       0.37808795 </v>
   <v>       0.49463823       0.74681388       0.86544676 </v>
   <v>       0.24644967       0.98966268       0.13524502 </v>
   <v>       0.26420504       0.99600912       0.62671626 </v>
   <v>       0.24814159       0.52016068       0.13082360 </v>
   <v>       0.25978959       0.48962458       0.63152377 </v>
   <v>       0.75693922       0.99660304       0.13820377 </v>
   <v>       0.74008554       0.00413540       0.62796152 </v>
   <v>       0.74122953       0.49862863       0.12451720 </v>
   <v>       0.74320034       0.49423144       0.62156397 </v>
   <v>       0.25793014       0.00623033       0.37458812 </v>
   <v>       0.26441798       0.99953509       0.86659341 </v>
   <v>       0.25989344       0.49497866       0.38099647 </v>
   <v>       0.24911538       0.49313590       0.86770039 </v>
   <v>       0.74578240       0.01358405       0.37895622 </v>
   <v>       0.75213715       0.00513737       0.86306269 </v>
   <v>       0.73807399       0.49084072       0.38583681 </v>
   <v>       0.74973953       0.49097930       0.85618506 </v>
   <v>       0.99783714       0.99603966       0.51159387 </v>
   <v>       0.52479604       0.00868163       0.00463830 </v>
   <v>       0.50447492       0.00251260       0.49798900 </v>
   <v>       0.74479135       0.75833482       0.25414180 </v>
   <v>       0.00621888       0.99987443       0.75070631 </v>
   <v>       0.00484789       0.49593424       0.24742779 </v>
   <v>       0.00427237       0.49859559       0.74766527 </v>
   <v>       0.49541438       0.50065398       0.24905391 </v>
   <v>       0.02522419       0.99772838       0.99438662 </v>
   <v>       0.97192434       0.51364613       0.99806472 </v>
   <v>       0.99158610       0.49263128       0.50209334 </v>
   <v>       0.46885531       0.49106722       0.99981496 </v>
   <v>       0.49993148       0.49766284       0.50685882 </v>
   <v>       0.25637184       0.23132984       0.00290333 </v>
   <v>       0.25387955       0.24743383       0.48835799 </v>
   <v>       0.24277260       0.73987482       0.00026753 </v>
   <v>       0.25683618       0.76233709       0.48877135 </v>
   <v>       0.73342673       0.26734064       0.98821093 </v>
   <v>       0.74942887       0.24816426       0.50263128 </v>
   <v>       0.76433569       0.76811710       0.01279040 </v>
   <v>       0.75603351       0.74891397       0.49224989 </v>
   <v>       0.24067405       0.25724028       0.24957925 </v>
   <v>       0.24964706       0.24430987       0.75800026 </v>
   <v>       0.24347380       0.75498182       0.25404697 </v>
   <v>       0.25347874       0.74919019       0.76168147 </v>
   <v>       0.74204845       0.25392553       0.25940673 </v>
   <v>       0.75107266       0.24751884       0.74576743 </v>
   <v>       0.75308088       0.75171175       0.73951368 </v>
   <v>       0.99909223       0.00465531       0.23937464 </v>
   <v>       0.50588146       0.99702944       0.25113082 </v>
   <v>       0.50403328       0.99339652       0.74580128 </v>
   <v>       0.50101056       0.49923155       0.74983103 </v>
   <v>       0.11528885       0.13044521       0.26886842 </v>
   <v>       0.13106649       0.12530559       0.72024493 </v>
   <v>       0.09204384       0.64336036       0.24250284 </v>
   <v>       0.13021731       0.62559729       0.76017551 </v>
   <v>       0.61250643       0.13438729       0.22772400 </v>
   <v>       0.62317807       0.12038615       0.75190943 </v>
   <v>       0.62005067       0.63116690       0.24929851 </v>
   <v>       0.63230010       0.63049911       0.76473093 </v>
   <v>       0.37780456       0.36846960       0.24277538 </v>
   <v>       0.37353240       0.36375586       0.73855425 </v>
   <v>       0.37163321       0.88456938       0.26014546 </v>
   <v>       0.37970683       0.86580845       0.73899209 </v>
   <v>       0.86418947       0.39308312       0.24522470 </v>
   <v>       0.87668122       0.37936283       0.74113547 </v>
   <v>       0.87644386       0.87938325       0.26107401 </v>
   <v>       0.88153240       0.87118935       0.76858777 </v>
   <v>       0.37562266       0.11698809       0.74566956 </v>
   <v>       0.36357167       0.62046696       0.25088900 </v>
   <v>       0.37274939       0.62389920       0.74650160 </v>
   <v>       0.86622003       0.13399070       0.23957655 </v>
   <v>       0.88215789       0.12273164       0.75500746 </v>
   <v>       0.88011025       0.62706772       0.75968268 </v>
   <v>       0.12799667       0.38500928       0.23843066 </v>
   <v>       0.12682858       0.36880345       0.74166452 </v>
   <v>       0.12332941       0.88820879       0.26122343 </v>
   <v>       0.13204462       0.87084095       0.73323644 </v>
   <v>       0.62389340       0.37960263       0.23953905 </v>
   <v>       0.62512736       0.37299550       0.74965460 </v>
   <v>       0.62971112       0.88012376       0.25551962 </v>
   <v>       0.63392878       0.87394423       0.76251228 </v>
   <v>       0.32422676       0.39339234       0.01127958 </v>
   <v>       0.36941845       0.37448026       0.51352794 </v>
   <v>       0.37457344       0.88020060       0.48858875 </v>
   <v>       0.87208732       0.34557169       0.02519780 </v>
   <v>       0.86894884       0.38006863       0.50370362 </v>
   <v>       0.88496020       0.89377693       0.97943572 </v>
   <v>       0.88220183       0.88650269       0.46782520 </v>
   <v>       0.09438064       0.16416944       0.00284174 </v>
   <v>       0.13119026       0.10764960       0.49382555 </v>
   <v>       0.11460219       0.62680918       0.99639550 </v>
   <v>       0.66210823       0.11151626       0.01709124 </v>
   <v>       0.62989683       0.11990622       0.50142199 </v>
   <v>       0.62472662       0.62884912       0.49660193 </v>
   <v>       0.12516423       0.36980887       0.50153607 </v>
   <v>       0.16280883       0.89982066       0.00430932 </v>
   <v>       0.11815009       0.85186630       0.51698830 </v>
   <v>       0.60915378       0.37351774       0.01119560 </v>
   <v>       0.62185032       0.37296071       0.50294655 </v>
   <v>       0.61048822       0.85330057       0.01065479 </v>
   <v>       0.62637764       0.87576729       0.47439937 </v>
   <v>       0.39097125       0.12665547       0.99560101 </v>
   <v>       0.37582472       0.12930560       0.51963844 </v>
   <v>       0.39464353       0.65231962       0.99916025 </v>
   <v>       0.34175604       0.63008519       0.52537348 </v>
   <v>       0.88911970       0.12627493       0.48568830 </v>
   <v>       0.83778275       0.61501709       0.97606853 </v>
   <v>       0.89941356       0.63787390       0.50441766 </v>
   <v>       0.99197283       0.00452570       0.11902909 </v>
   <v>       0.96926223       0.98904320       0.62497094 </v>
   <v>       0.98615875       0.51438480       0.12130077 </v>
   <v>       0.02084097       0.51741639       0.62524613 </v>
   <v>       0.47652934       0.98795944       0.12193449 </v>
   <v>       0.51284582       0.97904320       0.62001372 </v>
   <v>       0.49795618       0.51570938       0.12157469 </v>
   <v>       0.51287731       0.50997707       0.62855143 </v>
   <v>       0.03511725       0.01431054       0.86951713 </v>
   <v>       0.00521528       0.50359919       0.37161559 </v>
   <v>       0.00621339       0.47223864       0.88178660 </v>
   <v>       0.48685606       0.03798029       0.36898829 </v>
   <v>       0.49866934       0.98465703       0.88641264 </v>
   <v>       0.48991647       0.50099720       0.37596180 </v>
   <v>       0.49079906       0.49068475       0.87905801 </v>
   <v>       0.27413777       0.24418011       0.36947896 </v>
   <v>       0.24422970       0.24836131       0.87733867 </v>
   <v>       0.23165678       0.72235681       0.37711940 </v>
   <v>       0.26100490       0.77130433       0.87954572 </v>
   <v>       0.74331632       0.25148659       0.37566907 </v>
   <v>       0.75762129       0.24678383       0.87489071 </v>
   <v>       0.77737667       0.70871614       0.36438818 </v>
   <v>       0.25860986       0.21389811       0.13368858 </v>
   <v>       0.25293886       0.75554799       0.12569869 </v>
   <v>       0.75631524       0.23761492       0.62460168 </v>
   <v>       0.78577542       0.72527598       0.13891562 </v>
   <v>       0.75559506       0.76681430       0.62004803 </v>
  </varray>
 </structure>
 <calculation>
  <scstep>
   <time name="dav">  605.68  605.72</time>
   <time name="total">  612.96  613.01</time>
   <energy>
    <i name="alphaZ">   5637.86839512 </i>
    <i name="ewald"> -63043.66343963 </i>
    <i name="hartreedc"> -18705.23134345 </i>
    <i name="XCdc">   3407.35456104 </i>
    <i name="pawpsdc"> 116754.38828697 </i>
    <i name="pawaedc">-116259.35072756 </i>
    <i name="eentropy">     -0.00396312 </i>
    <i name="bandstr">  -7098.14576129 </i>
    <i name="atom">  78316.90445604 </i>
    <i name="e_fr_energy">   -989.87953586 </i>
    <i name="e_wo_entrp">   -989.87557275 </i>
    <i name="e_0_energy">   -989.87755431 </i>
   </energy>
  </scstep>
  <scstep>
   <time name="diag">   64.38   64.39</time>
   <time name="diis">   61.03   61.06</time>
   <time name="orth">   33.17   33.16</time>
   <time name="total">  165.85  165.96</time>
   <energy>
    <i name="e_fr_energy">   -989.87953578 </i>
    <i name="e_wo_entrp">   -989.87558837 </i>
    <i name="e_0_energy">   -989.87756208 </i>
   </energy>
  </scstep>
  <scstep>
   <time name="diag">   64.40   64.40</time>
   <time name="diis">   59.00   58.99</time>
   <time name="orth">   33.13   33.12</time>
   <time name="total">  163.80  163.83</time>
   <energy>
    <i name="e_fr_energy">   -989.87953599 </i>
    <i name="e_wo_entrp">   -989.87558399 </i>
    <i name="e_0_energy">   -989.87755999 </i>
   </energy>
  </scstep>
  <scstep>
   <time name="diag">   64.37   64.42</time>
   <time name="diis">   48.80   48.81</time>
   <time name="orth">   33.14   33.14</time>
   <time name="total">  153.60  153.69</time>
   <energy>
    <i name="e_fr_energy">   -989.87953623 </i>
    <i name="e_wo_entrp">   -989.87558083 </i>
    <i name="e_0_energy">   -989.87755853 </i>
   </energy>
  </scstep>
  <scstep>
   <time name="diag">   64.39   64.44</time>
   <time name="diis">   48.56   48.57</time>
   <time name="orth">   33.13   33.13</time>
   <time name="total">  153.35  153.45</time>
   <energy>
    <i name="e_fr_energy">   -989.87953639 </i>
    <i name="e_wo_entrp">   -989.87557941 </i>
    <i name="e_0_energy">   -989.87755790 </i>
   </energy>
  </scstep>
  <scstep>
   <time name="diag">   64.31   64.36</time>
   <time name="diis">   46.44   46.46</time>
   <time name="orth">   33.13   33.13</time>
   <time name="total">  151.17  151.26</time>
   <energy>
    <i name="e_fr_energy">   -989.87953666 </i>
    <i name="e_wo_entrp">   -989.87558030 </i>
    <i name="e_0_energy">   -989.87755848 </i>
   </energy>
  </scstep>
  <scstep>
   <time name="diag">   64.23   64.28</time>
   <time name="diis">   46.01   46.04</time>
   <time name="orth">   33.16   33.16</time>
   <time name="total">  150.63  150.74</time>
   <energy>
    <i name="e_fr_energy">   -989.87953686 </i>
    <i name="e_wo_entrp">   -989.87558110 </i>
    <i name="e_0_energy">   -989.87755898 </i>
   </energy>
  </scstep>
  <scstep>
   <time name="diag">   64.28   64.30</time>
   <time name="diis">   45.17   45.18</time>
   <time name="orth">   33.17   33.18</time>
   <time name="total">  143.68  143.79</time>
   <energy>
    <i name="alphaZ">   5637.86839512 </i>
    <i name="ewald"> -63043.66343963 </i>
    <i name="hartreedc"> -18705.24107807 </i>
    <i name="XCdc">   3407.35415825 </i>
    <i name="pawpsdc"> 116754.06517349 </i>
    <i name="pawaedc">-116259.03028958 </i>
    <i name="eentropy">     -0.00395587 </i>
    <i name="bandstr">  -7098.13295680 </i>
    <i name="atom">  78316.90445604 </i>
    <i name="e_fr_energy">   -989.87953704 </i>
    <i name="e_wo_entrp">   -989.87558117 </i>
    <i name="e_0_energy">   -989.87755910 </i>
   </energy>
  </scstep>
  <structure>
   <crystal>
    <varray name="basis" >
     <v>      11.17453182      -0.01880675       0.01139902 </v>
     <v>      -0.01875121      11.19852421       0.00382439 </v>
     <v>       0.01655852       0.00520026      15.92807051 </v>
    </varray>
    <i name="volume">   1993.20315531 </i>
    <varray name="rec_basis" >
     <v>       0.08948955       0.00014988      -0.00009308 </v>
     <v>       0.00015032       0.08929774      -0.00002931 </v>
     <v>      -0.00006408      -0.00002155       0.06278232 </v>
    </varray>
   </crystal>
   <varray name="positions" >
    <v>       0.00503649       0.24582053       0.13363528 </v>
    <v>       0.98927648       0.25393883       0.62502464 </v>
    <v>       0.01301609       0.76040905       0.12368466 </v>
    <v>       0.98791649       0.74680621       0.63195430 </v>
    <v>       0.48799739       0.25981972       0.12666566 </v>
    <v>       0.51057519       0.25367649       0.62505235 </v>
    <v>       0.48396363       0.74812397       0.13396284 </v>
    <v>       0.51241971       0.74150512       0.62511191 </v>
    <v>       0.99467959       0.25977375       0.38186082 </v>
    <v>       0.00207220       0.24947459       0.86658254 </v>
    <v>       0.00144264       0.74668013       0.37615650 </v>
    <v>       0.00664548       0.74979199       0.87075006 </v>
    <v>       0.50433699       0.26200648       0.38521298 </v>
    <v>       0.49577328       0.25036161       0.85647555 </v>
    <v>       0.49922501       0.74067844       0.37808795 </v>
    <v>       0.49463823       0.74681388       0.86544676 </v>
    <v>       0.24644967       0.98966268       0.13524502 </v>
    <v>       0.26420504       0.99600912       0.62671626 </v>
    <v>       0.24814159       0.52016068       0.13082360 </v>
    <v>       0.25978959       0.48962458       0.63152377 </v>
    <v>       0.75693922       0.99660304       0.13820377 </v>
    <v>       0.74008554       0.00413540       0.62796152 </v>
    <v>       0.74122953       0.49862863       0.12451720 </v>
    <v>       0.74320034       0.49423144       0.62156397 </v>
    <v>       0.25793014       0.00623033       0.37458812 </v>
    <v>       0.26441798       0.99953509       0.86659341 </v>
    <v>       0.25989344       0.49497866       0.38099647 </v>
    <v>       0.24911538       0.49313590       0.86770039 </v>
    <v>       0.74578240       0.01358405       0.37895622 </v>
    <v>       0.75213715       0.00513737       0.86306269 </v>
    <v>       0.73807399       0.49084072       0.38583681 </v>
    <v>       0.74973953       0.49097930       0.85618506 </v>
    <v>       0.99783714       0.99603966       0.51159387 </v>
    <v>       0.52479604       0.00868163       0.00463830 </v>
    <v>       0.50447492       0.00251260       0.49798900 </v>
    <v>       0.74479135       0.75833482       0.25414180 </v>
    <v>       0.00621888       0.99987443       0.75070631 </v>
    <v>       0.00484789       0.49593424       0.24742779 </v>
    <v>       0.00427237       0.49859559       0.74766527 </v>
    <v>       0.49541438       0.50065398       0.24905391 </v>
    <v>       0.02522419       0.99772838       0.99438662 </v>
    <v>       0.97192434       0.51364613       0.99806472 </v>
    <v>       0.99158610       0.49263128       0.50209334 </v>
    <v>       0.46885531       0.49106722       0.99981496 </v>
    <v>       0.49993148       0.49766284       0.50685882 </v>
    <v>       0.25637184       0.23132984       0.00290333 </v>
    <v>       0.25387955       0.24743383       0.48835799 </v>
    <v>       0.24277260       0.73987482       0.00026753 </v>
    <v>       0.25683618       0.76233709       0.48877135 </v>
    <v>       0.73342673       0.26734064       0.98821093 </v>
    <v>       0.74942887       0.24816426       0.50263128 </v>
    <v>       0.76433569       0.76811710       0.01279040 </v>
    <v>       0.75603351       0.74891397       0.49224989 </v>
    <v>       0.24067405       0.25724028       0.24957925 </v>
    <v>       0.24964706       0.24430987       0.75800026 </v>
    <v>       0.24347380       0.75498182       0.25404697 </v>
    <v>       0.25347874       0.74919019       0.76168147 </v>
    <v>       0.74204845       0.25392553       0.25940673 </v>
    <v>       0.75107266       0.24751884       0.74576743 </v>
    <v>       0.75308088       0.75171175       0.73951368 </v>
    <v>       0.99909223       0.00465531       0.23937464 </v>
    <v>       0.50588146       0.99702944       0.25113082 </v>
    <v>       0.50403328       0.99339652       0.74580128 </v>
    <v>       0.50101056       0.49923155       0.74983103 </v>
    <v>       0.11528885       0.13044521       0.26886842 </v>
    <v>       0.13106649       0.12530559       0.72024493 </v>
    <v>       0.09204384       0.64336036       0.24250284 </v>
    <v>       0.13021731       0.62559729       0.76017551 </v>
    <v>       0.61250643       0.13438729       0.22772400 </v>
    <v>       0.62317807       0.12038615       0.75190943 </v>
    <v>       0.62005067       0.63116690       0.24929851 </v>
    <v>       0.63230010       0.63049911       0.76473093 </v>
    <v>       0.37780456       0.36846960       0.24277538 </v>
    <v>       0.37353240       0.36375586       0.73855425 </v>
    <v>       0.37163321       0.88456938       0.26014546 </v>
    <v>       0.37970683       0.86580845       0.73899209 </v>
    <v>       0.86418947       0.39308312       0.24522470 </v>
    <v>       0.87668122       0.37936283       0.74113547 </v>
    <v>       0.87644386       0.87938325       0.26107401 </v>
    <v>       0.88153240       0.87118935       0.76858777 </v>
    <v>       0.37562266       0.11698809       0.74566956 </v>
    <v>       0.36357167       0.62046696       0.25088900 </v>
    <v>       0.37274939       0.62389920       0.74650160 </v>
    <v>       0.86622003       0.13399070       0.23957655 </v>
    <v>       0.88215789       0.12273164       0.75500746 </v>
    <v>       0.88011025       0.62706772       0.75968268 </v>
    <v>       0.12799667       0.38500928       0.23843066 </v>
    <v>       0.12682858       0.36880345       0.74166452 </v>
    <v>       0.12332941       0.88820879       0.26122343 </v>
    <v>       0.13204462       0.87084095       0.73323644 </v>
    <v>       0.62389340       0.37960263       0.23953905 </v>
    <v>       0.62512736       0.37299550       0.74965460 </v>
    <v>       0.62971112       0.88012376       0.25551962 </v>
    <v>       0.63392878       0.87394423       0.76251228 </v>
    <v>       0.32422676       0.39339234       0.01127958 </v>
    <v>       0.36941845       0.37448026       0.51352794 </v>
    <v>       0.37457344       0.88020060       0.48858875 </v>
    <v>       0.87208732       0.34557169       0.02519780 </v>
    <v>       0.86894884       0.38006863       0.50370362 </v>
    <v>       0.88496020       0.89377693       0.97943572 </v>
    <v>       0.88220183       0.88650269       0.46782520 </v>
    <v>       0.09438064       0.16416944       0.00284174 </v>
    <v>       0.13119026       0.10764960       0.49382555 </v>
    <v>       0.11460219       0.62680918       0.99639550 </v>
    <v>       0.66210823       0.11151626       0.01709124 </v>
    <v>       0.62989683       0.11990622       0.50142199 </v>
    <v>       0.62472662       0.62884912       0.49660193 </v>
    <v>       0.12516423       0.36980887       0.50153607 </v>
    <v>       0.16280883       0.89982066       0.00430932 </v>
    <v>       0.11815009       0.85186630       0.51698830 </v>
    <v>       0.60915378       0.37351774       0.01119560 </v>
    <v>       0.62185032       0.37296071       0.50294655 </v>
    <v>       0.61048822       0.85330057       0.01065479 </v>
    <v>       0.62637764       0.87576729       0.47439937 </v>
    <v>       0.39097125       0.12665547       0.99560101 </v>
    <v>       0.37582472       0.12930560       0.51963844 </v>
    <v>       0.39464353       0.65231962       0.99916025 </v>
    <v>       0.34175604       0.63008519       0.52537348 </v>
    <v>       0.88911970       0.12627493       0.48568830 </v>
    <v>       0.83778275       0.61501709       0.97606853 </v>
    <v>       0.89941356       0.63787390       0.50441766 </v>
    <v>       0.99197283       0.00452570       0.11902909 </v>
    <v>       0.96926223       0.98904320       0.62497094 </v>
    <v>       0.98615875       0.51438480       0.12130077 </v>
    <v>       0.02084097       0.51741639       0.62524613 </v>
    <v>       0.47652934       0.98795944       0.12193449 </v>
    <v>       0.51284582       0.97904320       0.62001372 </v>
    <v>       0.49795618       0.51570938       0.12157469 </v>
    <v>       0.51287731       0.50997707       0.62855143 </v>
    <v>       0.03511725       0.01431054       0.86951713 </v>
    <v>       0.00521528       0.50359919       0.37161559 </v>
    <v>       0.00621339       0.47223864       0.88178660 </v>
    <v>       0.48685606       0.03798029       0.36898829 </v>
    <v>       0.49866934       0.98465703       0.88641264 </v>
    <v>       0.48991647       0.50099720       0.37596180 </v>
    <v>       0.49079906       0.49068475       0.87905801 </v>
    <v>       0.27413777       0.24418011       0.36947896 </v>
    <v>       0.24422970       0.24836131       0.87733867 </v>
    <v>       0.23165678       0.72235681       0.37711940 </v>
    <v>       0.26100490       0.77130433       0.87954572 </v>
    <v>       0.74331632       0.25148659       0.37566907 </v>
    <v>       0.75762129       0.24678383       0.87489071 </v>
    <v>       0.77737667       0.70871614       0.36438818 </v>
    <v>       0.25860986       0.21389811       0.13368858 </v>
    <v>       0.25293886       0.75554799       0.12569869 </v>
    <v>       0.75631524       0.23761492       0.62460168 </v>
    <v>       0.78577542       0.72527598       0.13891562 </v>
    <v>       0.75559506       0.76681430       0.62004803 </v>
   </varray>
  </structure>
  <varray name="forces" >
   <v>       0.00392030       0.00815065      -0.00142515 </v>
   <v>      -0.00686287      -0.00084254       0.01219562 </v>
   <v>      -0.01486732       0.00820810      -0.02137012 </v>
   <v>      -0.01131181       0.00375237      -0.00039033 </v>
   <v>      -0.00554621       0.00243191      -0.01067398 </v>
   <v>       0.00232903      -0.00716332      -0.01448487 </v>
   <v>       0.00030670       0.01237376      -0.00537317 </v>
   <v>      -0.00215251       0.00096461       0.00016773 </v>
   <v>       0.00205440       0.00221769      -0.00272210 </v>
   <v>      -0.01580691      -0.00291047       0.00151391 </v>
   <v>       0.00434684       0.00659718      -0.00669233 </v>
   <v>       0.02162796       0.00545243      -0.00290071 </v>
   <v>       0.02422942      -0.02018677       0.00118927 </v>
   <v>       0.00771056       0.00527310       0.00299160 </v>
   <v>      -0.01562817       0.02124111      -0.01531346 </v>
   <v>      -0.01835076      -0.00485486       0.00735937 </v>
   <v>      -0.01812997       0.00576355      -0.00086186 </v>
   <v>       0.01187490       0.01134158      -0.00942572 </v>
   <v>       0.01621000      -0.00576633      -0.02313661 </v>
   <v>      -0.00248583       0.00702263       0.00385085 </v>
   <v>      -0.00460637      -0.00888660      -0.01114056 </v>
   <v>      -0.00279211      -0.00765570       0.00716866 </v>
   <v>      -0.00764862       0.01094727      -0.00537367 </v>
   <v>       0.00743338       0.00938915      -0.00783781 </v>
   <v>      -0.00234152       0.00176049       0.01490305 </v>
   <v>      -0.00030550      -0.00587398      -0.00780624 </v>
   <v>       0.01273923       0.00014853      -0.00522073 </v>
   <v>       0.00426384       0.00850754       0.00690446 </v>
   <v>      -0.01976148       0.00939293      -0.01260809 </v>
   <v>       0.01625952      -0.00444461       0.00708513 </v>
   <v>       0.00524143      -0.00149328      -0.00459332 </v>
   <v>       0.00697860       0.00260049       0.02403831 </v>
   <v>       0.03279026       0.02882803       0.00321756 </v>
   <v>      -0.01188880      -0.01541012       0.02681922 </v>
   <v>      -0.00177923      -0.02068530       0.00505162 </v>
   <v>      -0.02976724       0.01382403      -0.00998773 </v>
   <v>      -0.01040770      -0.01059314      -0.00820570 </v>
   <v>      -0.03694244      -0.03254636       0.03100220 </v>
   <v>       0.03012929       0.00612427       0.01522531 </v>
   <v>      -0.00341979      -0.00766351      -0.00020714 </v>
   <v>       0.00016183      -0.00922386       0.00695592 </v>
   <v>      -0.01258029       0.00947197       0.01100787 </v>
   <v>      -0.03104956      -0.02501132       0.00720130 </v>
   <v>       0.00007117      -0.00820309       0.01418904 </v>
   <v>       0.01439834      -0.00991138       0.00920511 </v>
   <v>       0.04370678       0.02393258       0.00742395 </v>
   <v>       0.00282429      -0.00743292       0.00696213 </v>
   <v>       0.01652386      -0.00017351      -0.00540954 </v>
   <v>       0.00370542       0.01431432      -0.00039503 </v>
   <v>      -0.00434366       0.00116017      -0.01039435 </v>
   <v>      -0.00651418       0.00876531      -0.00640996 </v>
   <v>      -0.00891296      -0.01372938       0.00525602 </v>
   <v>      -0.02390639      -0.01847625      -0.00864413 </v>
   <v>      -0.00141747       0.03771974      -0.00782618 </v>
   <v>       0.01058594      -0.00840476      -0.00570708 </v>
   <v>       0.00894264      -0.00282718       0.01262196 </v>
   <v>       0.01732668      -0.00179636       0.01155298 </v>
   <v>      -0.00388486       0.00760592       0.01525264 </v>
   <v>      -0.00383507      -0.00240603       0.00510853 </v>
   <v>      -0.01908120       0.00365172      -0.00545874 </v>
   <v>      -0.01619765       0.01184408       0.00941972 </v>
   <v>       0.02370117      -0.00988214      -0.01407965 </v>
   <v>      -0.00496118      -0.00810967       0.00530122 </v>
   <v>      -0.00051768       0.01211057      -0.00140000 </v>
   <v>       0.00134338       0.00548921      -0.00885988 </v>
   <v>       0.00362336      -0.00094782       0.00550562 </v>
   <v>       0.01250199       0.01002561       0.01251668 </v>
   <v>      -0.00087614      -0.00818534      -0.03609845 </v>
   <v>       0.00050621      -0.01303413       0.00081872 </v>
   <v>       0.00784553      -0.00563416       0.01254003 </v>
   <v>       0.00335733       0.01153911      -0.00449743 </v>
   <v>      -0.00836006      -0.00415795      -0.01287320 </v>
   <v>      -0.02139068      -0.01686425       0.01191022 </v>
   <v>      -0.01321133       0.00509586      -0.01096017 </v>
   <v>      -0.03074258      -0.00256751      -0.00786444 </v>
   <v>      -0.00870158      -0.00577338      -0.01353605 </v>
   <v>       0.00194538       0.02956591       0.00537012 </v>
   <v>      -0.01218904      -0.01225132       0.00256894 </v>
   <v>       0.00287001       0.00519107       0.01520204 </v>
   <v>      -0.00216487       0.00382963      -0.01314503 </v>
   <v>      -0.00814036       0.01237061      -0.01383101 </v>
   <v>       0.00139013       0.01145854       0.00593831 </v>
   <v>      -0.00412070      -0.00588536      -0.02235392 </v>
   <v>       0.01418446       0.00584166      -0.01243637 </v>
   <v>      -0.01068648       0.02393770      -0.01755510 </v>
   <v>      -0.02063470       0.00619568       0.00207198 </v>
   <v>       0.01277887      -0.02594851       0.02388503 </v>
   <v>      -0.00218619       0.01354526       0.01089820 </v>
   <v>      -0.00586239      -0.00197161       0.01337206 </v>
   <v>      -0.00388975      -0.00839577      -0.00211686 </v>
   <v>       0.00619947      -0.00465015      -0.02036763 </v>
   <v>       0.02242788      -0.00151097      -0.00924955 </v>
   <v>      -0.00458158      -0.01507952      -0.00147293 </v>
   <v>       0.00098419      -0.00412292       0.02497814 </v>
   <v>      -0.00626964      -0.01057306      -0.00191467 </v>
   <v>       0.00309394      -0.00198262      -0.01043588 </v>
   <v>      -0.01990108      -0.00723595       0.02180054 </v>
   <v>       0.01066142       0.00313842      -0.00568121 </v>
   <v>       0.00378996      -0.00234342      -0.00278592 </v>
   <v>       0.01394826      -0.00000553       0.00615132 </v>
   <v>      -0.02383759      -0.02643239       0.00170474 </v>
   <v>       0.01310740      -0.00219668       0.00714300 </v>
   <v>       0.00799427      -0.01049161      -0.00847064 </v>
   <v>      -0.02650360       0.01547081       0.02032498 </v>
   <v>       0.02254988       0.01901973      -0.00931056 </v>
   <v>       0.02022393       0.01330950       0.01109793 </v>
   <v>       0.00026799      -0.00365637      -0.01293868 </v>
   <v>       0.00081157      -0.00458904      -0.00059576 </v>
   <v>       0.01003381       0.02691785      -0.00671525 </v>
   <v>      -0.00025054      -0.00385981      -0.00665528 </v>
   <v>       0.00612735      -0.00007394      -0.00607733 </v>
   <v>       0.01029113      -0.01994535      -0.00241498 </v>
   <v>       0.01699136       0.00500612      -0.00592456 </v>
   <v>      -0.01156953      -0.00945199       0.00434860 </v>
   <v>       0.01479428       0.03175704       0.00186431 </v>
   <v>       0.00473266       0.00584684      -0.00695589 </v>
   <v>      -0.00196836      -0.00057591       0.00418794 </v>
   <v>       0.00282756      -0.00804916      -0.00645245 </v>
   <v>      -0.01275910      -0.00657205      -0.01112729 </v>
   <v>      -0.01401743      -0.02061325       0.01573868 </v>
   <v>       0.00234367       0.00542459      -0.00914078 </v>
   <v>       0.01795846       0.00019282      -0.01432839 </v>
   <v>       0.01386442      -0.00778661       0.02681926 </v>
   <v>       0.02094740      -0.04502233       0.00383222 </v>
   <v>      -0.00015404      -0.01595732      -0.01089451 </v>
   <v>      -0.02390833       0.00353852      -0.00999437 </v>
   <v>       0.00267522       0.00740339       0.01107355 </v>
   <v>       0.01241656      -0.00304049      -0.01574201 </v>
   <v>      -0.00481054      -0.01009292      -0.00130286 </v>
   <v>      -0.02963719      -0.00967314       0.02376659 </v>
   <v>       0.01278407       0.02758240       0.01880079 </v>
   <v>       0.00225667       0.02159079      -0.00155147 </v>
   <v>       0.01172134      -0.02024152      -0.00413754 </v>
   <v>      -0.00039400      -0.01115505      -0.00745351 </v>
   <v>       0.01560842      -0.00031023       0.00419538 </v>
   <v>      -0.00206609       0.02483974       0.00513666 </v>
   <v>      -0.00304404      -0.00911495      -0.02824643 </v>
   <v>       0.00212298      -0.00940575       0.00997278 </v>
   <v>       0.00155462      -0.00311202      -0.02055865 </v>
   <v>      -0.00108780      -0.00527024       0.01243982 </v>
   <v>      -0.00199903      -0.00695642       0.00293240 </v>
   <v>       0.01439765       0.00706883       0.00965063 </v>
   <v>       0.02231311       0.01071991       0.02099146 </v>
   <v>      -0.00406609       0.00527978      -0.01490269 </v>
   <v>      -0.02611690       0.01937385       0.01048094 </v>
   <v>       0.00915680       0.00443361       0.00478521 </v>
   <v>      -0.00664794       0.00723677       0.01051268 </v>
   <v>      -0.00996749      -0.01679437      -0.01206712 </v>
  </varray>
  <varray name="stress" >
   <v>       0.11219318       0.08001919      -0.00992403 </v>
   <v>       0.08001931       0.12534039       0.11192020 </v>
   <v>      -0.00992390       0.11192019      -0.00201135 </v>
  </varray>
  <energy>
   <i name="e_fr_energy">   -989.87953704 </i>
   <i name="e_wo_entrp">   -989.87755910 </i>
   <i name="e_0_energy">     -0.00395587 </i>
  </energy>
  <time name="totalsc"> 1956.10 1958.60</time>
 </calculation>
 <calculation>
  <scstep>
   <time name="dav">  566.52  566.51</time>
   <time name="total">  573.72  573.76</time>
   <energy>
    <i name="alphaZ">   5637.32998685 </i>
    <i name="ewald"> -63040.82474956 </i>
    <i name="hartreedc"> -18705.57444110 </i>
    <i name="XCdc">   3407.22812916 </i>
    <i name="pawpsdc"> 116754.05730425 </i>
    <i name="pawaedc">-116259.02226273 </i>
    <i name="eentropy">     -0.00403293 </i>
    <i name="bandstr">  -7099.97280994 </i>
    <i name="atom">  78316.90445604 </i>
    <i name="e_fr_energy">   -989.87841996 </i>
    <i name="e_wo_entrp">   -989.87438702 </i>
    <i name="e_0_energy">   -989.87640349 </i>
   </energy>
  </scstep>
  <scstep>
   <time name="diag">   64.24   64.26</time>
   <time name="diis">  105.73  105.72</time>
   <time name="orth">   33.19   33.19</time>
   <time name="total">  210.39  210.42</time>
   <energy>
    <i name="e_fr_energy">   -989.88143403 </i>
    <i name="e_wo_entrp">   -989.87735089 </i>
    <i name="e_0_energy">   -989.87939246 </i>
   </energy>
  </scstep>
  <scstep>
   <time name="diag">   64.23   64.28</time>
   <time name="diis">  102.31  102.31</time>
   <time name="orth">   33.19   33.19</time>
   <time name="total">  206.96  207.11</time>
   <energy>
    <i name="e_fr_energy">   -989.88171362 </i>
    <i name="e_wo_entrp">   -989.87764380 </i>
    <i name="e_0_energy">   -989.87967871 </i>
   </energy>
  </scstep>
  <scstep>
   <time name="diag">   64.23   64.27</time>
   <time name="diis">   71.16   71.15</time>
   <time name="orth">   33.19   33.19</time>
   <time name="total">  175.82  175.92</time>
   <energy>
    <i name="e_fr_energy">   -989.88161726 </i>
    <i name="e_wo_entrp">   -989.87755419 </i>
    <i name="e_0_energy">   -989.87958573 </i>
   </energy>
  </scstep>
  <scstep>
   <time name="diag">   64.30   64.31</time>
   <time name="diis">   66.05   66.07</time>
   <time name="orth">   33.21   33.20</time>
   <time name="total">  170.78  170.89</time>
   <energy>
    <i name="e_fr_energy">   -989.88158758 </i>
    <i name="e_wo_entrp">   -989.87751348 </i>
    <i name="e_0_energy">   -989.87955053 </i>
   </energy>
  </scstep>
  <scstep>
   <time name="diag">   64.19   64.19</time>
   <time name="diis">   64.37   64.38</time>
   <time name="orth">   33.18   33.18</time>
   <time name="total">  168.99  169.07</time>
   <energy>
    <i name="e_fr_energy">   -989.88158903 </i>
    <i name="e_wo_entrp">   -989.87752132 </i>
    <i name="e_0_energy">   -989.87955517 </i>
   </energy>
  </scstep>
  <scstep>
   <time name="diag">   64.33   64.33</time>
   <time name="diis">   62.92   62.93</time>
   <time name="orth">   33.09   33.10</time>
   <time name="total">  167.60  167.65</time>
   <energy>
    <i name="e_fr_energy">   -989.88158910 </i>
    <i name="e_wo_entrp">   -989.87752294 </i>
    <i name="e_0_energy">   -989.87955602 </i>
   </energy>
  </scstep>
  <scstep>
   <time name="diag">   64.27   64.28</time>
   <time name="diis">   61.49   61.51</time>
   <time name="orth">   33.13   33.14</time>
   <time name="total">  159.95  160.06</time>
   <energy>
    <i name="alphaZ">   5637.32998685 </i>
    <i name="ewald"> -63040.82474956 </i>
    <i name="hartreedc"> -18707.01727790 </i>
    <i name="XCdc">   3407.32437567 </i>
    <i name="pawpsdc"> 116718.74749342 </i>
    <i name="pawaedc">-116223.71637797 </i>
    <i name="eentropy">     -0.00406611 </i>
    <i name="bandstr">  -7098.62542945 </i>
    <i name="atom">  78316.90445604 </i>
    <i name="e_fr_energy">   -989.88158901 </i>
    <i name="e_wo_entrp">   -989.87752290 </i>
    <i name="e_0_energy">   -989.87955595 </i>
   </energy>
  </scstep>
  <structure>
   <crystal>
    <varray name="basis" >
     <v>      11.17503957      -0.01844458       0.01135319 </v>
     <v>      -0.01838869      11.19909297       0.00433271 </v>
     <v>       0.01649535       0.00592397      15.92805768 </v>
    </varray>
    <i name="volume">   1993.39352150 </i>
    <varray name="rec_basis" >
     <v>       0.08948548       0.00014697      -0.00009273 </v>
     <v>       0.00014741       0.08929320      -0.00003336 </v>
     <v>      -0.00006382      -0.00002439       0.06278237 </v>
    </varray>
   </crystal>
   <varray name="positions" >
    <v>       0.00505348       0.24585567       0.13363095 </v>
    <v>       0.98924679       0.25393513       0.62506160 </v>
    <v>       0.01295206       0.76044433       0.12361997 </v>
    <v>       0.98786768       0.74682229       0.63195315 </v>
    <v>       0.48797351       0.25983017       0.12663334 </v>
    <v>       0.51058526       0.25364567       0.62500848 </v>
    <v>       0.48396507       0.74817729       0.13394656 </v>
    <v>       0.51241042       0.74150926       0.62511242 </v>
    <v>       0.99468849       0.25978332       0.38185256 </v>
    <v>       0.00200393       0.24946194       0.86658718 </v>
    <v>       0.00146148       0.74670859       0.37613621 </v>
    <v>       0.00673890       0.74981564       0.87074120 </v>
    <v>       0.50444145       0.26191969       0.38521653 </v>
    <v>       0.49580659       0.25038438       0.85648458 </v>
    <v>       0.49915776       0.74076985       0.37804159 </v>
    <v>       0.49455893       0.74679282       0.86546911 </v>
    <v>       0.24637145       0.98968738       0.13524246 </v>
    <v>       0.26425643       0.99605808       0.62668766 </v>
    <v>       0.24821163       0.52013599       0.13075348 </v>
    <v>       0.25977889       0.48965481       0.63153543 </v>
    <v>       0.75691932       0.99656474       0.13817005 </v>
    <v>       0.74007340       0.00410239       0.62798325 </v>
    <v>       0.74119662       0.49867574       0.12450094 </v>
    <v>       0.74323254       0.49427195       0.62154020 </v>
    <v>       0.25791998       0.00623788       0.37463326 </v>
    <v>       0.26441666       0.99950980       0.86656977 </v>
    <v>       0.25994847       0.49497940       0.38098062 </v>
    <v>       0.24913382       0.49317257       0.86772128 </v>
    <v>       0.74569721       0.01362439       0.37891808 </v>
    <v>       0.75220728       0.00511834       0.86308411 </v>
    <v>       0.73809662       0.49083433       0.38582288 </v>
    <v>       0.74976957       0.49099052       0.85625784 </v>
    <v>       0.99797890       0.99616409       0.51160348 </v>
    <v>       0.52474448       0.00861512       0.00471958 </v>
    <v>       0.50446706       0.00242346       0.49800433 </v>
    <v>       0.74466298       0.75839417       0.25411163 </v>
    <v>       0.00617391       0.99982873       0.75068150 </v>
    <v>       0.00468803       0.49579372       0.24752184 </v>
    <v>       0.00440242       0.49862217       0.74771129 </v>
    <v>       0.49539956       0.50062094       0.24905330 </v>
    <v>       0.02522479       0.99768864       0.99440770 </v>
    <v>       0.97187005       0.51368683       0.99809809 </v>
    <v>       0.99145184       0.49252330       0.50211527 </v>
    <v>       0.46885550       0.49103186       0.99985794 </v>
    <v>       0.49999353       0.49762023       0.50688667 </v>
    <v>       0.25656067       0.23143324       0.00292565 </v>
    <v>       0.25389166       0.24740182       0.48837907 </v>
    <v>       0.24284396       0.73987420       0.00025109 </v>
    <v>       0.25685229       0.76239879       0.48877013 </v>
    <v>       0.73340803       0.26734562       0.98817946 </v>
    <v>       0.74940084       0.24820198       0.50261188 </v>
    <v>       0.76429709       0.76805788       0.01280636 </v>
    <v>       0.75593020       0.74883421       0.49222380 </v>
    <v>       0.24066824       0.25740277       0.24955551 </v>
    <v>       0.24969272       0.24427375       0.75798295 </v>
    <v>       0.24351233       0.75496969       0.25408518 </v>
    <v>       0.25355348       0.74918256       0.76171641 </v>
    <v>       0.74203166       0.25395824       0.25945293 </v>
    <v>       0.75105607       0.24750844       0.74578292 </v>
    <v>       0.75299855       0.75172735       0.73949720 </v>
    <v>       0.99902235       0.00470620       0.23940321 </v>
    <v>       0.50598377       0.99698706       0.25108811 </v>
    <v>       0.50401178       0.99336154       0.74581736 </v>
    <v>       0.50100842       0.49928372       0.74982678 </v>
    <v>       0.11529473       0.13046888       0.26884157 </v>
    <v>       0.13108210       0.12530153       0.72026160 </v>
    <v>       0.09209783       0.64340362       0.24254070 </v>
    <v>       0.13021363       0.62556207       0.76006619 </v>
    <v>       0.61250852       0.13433114       0.22772649 </v>
    <v>       0.62321185       0.12036191       0.75194739 </v>
    <v>       0.62006527       0.63121664       0.24928486 </v>
    <v>       0.63226404       0.63048115       0.76469197 </v>
    <v>       0.37771204       0.36839678       0.24281153 </v>
    <v>       0.37347544       0.36377773       0.73852109 </v>
    <v>       0.37150051       0.88455811       0.26012173 </v>
    <v>       0.37966928       0.86578353       0.73895112 </v>
    <v>       0.86419805       0.39321050       0.24524093 </v>
    <v>       0.87662849       0.37930996       0.74114331 </v>
    <v>       0.87645622       0.87940562       0.26112004 </v>
    <v>       0.88152314       0.87120585       0.76854796 </v>
    <v>       0.37558767       0.11704134       0.74562768 </v>
    <v>       0.36357773       0.62051632       0.25090697 </v>
    <v>       0.37273166       0.62387385       0.74643391 </v>
    <v>       0.86628136       0.13401599       0.23953883 </v>
    <v>       0.88211201       0.12283471       0.75495430 </v>
    <v>       0.88002120       0.62709426       0.75968901 </v>
    <v>       0.12805154       0.38489755       0.23850299 </v>
    <v>       0.12681920       0.36886177       0.74169752 </v>
    <v>       0.12330403       0.88820024       0.26126395 </v>
    <v>       0.13202778       0.87080476       0.73323005 </v>
    <v>       0.62392022       0.37958267       0.23947734 </v>
    <v>       0.62522422       0.37298917       0.74962652 </v>
    <v>       0.62969124       0.88005877       0.25551519 </v>
    <v>       0.63393289       0.87392644       0.76258793 </v>
    <v>       0.32419963       0.39334675       0.01127381 </v>
    <v>       0.36943184       0.37447175       0.51349632 </v>
    <v>       0.37448738       0.88016925       0.48865485 </v>
    <v>       0.87213340       0.34558530       0.02518056 </v>
    <v>       0.86896520       0.38005856       0.50369517 </v>
    <v>       0.88502039       0.89377700       0.97945431 </v>
    <v>       0.88209872       0.88638865       0.46783046 </v>
    <v>       0.09443718       0.16416006       0.00286333 </v>
    <v>       0.13122474       0.10760447       0.49379988 </v>
    <v>       0.11448778       0.62687561       0.99645713 </v>
    <v>       0.66220576       0.11159838       0.01706295 </v>
    <v>       0.62998419       0.11996369       0.50145553 </v>
    <v>       0.62472781       0.62883339       0.49656274 </v>
    <v>       0.12516770       0.36978911       0.50153427 </v>
    <v>       0.16285237       0.89993670       0.00428893 </v>
    <v>       0.11814901       0.85184968       0.51696815 </v>
    <v>       0.60918026       0.37351747       0.01117717 </v>
    <v>       0.62189461       0.37287486       0.50293923 </v>
    <v>       0.61056164       0.85332227       0.01063679 </v>
    <v>       0.62632761       0.87572648       0.47441259 </v>
    <v>       0.39103534       0.12679238       0.99560657 </v>
    <v>       0.37584523       0.12933083       0.51961735 </v>
    <v>       0.39463501       0.65231712       0.99917294 </v>
    <v>       0.34176822       0.63005055       0.52535394 </v>
    <v>       0.88906461       0.12624654       0.48565464 </v>
    <v>       0.83772202       0.61492817       0.97611626 </v>
    <v>       0.89942376       0.63789730       0.50438997 </v>
    <v>       0.99205043       0.00452668       0.11898564 </v>
    <v>       0.96932191       0.98900972       0.62505214 </v>
    <v>       0.98624884       0.51419100       0.12131236 </v>
    <v>       0.02084024       0.51734766       0.62521315 </v>
    <v>       0.47642619       0.98797452       0.12190429 </v>
    <v>       0.51285738       0.97907510       0.62004725 </v>
    <v>       0.49800983       0.51569639       0.12152698 </v>
    <v>       0.51285648       0.50993356       0.62854751 </v>
    <v>       0.03498912       0.01426862       0.86958922 </v>
    <v>       0.00527059       0.50371808       0.37167246 </v>
    <v>       0.00622329       0.47233167       0.88178188 </v>
    <v>       0.48690653       0.03789318       0.36897574 </v>
    <v>       0.49866760       0.98460898       0.88639008 </v>
    <v>       0.48998384       0.50099597       0.37597445 </v>
    <v>       0.49079029       0.49079173       0.87907355 </v>
    <v>       0.27412469       0.24414087       0.36939343 </v>
    <v>       0.24423875       0.24832080       0.87736888 </v>
    <v>       0.23166356       0.72234344       0.37705714 </v>
    <v>       0.26100011       0.77128160       0.87958340 </v>
    <v>       0.74330762       0.25145661       0.37567796 </v>
    <v>       0.75768345       0.24681437       0.87491989 </v>
    <v>       0.77747298       0.70876245       0.36445168 </v>
    <v>       0.25859241       0.21392084       0.13364345 </v>
    <v>       0.25282620       0.75563124       0.12573050 </v>
    <v>       0.75635478       0.23763408       0.62461614 </v>
    <v>       0.78574672       0.72530709       0.13894747 </v>
    <v>       0.75555196       0.76674189       0.62001153 </v>
   </varray>
  </structure>
  <varray name="forces" >
   <v>       0.01228457       0.00153918      -0.01086193 </v>
   <v>      -0.00848639       0.00592590       0.01858671 </v>
   <v>       0.00064639       0.00577970      -0.00805473 </v>
   <v>      -0.01258408      -0.00066970      -0.00801086 </v>
   <v>      -0.00424110      -0.00077326      -0.00786595 </v>
   <v>       0.00487069      -0.00501407      -0.00828639 </v>
   <v>      -0.00838343       0.00525039      -0.00339432 </v>
   <v>      -0.00378404      -0.00336053      -0.00090859 </v>
   <v>       0.00931833      -0.00185535      -0.00192677 </v>
   <v>      -0.00788542      -0.00557382       0.00527263 </v>
   <v>       0.00268483       0.00840511      -0.00647467 </v>
   <v>       0.01361675       0.00659251      -0.00463755 </v>
   <v>       0.00972665      -0.01921548       0.00442303 </v>
   <v>       0.00814164       0.00199900       0.00028326 </v>
   <v>      -0.01607524       0.01465493      -0.00885303 </v>
   <v>      -0.00769444      -0.00537672       0.00268396 </v>
   <v>      -0.02890636       0.00870255       0.00511141 </v>
   <v>       0.00746819       0.00707516      -0.00150117 </v>
   <v>      -0.00516652       0.00199835      -0.00885924 </v>
   <v>      -0.00456385       0.00742557      -0.00051501 </v>
   <v>       0.01113336      -0.00340060      -0.01464642 </v>
   <v>       0.00533015       0.00031117       0.00366863 </v>
   <v>      -0.00303562       0.00827558      -0.00802676 </v>
   <v>       0.01130469       0.00882682       0.00475750 </v>
   <v>      -0.00495571       0.00286036      -0.00367825 </v>
   <v>      -0.00674177       0.00265448      -0.00359825 </v>
   <v>       0.00619891       0.00093049      -0.00318952 </v>
   <v>       0.00205148       0.00119182       0.00513366 </v>
   <v>      -0.00455935       0.00065343       0.00091218 </v>
   <v>       0.01402037      -0.00225046       0.00886467 </v>
   <v>       0.00258894       0.01098708      -0.00127301 </v>
   <v>       0.00900536      -0.00079522       0.01050015 </v>
   <v>      -0.03118871      -0.02168650       0.00828375 </v>
   <v>       0.00331287       0.02193494      -0.04126310 </v>
   <v>       0.02556069      -0.00344725       0.00880433 </v>
   <v>       0.03274729      -0.02815687       0.02923407 </v>
   <v>      -0.00822249       0.00133961       0.01495289 </v>
   <v>       0.05211215       0.02752600       0.01978945 </v>
   <v>      -0.02137334      -0.02008006       0.00077473 </v>
   <v>      -0.01259758       0.00153445       0.00975880 </v>
   <v>       0.00551514       0.01183781       0.00637744 </v>
   <v>      -0.00169609      -0.00331743       0.01268547 </v>
   <v>      -0.00188665       0.00918427       0.00459946 </v>
   <v>       0.00806016      -0.00660637      -0.00293248 </v>
   <v>       0.00397650      -0.00432684       0.00487173 </v>
   <v>      -0.00464275       0.00172125       0.00629009 </v>
   <v>       0.00644582       0.01047836      -0.01564394 </v>
   <v>      -0.00925896       0.00714833       0.01649717 </v>
   <v>      -0.01079131      -0.02156373      -0.01217155 </v>
   <v>       0.01282338       0.00615901       0.00328366 </v>
   <v>       0.00130181      -0.00106415       0.01389301 </v>
   <v>       0.00264453      -0.01094867      -0.00098678 </v>
   <v>       0.00298288      -0.00789483      -0.01290389 </v>
   <v>      -0.00335383      -0.00496339      -0.00891666 </v>
   <v>       0.00180100       0.00015045       0.00996246 </v>
   <v>      -0.01740784       0.00049900      -0.00424963 </v>
   <v>       0.00081206      -0.00416354      -0.00114936 </v>
   <v>       0.00425415      -0.00729484      -0.00267060 </v>
   <v>       0.00375284       0.00504295       0.00131941 </v>
   <v>      -0.00574933      -0.00254631      -0.00502025 </v>
   <v>       0.00519858      -0.00063439       0.00410894 </v>
   <v>      -0.00805814      -0.00687489      -0.00245448 </v>
   <v>       0.00111616      -0.00008161       0.01371608 </v>
   <v>       0.00915930      -0.00001723      -0.00226698 </v>
   <v>      -0.00350225       0.00147951      -0.00649998 </v>
   <v>       0.00171366       0.00051676       0.00545970 </v>
   <v>      -0.01449704      -0.02828615       0.00426148 </v>
   <v>       0.00993391       0.00015471      -0.02674224 </v>
   <v>       0.00302737      -0.00951872       0.00114272 </v>
   <v>       0.00023899      -0.00931253       0.01266907 </v>
   <v>      -0.00897488      -0.00083749      -0.00206689 </v>
   <v>      -0.01421658      -0.00390257      -0.01099659 </v>
   <v>       0.01057617       0.01249652       0.00458688 </v>
   <v>      -0.00410568       0.00747607      -0.00779339 </v>
   <v>       0.00177607       0.01504993      -0.00729099 </v>
   <v>      -0.00443028      -0.00212013      -0.01164172 </v>
   <v>      -0.02535811       0.00635614       0.01719279 </v>
   <v>       0.00634932       0.00529633       0.00636974 </v>
   <v>      -0.01325286       0.00557126       0.00807369 </v>
   <v>      -0.00607996       0.00432700      -0.01156268 </v>
   <v>      -0.00072950       0.00435248      -0.01309782 </v>
   <v>       0.02129835      -0.00677159      -0.00081709 </v>
   <v>      -0.00528154      -0.00373014      -0.01557685 </v>
   <v>      -0.00496132       0.01684671      -0.00849850 </v>
   <v>       0.00367868       0.00535422      -0.01331235 </v>
   <v>      -0.00913857      -0.00110687       0.00263474 </v>
   <v>      -0.03002526       0.01325953       0.02507691 </v>
   <v>       0.00575390       0.00611942       0.01320679 </v>
   <v>      -0.01164012       0.00868956       0.01440340 </v>
   <v>      -0.00071926      -0.00656832       0.00542670 </v>
   <v>       0.00312663      -0.00345588      -0.01823011 </v>
   <v>       0.00238011       0.00778995      -0.00294808 </v>
   <v>      -0.02594231       0.00679027      -0.00557052 </v>
   <v>      -0.00261759      -0.00379437       0.02037556 </v>
   <v>       0.00812392       0.01363111      -0.00057417 </v>
   <v>       0.00230196      -0.00471325      -0.01018276 </v>
   <v>       0.00078549       0.01384961       0.02258377 </v>
   <v>      -0.00095766       0.00342255      -0.00966451 </v>
   <v>      -0.01473968      -0.01890569      -0.00706344 </v>
   <v>      -0.00472198      -0.01928988       0.00993169 </v>
   <v>       0.01413805       0.02235801       0.02411074 </v>
   <v>       0.01975441       0.00233098       0.00205396 </v>
   <v>       0.01183299      -0.00412567      -0.00527114 </v>
   <v>      -0.01379444       0.02395447       0.01581173 </v>
   <v>      -0.00719986      -0.01311856      -0.00214548 </v>
   <v>      -0.00705712      -0.01246304       0.00713177 </v>
   <v>      -0.00744315      -0.01313445      -0.00913221 </v>
   <v>       0.00428679      -0.01584409      -0.00217696 </v>
   <v>       0.02351313       0.00751812      -0.00745525 </v>
[...]
       <r>   -17.7944     0.0000    32.0000 </r>
       <r>   -17.6394     0.0000    32.0000 </r>
       <r>   -17.4845     0.0000    32.0000 </r>
       <r>   -17.3296     0.0000    32.0000 </r>
       <r>   -17.1746     0.0000    32.0000 </r>
       <r>   -17.0197     0.0000    32.0000 </r>
       <r>   -16.8648     0.0000    32.0000 </r>
       <r>   -16.7098     0.0000    32.0000 </r>
       <r>   -16.5549     0.0000    32.0000 </r>
       <r>   -16.4000     0.0000    32.0000 </r>
       <r>   -16.2450     0.0000    32.0000 </r>
       <r>   -16.0901     0.0000    32.0000 </r>
       <r>   -15.9352     0.0000    32.0000 </r>
       <r>   -15.7802     0.0000    32.0000 </r>
       <r>   -15.6253     0.0000    32.0000 </r>
       <r>   -15.4704     0.0000    32.0000 </r>
       <r>   -15.3154     1.4322    32.2219 </r>
       <r>   -15.1605    10.7237    33.8833 </r>
       <r>   -15.0056    12.8996    35.8819 </r>
       <r>   -14.8506    22.4474    39.3597 </r>
       <r>   -14.6957    41.6472    45.8122 </r>
       <r>   -14.5408    48.0165    53.2515 </r>
       <r>   -14.3858    38.5778    59.2284 </r>
       <r>   -14.2309    37.9564    65.1091 </r>
       <r>   -14.0760    64.5552    75.1108 </r>
       <r>   -13.9211    79.8714    87.4854 </r>
       <r>   -13.7661    68.2266    98.0559 </r>
       <r>   -13.6112    56.7317   106.8455 </r>
       <r>   -13.4563    42.9286   113.4965 </r>
       <r>   -13.3013    16.0804   115.9878 </r>
       <r>   -13.1464     0.0784   116.0000 </r>
       <r>   -12.9915     0.0000   116.0000 </r>
       <r>   -12.8365     2.8846   116.4469 </r>
       <r>   -12.6816    27.5500   120.7153 </r>
       <r>   -12.5267    86.5016   134.1172 </r>
       <r>   -12.3717   114.8797   151.9157 </r>
       <r>   -12.2168   114.6250   169.6748 </r>
       <r>   -12.0619    97.9220   184.8461 </r>
       <r>   -11.9069    85.9459   198.1618 </r>
       <r>   -11.7520    64.0928   208.0919 </r>
       <r>   -11.5971    20.2317   211.2264 </r>
       <r>   -11.4421     4.9925   211.9999 </r>
       <r>   -11.2872     0.0006   212.0000 </r>
       <r>   -11.1323     0.0000   212.0000 </r>
       <r>   -10.9773     0.0000   212.0000 </r>
       <r>   -10.8224     0.0000   212.0000 </r>
       <r>   -10.6675     0.0000   212.0000 </r>
       <r>   -10.5125     0.0000   212.0000 </r>
       <r>   -10.3576     0.0000   212.0000 </r>
       <r>   -10.2027     0.0000   212.0000 </r>
       <r>   -10.0478     0.0000   212.0000 </r>
       <r>    -9.8928     0.0000   212.0000 </r>
       <r>    -9.7379     0.0000   212.0000 </r>
       <r>    -9.5830     0.0000   212.0000 </r>
       <r>    -9.4280     0.0000   212.0000 </r>
       <r>    -9.2731     0.0000   212.0000 </r>
       <r>    -9.1182     0.0000   212.0000 </r>
       <r>    -8.9632     0.0000   212.0000 </r>
       <r>    -8.8083     0.0000   212.0000 </r>
       <r>    -8.6534     0.0000   212.0000 </r>
       <r>    -8.4984     0.0000   212.0000 </r>
       <r>    -8.3435     0.0000   212.0000 </r>
       <r>    -8.1886     0.0000   212.0000 </r>
       <r>    -8.0336     0.0000   212.0000 </r>
       <r>    -7.8787     0.0000   212.0000 </r>
       <r>    -7.7238     0.0000   212.0000 </r>
       <r>    -7.5688     0.0000   212.0000 </r>
       <r>    -7.4139     0.0000   212.0000 </r>
       <r>    -7.2590     0.0000   212.0000 </r>
       <r>    -7.1040     0.0000   212.0000 </r>
       <r>    -6.9491     0.0000   212.0000 </r>
       <r>    -6.7942     0.0000   212.0000 </r>
       <r>    -6.6392     0.0000   212.0000 </r>
       <r>    -6.4843     0.0000   212.0000 </r>
       <r>    -6.3294     0.0000   212.0000 </r>
       <r>    -6.1744     0.0000   212.0000 </r>
       <r>    -6.0195     0.0000   212.0000 </r>
       <r>    -5.8646     0.0000   212.0000 </r>
       <r>    -5.7097     0.0000   212.0000 </r>
       <r>    -5.5547     0.0000   212.0000 </r>
       <r>    -5.3998     0.0000   212.0000 </r>
       <r>    -5.2449     0.0000   212.0000 </r>
       <r>    -5.0899     0.0000   212.0000 </r>
       <r>    -4.9350     0.0000   212.0000 </r>
       <r>    -4.7801     0.0000   212.0000 </r>
       <r>    -4.6251     0.0000   212.0000 </r>
       <r>    -4.4702     0.0000   212.0000 </r>
       <r>    -4.3153     0.0000   212.0000 </r>
       <r>    -4.1603     0.0000   212.0000 </r>
       <r>    -4.0054     0.0000   212.0000 </r>
       <r>    -3.8505     0.0000   212.0000 </r>
       <r>    -3.6955     0.0000   212.0000 </r>
       <r>    -3.5406     0.0000   212.0000 </r>
       <r>    -3.3857     0.0000   212.0000 </r>
       <r>    -3.2307     0.0000   212.0000 </r>
       <r>    -3.0758     0.0000   212.0000 </r>
       <r>    -2.9209     0.0000   212.0000 </r>
       <r>    -2.7659     0.0000   212.0000 </r>
       <r>    -2.6110     0.5186   212.0803 </r>
       <r>    -2.4561     7.0606   213.1743 </r>
       <r>    -2.3011    13.8012   215.3125 </r>
       <r>    -2.1462    16.3156   217.8403 </r>
       <r>    -1.9913    23.2914   221.4489 </r>
       <r>    -1.8364    25.9450   225.4686 </r>
       <r>    -1.6814    29.8053   230.0864 </r>
       <r>    -1.5265    28.2104   234.4571 </r>
       <r>    -1.3716    34.1537   239.7486 </r>
       <r>    -1.2166    42.3707   246.3132 </r>
       <r>    -1.0617    55.7015   254.9431 </r>
       <r>    -0.9068    73.6121   266.3480 </r>
       <r>    -0.7518    87.7398   279.9417 </r>
       <r>    -0.5969   100.7454   295.5504 </r>
       <r>    -0.4420    92.5035   309.8822 </r>
       <r>    -0.2870    74.8054   321.4719 </r>
       <r>    -0.1321    58.0005   330.4580 </r>
       <r>     0.0228    53.7582   338.7869 </r>
       <r>     0.1778    54.3820   347.2124 </r>
       <r>     0.3327    51.4033   355.1764 </r>
       <r>     0.4876    58.4342   364.2298 </r>
       <r>     0.6426    59.7887   373.4930 </r>
       <r>     0.7975    57.9425   382.4701 </r>
       <r>     0.9524    53.8626   390.8152 </r>
       <r>     1.1074    55.6782   399.4415 </r>
       <r>     1.2623    56.9998   408.2726 </r>
       <r>     1.4172    67.1167   418.6711 </r>
       <r>     1.5722    65.2276   428.7770 </r>
       <r>     1.7271    67.1319   439.1778 </r>
       <r>     1.8820    57.4311   448.0758 </r>
       <r>     2.0369    39.3330   454.1697 </r>
       <r>     2.1919    35.3455   459.6458 </r>
       <r>     2.3468    16.3256   462.1752 </r>
       <r>     2.5017    16.6667   464.7574 </r>
       <r>     2.6567     1.5658   465.0000 </r>
       <r>     2.8116     0.0000   465.0000 </r>
       <r>     2.9665     0.0000   465.0000 </r>
       <r>     3.1215     0.0000   465.0000 </r>
       <r>     3.2764     0.0000   465.0000 </r>
       <r>     3.4313     0.0000   465.0000 </r>
       <r>     3.5863     0.0000   465.0000 </r>
       <r>     3.7412     0.0000   465.0000 </r>
       <r>     3.8961     0.0000   465.0000 </r>
       <r>     4.0511     0.0075   465.0012 </r>
       <r>     4.2060     7.6779   466.1907 </r>
       <r>     4.3609    12.8266   468.1780 </r>
       <r>     4.5159    47.4906   475.5358 </r>
       <r>     4.6708    75.6443   487.2555 </r>
       <r>     4.8257    63.3927   497.0771 </r>
       <r>     4.9807    64.3930   507.0536 </r>
       <r>     5.1356    69.4470   517.8132 </r>
       <r>     5.2905    75.9827   529.5854 </r>
       <r>     5.4455    84.5302   542.6818 </r>
       <r>     5.6004    86.2451   556.0439 </r>
       <r>     5.7553    64.0712   565.9706 </r>
       <r>     5.9102    56.5633   574.7341 </r>
       <r>     6.0652    57.5506   583.6505 </r>
       <r>     6.2201    55.6767   592.2766 </r>
       <r>     6.3750    37.5349   598.0920 </r>
       <r>     6.5300    22.0141   601.5027 </r>
       <r>     6.6849    19.8618   604.5799 </r>
       <r>     6.8398    23.4916   608.2195 </r>
       <r>     6.9948    18.7022   611.1170 </r>
       <r>     7.1497    14.9555   613.4341 </r>
       <r>     7.3046     4.6178   614.1496 </r>
       <r>     7.4596    12.2109   616.0414 </r>
       <r>     7.6145    16.9357   618.6653 </r>
       <r>     7.7694    13.6218   620.7758 </r>
       <r>     7.9244    19.5018   623.7972 </r>
       <r>     8.0793    23.4824   627.4354 </r>
       <r>     8.2342    23.5455   631.0834 </r>
       <r>     8.3892    25.6672   635.0600 </r>
       <r>     8.5441    21.4643   638.3855 </r>
       <r>     8.6990    23.0820   641.9617 </r>
       <r>     8.8540    28.4596   646.3710 </r>
       <r>     9.0089    35.4874   651.8691 </r>
       <r>     9.1638    31.5915   656.7637 </r>
       <r>     9.3188    40.3623   663.0171 </r>
       <r>     9.4737    45.3424   670.0421 </r>
       <r>     9.6286    46.6805   677.2744 </r>
       <r>     9.7836    51.1884   685.2051 </r>
       <r>     9.9385    51.1606   693.1315 </r>
       <r>    10.0934    49.5110   700.8024 </r>
       <r>    10.2483    53.1412   709.0356 </r>
       <r>    10.4033    53.1678   717.2730 </r>
       <r>    10.5582    52.6529   725.4306 </r>
       <r>    10.7131    51.1466   733.3549 </r>
       <r>    10.8681    51.0296   741.2610 </r>
       <r>    11.0230    51.3392   749.2151 </r>
       <r>    11.1779    53.6457   757.5265 </r>
       <r>    11.3329    49.8206   765.2453 </r>
       <r>    11.4878    17.7703   767.9985 </r>
       <r>    11.6427     0.0096   768.0000 </r>
       <r>    11.7977     0.0000   768.0000 </r>
       <r>    11.9526     0.0000   768.0000 </r>
       <r>    12.1075     0.0000   768.0000 </r>
       <r>    12.2625     0.0000   768.0000 </r>
       <r>    12.4174     0.0000   768.0000 </r>
       <r>    12.5723     0.0000   768.0000 </r>
       <r>    12.7273     0.0000   768.0000 </r>
       <r>    12.8822     0.0000   768.0000 </r>
       <r>    13.0371     0.0000   768.0000 </r>
       <r>    13.1921     0.0000   768.0000 </r>
       <r>    13.3470     0.0000   768.0000 </r>
       <r>    13.5019     0.0000   768.0000 </r>
      </set>
     </set>
    </array>
   </total>
  </dos>
 </calculation>
 <structure name="finalpos" >
  <crystal>
   <varray name="basis" >
    <v>      11.17577837      -0.00803827       0.01441654 </v>
    <v>      -0.00795876      11.20167279       0.00628341 </v>
    <v>       0.02087777       0.00872415      15.92155549 </v>
   </varray>
   <i name="volume">   1993.17332916 </i>
   <varray name="rec_basis" >
    <v>       0.08947942       0.00006364      -0.00011737 </v>
    <v>       0.00006427       0.08927245      -0.00004900 </v>
    <v>      -0.00008105      -0.00003529       0.06280806 </v>
   </varray>
  </crystal>
  <varray name="positions" >
   <v>       0.00743867       0.24918381       0.13261039 </v>
   <v>       0.98943289       0.25402490       0.62553589 </v>
   <v>       0.01228062       0.76184835       0.12288625 </v>
   <v>       0.98651483       0.74643379       0.63209458 </v>
   <v>       0.48894172       0.26024862       0.12642012 </v>
   <v>       0.51119737       0.25320002       0.62529805 </v>
   <v>       0.48252233       0.74936799       0.13387301 </v>
   <v>       0.51131503       0.74102645       0.62423782 </v>
   <v>       0.99590935       0.25959252       0.38211621 </v>
   <v>       0.00213004       0.25023991       0.86716382 </v>
   <v>       0.00164784       0.74746815       0.37697106 </v>
   <v>       0.00741107       0.75011545       0.86963164 </v>
   <v>       0.50538724       0.26023010       0.38535587 </v>
   <v>       0.49551126       0.25102804       0.85736866 </v>
   <v>       0.49732846       0.74033937       0.37745466 </v>
   <v>       0.49309895       0.74637357       0.86558137 </v>
   <v>       0.24428576       0.99166420       0.13656136 </v>
   <v>       0.26432449       0.99666497       0.62656960 </v>
   <v>       0.24608166       0.52091306       0.13124936 </v>
   <v>       0.25895075       0.48888046       0.63082039 </v>
   <v>       0.75747824       0.99653514       0.13778385 </v>
   <v>       0.74142309       0.00394695       0.62930921 </v>
   <v>       0.74096235       0.49909202       0.12413865 </v>
   <v>       0.74391526       0.49407853       0.62086021 </v>
   <v>       0.25768886       0.00551661       0.37490844 </v>
   <v>       0.26279725       0.99861745       0.86450638 </v>
   <v>       0.26057650       0.49439956       0.38121921 </v>
   <v>       0.24943584       0.49460700       0.86645996 </v>
   <v>       0.74439252       0.01226003       0.37898385 </v>
   <v>       0.75442168       0.00450524       0.86406564 </v>
   <v>       0.73747203       0.49065205       0.38459257 </v>
   <v>       0.74875033       0.49080654       0.85717506 </v>
   <v>       0.99777347       0.99529913       0.51098995 </v>
   <v>       0.52493429       0.01007655       0.00463913 </v>
   <v>       0.50511509       0.00131119       0.49890256 </v>
   <v>       0.74450170       0.75813775       0.25435306 </v>
   <v>       0.00575141       0.00040840       0.75044244 </v>
   <v>       0.00593912       0.49592710       0.24946385 </v>
   <v>       0.00364266       0.49849387       0.74771093 </v>
   <v>       0.49540308       0.50066383       0.24840021 </v>
   <v>       0.02784276       0.99783198       0.99439733 </v>
   <v>       0.97253368       0.51337187       0.99887013 </v>
   <v>       0.99104412       0.49174607       0.50183628 </v>
   <v>       0.46770470       0.49251273       0.99988213 </v>
   <v>       0.50055288       0.49662743       0.50623237 </v>
   <v>       0.25868249       0.23357465       0.00264543 </v>
   <v>       0.25499383       0.24635310       0.48806785 </v>
   <v>       0.24146527       0.74213013       0.00034216 </v>
   <v>       0.25658841       0.76169760       0.48894392 </v>
   <v>       0.73345905       0.26717759       0.98800645 </v>
   <v>       0.74975682       0.24720417       0.50214103 </v>
   <v>       0.76483754       0.76665843       0.01344874 </v>
   <v>       0.75501347       0.74783185       0.49224321 </v>
   <v>       0.24195051       0.25711663       0.24968620 </v>
   <v>       0.25024186       0.24469711       0.75816930 </v>
   <v>       0.24196611       0.75609944       0.25397744 </v>
   <v>       0.25321153       0.74882499       0.76031773 </v>
   <v>       0.74185800       0.25402651       0.25865296 </v>
   <v>       0.75091492       0.24755963       0.74620644 </v>
   <v>       0.75144411       0.75124221       0.73975800 </v>
   <v>       0.99828054       0.00591694       0.23940510 </v>
   <v>       0.50508696       0.99653649       0.25093736 </v>
   <v>       0.50420261       0.99308368       0.74646716 </v>
   <v>       0.50114497       0.49946824       0.74925371 </v>
   <v>       0.11634319       0.13026034       0.26746790 </v>
   <v>       0.13138851       0.12560915       0.72150201 </v>
   <v>       0.08948294       0.64477117       0.24244825 </v>
   <v>       0.12954547       0.62608753       0.75583271 </v>
   <v>       0.61289648       0.13192625       0.22759552 </v>
   <v>       0.62388259       0.11953142       0.75361311 </v>
   <v>       0.62148201       0.62956985       0.24947248 </v>
   <v>       0.63129832       0.62981393       0.76446547 </v>
   <v>       0.37724554       0.36970068       0.24218329 </v>
   <v>       0.37333906       0.36462704       0.73851006 </v>
   <v>       0.36899182       0.88651028       0.25938617 </v>
   <v>       0.37888885       0.86583830       0.73856201 </v>
   <v>       0.86244453       0.39940203       0.24880820 </v>
   <v>       0.87650976       0.37941464       0.74226341 </v>
   <v>       0.87240449       0.88455978       0.26248588 </v>
   <v>       0.88071684       0.87189751       0.76662390 </v>
   <v>       0.37615151       0.11758701       0.74488040 </v>
   <v>       0.36433791       0.62188786       0.25013413 </v>
   <v>       0.37253306       0.62388935       0.74455849 </v>
   <v>       0.86760371       0.13860617       0.23533582 </v>
   <v>       0.88210641       0.12349557       0.75408902 </v>
   <v>       0.87931670       0.62740530       0.76081705 </v>
   <v>       0.12856186       0.38406158       0.24403336 </v>
   <v>       0.12684565       0.36933157       0.74235633 </v>
   <v>       0.12058311       0.88843723       0.26436375 </v>
   <v>       0.13152317       0.87169052       0.73410695 </v>
   <v>       0.62337837       0.37774356       0.23721512 </v>
   <v>       0.62496315       0.37297192       0.75038415 </v>
   <v>       0.62595987       0.87676082       0.25397359 </v>
   <v>       0.63339388       0.87334506       0.76531799 </v>
   <v>       0.32108144       0.39769292       0.01048205 </v>
   <v>       0.37043837       0.37381673       0.51215241 </v>
   <v>       0.37320113       0.88028164       0.49165578 </v>
   <v>       0.87239639       0.34465468       0.02445243 </v>
   <v>       0.86961643       0.37814779       0.50154097 </v>
   <v>       0.88978040       0.88881713       0.98049410 </v>
   <v>       0.88015927       0.88537950       0.46969299 </v>
   <v>       0.09650366       0.16406522       0.00273320 </v>
   <v>       0.13180256       0.10572785       0.49274290 </v>
   <v>       0.10818411       0.63492859       0.99796811 </v>
   <v>       0.66482632       0.11030515       0.01608562 </v>
   <v>       0.63058895       0.11878532       0.50204558 </v>
   <v>       0.62344230       0.62827209       0.49540373 </v>
   <v>       0.12590431       0.36726776       0.50245771 </v>
   <v>       0.17055854       0.90590137       0.00203165 </v>
   <v>       0.11645087       0.84974802       0.51597133 </v>
   <v>       0.60852771       0.37352590       0.00969841 </v>
   <v>       0.62263047       0.37191746       0.50223270 </v>
   <v>       0.61320048       0.85488012       0.01142721 </v>
   <v>       0.62472150       0.87402601       0.47414017 </v>
   <v>       0.39996020       0.13751919       0.99560097 </v>
   <v>       0.37667391       0.12904481       0.52051075 </v>
   <v>       0.39289952       0.65455285       0.00035260 </v>
   <v>       0.34131061       0.62838688       0.52430323 </v>
   <v>       0.88929096       0.12521763       0.48429869 </v>
   <v>       0.83383691       0.60986384       0.98001172 </v>
   <v>       0.89680747       0.63622383       0.50565898 </v>
   <v>       0.99493963       0.00164937       0.11890010 </v>
   <v>       0.97123600       0.99036921       0.62468651 </v>
   <v>       0.99521876       0.50377580       0.12129618 </v>
   <v>       0.01789031       0.51455566       0.62498114 </v>
   <v>       0.47355492       0.98804634       0.12065513 </v>
   <v>       0.51489397       0.97877748       0.62093354 </v>
   <v>       0.49911139       0.51657621       0.12076783 </v>
   <v>       0.51358788       0.50884216       0.62792102 </v>
   <v>       0.03168842       0.01462427       0.86981862 </v>
   <v>       0.00965532       0.50617420       0.37389930 </v>
   <v>       0.00849857       0.47452751       0.88225214 </v>
   <v>       0.48755335       0.03525798       0.36958867 </v>
   <v>       0.49336730       0.98204117       0.88767940 </v>
   <v>       0.49106858       0.49968599       0.37490885 </v>
   <v>       0.48920175       0.49354777       0.87910554 </v>
   <v>       0.27663630       0.24108701       0.36905801 </v>
   <v>       0.24580409       0.24817574       0.87738970 </v>
   <v>       0.23375083       0.72279266       0.37679831 </v>
   <v>       0.25817471       0.76694409       0.87835993 </v>
   <v>       0.74237353       0.24898313       0.37475360 </v>
   <v>       0.75933647       0.24649955       0.87480419 </v>
   <v>       0.77896042       0.70864988       0.36429503 </v>
   <v>       0.25899862       0.21629986       0.13291991 </v>
   <v>       0.24922978       0.75763409       0.12636741 </v>
   <v>       0.75653725       0.23827837       0.62460534 </v>
   <v>       0.78908487       0.72423125       0.14033668 </v>
   <v>       0.75287122       0.76582138       0.62039170 </v>
  </varray>
 </structure>
</modeling>
