<?xml version="1.0" encoding="ISO-8859-1"?>
<modeling>
 <generator>
  <i name="program" type="string">vasp </i>
  <i name="version" type="string">5.4.1  </i>
  <i name="subversion" type="string">05Feb16 (build Jan 25 2017 20:16:33) complex                          parallel </i>
  <i name="platform" type="string">BWXE6 </i>
  <i name="date" type="string">2019 07 14 </i>
  <i name="time" type="string">00:46:16 </i>
 </generator>
 <incar>
  <i type="string" name="SYSTEM"> STF</i>
  <i type="string" name="PREC">normal</i>
  <i type="string" name="ALGO"> Fast</i>
  <i type="int" name="ISPIN">     2</i>
  <i type="int" name="NELM">    40</i>
  <i type="int" name="NELMIN">     8</i>
  <i type="int" name="IBRION">     2</i>
  <i name="EDIFF">      0.00010000</i>
  <i name="EDIFFG">     -0.03000000</i>
  <i type="int" name="NSW">    30</i>
  <i type="int" name="ISIF">     3</i>
  <i name="ENCUT">    520.00000000</i>
  <i type="int" name="NBANDS">   768</i>
  <v name="MAGMOM">      0.60000000      0.60000000      0.60000000      0.60000000      0.60000000      0.60000000      0.60000000      0.60000000      0.60000000      0.60000000      0.60000000      0.60000000      0.60000000      0.60000000      0.60000000      0.60000000      0.60000000      0.60000000      0.60000000      0.60000000
      0.60000000      0.60000000      0.60000000      0.60000000      0.60000000      0.60000000      0.60000000      0.60000000      0.60000000      0.60000000      0.60000000      0.60000000      0.60000000      0.60000000      0.60000000      0.60000000      0.60000000      0.60000000      0.60000000      0.60000000
      0.60000000      0.60000000      0.60000000      0.60000000      0.60000000      0.60000000      0.60000000      0.60000000      5.00000000      5.00000000      5.00000000      5.00000000      5.00000000      5.00000000      5.00000000      5.00000000      5.00000000      5.00000000      5.00000000      5.00000000
      5.00000000      5.00000000      5.00000000      5.00000000      0.60000000      0.60000000      0.60000000      0.60000000      0.60000000      0.60000000      0.60000000      0.60000000      0.60000000      0.60000000      0.60000000      0.60000000      0.60000000      0.60000000      0.60000000      0.60000000
      0.60000000      0.60000000      0.60000000      0.60000000      0.60000000      0.60000000      0.60000000      0.60000000      0.60000000      0.60000000      0.60000000      0.60000000      0.60000000      0.60000000      0.60000000      0.60000000      0.60000000      0.60000000      0.60000000      0.60000000
      0.60000000      0.60000000      0.60000000      0.60000000      0.60000000      0.60000000      0.60000000      0.60000000      0.60000000      0.60000000      0.60000000      0.60000000      0.60000000      0.60000000      0.60000000      0.60000000      0.60000000      0.60000000      0.60000000      0.60000000
      0.60000000      0.60000000      0.60000000      0.60000000      0.60000000      0.60000000      0.60000000      0.60000000      0.60000000      0.60000000      0.60000000      0.60000000      0.60000000      0.60000000      0.60000000      0.60000000      0.60000000      0.60000000      0.60000000      0.60000000
      0.60000000      0.60000000      0.60000000      0.60000000      0.60000000      0.60000000      0.60000000      0.60000000      0.60000000      0.60000000      0.60000000      0.60000000</v>
  <i type="string" name="LREAL"> Auto</i>
  <i type="int" name="ISMEAR">     0</i>
  <i name="SIGMA">      0.05000000</i>
  <i type="int" name="LMAXMIX">     4</i>
  <v type="int" name="KPOINT_BSE">    -1     0     0     0</v>
  <i type="int" name="NELM">    40</i>
  <i type="logical" name="LDAU"> T  </i>
  <v type="int" name="LDAUTYPE">     2</v>
  <v type="int" name="LDAUL">     0     2     2     0</v>
  <v name="LDAUU">      0.00000000      3.00000000      5.00000000      0.00000000</v>
  <v name="LDAUJ">      0.00000000      0.00000000      0.00000000      0.00000000</v>
  <i type="int" name="LDAUPRINT">     1</i>
 </incar>
 <kpoints>
  <generation param="Monkhorst-Pack">
   <v type="int" name="divisions">       2        2        2 </v>
   <v name="usershift">      0.00000000       0.00000000       0.00000000 </v>
   <v name="genvec1">      0.50000000      -0.00000000      -0.00000000 </v>
   <v name="genvec2">     -0.00000000       0.50000000      -0.00000000 </v>
   <v name="genvec3">      0.00000000       0.00000000       0.50000000 </v>
   <v name="shift">      0.50000000       0.50000000       0.50000000 </v>
  </generation>
  <varray name="kpointlist" >
   <v>       0.25000000       0.25000000       0.25000000 </v>
   <v>      -0.25000000       0.25000000       0.25000000 </v>
   <v>       0.25000000      -0.25000000       0.25000000 </v>
   <v>      -0.25000000      -0.25000000       0.25000000 </v>
  </varray>
  <varray name="weights" >
   <v>       0.25000000 </v>
   <v>       0.25000000 </v>
   <v>       0.25000000 </v>
   <v>       0.25000000 </v>
  </varray>
 </kpoints>
 <parameters>
  <separator name="general" >
   <i type="string" name="SYSTEM">STF</i>
   <i type="logical" name="LCOMPAT"> F  </i>
  </separator>
  <separator name="electronic" >
   <i type="string" name="PREC">normal</i>
   <i name="ENMAX">    520.00000000</i>
   <i name="ENAUG">    605.39200000</i>
   <i name="EDIFF">      0.00010000</i>
   <i type="int" name="IALGO">    68</i>
   <i type="int" name="IWAVPR">    11</i>
   <i type="int" name="NBANDS">   768</i>
   <i name="NELECT">   1040.00000000</i>
   <i type="int" name="TURBO">     0</i>
   <i type="int" name="IRESTART">     0</i>
   <i type="int" name="NREBOOT">     0</i>
   <i type="int" name="NMIN">     0</i>
   <i name="EREF">      0.00000000</i>
   <separator name="electronic smearing" >
    <i type="int" name="ISMEAR">     0</i>
    <i name="SIGMA">      0.05000000</i>
    <i name="KSPACING">      0.50000000</i>
    <i type="logical" name="KGAMMA"> T  </i>
   </separator>
   <separator name="electronic projectors" >
    <i type="logical" name="LREAL"> T  </i>
    <v name="ROPT">     -0.00050000     -0.00050000     -0.00050000     -0.00050000</v>
    <i type="int" name="LMAXPAW">  -100</i>
    <i type="int" name="LMAXMIX">     4</i>
    <i type="logical" name="NLSPLINE"> F  </i>
   </separator>
   <separator name="electronic startup" >
    <i type="int" name="ISTART">     1</i>
    <i type="int" name="ICHARG">     0</i>
    <i type="int" name="INIWAV">     1</i>
   </separator>
   <separator name="electronic spin" >
    <i type="int" name="ISPIN">     2</i>
    <i type="logical" name="LNONCOLLINEAR"> F  </i>
    <v name="MAGMOM">      0.60000000      0.60000000      0.60000000      0.60000000      0.60000000      0.60000000      0.60000000      0.60000000      0.60000000      0.60000000      0.60000000      0.60000000      0.60000000      0.60000000      0.60000000      0.60000000      0.60000000      0.60000000      0.60000000      0.60000000
      0.60000000      0.60000000      0.60000000      0.60000000      0.60000000      0.60000000      0.60000000      0.60000000      0.60000000      0.60000000      0.60000000      0.60000000      0.60000000      0.60000000      0.60000000      0.60000000      0.60000000      0.60000000      0.60000000      0.60000000
      0.60000000      0.60000000      0.60000000      0.60000000      0.60000000      0.60000000      0.60000000      0.60000000      5.00000000      5.00000000      5.00000000      5.00000000      5.00000000      5.00000000      5.00000000      5.00000000      5.00000000      5.00000000      5.00000000      5.00000000
      5.00000000      5.00000000      5.00000000      5.00000000      0.60000000      0.60000000      0.60000000      0.60000000      0.60000000      0.60000000      0.60000000      0.60000000      0.60000000      0.60000000      0.60000000      0.60000000      0.60000000      0.60000000      0.60000000      0.60000000
      0.60000000      0.60000000      0.60000000      0.60000000      0.60000000      0.60000000      0.60000000      0.60000000      0.60000000      0.60000000      0.60000000      0.60000000      0.60000000      0.60000000      0.60000000      0.60000000      0.60000000      0.60000000      0.60000000      0.60000000
      0.60000000      0.60000000      0.60000000      0.60000000      0.60000000      0.60000000      0.60000000      0.60000000      0.60000000      0.60000000      0.60000000      0.60000000      0.60000000      0.60000000      0.60000000      0.60000000      0.60000000      0.60000000      0.60000000      0.60000000
      0.60000000      0.60000000      0.60000000      0.60000000      0.60000000      0.60000000      0.60000000      0.60000000      0.60000000      0.60000000      0.60000000      0.60000000      0.60000000      0.60000000      0.60000000      0.60000000      0.60000000      0.60000000      0.60000000      0.60000000
      0.60000000      0.60000000      0.60000000      0.60000000      0.60000000      0.60000000      0.60000000      0.60000000      0.60000000      0.60000000      0.60000000      0.60000000</v>
    <i name="NUPDOWN">     -1.00000000</i>
    <i type="logical" name="LSORBIT"> F  </i>
    <v name="SAXIS">      0.00000000      0.00000000      1.00000000</v>
    <i type="logical" name="LSPIRAL"> F  </i>
    <v name="QSPIRAL">      0.00000000      0.00000000      0.00000000</v>
    <i type="logical" name="LZEROZ"> F  </i>
   </separator>
   <separator name="electronic exchange-correlation" >
    <i type="logical" name="LASPH"> F  </i>
    <i type="logical" name="LMETAGGA"> F  </i>
   </separator>
   <separator name="electronic convergence" >
    <i type="int" name="NELM">    40</i>
    <i type="int" name="NELMDL">     0</i>
    <i type="int" name="NELMIN">     8</i>
    <i name="ENINI">    520.00000000</i>
    <separator name="electronic convergence detail" >
     <i type="logical" name="LDIAG"> T  </i>
     <i type="logical" name="LSUBROT"> F  </i>
     <i name="WEIMIN">      0.00100000</i>
     <i name="EBREAK">      0.00000003</i>
     <i name="DEPER">      0.30000000</i>
     <i type="int" name="NRMM">     4</i>
     <i name="TIME">      0.40000000</i>
    </separator>
   </separator>
   <separator name="electronic mixer" >
    <i name="AMIX">      0.40000000</i>
    <i name="BMIX">      1.00000000</i>
    <i name="AMIN">      0.10000000</i>
    <i name="AMIX_MAG">      1.60000000</i>
    <i name="BMIX_MAG">      1.00000000</i>
    <separator name="electronic mixer details" >
     <i type="int" name="IMIX">     4</i>
     <i type="logical" name="MIXFIRST"> F  </i>
     <i type="int" name="MAXMIX">   -45</i>
     <i name="WC">    100.00000000</i>
     <i type="int" name="INIMIX">     1</i>
     <i type="int" name="MIXPRE">     1</i>
     <i type="int" name="MREMOVE">     5</i>
    </separator>
   </separator>
   <separator name="electronic dipolcorrection" >
    <i type="logical" name="LDIPOL"> F  </i>
    <i type="logical" name="LMONO"> F  </i>
    <i type="int" name="IDIPOL">     0</i>
    <i name="EPSILON">      1.00000000</i>
    <v name="DIPOL">   -100.00000000   -100.00000000   -100.00000000</v>
    <i name="EFIELD">      0.00000000</i>
   </separator>
  </separator>
  <separator name="grids" >
   <i type="int" name="NGX">    64</i>
   <i type="int" name="NGY">    64</i>
   <i type="int" name="NGZ">    90</i>
   <i type="int" name="NGXF">   128</i>
   <i type="int" name="NGYF">   128</i>
   <i type="int" name="NGZF">   180</i>
   <i type="logical" name="ADDGRID"> F  </i>
  </separator>
  <separator name="ionic" >
   <i type="int" name="NSW">    30</i>
   <i type="int" name="IBRION">     2</i>
   <i type="int" name="ISIF">     3</i>
   <i name="PSTRESS">      0.00000000</i>
   <i name="EDIFFG">     -0.03000000</i>
   <i type="int" name="NFREE">     1</i>
   <i name="POTIM">      0.50000000</i>
   <i name="SMASS">     -3.00000000</i>
   <i name="SCALEE">      1.00000000</i>
  </separator>
  <separator name="ionic md" >
   <i name="TEBEG">      0.00010000</i>
   <i name="TEEND">      0.00010000</i>
   <i type="int" name="NBLOCK">     1</i>
   <i type="int" name="KBLOCK">    30</i>
   <i type="int" name="NPACO">   256</i>
   <i name="APACO">     16.00000000</i>
  </separator>
  <separator name="symmetry" >
   <i type="int" name="ISYM">     2</i>
   <i name="SYMPREC">      0.00001000</i>
  </separator>
  <separator name="dos" >
   <i type="logical" name="LORBIT"> F  </i>
   <v name="RWIGS">     -1.00000000     -1.00000000     -1.00000000     -1.00000000</v>
   <i type="int" name="NEDOS">   301</i>
   <i name="EMIN">     10.00000000</i>
   <i name="EMAX">    -10.00000000</i>
   <i name="EFERMI">      0.00000000</i>
  </separator>
  <separator name="writing" >
   <i type="int" name="NWRITE">     2</i>
   <i type="logical" name="LWAVE"> T  </i>
   <i type="logical" name="LCHARG"> T  </i>
   <i type="logical" name="LPARD"> F  </i>
   <i type="logical" name="LVTOT"> F  </i>
   <i type="logical" name="LVHAR"> F  </i>
   <i type="logical" name="LELF"> F  </i>
   <i type="logical" name="LOPTICS"> F  </i>
   <v name="STM">      0.00000000      0.00000000      0.00000000      0.00000000      0.00000000      0.00000000      0.00000000</v>
  </separator>
  <separator name="performance" >
   <i type="int" name="NPAR">     2</i>
   <i type="int" name="NSIM">     4</i>
   <i type="int" name="NBLK">    -1</i>
   <i type="logical" name="LPLANE"> T  </i>
   <i type="logical" name="LSCALAPACK"> T  </i>
   <i type="logical" name="LSCAAWARE"> F  </i>
   <i type="logical" name="LSCALU"> F  </i>
   <i type="logical" name="LASYNC"> F  </i>
   <i type="logical" name="LORBITALREAL"> F  </i>
  </separator>
  <separator name="miscellaneous" >
   <i type="int" name="IDIOT">     3</i>
   <i type="logical" name="LMUSIC"> F  </i>
   <v name="POMASS">     87.62000000     47.88000000     55.84700000     16.00000000</v>
   <v name="DARWINR">      0.00000000      0.00000000      0.00000000      0.00000000</v>
   <v name="DARWINV">      1.00000000      1.00000000      1.00000000      1.00000000</v>
   <i type="logical" name="LCORR"> T  </i>
  </separator>
  <i type="logical" name="GGA_COMPAT"> T  </i>
  <i type="logical" name="LBERRY"> F  </i>
  <i type="int" name="ICORELEVEL">     0</i>
  <i type="logical" name="LDAU"> T  </i>
  <v type="int" name="LDAUTYPE">     2</v>
  <v type="int" name="LDAUL">     0</v>
  <v name="LDAUU">      0.00000000</v>
  <v name="LDAUJ">      0.00000000</v>
  <i type="int" name="LDAUPRINT">     1</i>
  <i type="int" name="I_CONSTRAINED_M">     0</i>
  <separator name="electronic exchange-correlation" >
   <i type="string" name="GGA">--</i>
   <i type="int" name="VOSKOWN">     0</i>
   <i type="logical" name="LHFCALC"> F  </i>
   <i type="string" name="PRECFOCK"></i>
   <i type="logical" name="LSYMGRAD"> F  </i>
   <i type="logical" name="LHFONE"> F  </i>
   <i type="logical" name="LRHFCALC"> F  </i>
   <i type="logical" name="LTHOMAS"> F  </i>
   <i type="logical" name="LMODELHF"> F  </i>
   <i name="ENCUT4O">     -1.00000000</i>
   <i type="int" name="EXXOEP">     0</i>
   <i type="int" name="FOURORBIT">     0</i>
   <i name="AEXX">      0.00000000</i>
   <i name="HFALPHA">      0.00000000</i>
   <i name="MCALPHA">      0.00000000</i>
   <i name="ALDAX">      1.00000000</i>
   <i name="AGGAX">      1.00000000</i>
   <i name="ALDAC">      1.00000000</i>
   <i name="AGGAC">      1.00000000</i>
   <i type="int" name="NKREDX">     1</i>
   <i type="int" name="NKREDY">     1</i>
   <i type="int" name="NKREDZ">     1</i>
   <i type="logical" name="SHIFTRED"> F  </i>
   <i type="logical" name="ODDONLY"> F  </i>
   <i type="logical" name="EVENONLY"> F  </i>
   <i type="int" name="LMAXFOCK">     0</i>
   <i type="int" name="NMAXFOCKAE">     0</i>
   <i type="logical" name="LFOCKAEDFT"> F  </i>
   <i name="HFSCREEN">      0.00000000</i>
   <i name="HFSCREENC">      0.00000000</i>
   <i type="int" name="NBANDSGWLOW">     0</i>
  </separator>
  <separator name="vdW DFT" >
   <i type="logical" name="LUSE_VDW"> F  </i>
   <i name="Zab_VDW">     -0.84910000</i>
   <i name="PARAM1">      0.12340000</i>
   <i name="PARAM2">      1.00000000</i>
   <i name="PARAM3">      0.00000000</i>
  </separator>
  <separator name="model GW" >
   <i type="int" name="MODEL_GW">     0</i>
   <i name="MODEL_EPS0">      7.92049518</i>
   <i name="MODEL_ALPHA">      1.00000000</i>
  </separator>
  <separator name="linear response parameters" >
   <i type="logical" name="LEPSILON"> F  </i>
   <i type="logical" name="LRPA"> F  </i>
   <i type="logical" name="LNABLA"> F  </i>
   <i type="logical" name="LVEL"> F  </i>
   <i type="int" name="KINTER">     0</i>
   <i name="CSHIFT">      0.10000000</i>
   <i name="OMEGAMAX">     -1.00000000</i>
   <i name="DEG_THRESHOLD">      0.00200000</i>
  </separator>
  <separator name="orbital magnetization" >
   <i type="logical" name="NUCIND"> F  </i>
   <v name="MAGPOS">      0.00000000      0.00000000      0.00000000</v>
   <i type="logical" name="LNICSALL"> T  </i>
   <i type="logical" name="ORBITALMAG"> F  </i>
   <i type="logical" name="LMAGBLOCH"> F  </i>
   <i type="logical" name="LCHIMAG"> F  </i>
   <i type="logical" name="LGAUGE"> T  </i>
   <i type="int" name="MAGATOM">     0</i>
   <v name="MAGDIPOL">      0.00000000      0.00000000      0.00000000</v>
   <v name="AVECCONST">      0.00000000      0.00000000      0.00000000</v>
  </separator>
  <separator name="response functions" >
   <i type="logical" name="LADDER"> F  </i>
   <i type="logical" name="LFXC"> F  </i>
   <i type="logical" name="LHARTREE"> T  </i>
   <i type="int" name="IBSE">     0</i>
   <v type="int" name="KPOINT">    -1     0     0     0</v>
   <i type="logical" name="LTCTE"> F  </i>
   <i type="logical" name="LTETE"> F  </i>
   <i type="logical" name="LTRIPLET"> F  </i>
   <i type="logical" name="LFXCEPS"> F  </i>
   <i type="logical" name="LFXHEG"> F  </i>
   <i type="int" name="NATURALO">     0</i>
   <i type="logical" name="L2ORDER"> F  </i>
   <i type="logical" name="LUSEW"> F  </i>
   <i name="ENCUTGW">     -2.00000000</i>
   <i name="ENCUTGWSOFT">     -2.00000000</i>
   <i name="ENCUTLF">     -1.00000000</i>
   <i type="int" name="LMAXMP2">    -1</i>
   <i name="SCISSOR">      0.00000000</i>
   <i type="int" name="NOMEGA">     0</i>
   <i type="int" name="NOMEGAR">     0</i>
   <i type="int" name="NBANDSGW">    -1</i>
   <i type="int" name="NBANDSO">    -1</i>
   <i type="int" name="NBANDSV">    -1</i>
   <i type="int" name="NELM">    40</i>
   <i type="int" name="NELMHF">     1</i>
   <i type="int" name="DIM">     3</i>
   <i type="int" name="ANTIRES">     0</i>
   <i name="OMEGAMAX">    -30.00000000</i>
   <i name="OMEGAMIN">    -30.00000000</i>
   <i name="OMEGATL">   -200.00000000</i>
   <i type="int" name="OMEGAGRID">     0</i>
   <i name="CSHIFT">     -0.10000000</i>
   <i type="logical" name="SELFENERGY"> F  </i>
   <i type="logical" name="LSPECTRAL"> F  </i>
   <i type="logical" name="LSPECTRALGW"> F  </i>
   <i type="logical" name="LSINGLES"> F  </i>
   <i type="logical" name="LFERMIGW"> F  </i>
   <i type="logical" name="ODDONLYGW"> F  </i>
   <i type="logical" name="EVENONLYGW"> F  </i>
   <i type="int" name="NKREDLFX">     1</i>
   <i type="int" name="NKREDLFY">     1</i>
   <i type="int" name="NKREDLFZ">     1</i>
   <i type="int" name="MAXMEM">  1800</i>
   <i type="int" name="TELESCOPE">     0</i>
   <i type="int" name="TAUPAR">     1</i>
   <i type="int" name="OMEGAPAR">    -1</i>
   <i name="LAMBDA">      1.00000000</i>
  </separator>
  <separator name="External order field" >
   <i name="OFIELD_KAPPA">      0.00000000</i>
   <v name="OFIELD_K">      0.00000000      0.00000000      0.00000000</v>
   <i name="OFIELD_Q6_NEAR">      0.00000000</i>
   <i name="OFIELD_Q6_FAR">      0.00000000</i>
   <i name="OFIELD_A">      0.00000000</i>
  </separator>
 </parameters>
 <atominfo>
  <atoms>     152 </atoms>
  <types>       4 </types>
  <array name="atoms" >
   <dimension dim="1">ion</dimension>
   <field type="string">element</field>
   <field type="int">atomtype</field>
   <set>
    <rc><c>Sr</c><c>   1</c></rc>
    <rc><c>Sr</c><c>   1</c></rc>
    <rc><c>Sr</c><c>   1</c></rc>
    <rc><c>Sr</c><c>   1</c></rc>
    <rc><c>Sr</c><c>   1</c></rc>
    <rc><c>Sr</c><c>   1</c></rc>
    <rc><c>Sr</c><c>   1</c></rc>
    <rc><c>Sr</c><c>   1</c></rc>
    <rc><c>Sr</c><c>   1</c></rc>
    <rc><c>Sr</c><c>   1</c></rc>
    <rc><c>Sr</c><c>   1</c></rc>
    <rc><c>Sr</c><c>   1</c></rc>
    <rc><c>Sr</c><c>   1</c></rc>
    <rc><c>Sr</c><c>   1</c></rc>
    <rc><c>Sr</c><c>   1</c></rc>
    <rc><c>Sr</c><c>   1</c></rc>
    <rc><c>Sr</c><c>   1</c></rc>
    <rc><c>Sr</c><c>   1</c></rc>
    <rc><c>Sr</c><c>   1</c></rc>
    <rc><c>Sr</c><c>   1</c></rc>
    <rc><c>Sr</c><c>   1</c></rc>
    <rc><c>Sr</c><c>   1</c></rc>
    <rc><c>Sr</c><c>   1</c></rc>
    <rc><c>Sr</c><c>   1</c></rc>
    <rc><c>Sr</c><c>   1</c></rc>
    <rc><c>Sr</c><c>   1</c></rc>
    <rc><c>Sr</c><c>   1</c></rc>
    <rc><c>Sr</c><c>   1</c></rc>
    <rc><c>Sr</c><c>   1</c></rc>
    <rc><c>Sr</c><c>   1</c></rc>
    <rc><c>Sr</c><c>   1</c></rc>
    <rc><c>Sr</c><c>   1</c></rc>
    <rc><c>Ti</c><c>   2</c></rc>
    <rc><c>Ti</c><c>   2</c></rc>
    <rc><c>Ti</c><c>   2</c></rc>
    <rc><c>Ti</c><c>   2</c></rc>
    <rc><c>Ti</c><c>   2</c></rc>
    <rc><c>Ti</c><c>   2</c></rc>
    <rc><c>Ti</c><c>   2</c></rc>
    <rc><c>Ti</c><c>   2</c></rc>
    <rc><c>Ti</c><c>   2</c></rc>
    <rc><c>Ti</c><c>   2</c></rc>
    <rc><c>Ti</c><c>   2</c></rc>
    <rc><c>Ti</c><c>   2</c></rc>
    <rc><c>Ti</c><c>   2</c></rc>
    <rc><c>Ti</c><c>   2</c></rc>
    <rc><c>Ti</c><c>   2</c></rc>
    <rc><c>Ti</c><c>   2</c></rc>
    <rc><c>Fe</c><c>   3</c></rc>
    <rc><c>Fe</c><c>   3</c></rc>
    <rc><c>Fe</c><c>   3</c></rc>
    <rc><c>Fe</c><c>   3</c></rc>
    <rc><c>Fe</c><c>   3</c></rc>
    <rc><c>Fe</c><c>   3</c></rc>
    <rc><c>Fe</c><c>   3</c></rc>
    <rc><c>Fe</c><c>   3</c></rc>
    <rc><c>Fe</c><c>   3</c></rc>
    <rc><c>Fe</c><c>   3</c></rc>
    <rc><c>Fe</c><c>   3</c></rc>
    <rc><c>Fe</c><c>   3</c></rc>
    <rc><c>Fe</c><c>   3</c></rc>
    <rc><c>Fe</c><c>   3</c></rc>
    <rc><c>Fe</c><c>   3</c></rc>
    <rc><c>Fe</c><c>   3</c></rc>
    <rc><c>O </c><c>   4</c></rc>
    <rc><c>O </c><c>   4</c></rc>
    <rc><c>O </c><c>   4</c></rc>
    <rc><c>O </c><c>   4</c></rc>
    <rc><c>O </c><c>   4</c></rc>
    <rc><c>O </c><c>   4</c></rc>
    <rc><c>O </c><c>   4</c></rc>
    <rc><c>O </c><c>   4</c></rc>
    <rc><c>O </c><c>   4</c></rc>
    <rc><c>O </c><c>   4</c></rc>
    <rc><c>O </c><c>   4</c></rc>
    <rc><c>O </c><c>   4</c></rc>
    <rc><c>O </c><c>   4</c></rc>
    <rc><c>O </c><c>   4</c></rc>
    <rc><c>O </c><c>   4</c></rc>
    <rc><c>O </c><c>   4</c></rc>
    <rc><c>O </c><c>   4</c></rc>
    <rc><c>O </c><c>   4</c></rc>
    <rc><c>O </c><c>   4</c></rc>
    <rc><c>O </c><c>   4</c></rc>
    <rc><c>O </c><c>   4</c></rc>
    <rc><c>O </c><c>   4</c></rc>
    <rc><c>O </c><c>   4</c></rc>
    <rc><c>O </c><c>   4</c></rc>
    <rc><c>O </c><c>   4</c></rc>
    <rc><c>O </c><c>   4</c></rc>
    <rc><c>O </c><c>   4</c></rc>
    <rc><c>O </c><c>   4</c></rc>
    <rc><c>O </c><c>   4</c></rc>
    <rc><c>O </c><c>   4</c></rc>
    <rc><c>O </c><c>   4</c></rc>
    <rc><c>O </c><c>   4</c></rc>
    <rc><c>O </c><c>   4</c></rc>
    <rc><c>O </c><c>   4</c></rc>
    <rc><c>O </c><c>   4</c></rc>
    <rc><c>O </c><c>   4</c></rc>
    <rc><c>O </c><c>   4</c></rc>
    <rc><c>O </c><c>   4</c></rc>
    <rc><c>O </c><c>   4</c></rc>
    <rc><c>O </c><c>   4</c></rc>
    <rc><c>O </c><c>   4</c></rc>
    <rc><c>O </c><c>   4</c></rc>
    <rc><c>O </c><c>   4</c></rc>
    <rc><c>O </c><c>   4</c></rc>
    <rc><c>O </c><c>   4</c></rc>
    <rc><c>O </c><c>   4</c></rc>
    <rc><c>O </c><c>   4</c></rc>
    <rc><c>O </c><c>   4</c></rc>
    <rc><c>O </c><c>   4</c></rc>
    <rc><c>O </c><c>   4</c></rc>
    <rc><c>O </c><c>   4</c></rc>
    <rc><c>O </c><c>   4</c></rc>
    <rc><c>O </c><c>   4</c></rc>
    <rc><c>O </c><c>   4</c></rc>
    <rc><c>O </c><c>   4</c></rc>
    <rc><c>O </c><c>   4</c></rc>
    <rc><c>O </c><c>   4</c></rc>
    <rc><c>O </c><c>   4</c></rc>
    <rc><c>O </c><c>   4</c></rc>
    <rc><c>O </c><c>   4</c></rc>
    <rc><c>O </c><c>   4</c></rc>
    <rc><c>O </c><c>   4</c></rc>
    <rc><c>O </c><c>   4</c></rc>
    <rc><c>O </c><c>   4</c></rc>
    <rc><c>O </c><c>   4</c></rc>
    <rc><c>O </c><c>   4</c></rc>
    <rc><c>O </c><c>   4</c></rc>
    <rc><c>O </c><c>   4</c></rc>
    <rc><c>O </c><c>   4</c></rc>
    <rc><c>O </c><c>   4</c></rc>
    <rc><c>O </c><c>   4</c></rc>
    <rc><c>O </c><c>   4</c></rc>
    <rc><c>O </c><c>   4</c></rc>
    <rc><c>O </c><c>   4</c></rc>
    <rc><c>O </c><c>   4</c></rc>
    <rc><c>O </c><c>   4</c></rc>
    <rc><c>O </c><c>   4</c></rc>
    <rc><c>O </c><c>   4</c></rc>
    <rc><c>O </c><c>   4</c></rc>
    <rc><c>O </c><c>   4</c></rc>
    <rc><c>O </c><c>   4</c></rc>
    <rc><c>O </c><c>   4</c></rc>
    <rc><c>O </c><c>   4</c></rc>
    <rc><c>O </c><c>   4</c></rc>
    <rc><c>O </c><c>   4</c></rc>
    <rc><c>O </c><c>   4</c></rc>
    <rc><c>O </c><c>   4</c></rc>
    <rc><c>O </c><c>   4</c></rc>
   </set>
  </array>
  <array name="atomtypes" >
   <dimension dim="1">type</dimension>
   <field type="int">atomspertype</field>
   <field type="string">element</field>
   <field>mass</field>
   <field>valence</field>
   <field type="string">pseudopotential</field>
   <set>
    <rc><c>  32</c><c>Sr</c><c>     87.62000000</c><c>     10.00000000</c><c>  PAW_PBE Sr_sv 07Sep2000               </c></rc>
    <rc><c>  16</c><c>Ti</c><c>     47.88000000</c><c>      4.00000000</c><c>  PAW_PBE Ti 08Apr2002                  </c></rc>
    <rc><c>  16</c><c>Fe</c><c>     55.84700000</c><c>      8.00000000</c><c>  PAW_PBE Fe 06Sep2000                  </c></rc>
    <rc><c>  88</c><c>O </c><c>     16.00000000</c><c>      6.00000000</c><c>  PAW_PBE O 08Apr2002                   </c></rc>
   </set>
  </array>
 </atominfo>
 <structure name="initialpos" >
  <crystal>
   <varray name="basis" >
    <v>      11.22186414      -0.03008063      -0.01159797 </v>
    <v>      -0.03011399      11.20762141      -0.00473720 </v>
    <v>      -0.01693916      -0.00604343      15.95401103 </v>
   </varray>
   <i name="volume">   2006.52544678 </i>
   <varray name="rec_basis" >
    <v>       0.08911249       0.00023948       0.00009471 </v>
    <v>       0.00023921       0.08922566       0.00003405 </v>
    <v>       0.00006485       0.00002667       0.06268024 </v>
   </varray>
  </crystal>
  <varray name="positions" >
   <v>       0.99869127       0.24574604       0.11064018 </v>
   <v>       0.99208971       0.25159952       0.63325448 </v>
   <v>       0.99854048       0.75280004       0.11828256 </v>
   <v>       0.00194458       0.73812346       0.63259801 </v>
   <v>       0.50257768       0.24320058       0.11132758 </v>
   <v>       0.49734049       0.24849955       0.63750945 </v>
   <v>       0.50175019       0.76214259       0.11792893 </v>
   <v>       0.50619992       0.74666765       0.62453751 </v>
   <v>       0.00770802       0.26155502       0.37423779 </v>
   <v>       0.99661223       0.25402865       0.87521070 </v>
   <v>       0.00207003       0.74650397       0.37577798 </v>
   <v>       0.99868145       0.74642449       0.87612370 </v>
   <v>       0.50251264       0.24238006       0.38573116 </v>
   <v>       0.50095969       0.25215706       0.87444200 </v>
   <v>       0.50082166       0.75961627       0.38017979 </v>
   <v>       0.50208400       0.74825381       0.87562027 </v>
   <v>       0.24737400       0.99307528       0.11831577 </v>
   <v>       0.26250185       0.98895011       0.63310139 </v>
   <v>       0.24092154       0.50178693       0.12225676 </v>
   <v>       0.24054748       0.49749941       0.62962550 </v>
   <v>       0.75677990       0.99478910       0.11312402 </v>
   <v>       0.74701788       0.00015810       0.63677710 </v>
   <v>       0.75826081       0.50030329       0.11363959 </v>
   <v>       0.75161483       0.50187670       0.63629184 </v>
   <v>       0.26458296       0.99147276       0.37258433 </v>
   <v>       0.24567853       0.99658257       0.87737648 </v>
   <v>       0.23576638       0.51828256       0.38201207 </v>
   <v>       0.24015794       0.49907342       0.87448553 </v>
   <v>       0.75162049       0.98608273       0.37653989 </v>
   <v>       0.76312289       0.99930919       0.87565203 </v>
   <v>       0.75663250       0.50872938       0.38140676 </v>
   <v>       0.76400568       0.49900753       0.87496418 </v>
   <v>       0.49118120       0.49366641       0.49429754 </v>
   <v>       0.00094854       0.49792826       0.50320588 </v>
   <v>       0.24713585       0.24619930       0.75145715 </v>
   <v>       0.75199703       0.75285194       0.24817738 </v>
   <v>       0.75114608       0.75001988       0.74993753 </v>
   <v>       0.74954672       0.74824687       0.99779705 </v>
   <v>       0.74999851       0.25010616       0.99672974 </v>
   <v>       0.24990729       0.74768886       0.99962991 </v>
   <v>       0.25029447       0.24957680       0.99521156 </v>
   <v>       0.24957281       0.75467402       0.25044402 </v>
   <v>       0.50658421       0.00091349       0.50060592 </v>
   <v>       0.50648412       0.00924765       0.25311808 </v>
   <v>       0.25338641       0.74600499       0.75099135 </v>
   <v>       0.99791688       0.99647570       0.24916502 </v>
   <v>       0.99558319       0.50271184       0.25093650 </v>
   <v>       0.74908168       0.24900346       0.75570886 </v>
   <v>       0.49808272       0.49614831       0.01680667 </v>
   <v>       0.25166282       0.75059215       0.50453404 </v>
   <v>       0.99988945       0.49785524       0.75227432 </v>
   <v>       0.49859695       0.00122744       0.00895283 </v>
   <v>       0.03500924       0.00899769       0.48845285 </v>
   <v>       0.00304809       0.99916504       0.00155606 </v>
   <v>       0.73802285       0.25768859       0.51592013 </v>
   <v>       0.73854064       0.73492986       0.50195837 </v>
   <v>       0.50202573       0.99847061       0.74445616 </v>
   <v>       0.25647455       0.25289241       0.50965739 </v>
   <v>       0.23546733       0.23950477       0.23685035 </v>
   <v>       0.49708833       0.52987476       0.25160910 </v>
   <v>       0.49410744       0.49858323       0.73839406 </v>
   <v>       0.00483072       0.99881535       0.75972579 </v>
   <v>       0.00198852       0.49875511       0.99932240 </v>
   <v>       0.76037174       0.23452434       0.23815144 </v>
   <v>       0.10701819       0.13524420       0.25270470 </v>
   <v>       0.12419671       0.11821834       0.72609398 </v>
   <v>       0.10641645       0.63807149       0.24379375 </v>
   <v>       0.12924774       0.62171645       0.74024549 </v>
   <v>       0.60836674       0.16434958       0.25843980 </v>
   <v>       0.60456737       0.65687063       0.24856845 </v>
   <v>       0.62185663       0.62482810       0.74327862 </v>
   <v>       0.37425951       0.37285520       0.76551708 </v>
   <v>       0.38863617       0.87177003       0.25566219 </v>
   <v>       0.37949272       0.87590553       0.76470758 </v>
   <v>       0.85556055       0.36555878       0.27225085 </v>
   <v>       0.87084435       0.37396553       0.75362733 </v>
   <v>       0.89172643       0.85421446       0.24707011 </v>
   <v>       0.11962920       0.36922779       0.49812987 </v>
   <v>       0.36387473       0.14360574       0.27340433 </v>
   <v>       0.37550402       0.11992105       0.76010846 </v>
   <v>       0.87884727       0.87645515       0.74651257 </v>
   <v>       0.37984233       0.61920179       0.77213032 </v>
   <v>       0.85893369       0.10662455       0.26252999 </v>
   <v>       0.91600916       0.06680181       0.55380608 </v>
   <v>       0.85487068       0.60863550       0.24644987 </v>
   <v>       0.87345307       0.62538860       0.74859819 </v>
   <v>       0.14949048       0.38062177       0.26735010 </v>
   <v>       0.13959089       0.89050892       0.24402946 </v>
   <v>       0.12668361       0.87162475       0.01046413 </v>
   <v>       0.11707419       0.87119437       0.52456422 </v>
   <v>       0.61962568       0.37973963       0.75919248 </v>
   <v>       0.64363726       0.90612589       0.24578454 </v>
   <v>       0.62587202       0.87765573       0.76360548 </v>
   <v>       0.22606675       0.23497974       0.87346449 </v>
   <v>       0.36182896       0.37751149       0.46875251 </v>
   <v>       0.52956335       0.46583663       0.35666166 </v>
   <v>       0.37871512       0.88184332       0.49803749 </v>
   <v>       0.87296295       0.37574449       0.99876117 </v>
   <v>       0.86746152       0.35650432       0.48341237 </v>
   <v>       0.87236959       0.87444356       0.99682119 </v>
   <v>       0.15062131       0.13105737       0.46598969 </v>
   <v>       0.75425724       0.25035611       0.87635368 </v>
   <v>       0.50722890       0.99822851       0.37471448 </v>
   <v>       0.12775134       0.62269162       0.01350380 </v>
   <v>       0.12895628       0.61815703       0.50934390 </v>
   <v>       0.62569966       0.12012664       0.99395506 </v>
   <v>       0.65421948       0.12010580       0.48174847 </v>
   <v>       0.62216390       0.61913081       0.99972582 </v>
   <v>       0.62310050       0.61215793       0.49879035 </v>
   <v>       0.13271466       0.12263081       0.01471574 </v>
   <v>       0.12585313       0.37023374       0.00221180 </v>
   <v>       0.38128174       0.12568667       0.98538909 </v>
   <v>       0.62075941       0.37505971       0.99247067 </v>
   <v>       0.61166533       0.36548901       0.50232493 </v>
   <v>       0.75276142       0.74051015       0.87504196 </v>
   <v>       0.63225045       0.87416009       0.50015554 </v>
   <v>       0.23392350       0.75896877       0.37505109 </v>
   <v>       0.12816826       0.87163210       0.73681257 </v>
   <v>       0.39507488       0.13485211       0.50020171 </v>
   <v>       0.38307800       0.62642820       0.48069563 </v>
   <v>       0.35098828       0.60807237       0.25877661 </v>
   <v>       0.87507422       0.62569518       0.00812491 </v>
   <v>       0.87913406       0.63205261       0.49882201 </v>
   <v>       0.98691920       0.00275264       0.12880845 </v>
   <v>       0.62104780       0.12295487       0.76527345 </v>
   <v>       0.99646445       0.47506510       0.13368515 </v>
   <v>       0.98432643       0.48803511       0.62227353 </v>
   <v>       0.48763515       0.01251185       0.13017159 </v>
   <v>       0.50959800       0.00436314       0.62440697 </v>
   <v>       0.50045684       0.46698655       0.14028171 </v>
   <v>       0.47355701       0.49109420       0.61747785 </v>
   <v>       0.98547240       0.97712353       0.37725634 </v>
   <v>       0.01552225       0.00206584       0.87738761 </v>
   <v>       0.00101547       0.50755511       0.37520954 </v>
   <v>       0.00462579       0.50735505       0.87624514 </v>
   <v>       0.37669263       0.87787980       0.98888484 </v>
   <v>       0.37635192       0.37820627       0.98238008 </v>
   <v>       0.73920265       0.24849765       0.63210600 </v>
   <v>       0.37969749       0.62315031       0.99957441 </v>
   <v>       0.12360503       0.36934927       0.74757828 </v>
   <v>       0.27353441       0.26188070       0.12384999 </v>
   <v>       0.62022916       0.87557171       0.99415423 </v>
   <v>       0.23124050       0.74641460       0.87707160 </v>
   <v>       0.87637407       0.12822875       0.99976183 </v>
   <v>       0.75425256       0.75666247       0.37502358 </v>
   <v>       0.87506871       0.12411859       0.75069910 </v>
   <v>       0.26920053       0.25801837       0.62662696 </v>
   <v>       0.26863161       0.75369871       0.12751113 </v>
   <v>       0.28202563       0.74029601       0.62867229 </v>
   <v>       0.74519897       0.25614663       0.12288641 </v>
   <v>       0.74303875       0.75631278       0.12416629 </v>
   <v>       0.75305071       0.75843780       0.62353444 </v>
  </varray>
 </structure>
 <calculation>
  <scstep>
   <time name="dav">  323.80  323.80</time>
   <time name="total">  327.58  327.69</time>
   <energy>
    <i name="alphaZ">   5612.80571374 </i>
    <i name="ewald"> -62126.10901461 </i>
    <i name="hartreedc"> -17458.34212986 </i>
    <i name="XCdc">   3185.83180990 </i>
    <i name="pawpsdc"> 114639.13189851 </i>
    <i name="pawaedc">-113843.51634874 </i>
    <i name="eentropy">     -0.00000000 </i>
    <i name="bandstr">  -7117.29434314 </i>
    <i name="atom">  76050.17612637 </i>
    <i name="e_fr_energy">  -1057.31628782 </i>
    <i name="e_wo_entrp">  -1057.31628782 </i>
    <i name="e_0_energy">  -1057.31628782 </i>
   </energy>
  </scstep>
  <scstep>
   <time name="diag">   33.23   33.23</time>
   <time name="diis">   31.77   31.77</time>
   <time name="orth">   18.88   18.88</time>
   <time name="total">   87.65   87.66</time>
   <energy>
    <i name="e_fr_energy">  -1057.31628392 </i>
    <i name="e_wo_entrp">  -1057.31628392 </i>
    <i name="e_0_energy">  -1057.31628392 </i>
   </energy>
  </scstep>
  <scstep>
   <time name="diag">   33.26   33.27</time>
   <time name="diis">   29.97   29.99</time>
   <time name="orth">   18.90   18.91</time>
   <time name="total">   85.91   86.04</time>
   <energy>
    <i name="e_fr_energy">  -1057.31628384 </i>
    <i name="e_wo_entrp">  -1057.31628384 </i>
    <i name="e_0_energy">  -1057.31628384 </i>
   </energy>
  </scstep>
  <scstep>
   <time name="diag">   33.28   33.28</time>
   <time name="diis">   26.82   26.83</time>
   <time name="orth">   18.88   18.89</time>
   <time name="total">   82.76   82.85</time>
   <energy>
    <i name="e_fr_energy">  -1057.31628407 </i>
    <i name="e_wo_entrp">  -1057.31628407 </i>
    <i name="e_0_energy">  -1057.31628407 </i>
   </energy>
  </scstep>
  <scstep>
   <time name="diag">   33.29   33.29</time>
   <time name="diis">   26.60   26.60</time>
   <time name="orth">   18.86   18.86</time>
   <time name="total">   82.55   82.61</time>
   <energy>
    <i name="e_fr_energy">  -1057.31628428 </i>
    <i name="e_wo_entrp">  -1057.31628428 </i>
    <i name="e_0_energy">  -1057.31628428 </i>
   </energy>
  </scstep>
  <scstep>
   <time name="diag">   33.29   33.30</time>
   <time name="diis">   24.73   24.72</time>
   <time name="orth">   18.81   18.81</time>
   <time name="total">   80.63   80.70</time>
   <energy>
    <i name="e_fr_energy">  -1057.31628442 </i>
    <i name="e_wo_entrp">  -1057.31628442 </i>
    <i name="e_0_energy">  -1057.31628442 </i>
   </energy>
  </scstep>
  <scstep>
   <time name="diag">   33.22   33.23</time>
   <time name="diis">   24.00   24.00</time>
   <time name="orth">   18.83   18.84</time>
   <time name="total">   79.85   79.91</time>
   <energy>
    <i name="e_fr_energy">  -1057.31628449 </i>
    <i name="e_wo_entrp">  -1057.31628449 </i>
    <i name="e_0_energy">  -1057.31628449 </i>
   </energy>
  </scstep>
  <scstep>
   <time name="diag">   33.24   33.25</time>
   <time name="diis">   23.35   23.35</time>
   <time name="orth">   18.84   18.84</time>
   <time name="total">   76.01   76.17</time>
   <energy>
    <i name="alphaZ">   5612.80571374 </i>
    <i name="ewald"> -62126.10901461 </i>
    <i name="hartreedc"> -17458.35384962 </i>
    <i name="XCdc">   3185.83425938 </i>
    <i name="pawpsdc"> 114638.71052917 </i>
    <i name="pawaedc">-113843.08729315 </i>
    <i name="eentropy">     -0.00000000 </i>
    <i name="bandstr">  -7117.29275585 </i>
    <i name="atom">  76050.17612637 </i>
    <i name="e_fr_energy">  -1057.31628455 </i>
    <i name="e_wo_entrp">  -1057.31628455 </i>
    <i name="e_0_energy">  -1057.31628455 </i>
   </energy>
  </scstep>
  <structure>
   <crystal>
    <varray name="basis" >
     <v>      11.22186414      -0.03008063      -0.01159797 </v>
     <v>      -0.03011399      11.20762141      -0.00473720 </v>
     <v>      -0.01693916      -0.00604343      15.95401103 </v>
    </varray>
    <i name="volume">   2006.52544678 </i>
    <varray name="rec_basis" >
     <v>       0.08911249       0.00023948       0.00009471 </v>
     <v>       0.00023921       0.08922566       0.00003405 </v>
     <v>       0.00006485       0.00002667       0.06268024 </v>
    </varray>
   </crystal>
   <varray name="positions" >
    <v>       0.99869127       0.24574604       0.11064018 </v>
    <v>       0.99208971       0.25159952       0.63325448 </v>
    <v>       0.99854048       0.75280004       0.11828256 </v>
    <v>       0.00194458       0.73812346       0.63259801 </v>
    <v>       0.50257768       0.24320058       0.11132758 </v>
    <v>       0.49734049       0.24849955       0.63750945 </v>
    <v>       0.50175019       0.76214259       0.11792893 </v>
    <v>       0.50619992       0.74666765       0.62453751 </v>
    <v>       0.00770802       0.26155502       0.37423779 </v>
    <v>       0.99661223       0.25402865       0.87521070 </v>
    <v>       0.00207003       0.74650397       0.37577798 </v>
    <v>       0.99868145       0.74642449       0.87612370 </v>
    <v>       0.50251264       0.24238006       0.38573116 </v>
    <v>       0.50095969       0.25215706       0.87444200 </v>
    <v>       0.50082166       0.75961627       0.38017979 </v>
    <v>       0.50208400       0.74825381       0.87562027 </v>
    <v>       0.24737400       0.99307528       0.11831577 </v>
    <v>       0.26250185       0.98895011       0.63310139 </v>
    <v>       0.24092154       0.50178693       0.12225676 </v>
    <v>       0.24054748       0.49749941       0.62962550 </v>
    <v>       0.75677990       0.99478910       0.11312402 </v>
    <v>       0.74701788       0.00015810       0.63677710 </v>
    <v>       0.75826081       0.50030329       0.11363959 </v>
    <v>       0.75161483       0.50187670       0.63629184 </v>
    <v>       0.26458296       0.99147276       0.37258433 </v>
    <v>       0.24567853       0.99658257       0.87737648 </v>
    <v>       0.23576638       0.51828256       0.38201207 </v>
    <v>       0.24015794       0.49907342       0.87448553 </v>
    <v>       0.75162049       0.98608273       0.37653989 </v>
    <v>       0.76312289       0.99930919       0.87565203 </v>
    <v>       0.75663250       0.50872938       0.38140676 </v>
    <v>       0.76400568       0.49900753       0.87496418 </v>
    <v>       0.49118120       0.49366641       0.49429754 </v>
    <v>       0.00094854       0.49792826       0.50320588 </v>
    <v>       0.24713585       0.24619930       0.75145715 </v>
    <v>       0.75199703       0.75285194       0.24817738 </v>
    <v>       0.75114608       0.75001988       0.74993753 </v>
    <v>       0.74954672       0.74824687       0.99779705 </v>
    <v>       0.74999851       0.25010616       0.99672974 </v>
    <v>       0.24990729       0.74768886       0.99962991 </v>
    <v>       0.25029447       0.24957680       0.99521156 </v>
    <v>       0.24957281       0.75467402       0.25044402 </v>
    <v>       0.50658421       0.00091349       0.50060592 </v>
    <v>       0.50648412       0.00924765       0.25311808 </v>
    <v>       0.25338641       0.74600499       0.75099135 </v>
    <v>       0.99791688       0.99647570       0.24916502 </v>
    <v>       0.99558319       0.50271184       0.25093650 </v>
    <v>       0.74908168       0.24900346       0.75570886 </v>
    <v>       0.49808272       0.49614831       0.01680667 </v>
    <v>       0.25166282       0.75059215       0.50453404 </v>
    <v>       0.99988945       0.49785524       0.75227432 </v>
    <v>       0.49859695       0.00122744       0.00895283 </v>
    <v>       0.03500924       0.00899769       0.48845285 </v>
    <v>       0.00304809       0.99916504       0.00155606 </v>
    <v>       0.73802285       0.25768859       0.51592013 </v>
    <v>       0.73854064       0.73492986       0.50195837 </v>
    <v>       0.50202573       0.99847061       0.74445616 </v>
    <v>       0.25647455       0.25289241       0.50965739 </v>
    <v>       0.23546733       0.23950477       0.23685035 </v>
    <v>       0.49708833       0.52987476       0.25160910 </v>
    <v>       0.49410744       0.49858323       0.73839406 </v>
    <v>       0.00483072       0.99881535       0.75972579 </v>
    <v>       0.00198852       0.49875511       0.99932240 </v>
    <v>       0.76037174       0.23452434       0.23815144 </v>
    <v>       0.10701819       0.13524420       0.25270470 </v>
    <v>       0.12419671       0.11821834       0.72609398 </v>
    <v>       0.10641645       0.63807149       0.24379375 </v>
    <v>       0.12924774       0.62171645       0.74024549 </v>
    <v>       0.60836674       0.16434958       0.25843980 </v>
    <v>       0.60456737       0.65687063       0.24856845 </v>
    <v>       0.62185663       0.62482810       0.74327862 </v>
    <v>       0.37425951       0.37285520       0.76551708 </v>
    <v>       0.38863617       0.87177003       0.25566219 </v>
    <v>       0.37949272       0.87590553       0.76470758 </v>
    <v>       0.85556055       0.36555878       0.27225085 </v>
    <v>       0.87084435       0.37396553       0.75362733 </v>
    <v>       0.89172643       0.85421446       0.24707011 </v>
    <v>       0.11962920       0.36922779       0.49812987 </v>
    <v>       0.36387473       0.14360574       0.27340433 </v>
    <v>       0.37550402       0.11992105       0.76010846 </v>
    <v>       0.87884727       0.87645515       0.74651257 </v>
    <v>       0.37984233       0.61920179       0.77213032 </v>
    <v>       0.85893369       0.10662455       0.26252999 </v>
    <v>       0.91600916       0.06680181       0.55380608 </v>
    <v>       0.85487068       0.60863550       0.24644987 </v>
    <v>       0.87345307       0.62538860       0.74859819 </v>
    <v>       0.14949048       0.38062177       0.26735010 </v>
    <v>       0.13959089       0.89050892       0.24402946 </v>
    <v>       0.12668361       0.87162475       0.01046413 </v>
    <v>       0.11707419       0.87119437       0.52456422 </v>
    <v>       0.61962568       0.37973963       0.75919248 </v>
    <v>       0.64363726       0.90612589       0.24578454 </v>
    <v>       0.62587202       0.87765573       0.76360548 </v>
    <v>       0.22606675       0.23497974       0.87346449 </v>
    <v>       0.36182896       0.37751149       0.46875251 </v>
    <v>       0.52956335       0.46583663       0.35666166 </v>
    <v>       0.37871512       0.88184332       0.49803749 </v>
    <v>       0.87296295       0.37574449       0.99876117 </v>
    <v>       0.86746152       0.35650432       0.48341237 </v>
    <v>       0.87236959       0.87444356       0.99682119 </v>
    <v>       0.15062131       0.13105737       0.46598969 </v>
    <v>       0.75425724       0.25035611       0.87635368 </v>
    <v>       0.50722890       0.99822851       0.37471448 </v>
    <v>       0.12775134       0.62269162       0.01350380 </v>
    <v>       0.12895628       0.61815703       0.50934390 </v>
    <v>       0.62569966       0.12012664       0.99395506 </v>
    <v>       0.65421948       0.12010580       0.48174847 </v>
    <v>       0.62216390       0.61913081       0.99972582 </v>
    <v>       0.62310050       0.61215793       0.49879035 </v>
    <v>       0.13271466       0.12263081       0.01471574 </v>
    <v>       0.12585313       0.37023374       0.00221180 </v>
    <v>       0.38128174       0.12568667       0.98538909 </v>
    <v>       0.62075941       0.37505971       0.99247067 </v>
    <v>       0.61166533       0.36548901       0.50232493 </v>
    <v>       0.75276142       0.74051015       0.87504196 </v>
    <v>       0.63225045       0.87416009       0.50015554 </v>
    <v>       0.23392350       0.75896877       0.37505109 </v>
    <v>       0.12816826       0.87163210       0.73681257 </v>
    <v>       0.39507488       0.13485211       0.50020171 </v>
    <v>       0.38307800       0.62642820       0.48069563 </v>
    <v>       0.35098828       0.60807237       0.25877661 </v>
    <v>       0.87507422       0.62569518       0.00812491 </v>
    <v>       0.87913406       0.63205261       0.49882201 </v>
    <v>       0.98691920       0.00275264       0.12880845 </v>
    <v>       0.62104780       0.12295487       0.76527345 </v>
    <v>       0.99646445       0.47506510       0.13368515 </v>
    <v>       0.98432643       0.48803511       0.62227353 </v>
    <v>       0.48763515       0.01251185       0.13017159 </v>
    <v>       0.50959800       0.00436314       0.62440697 </v>
    <v>       0.50045684       0.46698655       0.14028171 </v>
    <v>       0.47355701       0.49109420       0.61747785 </v>
    <v>       0.98547240       0.97712353       0.37725634 </v>
    <v>       0.01552225       0.00206584       0.87738761 </v>
    <v>       0.00101547       0.50755511       0.37520954 </v>
    <v>       0.00462579       0.50735505       0.87624514 </v>
    <v>       0.37669263       0.87787980       0.98888484 </v>
    <v>       0.37635192       0.37820627       0.98238008 </v>
    <v>       0.73920265       0.24849765       0.63210600 </v>
    <v>       0.37969749       0.62315031       0.99957441 </v>
    <v>       0.12360503       0.36934927       0.74757828 </v>
    <v>       0.27353441       0.26188070       0.12384999 </v>
    <v>       0.62022916       0.87557171       0.99415423 </v>
    <v>       0.23124050       0.74641460       0.87707160 </v>
    <v>       0.87637407       0.12822875       0.99976183 </v>
    <v>       0.75425256       0.75666247       0.37502358 </v>
    <v>       0.87506871       0.12411859       0.75069910 </v>
    <v>       0.26920053       0.25801837       0.62662696 </v>
    <v>       0.26863161       0.75369871       0.12751113 </v>
    <v>       0.28202563       0.74029601       0.62867229 </v>
    <v>       0.74519897       0.25614663       0.12288641 </v>
    <v>       0.74303875       0.75631278       0.12416629 </v>
    <v>       0.75305071       0.75843780       0.62353444 </v>
   </varray>
  </structure>
  <varray name="forces" >
   <v>       0.00951823      -0.00282561       0.00329601 </v>
   <v>       0.00783054      -0.00605783       0.01440990 </v>
   <v>      -0.00005882       0.01323867       0.00523075 </v>
   <v>       0.00621903      -0.00329072      -0.01278553 </v>
   <v>       0.01633511       0.01006471       0.03968682 </v>
   <v>      -0.00003139      -0.01329758       0.00126678 </v>
   <v>       0.01507443      -0.01115809       0.01275548 </v>
   <v>      -0.03063171       0.03109875      -0.00756486 </v>
   <v>      -0.02896828      -0.01191220      -0.02536442 </v>
   <v>       0.01170845      -0.01593018       0.01397591 </v>
   <v>      -0.01766162      -0.00496038       0.00322018 </v>
   <v>       0.02813623       0.00100774      -0.01672551 </v>
   <v>       0.00876060       0.02103788      -0.00755092 </v>
   <v>      -0.01583614      -0.00004108      -0.00755389 </v>
   <v>      -0.00197578       0.01188113      -0.00658156 </v>
   <v>      -0.00003613      -0.00546576      -0.01120119 </v>
   <v>       0.00616263       0.00879903       0.02662728 </v>
   <v>       0.01105587      -0.00066964      -0.01957289 </v>
   <v>      -0.01448803       0.00489916      -0.00687726 </v>
   <v>      -0.01616563       0.02327474      -0.00525019 </v>
   <v>       0.00415594      -0.03194389       0.01080081 </v>
   <v>       0.01784505      -0.02271874      -0.03498577 </v>
   <v>       0.01096622      -0.00034615      -0.01836982 </v>
   <v>      -0.00016686      -0.01499155      -0.03917484 </v>
   <v>      -0.01602068      -0.00077670       0.01575823 </v>
   <v>      -0.02415757      -0.01636413      -0.01801660 </v>
   <v>       0.04893770      -0.02719032       0.01713922 </v>
   <v>      -0.00115559       0.00348538       0.00112141 </v>
   <v>       0.00713498       0.00926939       0.02957212 </v>
   <v>      -0.00730752       0.00839828       0.01356137 </v>
   <v>       0.03982121      -0.00141966       0.02372708 </v>
   <v>      -0.01617389       0.01672778       0.03698397 </v>
   <v>      -0.04357609      -0.02182115      -0.00461992 </v>
   <v>      -0.02626156       0.02778071       0.01960084 </v>
   <v>       0.01121161       0.00488857       0.00618419 </v>
   <v>       0.00301784       0.04155311       0.00663010 </v>
   <v>      -0.01726173       0.03366412      -0.04006387 </v>
   <v>      -0.00694705      -0.01224164       0.02491587 </v>
   <v>      -0.02044320       0.03417412      -0.01145464 </v>
   <v>       0.01938608      -0.04388794      -0.02872698 </v>
   <v>       0.01072201       0.00137654      -0.00454063 </v>
   <v>       0.02318568       0.01572889      -0.02567775 </v>
   <v>      -0.00719774      -0.02380058       0.02384475 </v>
   <v>      -0.05310543       0.01388408       0.03880370 </v>
   <v>      -0.02313221       0.04310442       0.05425825 </v>
   <v>       0.01037174      -0.05689952      -0.00589617 </v>
   <v>      -0.02472450      -0.05480130      -0.03814931 </v>
   <v>      -0.01481787      -0.00356940      -0.03270892 </v>
   <v>       0.01796158       0.01021089      -0.03017342 </v>
   <v>       0.02417059       0.02672849      -0.01050672 </v>
   <v>       0.02217670       0.01932996      -0.01237052 </v>
   <v>       0.01530051       0.00350035       0.00438481 </v>
   <v>      -0.03581471       0.02067977       0.00641932 </v>
   <v>      -0.00473187       0.01754715      -0.00372610 </v>
   <v>       0.00225834      -0.00175526      -0.02856465 </v>
   <v>      -0.01169517       0.04722884      -0.00990998 </v>
   <v>      -0.00931237      -0.02628315      -0.01460073 </v>
   <v>       0.00045465      -0.00821548      -0.00586312 </v>
   <v>       0.04906515      -0.02655377      -0.00227848 </v>
   <v>      -0.00101216       0.02481223       0.00269195 </v>
   <v>      -0.01638939      -0.01766973       0.00106626 </v>
   <v>       0.01804584      -0.00396961      -0.03162601 </v>
   <v>      -0.01549633      -0.00610125       0.02340144 </v>
   <v>       0.02483465       0.01464209       0.01044089 </v>
   <v>      -0.00650034      -0.00693710       0.02301202 </v>
   <v>      -0.01458594      -0.01533279      -0.01037828 </v>
   <v>       0.00389191      -0.00919528       0.00911313 </v>
   <v>      -0.01856644      -0.04343098      -0.00720644 </v>
   <v>       0.02314904       0.00739014      -0.00678661 </v>
   <v>      -0.00212890       0.00062969       0.00331301 </v>
   <v>       0.00443890      -0.00467291      -0.00702461 </v>
   <v>       0.02274786       0.00761831      -0.00160530 </v>
   <v>       0.01664860       0.00235668       0.00638449 </v>
   <v>      -0.01129194      -0.05132259       0.01820047 </v>
   <v>      -0.00399410      -0.03179987      -0.01114951 </v>
   <v>       0.02141374       0.01625859       0.00146509 </v>
   <v>      -0.04521280      -0.03886839      -0.01995899 </v>
   <v>       0.00677768       0.00976846      -0.00694457 </v>
   <v>       0.00690369       0.01173845       0.00244722 </v>
   <v>       0.00058700       0.00262243      -0.01210870 </v>
   <v>       0.00068914      -0.00067424       0.00416311 </v>
   <v>       0.00604709      -0.02077195      -0.01565278 </v>
   <v>      -0.00672706       0.03622461       0.00005745 </v>
   <v>      -0.03385209       0.04071152      -0.04011297 </v>
   <v>       0.01500746       0.01180340       0.00553175 </v>
   <v>      -0.01118150      -0.00054948      -0.00748157 </v>
   <v>      -0.01438743       0.01443677      -0.01733260 </v>
   <v>      -0.01475162      -0.01698196       0.02894795 </v>
   <v>      -0.02037844       0.00136632      -0.00506586 </v>
   <v>       0.01443422       0.02255799       0.00822461 </v>
   <v>       0.02030008       0.00427908      -0.01376498 </v>
   <v>       0.00842550       0.00612700       0.01459287 </v>
   <v>       0.03565933      -0.01483473      -0.01403053 </v>
   <v>      -0.00258102       0.02056014       0.00916287 </v>
   <v>       0.00825255       0.00415918       0.00013705 </v>
   <v>      -0.00756597      -0.02564531       0.00993916 </v>
   <v>      -0.01104555       0.00535895       0.01132417 </v>
   <v>      -0.01789708       0.01252856      -0.01785842 </v>
   <v>       0.02308464       0.03818155       0.01030576 </v>
   <v>       0.01055575       0.02166931       0.00228967 </v>
   <v>      -0.02564769      -0.00130608       0.01710399 </v>
   <v>      -0.00151214      -0.01851364      -0.00465181 </v>
   <v>      -0.00039991       0.00808533       0.00390666 </v>
   <v>       0.00619882       0.00772756       0.01957284 </v>
   <v>      -0.03634724      -0.01310145      -0.01249257 </v>
   <v>      -0.02285599      -0.03346095       0.00066293 </v>
   <v>      -0.01662481       0.00727045      -0.00171064 </v>
   <v>       0.01324494       0.00314025      -0.01630836 </v>
   <v>      -0.01877223      -0.01068101      -0.00021656 </v>
   <v>       0.01773115       0.01896725      -0.02719896 </v>
   <v>       0.01135877      -0.00009216      -0.01595040 </v>
   <v>       0.01955871      -0.04299766       0.00237540 </v>
   <v>       0.00016281      -0.01681915      -0.01127440 </v>
   <v>      -0.01528912       0.00442775       0.00294817 </v>
   <v>       0.01889337      -0.00494259      -0.03332310 </v>
   <v>       0.01613240       0.01191992      -0.00791996 </v>
   <v>       0.00529144      -0.00734153       0.01232824 </v>
   <v>       0.01750933       0.01824790       0.03487273 </v>
   <v>       0.01290005       0.00329247      -0.01084618 </v>
   <v>       0.00399048      -0.02026974       0.01642499 </v>
   <v>      -0.03916321       0.00737478      -0.02644066 </v>
   <v>       0.00116009       0.00906947      -0.00128619 </v>
   <v>       0.00345515       0.01657421      -0.00392122 </v>
   <v>       0.00062921      -0.00733383      -0.00300238 </v>
   <v>       0.00186487      -0.00972871      -0.01463575 </v>
   <v>       0.01224756       0.00560051       0.05003537 </v>
   <v>       0.01777362      -0.01455213      -0.00228932 </v>
   <v>       0.01989182       0.00898097      -0.01627782 </v>
   <v>       0.00556893       0.00635599      -0.02061325 </v>
   <v>      -0.00310834      -0.01048545       0.00667928 </v>
   <v>      -0.00450578      -0.01009594       0.01088234 </v>
   <v>       0.02764701      -0.01366357       0.03593562 </v>
   <v>      -0.00101504       0.01293121       0.01331263 </v>
   <v>      -0.02359427       0.00161031       0.00754537 </v>
   <v>      -0.01142664      -0.00676955      -0.00955378 </v>
   <v>       0.00883713       0.02453853      -0.00241280 </v>
   <v>      -0.01122825       0.00367507       0.00171836 </v>
   <v>      -0.01522816       0.00210507       0.07207861 </v>
   <v>      -0.03318513      -0.00136946      -0.00406149 </v>
   <v>      -0.03648643       0.00549019      -0.01891307 </v>
   <v>      -0.00267965       0.00235597      -0.02996988 </v>
   <v>       0.00918820       0.01555292      -0.00032172 </v>
   <v>       0.01899829      -0.00077024       0.01689306 </v>
   <v>       0.02840067      -0.04431543       0.00142106 </v>
   <v>       0.02383592      -0.00803495       0.00800321 </v>
   <v>       0.00667125      -0.01473941      -0.00625775 </v>
   <v>      -0.00473253       0.02570933       0.02353817 </v>
   <v>      -0.02612370      -0.01155894      -0.00208217 </v>
   <v>       0.00152436       0.00690382       0.00013187 </v>
   <v>      -0.00985048       0.00995324       0.01932655 </v>
   <v>       0.02079432      -0.01127229      -0.01268381 </v>
   <v>       0.02287996       0.00393887       0.07202686 </v>
  </varray>
  <varray name="stress" >
   <v>      -0.06790648      -0.21474517      -0.09649510 </v>
   <v>      -0.21474536      -0.00817735      -0.09179863 </v>
   <v>      -0.09649507      -0.09179828      -0.44931739 </v>
  </varray>
  <energy>
   <i name="e_fr_energy">  -1057.31628455 </i>
   <i name="e_wo_entrp">  -1057.31628455 </i>
   <i name="e_0_energy">     -0.00000000 </i>
  </energy>
  <time name="totalsc"> 1054.55 1057.35</time>
 </calculation>
 <calculation>
  <scstep>
   <time name="dav">  287.63  287.62</time>
   <time name="total">  291.35  291.39</time>
   <energy>
    <i name="alphaZ">   5613.97816028 </i>
    <i name="ewald"> -62133.05202564 </i>
    <i name="hartreedc"> -17457.17477744 </i>
    <i name="XCdc">   3186.10455395 </i>
    <i name="pawpsdc"> 114638.70760574 </i>
    <i name="pawaedc">-113843.08424201 </i>
    <i name="eentropy">     -0.00000000 </i>
    <i name="bandstr">  -7112.97088111 </i>
    <i name="atom">  76050.17612637 </i>
    <i name="e_fr_energy">  -1057.31547987 </i>
    <i name="e_wo_entrp">  -1057.31547987 </i>
    <i name="e_0_energy">  -1057.31547987 </i>
   </energy>
  </scstep>
  <scstep>
   <time name="diag">   33.35   33.36</time>
   <time name="diis">   51.75   51.78</time>
   <time name="orth">   18.94   18.94</time>
   <time name="total">  107.79  107.90</time>
   <energy>
    <i name="e_fr_energy">  -1057.32031605 </i>
    <i name="e_wo_entrp">  -1057.32031605 </i>
    <i name="e_0_energy">  -1057.32031605 </i>
   </energy>
  </scstep>
  <scstep>
   <time name="diag">   33.50   33.50</time>
   <time name="diis">   54.66   54.66</time>
   <time name="orth">   18.94   18.94</time>
   <time name="total">  110.85  110.92</time>
   <energy>
    <i name="e_fr_energy">  -1057.32064796 </i>
    <i name="e_wo_entrp">  -1057.32064796 </i>
    <i name="e_0_energy">  -1057.32064796 </i>
   </energy>
  </scstep>
  <scstep>
   <time name="diag">   33.35   33.36</time>
   <time name="diis">   44.78   44.80</time>
   <time name="orth">   18.96   18.95</time>
   <time name="total">  100.83  100.90</time>
   <energy>
    <i name="e_fr_energy">  -1057.32039639 </i>
    <i name="e_wo_entrp">  -1057.32039639 </i>
    <i name="e_0_energy">  -1057.32039639 </i>
   </energy>
  </scstep>
  <scstep>
   <time name="diag">   33.38   33.39</time>
   <time name="diis">   44.83   44.84</time>
   <time name="orth">   18.93   18.93</time>
   <time name="total">  100.90  101.02</time>
   <energy>
    <i name="e_fr_energy">  -1057.32030029 </i>
    <i name="e_wo_entrp">  -1057.32030029 </i>
    <i name="e_0_energy">  -1057.32030029 </i>
   </energy>
  </scstep>
  <scstep>
   <time name="diag">   33.36   33.36</time>
   <time name="diis">   32.53   32.54</time>
   <time name="orth">   18.93   18.93</time>
   <time name="total">   88.57   88.66</time>
   <energy>
    <i name="e_fr_energy">  -1057.32030343 </i>
    <i name="e_wo_entrp">  -1057.32030343 </i>
    <i name="e_0_energy">  -1057.32030343 </i>
   </energy>
  </scstep>
  <scstep>
   <time name="diag">   33.32   33.31</time>
   <time name="diis">   31.84   31.85</time>
   <time name="orth">   18.93   18.93</time>
   <time name="total">   87.82   87.85</time>
   <energy>
    <i name="e_fr_energy">  -1057.32030593 </i>
    <i name="e_wo_entrp">  -1057.32030593 </i>
    <i name="e_0_energy">  -1057.32030593 </i>
   </energy>
  </scstep>
  <scstep>
   <time name="diag">   33.30   33.30</time>
   <time name="diis">   31.31   31.31</time>
   <time name="orth">   18.93   18.93</time>
   <time name="total">   84.11   84.22</time>
   <energy>
    <i name="alphaZ">   5613.97816028 </i>
    <i name="ewald"> -62133.05202564 </i>
    <i name="hartreedc"> -17454.16830788 </i>
    <i name="XCdc">   3185.88856453 </i>
    <i name="pawpsdc"> 114664.92461205 </i>
    <i name="pawaedc">-113869.32479096 </i>
    <i name="eentropy">     -0.00000000 </i>
    <i name="bandstr">  -7115.74264667 </i>
    <i name="atom">  76050.17612637 </i>
    <i name="e_fr_energy">  -1057.32030791 </i>
    <i name="e_wo_entrp">  -1057.32030791 </i>
    <i name="e_0_energy">  -1057.32030791 </i>
   </energy>
  </scstep>
  <structure>
   <crystal>
    <varray name="basis" >
     <v>      11.22156426      -0.03103799      -0.01202523 </v>
     <v>      -0.03106966      11.20758773      -0.00514415 </v>
     <v>      -0.01755011      -0.00662410      15.95116255 </v>
    </varray>
    <i name="volume">   2006.10639567 </i>
    <varray name="rec_basis" >
     <v>       0.08911492       0.00024709       0.00009815 </v>
     <v>       0.00024683       0.08922597       0.00003732 </v>
     <v>       0.00006726       0.00002896       0.06269144 </v>
    </varray>
   </crystal>
   <varray name="positions" >
    <v>       0.99873217       0.24573399       0.11065017 </v>
    <v>       0.99212337       0.25157356       0.63329807 </v>
    <v>       0.99854041       0.75285703       0.11829839 </v>
    <v>       0.00197122       0.73810934       0.63255936 </v>
    <v>       0.50264820       0.24324416       0.11144765 </v>
    <v>       0.49734020       0.24844231       0.63751326 </v>
    <v>       0.50181492       0.76209476       0.11796754 </v>
    <v>       0.50606856       0.74680115       0.62451457 </v>
    <v>       0.00758323       0.26150337       0.37416099 </v>
    <v>       0.99666244       0.25396024       0.87525298 </v>
    <v>       0.00199406       0.74648242       0.37578765 </v>
    <v>       0.99880235       0.74642913       0.87607322 </v>
    <v>       0.50255051       0.24247070       0.38570838 </v>
    <v>       0.50089158       0.25215669       0.87441911 </v>
    <v>       0.50081327       0.75966738       0.38015990 </v>
    <v>       0.50208373       0.74823026       0.87558639 </v>
    <v>       0.24740071       0.99311327       0.11839632 </v>
    <v>       0.26254928       0.98894732       0.63304224 </v>
    <v>       0.24085928       0.50180784       0.12223592 </v>
    <v>       0.24047823       0.49759940       0.62960960 </v>
    <v>       0.75679745       0.99465166       0.11315665 </v>
    <v>       0.74709417       0.00006046       0.63667133 </v>
    <v>       0.75830786       0.50030190       0.11358408 </v>
    <v>       0.75161376       0.50181210       0.63617336 </v>
    <v>       0.26451415       0.99146926       0.37263193 </v>
    <v>       0.24557441       0.99651182       0.87732190 </v>
    <v>       0.23597653       0.51816611       0.38206401 </v>
    <v>       0.24015302       0.49908841       0.87448893 </v>
    <v>       0.75165141       0.98612276       0.37662935 </v>
    <v>       0.76309163       0.99934527       0.87569302 </v>
    <v>       0.75680379       0.50872377       0.38147863 </v>
    <v>       0.76393651       0.49907941       0.87507599 </v>
    <v>       0.49099359       0.49357197       0.49428341 </v>
    <v>       0.00083605       0.49804757       0.50326510 </v>
    <v>       0.24718413       0.24622048       0.75147589 </v>
    <v>       0.75201052       0.75303085       0.24819750 </v>
    <v>       0.75107208       0.75016452       0.74981637 </v>
    <v>       0.74951683       0.74819414       0.99787236 </v>
    <v>       0.74991097       0.25025301       0.99669508 </v>
    <v>       0.24998999       0.74750012       0.99954304 </v>
    <v>       0.25034056       0.24958284       0.99519786 </v>
    <v>       0.24967255       0.75474195       0.25036646 </v>
    <v>       0.50655310       0.00081100       0.50067797 </v>
    <v>       0.50625616       0.00930687       0.25323527 </v>
    <v>       0.25328771       0.74619035       0.75115540 </v>
    <v>       0.99796079       0.99623089       0.24914715 </v>
    <v>       0.99547609       0.50247560       0.25082099 </v>
    <v>       0.74901779       0.24898787       0.75560990 </v>
    <v>       0.49815991       0.49619242       0.01671550 </v>
    <v>       0.25176699       0.75070747       0.50450238 </v>
    <v>       0.99998496       0.49793868       0.75223701 </v>
    <v>       0.49866278       0.00124269       0.00896614 </v>
    <v>       0.03485554       0.00908630       0.48847217 </v>
    <v>       0.00302793       0.99924051       0.00154480 </v>
    <v>       0.73803240       0.25768101       0.51583376 </v>
    <v>       0.73849086       0.73513300       0.50192843 </v>
    <v>       0.50198532       0.99835734       0.74441195 </v>
    <v>       0.25647638       0.25285704       0.50963965 </v>
    <v>       0.23567794       0.23939103       0.23684358 </v>
    <v>       0.49708428       0.52998156       0.25161727 </v>
    <v>       0.49403678       0.49850698       0.73839721 </v>
    <v>       0.00490811       0.99879842       0.75963021 </v>
    <v>       0.00192194       0.49872870       0.99939311 </v>
    <v>       0.76047872       0.23458767       0.23818311 </v>
    <v>       0.10699027       0.13521431       0.25277425 </v>
    <v>       0.12413378       0.11815215       0.72606254 </v>
    <v>       0.10643311       0.63803197       0.24382131 </v>
    <v>       0.12916739       0.62152927       0.74022359 </v>
    <v>       0.60846631       0.16438165       0.25841936 </v>
    <v>       0.60455824       0.65687333       0.24857846 </v>
    <v>       0.62187563       0.62480803       0.74325738 </v>
    <v>       0.37435739       0.37288825       0.76551231 </v>
    <v>       0.38870780       0.87178038       0.25568155 </v>
    <v>       0.37944367       0.87568451       0.76476251 </v>
    <v>       0.85554296       0.36542183       0.27221708 </v>
    <v>       0.87093660       0.37403577       0.75363185 </v>
    <v>       0.89153152       0.85404659       0.24700957 </v>
    <v>       0.11965842       0.36926990       0.49810891 </v>
    <v>       0.36390456       0.14365635       0.27341177 </v>
    <v>       0.37550652       0.11993232       0.76007185 </v>
    <v>       0.87885025       0.87645227       0.74652516 </v>
    <v>       0.37986801       0.61911242       0.77208298 </v>
    <v>       0.85890519       0.10678040       0.26253019 </v>
    <v>       0.91586392       0.06697660       0.55368473 </v>
    <v>       0.85493536       0.60868649       0.24646666 </v>
    <v>       0.87340496       0.62538610       0.74857553 </v>
    <v>       0.14942872       0.38068372       0.26729766 </v>
    <v>       0.13952741       0.89043570       0.24411693 </v>
    <v>       0.12659600       0.87163039       0.01044875 </v>
    <v>       0.11713654       0.87129165       0.52458916 </v>
    <v>       0.61971294       0.37975826       0.75915092 </v>
    <v>       0.64367362       0.90615239       0.24582870 </v>
    <v>       0.62602508       0.87759226       0.76356314 </v>
    <v>       0.22605594       0.23506823       0.87349222 </v>
    <v>       0.36186449       0.37752949       0.46875295 </v>
    <v>       0.52953057       0.46572617       0.35669165 </v>
    <v>       0.37866775       0.88186627       0.49807171 </v>
    <v>       0.87288607       0.37579818       0.99870713 </v>
    <v>       0.86756125       0.35666895       0.48344366 </v>
    <v>       0.87241523       0.87453697       0.99682817 </v>
    <v>       0.15051112       0.13105148       0.46604133 </v>
    <v>       0.75425050       0.25027639       0.87633958 </v>
    <v>       0.50722729       0.99826332       0.37472630 </v>
    <v>       0.12777816       0.62272499       0.01356302 </v>
    <v>       0.12879981       0.61810020       0.50930600 </v>
    <v>       0.62560102       0.11998234       0.99395695 </v>
    <v>       0.65414808       0.12013690       0.48174325 </v>
    <v>       0.62222081       0.61914445       0.99967655 </v>
    <v>       0.62301968       0.61211173       0.49878962 </v>
    <v>       0.13279098       0.12271261       0.01463357 </v>
    <v>       0.12590189       0.37023345       0.00216360 </v>
    <v>       0.38136534       0.12550182       0.98539628 </v>
    <v>       0.62075986       0.37498730       0.99243656 </v>
    <v>       0.61159967       0.36550790       0.50233380 </v>
    <v>       0.75284243       0.74048904       0.87494125 </v>
    <v>       0.63231990       0.87421158       0.50013166 </v>
    <v>       0.23394622       0.75893725       0.37508838 </v>
    <v>       0.12824390       0.87171091       0.73691810 </v>
    <v>       0.39513033       0.13486642       0.50016895 </v>
    <v>       0.38309500       0.62634102       0.48074528 </v>
    <v>       0.35081988       0.60810362       0.25869654 </v>
    <v>       0.87507931       0.62573423       0.00812103 </v>
    <v>       0.87914909       0.63212399       0.49881018 </v>
    <v>       0.98692180       0.00272108       0.12879936 </v>
    <v>       0.62105563       0.12291299       0.76522919 </v>
    <v>       0.99651740       0.47508943       0.13383650 </v>
    <v>       0.98440266       0.48797267       0.62226665 </v>
    <v>       0.48772070       0.01255071       0.13012244 </v>
    <v>       0.50962192       0.00439053       0.62434467 </v>
    <v>       0.50044339       0.46694139       0.14030189 </v>
    <v>       0.47353757       0.49105071       0.61751073 </v>
    <v>       0.98559127       0.97706510       0.37736507 </v>
    <v>       0.01551810       0.00212151       0.87742788 </v>
    <v>       0.00091409       0.50756178       0.37523229 </v>
    <v>       0.00457655       0.50732576       0.87621621 </v>
    <v>       0.37673089       0.87798552       0.98887760 </v>
    <v>       0.37630370       0.37822196       0.98238524 </v>
    <v>       0.73913754       0.24850666       0.63232391 </v>
    <v>       0.37955479       0.62314402       0.99956202 </v>
    <v>       0.12344815       0.36937245       0.74752098 </v>
    <v>       0.27352278       0.26189076       0.12375936 </v>
    <v>       0.62026884       0.87563876       0.99415331 </v>
    <v>       0.23132224       0.74641153       0.87712274 </v>
    <v>       0.87649566       0.12803832       0.99976616 </v>
    <v>       0.75435497       0.75662817       0.37504785 </v>
    <v>       0.87509719       0.12405521       0.75068017 </v>
    <v>       0.26918059       0.25812902       0.62669816 </v>
    <v>       0.26851916       0.75364865       0.12750474 </v>
    <v>       0.28203226       0.74032574       0.62867270 </v>
    <v>       0.74515683       0.25618940       0.12294483 </v>
    <v>       0.74312795       0.75626448       0.12412799 </v>
    <v>       0.75314945       0.75845513       0.62375232 </v>
   </varray>
  </structure>
  <varray name="forces" >
   <v>       0.00907449      -0.01385958      -0.00103762 </v>
   <v>       0.00930321       0.00576891       0.01895726 </v>
   <v>       0.00808843       0.00424355      -0.00355055 </v>
   <v>       0.00393532      -0.00989705      -0.00519555 </v>
   <v>       0.02285196       0.00092922       0.03062989 </v>
   <v>       0.00338137      -0.00417886       0.00345827 </v>
   <v>       0.01324851       0.00025543       0.00909388 </v>
   <v>      -0.02553051       0.00161518       0.00198424 </v>
   <v>      -0.01946897      -0.00225426      -0.01719718 </v>
   <v>       0.00055123      -0.01296351       0.00496512 </v>
   <v>      -0.00238043      -0.02843125       0.00086416 </v>
   <v>      -0.00341732       0.00370410      -0.01391281 </v>
   <v>       0.01602294       0.01492060      -0.00577917 </v>
   <v>      -0.00971157      -0.00700424      -0.00586473 </v>
   <v>       0.00134754       0.00065238      -0.00667865 </v>
   <v>       0.00999788      -0.00265737      -0.01031500 </v>
   <v>       0.00465389       0.00313542      -0.00362211 </v>
   <v>      -0.00211207       0.00235388      -0.01853200 </v>
   <v>      -0.00888276       0.00476733       0.00362574 </v>
   <v>      -0.01469266       0.02321134      -0.00282212 </v>
   <v>      -0.00261121      -0.01740780       0.00432240 </v>
   <v>       0.01948484      -0.01344238      -0.01680399 </v>
   <v>       0.00353209       0.00278301      -0.00351489 </v>
   <v>      -0.00482217      -0.00681397      -0.01812499 </v>
   <v>      -0.03054113      -0.00033957       0.02619106 </v>
   <v>      -0.02305436      -0.00591167       0.00369585 </v>
   <v>       0.00830403      -0.01485253       0.00632449 </v>
   <v>      -0.00810771      -0.00523288      -0.00550448 </v>
   <v>       0.00682063       0.01502869       0.01555652 </v>
   <v>       0.00138232       0.00824782       0.01265432 </v>
   <v>       0.03034651       0.00960307       0.01455881 </v>
   <v>      -0.00200425       0.02275686       0.00227619 </v>
   <v>       0.02613620      -0.02740526       0.00943489 </v>
   <v>       0.00821141      -0.00068425      -0.01456157 </v>
   <v>      -0.01363327       0.02769402      -0.00877569 </v>
   <v>      -0.03044532      -0.01337003       0.00651986 </v>
   <v>       0.00410234      -0.03423106       0.01703706 </v>
   <v>       0.01915241       0.03506582      -0.03516818 </v>
   <v>       0.01489271      -0.06351959      -0.01216330 </v>
   <v>      -0.00419408       0.03129482       0.01380130 </v>
   <v>       0.01202891      -0.01002125      -0.00162136 </v>
   <v>      -0.01698534      -0.04328757      -0.00085398 </v>
   <v>      -0.01217588       0.02012180      -0.00148799 </v>
   <v>       0.02019446      -0.00320420      -0.03041247 </v>
   <v>      -0.00928163      -0.01685712      -0.00171626 </v>
   <v>      -0.00607343       0.02116132      -0.01342818 </v>
   <v>       0.00389725       0.00310516       0.06139105 </v>
   <v>       0.03435884       0.03622608       0.03496270 </v>
   <v>       0.00235046      -0.00411452      -0.00841845 </v>
   <v>      -0.01475616      -0.00566824      -0.00546933 </v>
   <v>      -0.02285805       0.00851765      -0.00238067 </v>
   <v>       0.00328897      -0.00379264      -0.00048168 </v>
   <v>      -0.00775588       0.00195286       0.01994233 </v>
   <v>       0.00001808       0.00172416      -0.01429353 </v>
   <v>       0.00858459       0.02237445       0.02914427 </v>
   <v>      -0.00840349      -0.02113059       0.00448795 </v>
   <v>       0.01168512      -0.01134671       0.00598263 </v>
   <v>      -0.01904567       0.00745468       0.01067505 </v>
   <v>      -0.02072182       0.01521184      -0.00877636 </v>
   <v>      -0.01192402       0.01270005       0.01140072 </v>
   <v>       0.01033544       0.00250118      -0.00348523 </v>
   <v>      -0.01914532       0.00731465       0.00817914 </v>
   <v>      -0.00018821       0.00114135      -0.01593224 </v>
   <v>      -0.01236934      -0.00257870      -0.00322090 </v>
   <v>       0.01427346      -0.00909641       0.01250516 </v>
   <v>       0.00605704      -0.00691235      -0.01466764 </v>
   <v>       0.00405490      -0.00458754       0.00061811 </v>
   <v>       0.01815660       0.00706780       0.00224250 </v>
   <v>       0.00140094       0.00097966       0.00401323 </v>
   <v>      -0.00221445       0.01030366       0.00387946 </v>
   <v>      -0.01402924      -0.00635191      -0.00661262 </v>
   <v>       0.00486068      -0.01253045       0.00763808 </v>
   <v>       0.00693532       0.00672534       0.00456323 </v>
   <v>       0.00714344      -0.02006216       0.01206079 </v>
   <v>       0.01749503       0.00947972      -0.00313623 </v>
   <v>      -0.00255518      -0.00835668       0.00554421 </v>
   <v>       0.00851884       0.01163629      -0.01337440 </v>
   <v>       0.01469118       0.00056143      -0.00822981 </v>
   <v>       0.02430443      -0.01053010       0.00549999 </v>
   <v>       0.00432952      -0.01379747      -0.01296795 </v>
   <v>       0.02263518       0.01580027      -0.00558858 </v>
   <v>      -0.02187219       0.00242313      -0.00658632 </v>
   <v>       0.03381095      -0.01735522       0.01356460 </v>
   <v>      -0.05305364       0.04829958      -0.03279765 </v>
   <v>      -0.00049759       0.00921954      -0.00127005 </v>
   <v>      -0.00478501       0.00329035      -0.01429671 </v>
   <v>       0.00498608      -0.02473280      -0.02336028 </v>
   <v>      -0.01480879      -0.00635948       0.02249813 </v>
[...]
       <r>   -17.0292     0.0000    32.0000 </r>
       <r>   -16.8758     0.0000    32.0000 </r>
       <r>   -16.7224     0.0000    32.0000 </r>
       <r>   -16.5691     0.0000    32.0000 </r>
       <r>   -16.4157     0.0000    32.0000 </r>
       <r>   -16.2623     0.0000    32.0000 </r>
       <r>   -16.1089     0.0000    32.0000 </r>
       <r>   -15.9556     0.0000    32.0000 </r>
       <r>   -15.8022     0.0000    32.0000 </r>
       <r>   -15.6488     0.0000    32.0000 </r>
       <r>   -15.4955     0.0000    32.0000 </r>
       <r>   -15.3421     0.0000    32.0000 </r>
       <r>   -15.1887     0.1946    32.0299 </r>
       <r>   -15.0353    17.0798    34.6494 </r>
       <r>   -14.8820    38.1187    40.4957 </r>
       <r>   -14.7286    49.1207    48.0294 </r>
       <r>   -14.5752    40.6122    54.2582 </r>
       <r>   -14.4219    31.9634    59.1605 </r>
       <r>   -14.2685    46.4094    66.2783 </r>
       <r>   -14.1151    76.9660    78.0827 </r>
       <r>   -13.9617    94.7546    92.6154 </r>
       <r>   -13.8084    76.5772   104.3601 </r>
       <r>   -13.6550    64.5071   114.2537 </r>
       <r>   -13.5016    34.4252   119.5335 </r>
       <r>   -13.3483     3.0414   120.0000 </r>
       <r>   -13.1949     0.0000   120.0000 </r>
       <r>   -13.0415     0.0000   120.0000 </r>
       <r>   -12.8881     0.0095   120.0015 </r>
       <r>   -12.7348    14.8474   122.2786 </r>
       <r>   -12.5814    79.2014   134.4259 </r>
       <r>   -12.4280   132.7609   154.7876 </r>
       <r>   -12.2747   124.2742   173.8477 </r>
       <r>   -12.1213   101.8837   189.4737 </r>
       <r>   -11.9679    86.9262   202.8058 </r>
       <r>   -11.8145    57.7677   211.6657 </r>
       <r>   -11.6612    24.3465   215.3997 </r>
       <r>   -11.5078     3.9137   216.0000 </r>
       <r>   -11.3544     0.0001   216.0000 </r>
       <r>   -11.2011     0.0000   216.0000 </r>
       <r>   -11.0477     0.0000   216.0000 </r>
       <r>   -10.8943     0.0000   216.0000 </r>
       <r>   -10.7409     0.0000   216.0000 </r>
       <r>   -10.5876     0.0000   216.0000 </r>
       <r>   -10.4342     0.0000   216.0000 </r>
       <r>   -10.2808     0.0000   216.0000 </r>
       <r>   -10.1275     0.0000   216.0000 </r>
       <r>    -9.9741     0.0000   216.0000 </r>
       <r>    -9.8207     0.0000   216.0000 </r>
       <r>    -9.6673     0.0000   216.0000 </r>
       <r>    -9.5140     0.0000   216.0000 </r>
       <r>    -9.3606     0.0000   216.0000 </r>
       <r>    -9.2072     0.0000   216.0000 </r>
       <r>    -9.0539     0.0000   216.0000 </r>
       <r>    -8.9005     0.0000   216.0000 </r>
       <r>    -8.7471     0.0000   216.0000 </r>
       <r>    -8.5937     0.0000   216.0000 </r>
       <r>    -8.4404     0.0000   216.0000 </r>
       <r>    -8.2870     0.0000   216.0000 </r>
       <r>    -8.1336     0.0000   216.0000 </r>
       <r>    -7.9803     0.0000   216.0000 </r>
       <r>    -7.8269     0.0000   216.0000 </r>
       <r>    -7.6735     0.0000   216.0000 </r>
       <r>    -7.5201     0.0000   216.0000 </r>
       <r>    -7.3668     0.0000   216.0000 </r>
       <r>    -7.2134     0.0000   216.0000 </r>
       <r>    -7.0600     0.0000   216.0000 </r>
       <r>    -6.9067     0.0000   216.0000 </r>
       <r>    -6.7533     0.0000   216.0000 </r>
       <r>    -6.5999     0.0000   216.0000 </r>
       <r>    -6.4465     0.0000   216.0000 </r>
       <r>    -6.2932     0.0000   216.0000 </r>
       <r>    -6.1398     0.0000   216.0000 </r>
       <r>    -5.9864     0.0000   216.0000 </r>
       <r>    -5.8331     0.0000   216.0000 </r>
       <r>    -5.6797     0.0000   216.0000 </r>
       <r>    -5.5263     0.0000   216.0000 </r>
       <r>    -5.3729     0.0000   216.0000 </r>
       <r>    -5.2196     0.0000   216.0000 </r>
       <r>    -5.0662     0.0000   216.0000 </r>
       <r>    -4.9128     0.0000   216.0000 </r>
       <r>    -4.7595     0.0000   216.0000 </r>
       <r>    -4.6061     0.0000   216.0000 </r>
       <r>    -4.4527     0.0000   216.0000 </r>
       <r>    -4.2993     0.0000   216.0000 </r>
       <r>    -4.1460     0.0000   216.0000 </r>
       <r>    -3.9926     0.0000   216.0000 </r>
       <r>    -3.8392     0.0000   216.0000 </r>
       <r>    -3.6859     0.0000   216.0000 </r>
       <r>    -3.5325     0.0000   216.0000 </r>
       <r>    -3.3791     0.0000   216.0000 </r>
       <r>    -3.2257     0.0000   216.0000 </r>
       <r>    -3.0724     0.0000   216.0000 </r>
       <r>    -2.9190     0.0000   216.0000 </r>
       <r>    -2.7656     0.0000   216.0000 </r>
       <r>    -2.6123     0.0000   216.0000 </r>
       <r>    -2.4589     0.3193   216.0490 </r>
       <r>    -2.3055     9.3722   217.4864 </r>
       <r>    -2.1521    26.4675   221.5458 </r>
       <r>    -1.9988    27.2696   225.7281 </r>
       <r>    -1.8454    28.5748   230.1107 </r>
       <r>    -1.6920    33.1691   235.1979 </r>
       <r>    -1.5387    34.4770   240.4857 </r>
       <r>    -1.3853    40.2975   246.6662 </r>
       <r>    -1.2319    65.5759   256.7237 </r>
       <r>    -1.0785    75.5568   268.3119 </r>
       <r>    -0.9252    74.0908   279.6753 </r>
       <r>    -0.7718    76.4345   291.3982 </r>
       <r>    -0.6184    89.9975   305.2013 </r>
       <r>    -0.4651   102.5273   320.9260 </r>
       <r>    -0.3117    80.5713   333.2834 </r>
       <r>    -0.1583    59.3285   342.3827 </r>
       <r>    -0.0049    51.0510   350.2124 </r>
       <r>     0.1484    56.0596   358.8104 </r>
       <r>     0.3018    51.9793   366.7825 </r>
       <r>     0.4552    57.2694   375.5660 </r>
       <r>     0.6086    62.5458   385.1588 </r>
       <r>     0.7619    58.1994   394.0849 </r>
       <r>     0.9153    53.6864   402.3189 </r>
       <r>     1.0687    55.9084   410.8936 </r>
       <r>     1.2220    61.0415   420.2556 </r>
       <r>     1.3754    73.7728   431.5703 </r>
       <r>     1.5288    77.1446   443.4021 </r>
       <r>     1.6822    78.7352   455.4778 </r>
       <r>     1.8355    62.8923   465.1237 </r>
       <r>     1.9889    41.5607   471.4979 </r>
       <r>     2.1423    35.1923   476.8954 </r>
       <r>     2.2956     7.2304   478.0043 </r>
       <r>     2.4490    10.8593   479.6698 </r>
       <r>     2.6024     2.1526   480.0000 </r>
       <r>     2.7558     0.0000   480.0000 </r>
       <r>     2.9091     0.0000   480.0000 </r>
       <r>     3.0625     0.0000   480.0000 </r>
       <r>     3.2159     0.0000   480.0000 </r>
       <r>     3.3692     0.0000   480.0000 </r>
       <r>     3.5226     0.0000   480.0000 </r>
       <r>     3.6760     0.0000   480.0000 </r>
       <r>     3.8294     0.0000   480.0000 </r>
       <r>     3.9827     0.0000   480.0000 </r>
       <r>     4.1361     0.0000   480.0000 </r>
       <r>     4.2895     0.3607   480.0553 </r>
       <r>     4.4428    13.5881   482.1393 </r>
       <r>     4.5962    47.8967   489.4853 </r>
       <r>     4.7496    53.1312   497.6341 </r>
       <r>     4.9030    60.7124   506.9457 </r>
       <r>     5.0563    55.9096   515.5206 </r>
       <r>     5.2097    69.9918   526.2554 </r>
       <r>     5.3631    77.1116   538.0821 </r>
       <r>     5.5164    71.8916   549.1082 </r>
       <r>     5.6698    60.9944   558.4630 </r>
       <r>     5.8232    59.0811   567.5244 </r>
       <r>     5.9766    87.0586   580.8767 </r>
       <r>     6.1299    83.4739   593.6792 </r>
       <r>     6.2833    69.0432   604.2685 </r>
       <r>     6.4367    30.5906   608.9602 </r>
       <r>     6.5900     6.7947   610.0023 </r>
       <r>     6.7434     7.6072   611.1691 </r>
       <r>     6.8968     7.6210   612.3379 </r>
       <r>     7.0502    19.0513   615.2598 </r>
       <r>     7.2035    15.2556   617.5996 </r>
       <r>     7.3569    17.2523   620.2456 </r>
       <r>     7.5103    20.1498   623.3360 </r>
       <r>     7.6636    16.2888   625.8343 </r>
       <r>     7.8170    14.3600   628.0367 </r>
       <r>     7.9704    24.9461   631.8627 </r>
       <r>     8.1238    28.6407   636.2554 </r>
       <r>     8.2771    22.2775   639.6721 </r>
       <r>     8.4305    25.1832   643.5345 </r>
       <r>     8.5839    30.8697   648.2690 </r>
       <r>     8.7372    34.1877   653.5124 </r>
       <r>     8.8906    30.1063   658.1299 </r>
       <r>     9.0440    32.5364   663.1200 </r>
       <r>     9.1974    29.9997   667.7211 </r>
       <r>     9.3507    37.7138   673.5053 </r>
       <r>     9.5041    45.7738   680.5257 </r>
       <r>     9.6575    49.6100   688.1345 </r>
       <r>     9.8108    55.2688   696.6111 </r>
       <r>     9.9642    57.4929   705.4289 </r>
       <r>    10.1176    59.2113   714.5102 </r>
       <r>    10.2710    53.7304   722.7509 </r>
       <r>    10.4243    51.0894   730.5866 </r>
       <r>    10.5777    56.7960   739.2975 </r>
       <r>    10.7311    57.2599   748.0795 </r>
       <r>    10.8844    51.3009   755.9476 </r>
       <r>    11.0378    59.1946   765.0264 </r>
       <r>    11.1912    19.3758   767.9981 </r>
       <r>    11.3446     0.0126   768.0000 </r>
       <r>    11.4979     0.0000   768.0000 </r>
       <r>    11.6513     0.0000   768.0000 </r>
       <r>    11.8047     0.0000   768.0000 </r>
       <r>    11.9580     0.0000   768.0000 </r>
       <r>    12.1114     0.0000   768.0000 </r>
       <r>    12.2648     0.0000   768.0000 </r>
       <r>    12.4182     0.0000   768.0000 </r>
       <r>    12.5715     0.0000   768.0000 </r>
       <r>    12.7249     0.0000   768.0000 </r>
       <r>    12.8783     0.0000   768.0000 </r>
       <r>    13.0316     0.0000   768.0000 </r>
       <r>    13.1850     0.0000   768.0000 </r>
      </set>
     </set>
    </array>
   </total>
  </dos>
 </calculation>
 <structure name="finalpos" >
  <crystal>
   <varray name="basis" >
    <v>      11.21650238      -0.03190194      -0.01071025 </v>
    <v>      -0.03191958      11.20866791      -0.00959089 </v>
    <v>      -0.01569982      -0.01295040      15.94303611 </v>
   </varray>
   <i name="volume">   2004.37166627 </i>
   <varray name="rec_basis" >
    <v>       0.08915516       0.00025397       0.00008800 </v>
    <v>       0.00025382       0.08921745       0.00007272 </v>
    <v>       0.00006005       0.00005384       0.06272341 </v>
   </varray>
  </crystal>
  <varray name="positions" >
   <v>       0.99987428       0.24604126       0.11087511 </v>
   <v>       0.99189939       0.25294057       0.63295652 </v>
   <v>       0.99937176       0.75251985       0.11827773 </v>
   <v>       0.00244345       0.73697908       0.63299124 </v>
   <v>       0.50415284       0.24276744       0.11279165 </v>
   <v>       0.49725074       0.24783145       0.63712874 </v>
   <v>       0.50182043       0.76113193       0.11818183 </v>
   <v>       0.50492330       0.74719507       0.62424493 </v>
   <v>       0.00646586       0.26123251       0.37464033 </v>
   <v>       0.99736266       0.25369851       0.87587786 </v>
   <v>       0.00140465       0.74511046       0.37555814 </v>
   <v>       0.99971798       0.74605755       0.87547579 </v>
   <v>       0.50288084       0.24252273       0.38595755 </v>
   <v>       0.50066429       0.25135466       0.87432366 </v>
   <v>       0.49922656       0.76022788       0.38116203 </v>
   <v>       0.50259853       0.74726108       0.87532250 </v>
   <v>       0.24787145       0.99245599       0.11827122 </v>
   <v>       0.26244005       0.98843181       0.63254850 </v>
   <v>       0.24053021       0.50158397       0.12228573 </v>
   <v>       0.24012393       0.49884178       0.62930356 </v>
   <v>       0.75757506       0.99321592       0.11398603 </v>
   <v>       0.74707409       0.00015403       0.63563961 </v>
   <v>       0.75844859       0.50036703       0.11322014 </v>
   <v>       0.75150027       0.50112468       0.63486376 </v>
   <v>       0.26224155       0.99247945       0.37273490 </v>
   <v>       0.24516363       0.99551667       0.87742507 </v>
   <v>       0.23549707       0.51754731       0.38235256 </v>
   <v>       0.23999366       0.49812278       0.87428445 </v>
   <v>       0.75305763       0.98770177       0.37881848 </v>
   <v>       0.76329939       0.99924191       0.87582832 </v>
   <v>       0.75646293       0.50891148       0.38213734 </v>
   <v>       0.76346865       0.49949084       0.87502253 </v>
   <v>       0.49128100       0.49288332       0.49444760 </v>
   <v>      -0.00010382       0.49837747       0.50314292 </v>
   <v>       0.24721278       0.24611003       0.75085331 </v>
   <v>       0.75148306       0.75335487       0.24871186 </v>
   <v>       0.75131030       0.75009352       0.74924387 </v>
   <v>       0.74982736       0.74799702       0.99745991 </v>
   <v>       0.75023407       0.24936643       0.99681351 </v>
   <v>       0.25054100       0.74680509       0.99978940 </v>
   <v>       0.25129342       0.24903144       0.99504446 </v>
   <v>       0.24964744       0.75421793       0.25058307 </v>
   <v>       0.50569752       0.00156751       0.50061814 </v>
   <v>       0.50674070       0.00899364       0.25378015 </v>
   <v>       0.25365244       0.74588068       0.75167793 </v>
   <v>       0.99894342       0.99580612       0.24955443 </v>
   <v>       0.99485513       0.50208000       0.25084529 </v>
   <v>       0.74910119       0.24878097       0.75562890 </v>
   <v>       0.49887860       0.49535875       0.01615934 </v>
   <v>       0.25051108       0.75141967       0.50470242 </v>
   <v>       0.99979979       0.49779727       0.75236888 </v>
   <v>       0.49941293       0.00057223       0.00928205 </v>
   <v>       0.03087128       0.01108022       0.48847887 </v>
   <v>       0.00329454       0.99950793       0.00185097 </v>
   <v>       0.73999545       0.25575008       0.51596365 </v>
   <v>       0.73805611       0.73582376       0.50184866 </v>
   <v>       0.50212862       0.99772287       0.74425118 </v>
   <v>       0.25583210       0.25361417       0.50963910 </v>
   <v>       0.23637287       0.23929193       0.23719015 </v>
   <v>       0.49733325       0.53030294       0.25174284 </v>
   <v>       0.49437757       0.49774824       0.73843951 </v>
   <v>       0.00508566       0.99920573       0.75966978 </v>
   <v>       0.00186594       0.49864370       0.99923878 </v>
   <v>       0.76168933       0.23456894       0.23844030 </v>
   <v>       0.11021395       0.13302886       0.25586577 </v>
   <v>       0.12318899       0.11818027       0.72351326 </v>
   <v>       0.10645203       0.63745160       0.24416464 </v>
   <v>       0.12885692       0.62178914       0.74068315 </v>
   <v>       0.61020123       0.16405224       0.25915588 </v>
   <v>       0.60341651       0.65856617       0.25065553 </v>
   <v>       0.62139536       0.62558985       0.74254062 </v>
   <v>       0.37526360       0.37139851       0.76583573 </v>
   <v>       0.38883234       0.87150147       0.25558212 </v>
   <v>       0.38145220       0.87368102       0.76539561 </v>
   <v>       0.85663659       0.36590575       0.27233514 </v>
   <v>       0.87147863       0.37307525       0.75398132 </v>
   <v>       0.89056685       0.85518853       0.24503003 </v>
   <v>       0.12039465       0.37111239       0.49656182 </v>
   <v>       0.36576305       0.14431967       0.27326463 </v>
   <v>       0.37429090       0.11849729       0.75826708 </v>
   <v>       0.88090170       0.87603028       0.74517467 </v>
   <v>       0.37934276       0.61755484       0.77124151 </v>
   <v>       0.86173452       0.10836786       0.26459953 </v>
   <v>       0.90298954       0.07958742       0.54117151 </v>
   <v>       0.85468381       0.60899343       0.24609368 </v>
   <v>       0.87277576       0.62450337       0.74743188 </v>
   <v>       0.14851818       0.37996129       0.26679734 </v>
   <v>       0.13934480       0.88891730       0.24400546 </v>
   <v>       0.12669517       0.87130816       0.00919099 </v>
   <v>       0.11360761       0.87521320       0.52768112 </v>
   <v>       0.62063900       0.38034986       0.76106815 </v>
   <v>       0.64462502       0.90654219       0.24749146 </v>
   <v>       0.62748116       0.87829956       0.76355940 </v>
   <v>       0.22715313       0.23356627       0.87313282 </v>
   <v>       0.36230913       0.37686358       0.46826453 </v>
   <v>       0.52897176       0.46545263       0.35650469 </v>
   <v>       0.37740564       0.88173961       0.49859987 </v>
   <v>       0.87236805       0.37599359       0.99788115 </v>
   <v>       0.86732119       0.35969344       0.48465493 </v>
   <v>       0.87254182       0.87470127       0.99799201 </v>
   <v>       0.14827480       0.13142864       0.46785233 </v>
   <v>       0.75653423       0.24567348       0.87622191 </v>
   <v>       0.50568582       0.99824421       0.37509579 </v>
   <v>       0.12807776       0.62227076       0.01375521 </v>
   <v>       0.12697532       0.62052345       0.50897915 </v>
   <v>       0.62656246       0.11897914       0.99457068 </v>
   <v>       0.64941266       0.12160615       0.48215256 </v>
   <v>       0.62305215       0.61745008       0.99655536 </v>
   <v>       0.62158428       0.61385667       0.49846451 </v>
   <v>       0.13362321       0.12251473       0.01446445 </v>
   <v>       0.12601014       0.36968545       0.00147209 </v>
   <v>       0.38216678       0.12479560       0.98579111 </v>
   <v>       0.62059197       0.37304274       0.99153153 </v>
   <v>       0.61378258       0.36646488       0.50147226 </v>
   <v>       0.75518369       0.74104076       0.87442809 </v>
   <v>       0.63228474       0.87517933       0.49932686 </v>
   <v>       0.23435195       0.75939536       0.37577050 </v>
   <v>       0.12997540       0.87231788       0.74019380 </v>
   <v>       0.39293425       0.13454843       0.50076477 </v>
   <v>       0.38156164       0.62538661       0.48223403 </v>
   <v>       0.35020301       0.60698081       0.25816739 </v>
   <v>       0.87552713       0.62609107       0.00844539 </v>
   <v>       0.87803010       0.63172409       0.50025528 </v>
   <v>       0.98955118       0.00394957       0.12931937 </v>
   <v>       0.62002454       0.12316304       0.76463348 </v>
   <v>       0.99639916       0.47484007       0.13343771 </v>
   <v>       0.98607514       0.48722089       0.62253457 </v>
   <v>       0.48993513       0.01174504       0.13055717 </v>
   <v>       0.51003935       0.00310280       0.62421155 </v>
   <v>       0.50381123       0.46765992       0.14006211 </v>
   <v>       0.47412939       0.48904732       0.61759381 </v>
   <v>       0.98805260       0.97297102       0.37700768 </v>
   <v>       0.01373902       0.00556198       0.87746279 </v>
   <v>      -0.00018516       0.50808259       0.37514896 </v>
   <v>       0.00428221       0.50838502       0.87627489 </v>
   <v>       0.37702397       0.87744805       0.98962663 </v>
   <v>       0.37657183       0.37799086       0.98217449 </v>
   <v>       0.73659030       0.25083842       0.63240949 </v>
   <v>       0.38020110       0.62247565       0.00084774 </v>
   <v>       0.12342816       0.36914399       0.74865102 </v>
   <v>       0.27376833       0.26161326       0.12390347 </v>
   <v>       0.62047752       0.87457611       0.99339730 </v>
   <v>       0.23322418       0.74452996       0.87752236 </v>
   <v>       0.87720670       0.12806282       0.00163948 </v>
   <v>       0.75733471       0.75720117       0.37561961 </v>
   <v>       0.87465575       0.12290785       0.74684389 </v>
   <v>       0.26856618       0.26187365       0.62655300 </v>
   <v>       0.26769818       0.75368417       0.12759384 </v>
   <v>       0.28027318       0.74169213       0.62902065 </v>
   <v>       0.74559082       0.25726838       0.12332029 </v>
   <v>       0.74022737       0.75453976       0.12397972 </v>
   <v>       0.75308046       0.76043310       0.62336985 </v>
  </varray>
 </structure>
</modeling>
