<?xml version="1.0" encoding="ISO-8859-1"?>
<modeling>
 <generator>
  <i name="program" type="string">vasp </i>
  <i name="version" type="string">5.4.1  </i>
  <i name="subversion" type="string">05Feb16 (build Jan 25 2017 20:16:33) complex                          parallel </i>
  <i name="platform" type="string">BWXE6 </i>
  <i name="date" type="string">2019 06 26 </i>
  <i name="time" type="string">08:45:35 </i>
 </generator>
 <incar>
  <i type="string" name="SYSTEM"> STF</i>
  <i type="string" name="PREC">normal</i>
  <i type="string" name="ALGO"> Fast</i>
  <i type="int" name="ISPIN">     2</i>
  <i type="int" name="NELM">    40</i>
  <i type="int" name="NELMIN">     8</i>
  <i type="int" name="IBRION">     2</i>
  <i name="EDIFF">      0.00010000</i>
  <i name="EDIFFG">     -0.03000000</i>
  <i type="int" name="NSW">    30</i>
  <i type="int" name="ISIF">     3</i>
  <i name="ENCUT">    520.00000000</i>
  <i type="int" name="NBANDS">   768</i>
  <v name="MAGMOM">      0.60000000      0.60000000      0.60000000      0.60000000      0.60000000      0.60000000      0.60000000      0.60000000      0.60000000      0.60000000      0.60000000      0.60000000      0.60000000      0.60000000      0.60000000      0.60000000      0.60000000      0.60000000      0.60000000      0.60000000
      0.60000000      0.60000000      0.60000000      0.60000000      0.60000000      0.60000000      0.60000000      0.60000000      0.60000000      0.60000000      0.60000000      0.60000000      0.60000000      0.60000000      0.60000000      0.60000000      0.60000000      0.60000000      0.60000000      0.60000000
      0.60000000      0.60000000      0.60000000      0.60000000      0.60000000      0.60000000      0.60000000      0.60000000      5.00000000      5.00000000      5.00000000      5.00000000      5.00000000      5.00000000      5.00000000      5.00000000      5.00000000      5.00000000      5.00000000      5.00000000
      5.00000000      5.00000000      5.00000000      5.00000000      0.60000000      0.60000000      0.60000000      0.60000000      0.60000000      0.60000000      0.60000000      0.60000000      0.60000000      0.60000000      0.60000000      0.60000000      0.60000000      0.60000000      0.60000000      0.60000000
      0.60000000      0.60000000      0.60000000      0.60000000      0.60000000      0.60000000      0.60000000      0.60000000      0.60000000      0.60000000      0.60000000      0.60000000      0.60000000      0.60000000      0.60000000      0.60000000      0.60000000      0.60000000      0.60000000      0.60000000
      0.60000000      0.60000000      0.60000000      0.60000000      0.60000000      0.60000000      0.60000000      0.60000000      0.60000000      0.60000000      0.60000000      0.60000000      0.60000000      0.60000000      0.60000000      0.60000000      0.60000000      0.60000000      0.60000000      0.60000000
      0.60000000      0.60000000      0.60000000      0.60000000      0.60000000      0.60000000      0.60000000      0.60000000      0.60000000      0.60000000      0.60000000      0.60000000      0.60000000      0.60000000      0.60000000      0.60000000      0.60000000      0.60000000      0.60000000      0.60000000
      0.60000000      0.60000000      0.60000000      0.60000000      0.60000000      0.60000000      0.60000000      0.60000000      0.60000000      0.60000000      0.60000000      0.60000000</v>
  <i type="string" name="LREAL"> Auto</i>
  <i type="int" name="ISMEAR">     0</i>
  <i name="SIGMA">      0.05000000</i>
  <i type="int" name="LMAXMIX">     4</i>
  <v type="int" name="KPOINT_BSE">    -1     0     0     0</v>
  <i type="int" name="NELM">    40</i>
  <i type="logical" name="LDAU"> T  </i>
  <v type="int" name="LDAUTYPE">     2</v>
  <v type="int" name="LDAUL">     0     2     2     0</v>
  <v name="LDAUU">      0.00000000      3.00000000      5.00000000      0.00000000</v>
  <v name="LDAUJ">      0.00000000      0.00000000      0.00000000      0.00000000</v>
  <i type="int" name="LDAUPRINT">     1</i>
 </incar>
 <kpoints>
  <generation param="Monkhorst-Pack">
   <v type="int" name="divisions">       2        2        2 </v>
   <v name="usershift">      0.00000000       0.00000000       0.00000000 </v>
   <v name="genvec1">      0.50000000      -0.00000000       0.00000000 </v>
   <v name="genvec2">      0.00000000       0.50000000       0.00000000 </v>
   <v name="genvec3">      0.00000000       0.00000000       0.50000000 </v>
   <v name="shift">      0.50000000       0.50000000       0.50000000 </v>
  </generation>
  <varray name="kpointlist" >
   <v>       0.25000000       0.25000000       0.25000000 </v>
   <v>      -0.25000000       0.25000000       0.25000000 </v>
   <v>       0.25000000      -0.25000000       0.25000000 </v>
   <v>      -0.25000000      -0.25000000       0.25000000 </v>
  </varray>
  <varray name="weights" >
   <v>       0.25000000 </v>
   <v>       0.25000000 </v>
   <v>       0.25000000 </v>
   <v>       0.25000000 </v>
  </varray>
 </kpoints>
 <parameters>
  <separator name="general" >
   <i type="string" name="SYSTEM">STF</i>
   <i type="logical" name="LCOMPAT"> F  </i>
  </separator>
  <separator name="electronic" >
   <i type="string" name="PREC">normal</i>
   <i name="ENMAX">    520.00000000</i>
   <i name="ENAUG">    605.39200000</i>
   <i name="EDIFF">      0.00010000</i>
   <i type="int" name="IALGO">    68</i>
   <i type="int" name="IWAVPR">    11</i>
   <i type="int" name="NBANDS">   768</i>
   <i name="NELECT">   1040.00000000</i>
   <i type="int" name="TURBO">     0</i>
   <i type="int" name="IRESTART">     0</i>
   <i type="int" name="NREBOOT">     0</i>
   <i type="int" name="NMIN">     0</i>
   <i name="EREF">      0.00000000</i>
   <separator name="electronic smearing" >
    <i type="int" name="ISMEAR">     0</i>
    <i name="SIGMA">      0.05000000</i>
    <i name="KSPACING">      0.50000000</i>
    <i type="logical" name="KGAMMA"> T  </i>
   </separator>
   <separator name="electronic projectors" >
    <i type="logical" name="LREAL"> T  </i>
    <v name="ROPT">     -0.00050000     -0.00050000     -0.00050000     -0.00050000</v>
    <i type="int" name="LMAXPAW">  -100</i>
    <i type="int" name="LMAXMIX">     4</i>
    <i type="logical" name="NLSPLINE"> F  </i>
   </separator>
   <separator name="electronic startup" >
    <i type="int" name="ISTART">     1</i>
    <i type="int" name="ICHARG">     0</i>
    <i type="int" name="INIWAV">     1</i>
   </separator>
   <separator name="electronic spin" >
    <i type="int" name="ISPIN">     2</i>
    <i type="logical" name="LNONCOLLINEAR"> F  </i>
    <v name="MAGMOM">      0.60000000      0.60000000      0.60000000      0.60000000      0.60000000      0.60000000      0.60000000      0.60000000      0.60000000      0.60000000      0.60000000      0.60000000      0.60000000      0.60000000      0.60000000      0.60000000      0.60000000      0.60000000      0.60000000      0.60000000
      0.60000000      0.60000000      0.60000000      0.60000000      0.60000000      0.60000000      0.60000000      0.60000000      0.60000000      0.60000000      0.60000000      0.60000000      0.60000000      0.60000000      0.60000000      0.60000000      0.60000000      0.60000000      0.60000000      0.60000000
      0.60000000      0.60000000      0.60000000      0.60000000      0.60000000      0.60000000      0.60000000      0.60000000      5.00000000      5.00000000      5.00000000      5.00000000      5.00000000      5.00000000      5.00000000      5.00000000      5.00000000      5.00000000      5.00000000      5.00000000
      5.00000000      5.00000000      5.00000000      5.00000000      0.60000000      0.60000000      0.60000000      0.60000000      0.60000000      0.60000000      0.60000000      0.60000000      0.60000000      0.60000000      0.60000000      0.60000000      0.60000000      0.60000000      0.60000000      0.60000000
      0.60000000      0.60000000      0.60000000      0.60000000      0.60000000      0.60000000      0.60000000      0.60000000      0.60000000      0.60000000      0.60000000      0.60000000      0.60000000      0.60000000      0.60000000      0.60000000      0.60000000      0.60000000      0.60000000      0.60000000
      0.60000000      0.60000000      0.60000000      0.60000000      0.60000000      0.60000000      0.60000000      0.60000000      0.60000000      0.60000000      0.60000000      0.60000000      0.60000000      0.60000000      0.60000000      0.60000000      0.60000000      0.60000000      0.60000000      0.60000000
      0.60000000      0.60000000      0.60000000      0.60000000      0.60000000      0.60000000      0.60000000      0.60000000      0.60000000      0.60000000      0.60000000      0.60000000      0.60000000      0.60000000      0.60000000      0.60000000      0.60000000      0.60000000      0.60000000      0.60000000
      0.60000000      0.60000000      0.60000000      0.60000000      0.60000000      0.60000000      0.60000000      0.60000000      0.60000000      0.60000000      0.60000000      0.60000000</v>
    <i name="NUPDOWN">     -1.00000000</i>
    <i type="logical" name="LSORBIT"> F  </i>
    <v name="SAXIS">      0.00000000      0.00000000      1.00000000</v>
    <i type="logical" name="LSPIRAL"> F  </i>
    <v name="QSPIRAL">      0.00000000      0.00000000      0.00000000</v>
    <i type="logical" name="LZEROZ"> F  </i>
   </separator>
   <separator name="electronic exchange-correlation" >
    <i type="logical" name="LASPH"> F  </i>
    <i type="logical" name="LMETAGGA"> F  </i>
   </separator>
   <separator name="electronic convergence" >
    <i type="int" name="NELM">    40</i>
    <i type="int" name="NELMDL">     0</i>
    <i type="int" name="NELMIN">     8</i>
    <i name="ENINI">    520.00000000</i>
    <separator name="electronic convergence detail" >
     <i type="logical" name="LDIAG"> T  </i>
     <i type="logical" name="LSUBROT"> F  </i>
     <i name="WEIMIN">      0.00100000</i>
     <i name="EBREAK">      0.00000003</i>
     <i name="DEPER">      0.30000000</i>
     <i type="int" name="NRMM">     4</i>
     <i name="TIME">      0.40000000</i>
    </separator>
   </separator>
   <separator name="electronic mixer" >
    <i name="AMIX">      0.40000000</i>
    <i name="BMIX">      1.00000000</i>
    <i name="AMIN">      0.10000000</i>
    <i name="AMIX_MAG">      1.60000000</i>
    <i name="BMIX_MAG">      1.00000000</i>
    <separator name="electronic mixer details" >
     <i type="int" name="IMIX">     4</i>
     <i type="logical" name="MIXFIRST"> F  </i>
     <i type="int" name="MAXMIX">   -45</i>
     <i name="WC">    100.00000000</i>
     <i type="int" name="INIMIX">     1</i>
     <i type="int" name="MIXPRE">     1</i>
     <i type="int" name="MREMOVE">     5</i>
    </separator>
   </separator>
   <separator name="electronic dipolcorrection" >
    <i type="logical" name="LDIPOL"> F  </i>
    <i type="logical" name="LMONO"> F  </i>
    <i type="int" name="IDIPOL">     0</i>
    <i name="EPSILON">      1.00000000</i>
    <v name="DIPOL">   -100.00000000   -100.00000000   -100.00000000</v>
    <i name="EFIELD">      0.00000000</i>
   </separator>
  </separator>
  <separator name="grids" >
   <i type="int" name="NGX">    64</i>
   <i type="int" name="NGY">    64</i>
   <i type="int" name="NGZ">    90</i>
   <i type="int" name="NGXF">   128</i>
   <i type="int" name="NGYF">   128</i>
   <i type="int" name="NGZF">   180</i>
   <i type="logical" name="ADDGRID"> F  </i>
  </separator>
  <separator name="ionic" >
   <i type="int" name="NSW">    30</i>
   <i type="int" name="IBRION">     2</i>
   <i type="int" name="ISIF">     3</i>
   <i name="PSTRESS">      0.00000000</i>
   <i name="EDIFFG">     -0.03000000</i>
   <i type="int" name="NFREE">     1</i>
   <i name="POTIM">      0.50000000</i>
   <i name="SMASS">     -3.00000000</i>
   <i name="SCALEE">      1.00000000</i>
  </separator>
  <separator name="ionic md" >
   <i name="TEBEG">      0.00010000</i>
   <i name="TEEND">      0.00010000</i>
   <i type="int" name="NBLOCK">     1</i>
   <i type="int" name="KBLOCK">    30</i>
   <i type="int" name="NPACO">   256</i>
   <i name="APACO">     16.00000000</i>
  </separator>
  <separator name="symmetry" >
   <i type="int" name="ISYM">     2</i>
   <i name="SYMPREC">      0.00001000</i>
  </separator>
  <separator name="dos" >
   <i type="logical" name="LORBIT"> F  </i>
   <v name="RWIGS">     -1.00000000     -1.00000000     -1.00000000     -1.00000000</v>
   <i type="int" name="NEDOS">   301</i>
   <i name="EMIN">     10.00000000</i>
   <i name="EMAX">    -10.00000000</i>
   <i name="EFERMI">      0.00000000</i>
  </separator>
  <separator name="writing" >
   <i type="int" name="NWRITE">     2</i>
   <i type="logical" name="LWAVE"> T  </i>
   <i type="logical" name="LCHARG"> T  </i>
   <i type="logical" name="LPARD"> F  </i>
   <i type="logical" name="LVTOT"> F  </i>
   <i type="logical" name="LVHAR"> F  </i>
   <i type="logical" name="LELF"> F  </i>
   <i type="logical" name="LOPTICS"> F  </i>
   <v name="STM">      0.00000000      0.00000000      0.00000000      0.00000000      0.00000000      0.00000000      0.00000000</v>
  </separator>
  <separator name="performance" >
   <i type="int" name="NPAR">     2</i>
   <i type="int" name="NSIM">     4</i>
   <i type="int" name="NBLK">    -1</i>
   <i type="logical" name="LPLANE"> T  </i>
   <i type="logical" name="LSCALAPACK"> T  </i>
   <i type="logical" name="LSCAAWARE"> F  </i>
   <i type="logical" name="LSCALU"> F  </i>
   <i type="logical" name="LASYNC"> F  </i>
   <i type="logical" name="LORBITALREAL"> F  </i>
  </separator>
  <separator name="miscellaneous" >
   <i type="int" name="IDIOT">     3</i>
   <i type="logical" name="LMUSIC"> F  </i>
   <v name="POMASS">     87.62000000     47.88000000     55.84700000     16.00000000</v>
   <v name="DARWINR">      0.00000000      0.00000000      0.00000000      0.00000000</v>
   <v name="DARWINV">      1.00000000      1.00000000      1.00000000      1.00000000</v>
   <i type="logical" name="LCORR"> T  </i>
  </separator>
  <i type="logical" name="GGA_COMPAT"> T  </i>
  <i type="logical" name="LBERRY"> F  </i>
  <i type="int" name="ICORELEVEL">     0</i>
  <i type="logical" name="LDAU"> T  </i>
  <v type="int" name="LDAUTYPE">     2</v>
  <v type="int" name="LDAUL">     0</v>
  <v name="LDAUU">      0.00000000</v>
  <v name="LDAUJ">      0.00000000</v>
  <i type="int" name="LDAUPRINT">     1</i>
  <i type="int" name="I_CONSTRAINED_M">     0</i>
  <separator name="electronic exchange-correlation" >
   <i type="string" name="GGA">--</i>
   <i type="int" name="VOSKOWN">     0</i>
   <i type="logical" name="LHFCALC"> F  </i>
   <i type="string" name="PRECFOCK"></i>
   <i type="logical" name="LSYMGRAD"> F  </i>
   <i type="logical" name="LHFONE"> F  </i>
   <i type="logical" name="LRHFCALC"> F  </i>
   <i type="logical" name="LTHOMAS"> F  </i>
   <i type="logical" name="LMODELHF"> F  </i>
   <i name="ENCUT4O">     -1.00000000</i>
   <i type="int" name="EXXOEP">     0</i>
   <i type="int" name="FOURORBIT">     0</i>
   <i name="AEXX">      0.00000000</i>
   <i name="HFALPHA">      0.00000000</i>
   <i name="MCALPHA">      0.00000000</i>
   <i name="ALDAX">      1.00000000</i>
   <i name="AGGAX">      1.00000000</i>
   <i name="ALDAC">      1.00000000</i>
   <i name="AGGAC">      1.00000000</i>
   <i type="int" name="NKREDX">     1</i>
   <i type="int" name="NKREDY">     1</i>
   <i type="int" name="NKREDZ">     1</i>
   <i type="logical" name="SHIFTRED"> F  </i>
   <i type="logical" name="ODDONLY"> F  </i>
   <i type="logical" name="EVENONLY"> F  </i>
   <i type="int" name="LMAXFOCK">     0</i>
   <i type="int" name="NMAXFOCKAE">     0</i>
   <i type="logical" name="LFOCKAEDFT"> F  </i>
   <i name="HFSCREEN">      0.00000000</i>
   <i name="HFSCREENC">      0.00000000</i>
   <i type="int" name="NBANDSGWLOW">     0</i>
  </separator>
  <separator name="vdW DFT" >
   <i type="logical" name="LUSE_VDW"> F  </i>
   <i name="Zab_VDW">     -0.84910000</i>
   <i name="PARAM1">      0.12340000</i>
   <i name="PARAM2">      1.00000000</i>
   <i name="PARAM3">      0.00000000</i>
  </separator>
  <separator name="model GW" >
   <i type="int" name="MODEL_GW">     0</i>
   <i name="MODEL_EPS0">      7.91107187</i>
   <i name="MODEL_ALPHA">      1.00000000</i>
  </separator>
  <separator name="linear response parameters" >
   <i type="logical" name="LEPSILON"> F  </i>
   <i type="logical" name="LRPA"> F  </i>
   <i type="logical" name="LNABLA"> F  </i>
   <i type="logical" name="LVEL"> F  </i>
   <i type="int" name="KINTER">     0</i>
   <i name="CSHIFT">      0.10000000</i>
   <i name="OMEGAMAX">     -1.00000000</i>
   <i name="DEG_THRESHOLD">      0.00200000</i>
  </separator>
  <separator name="orbital magnetization" >
   <i type="logical" name="NUCIND"> F  </i>
   <v name="MAGPOS">      0.00000000      0.00000000      0.00000000</v>
   <i type="logical" name="LNICSALL"> T  </i>
   <i type="logical" name="ORBITALMAG"> F  </i>
   <i type="logical" name="LMAGBLOCH"> F  </i>
   <i type="logical" name="LCHIMAG"> F  </i>
   <i type="logical" name="LGAUGE"> T  </i>
   <i type="int" name="MAGATOM">     0</i>
   <v name="MAGDIPOL">      0.00000000      0.00000000      0.00000000</v>
   <v name="AVECCONST">      0.00000000      0.00000000      0.00000000</v>
  </separator>
  <separator name="response functions" >
   <i type="logical" name="LADDER"> F  </i>
   <i type="logical" name="LFXC"> F  </i>
   <i type="logical" name="LHARTREE"> T  </i>
   <i type="int" name="IBSE">     0</i>
   <v type="int" name="KPOINT">    -1     0     0     0</v>
   <i type="logical" name="LTCTE"> F  </i>
   <i type="logical" name="LTETE"> F  </i>
   <i type="logical" name="LTRIPLET"> F  </i>
   <i type="logical" name="LFXCEPS"> F  </i>
   <i type="logical" name="LFXHEG"> F  </i>
   <i type="int" name="NATURALO">     0</i>
   <i type="logical" name="L2ORDER"> F  </i>
   <i type="logical" name="LUSEW"> F  </i>
   <i name="ENCUTGW">     -2.00000000</i>
   <i name="ENCUTGWSOFT">     -2.00000000</i>
   <i name="ENCUTLF">     -1.00000000</i>
   <i type="int" name="LMAXMP2">    -1</i>
   <i name="SCISSOR">      0.00000000</i>
   <i type="int" name="NOMEGA">     0</i>
   <i type="int" name="NOMEGAR">     0</i>
   <i type="int" name="NBANDSGW">    -1</i>
   <i type="int" name="NBANDSO">    -1</i>
   <i type="int" name="NBANDSV">    -1</i>
   <i type="int" name="NELM">    40</i>
   <i type="int" name="NELMHF">     1</i>
   <i type="int" name="DIM">     3</i>
   <i type="int" name="ANTIRES">     0</i>
   <i name="OMEGAMAX">    -30.00000000</i>
   <i name="OMEGAMIN">    -30.00000000</i>
   <i name="OMEGATL">   -200.00000000</i>
   <i type="int" name="OMEGAGRID">     0</i>
   <i name="CSHIFT">     -0.10000000</i>
   <i type="logical" name="SELFENERGY"> F  </i>
   <i type="logical" name="LSPECTRAL"> F  </i>
   <i type="logical" name="LSPECTRALGW"> F  </i>
   <i type="logical" name="LSINGLES"> F  </i>
   <i type="logical" name="LFERMIGW"> F  </i>
   <i type="logical" name="ODDONLYGW"> F  </i>
   <i type="logical" name="EVENONLYGW"> F  </i>
   <i type="int" name="NKREDLFX">     1</i>
   <i type="int" name="NKREDLFY">     1</i>
   <i type="int" name="NKREDLFZ">     1</i>
   <i type="int" name="MAXMEM">  1800</i>
   <i type="int" name="TELESCOPE">     0</i>
   <i type="int" name="TAUPAR">     1</i>
   <i type="int" name="OMEGAPAR">    -1</i>
   <i name="LAMBDA">      1.00000000</i>
  </separator>
  <separator name="External order field" >
   <i name="OFIELD_KAPPA">      0.00000000</i>
   <v name="OFIELD_K">      0.00000000      0.00000000      0.00000000</v>
   <i name="OFIELD_Q6_NEAR">      0.00000000</i>
   <i name="OFIELD_Q6_FAR">      0.00000000</i>
   <i name="OFIELD_A">      0.00000000</i>
  </separator>
 </parameters>
 <atominfo>
  <atoms>     152 </atoms>
  <types>       4 </types>
  <array name="atoms" >
   <dimension dim="1">ion</dimension>
   <field type="string">element</field>
   <field type="int">atomtype</field>
   <set>
    <rc><c>Sr</c><c>   1</c></rc>
    <rc><c>Sr</c><c>   1</c></rc>
    <rc><c>Sr</c><c>   1</c></rc>
    <rc><c>Sr</c><c>   1</c></rc>
    <rc><c>Sr</c><c>   1</c></rc>
    <rc><c>Sr</c><c>   1</c></rc>
    <rc><c>Sr</c><c>   1</c></rc>
    <rc><c>Sr</c><c>   1</c></rc>
    <rc><c>Sr</c><c>   1</c></rc>
    <rc><c>Sr</c><c>   1</c></rc>
    <rc><c>Sr</c><c>   1</c></rc>
    <rc><c>Sr</c><c>   1</c></rc>
    <rc><c>Sr</c><c>   1</c></rc>
    <rc><c>Sr</c><c>   1</c></rc>
    <rc><c>Sr</c><c>   1</c></rc>
    <rc><c>Sr</c><c>   1</c></rc>
    <rc><c>Sr</c><c>   1</c></rc>
    <rc><c>Sr</c><c>   1</c></rc>
    <rc><c>Sr</c><c>   1</c></rc>
    <rc><c>Sr</c><c>   1</c></rc>
    <rc><c>Sr</c><c>   1</c></rc>
    <rc><c>Sr</c><c>   1</c></rc>
    <rc><c>Sr</c><c>   1</c></rc>
    <rc><c>Sr</c><c>   1</c></rc>
    <rc><c>Sr</c><c>   1</c></rc>
    <rc><c>Sr</c><c>   1</c></rc>
    <rc><c>Sr</c><c>   1</c></rc>
    <rc><c>Sr</c><c>   1</c></rc>
    <rc><c>Sr</c><c>   1</c></rc>
    <rc><c>Sr</c><c>   1</c></rc>
    <rc><c>Sr</c><c>   1</c></rc>
    <rc><c>Sr</c><c>   1</c></rc>
    <rc><c>Ti</c><c>   2</c></rc>
    <rc><c>Ti</c><c>   2</c></rc>
    <rc><c>Ti</c><c>   2</c></rc>
    <rc><c>Ti</c><c>   2</c></rc>
    <rc><c>Ti</c><c>   2</c></rc>
    <rc><c>Ti</c><c>   2</c></rc>
    <rc><c>Ti</c><c>   2</c></rc>
    <rc><c>Ti</c><c>   2</c></rc>
    <rc><c>Ti</c><c>   2</c></rc>
    <rc><c>Ti</c><c>   2</c></rc>
    <rc><c>Ti</c><c>   2</c></rc>
    <rc><c>Ti</c><c>   2</c></rc>
    <rc><c>Ti</c><c>   2</c></rc>
    <rc><c>Ti</c><c>   2</c></rc>
    <rc><c>Ti</c><c>   2</c></rc>
    <rc><c>Ti</c><c>   2</c></rc>
    <rc><c>Fe</c><c>   3</c></rc>
    <rc><c>Fe</c><c>   3</c></rc>
    <rc><c>Fe</c><c>   3</c></rc>
    <rc><c>Fe</c><c>   3</c></rc>
    <rc><c>Fe</c><c>   3</c></rc>
    <rc><c>Fe</c><c>   3</c></rc>
    <rc><c>Fe</c><c>   3</c></rc>
    <rc><c>Fe</c><c>   3</c></rc>
    <rc><c>Fe</c><c>   3</c></rc>
    <rc><c>Fe</c><c>   3</c></rc>
    <rc><c>Fe</c><c>   3</c></rc>
    <rc><c>Fe</c><c>   3</c></rc>
    <rc><c>Fe</c><c>   3</c></rc>
    <rc><c>Fe</c><c>   3</c></rc>
    <rc><c>Fe</c><c>   3</c></rc>
    <rc><c>Fe</c><c>   3</c></rc>
    <rc><c>O </c><c>   4</c></rc>
    <rc><c>O </c><c>   4</c></rc>
    <rc><c>O </c><c>   4</c></rc>
    <rc><c>O </c><c>   4</c></rc>
    <rc><c>O </c><c>   4</c></rc>
    <rc><c>O </c><c>   4</c></rc>
    <rc><c>O </c><c>   4</c></rc>
    <rc><c>O </c><c>   4</c></rc>
    <rc><c>O </c><c>   4</c></rc>
    <rc><c>O </c><c>   4</c></rc>
    <rc><c>O </c><c>   4</c></rc>
    <rc><c>O </c><c>   4</c></rc>
    <rc><c>O </c><c>   4</c></rc>
    <rc><c>O </c><c>   4</c></rc>
    <rc><c>O </c><c>   4</c></rc>
    <rc><c>O </c><c>   4</c></rc>
    <rc><c>O </c><c>   4</c></rc>
    <rc><c>O </c><c>   4</c></rc>
    <rc><c>O </c><c>   4</c></rc>
    <rc><c>O </c><c>   4</c></rc>
    <rc><c>O </c><c>   4</c></rc>
    <rc><c>O </c><c>   4</c></rc>
    <rc><c>O </c><c>   4</c></rc>
    <rc><c>O </c><c>   4</c></rc>
    <rc><c>O </c><c>   4</c></rc>
    <rc><c>O </c><c>   4</c></rc>
    <rc><c>O </c><c>   4</c></rc>
    <rc><c>O </c><c>   4</c></rc>
    <rc><c>O </c><c>   4</c></rc>
    <rc><c>O </c><c>   4</c></rc>
    <rc><c>O </c><c>   4</c></rc>
    <rc><c>O </c><c>   4</c></rc>
    <rc><c>O </c><c>   4</c></rc>
    <rc><c>O </c><c>   4</c></rc>
    <rc><c>O </c><c>   4</c></rc>
    <rc><c>O </c><c>   4</c></rc>
    <rc><c>O </c><c>   4</c></rc>
    <rc><c>O </c><c>   4</c></rc>
    <rc><c>O </c><c>   4</c></rc>
    <rc><c>O </c><c>   4</c></rc>
    <rc><c>O </c><c>   4</c></rc>
    <rc><c>O </c><c>   4</c></rc>
    <rc><c>O </c><c>   4</c></rc>
    <rc><c>O </c><c>   4</c></rc>
    <rc><c>O </c><c>   4</c></rc>
    <rc><c>O </c><c>   4</c></rc>
    <rc><c>O </c><c>   4</c></rc>
    <rc><c>O </c><c>   4</c></rc>
    <rc><c>O </c><c>   4</c></rc>
    <rc><c>O </c><c>   4</c></rc>
    <rc><c>O </c><c>   4</c></rc>
    <rc><c>O </c><c>   4</c></rc>
    <rc><c>O </c><c>   4</c></rc>
    <rc><c>O </c><c>   4</c></rc>
    <rc><c>O </c><c>   4</c></rc>
    <rc><c>O </c><c>   4</c></rc>
    <rc><c>O </c><c>   4</c></rc>
    <rc><c>O </c><c>   4</c></rc>
    <rc><c>O </c><c>   4</c></rc>
    <rc><c>O </c><c>   4</c></rc>
    <rc><c>O </c><c>   4</c></rc>
    <rc><c>O </c><c>   4</c></rc>
    <rc><c>O </c><c>   4</c></rc>
    <rc><c>O </c><c>   4</c></rc>
    <rc><c>O </c><c>   4</c></rc>
    <rc><c>O </c><c>   4</c></rc>
    <rc><c>O </c><c>   4</c></rc>
    <rc><c>O </c><c>   4</c></rc>
    <rc><c>O </c><c>   4</c></rc>
    <rc><c>O </c><c>   4</c></rc>
    <rc><c>O </c><c>   4</c></rc>
    <rc><c>O </c><c>   4</c></rc>
    <rc><c>O </c><c>   4</c></rc>
    <rc><c>O </c><c>   4</c></rc>
    <rc><c>O </c><c>   4</c></rc>
    <rc><c>O </c><c>   4</c></rc>
    <rc><c>O </c><c>   4</c></rc>
    <rc><c>O </c><c>   4</c></rc>
    <rc><c>O </c><c>   4</c></rc>
    <rc><c>O </c><c>   4</c></rc>
    <rc><c>O </c><c>   4</c></rc>
    <rc><c>O </c><c>   4</c></rc>
    <rc><c>O </c><c>   4</c></rc>
    <rc><c>O </c><c>   4</c></rc>
    <rc><c>O </c><c>   4</c></rc>
    <rc><c>O </c><c>   4</c></rc>
    <rc><c>O </c><c>   4</c></rc>
    <rc><c>O </c><c>   4</c></rc>
   </set>
  </array>
  <array name="atomtypes" >
   <dimension dim="1">type</dimension>
   <field type="int">atomspertype</field>
   <field type="string">element</field>
   <field>mass</field>
   <field>valence</field>
   <field type="string">pseudopotential</field>
   <set>
    <rc><c>  32</c><c>Sr</c><c>     87.62000000</c><c>     10.00000000</c><c>  PAW_PBE Sr_sv 07Sep2000               </c></rc>
    <rc><c>  16</c><c>Ti</c><c>     47.88000000</c><c>      4.00000000</c><c>  PAW_PBE Ti 08Apr2002                  </c></rc>
    <rc><c>  16</c><c>Fe</c><c>     55.84700000</c><c>      8.00000000</c><c>  PAW_PBE Fe 06Sep2000                  </c></rc>
    <rc><c>  88</c><c>O </c><c>     16.00000000</c><c>      6.00000000</c><c>  PAW_PBE O 08Apr2002                   </c></rc>
   </set>
  </array>
 </atominfo>
 <structure name="initialpos" >
  <crystal>
   <varray name="basis" >
    <v>      11.25271839       0.00358344      -0.00540158 </v>
    <v>       0.00361148      11.25695992       0.00575848 </v>
    <v>      -0.00769908       0.00815679      15.82156200 </v>
   </varray>
   <i name="volume">   2004.13820641 </i>
   <varray name="rec_basis" >
    <v>       0.08886745      -0.00002853       0.00004326 </v>
    <v>      -0.00002831       0.08883396      -0.00004581 </v>
    <v>       0.00003035      -0.00003234       0.06320492 </v>
   </varray>
  </crystal>
  <varray name="positions" >
   <v>       0.99890302       0.26314199       0.12468978 </v>
   <v>       0.00537374       0.25291239       0.62972984 </v>
   <v>       0.99441043       0.74126509       0.12452466 </v>
   <v>       0.00635346       0.74903867       0.63113943 </v>
   <v>       0.49895030       0.23936874       0.12333829 </v>
   <v>       0.50063983       0.24264926       0.63109234 </v>
   <v>       0.50389004       0.76501066       0.12605163 </v>
   <v>       0.49521096       0.76473848       0.62829020 </v>
   <v>       0.99062035       0.25781051       0.37911373 </v>
   <v>       0.00359347       0.25583418       0.86258829 </v>
   <v>       0.01341784       0.74791818       0.38285352 </v>
   <v>       0.98770478       0.74445695       0.86581768 </v>
   <v>       0.50124041       0.24341605       0.37900469 </v>
   <v>       0.50175469       0.23395219       0.86828950 </v>
   <v>       0.49047469       0.75983430       0.38381019 </v>
   <v>       0.51089429       0.76662975       0.86651568 </v>
   <v>       0.26405181       0.00398066       0.12225723 </v>
   <v>       0.25707233       0.99460441       0.62951383 </v>
   <v>       0.23823662       0.49515191       0.12432555 </v>
   <v>       0.24040176       0.50474356       0.62888877 </v>
   <v>       0.73322861       0.99808740       0.11766412 </v>
   <v>       0.74259427       0.99582215       0.63112188 </v>
   <v>       0.76034571       0.50383052       0.12333467 </v>
   <v>       0.75233879       0.50062026       0.63259052 </v>
   <v>       0.25745875       0.98703383       0.38609410 </v>
   <v>       0.25848249       0.00587161       0.86598468 </v>
   <v>       0.24463594       0.51204622       0.38107966 </v>
   <v>       0.23525287       0.49324436       0.86658486 </v>
   <v>       0.73904783       0.01196706       0.38411465 </v>
   <v>       0.74114706       0.99092778       0.86499412 </v>
   <v>       0.75540494       0.49875003       0.37823791 </v>
   <v>       0.75469714       0.50563758       0.86995297 </v>
   <v>       0.99378379       0.00791453       0.00164929 </v>
   <v>       0.00063316       0.00061642       0.49726036 </v>
   <v>       0.99617555       0.49827209       0.99748489 </v>
   <v>       0.99927518       0.50098950       0.50167695 </v>
   <v>       0.49637368       0.50604567       0.00592521 </v>
   <v>       0.25290750       0.24861640       0.99464342 </v>
   <v>       0.25003630       0.24872157       0.50640544 </v>
   <v>       0.25759215       0.74544776       0.00213657 </v>
   <v>       0.75054805       0.75063395       0.50684560 </v>
   <v>       0.24940924       0.25009757       0.24125697 </v>
   <v>       0.25038698       0.74864539       0.75498034 </v>
   <v>       0.74940589       0.75025809       0.23989010 </v>
   <v>       0.99081338       0.00675987       0.24875769 </v>
   <v>       0.99904213       0.00148856       0.74908682 </v>
   <v>       0.99875516       0.50230866       0.25381625 </v>
   <v>       0.49821266       0.00275614       0.25453316 </v>
   <v>       0.50186287       0.00146837       0.99737257 </v>
   <v>       0.49981636       0.00185619       0.50248155 </v>
   <v>       0.50545757       0.49494138       0.47966986 </v>
   <v>       0.25390764       0.74755853       0.50527556 </v>
   <v>       0.75658335       0.24455252       0.00380022 </v>
   <v>       0.74478541       0.25678258       0.48960504 </v>
   <v>       0.75019174       0.74826907       0.99553315 </v>
   <v>       0.25337499       0.25366968       0.74843482 </v>
   <v>       0.25820374       0.74027728       0.24770047 </v>
   <v>       0.75256907       0.24385452       0.24520742 </v>
   <v>       0.74719174       0.25441345       0.76337582 </v>
   <v>       0.74692666       0.74658550       0.74953135 </v>
   <v>       0.99616281       0.49854123       0.74759179 </v>
   <v>       0.50115158       0.00272318       0.74807280 </v>
   <v>       0.49284607       0.50553760       0.24551176 </v>
   <v>       0.50127205       0.49526995       0.76635619 </v>
   <v>       0.11507810       0.13408811       0.25660845 </v>
   <v>       0.12237008       0.12638085       0.75320888 </v>
   <v>       0.11275345       0.63829468       0.25080020 </v>
   <v>       0.12195169       0.62886111       0.75636272 </v>
   <v>       0.60965975       0.14130855       0.25046364 </v>
   <v>       0.63224505       0.12904364       0.74056462 </v>
   <v>       0.62235809       0.63507132       0.25647236 </v>
   <v>       0.60948484       0.62311427       0.73786244 </v>
   <v>       0.38156533       0.35992713       0.25205913 </v>
   <v>       0.37717719       0.38849384       0.73035797 </v>
   <v>       0.37459338       0.87227952       0.24795364 </v>
   <v>       0.37295799       0.87314138       0.75487671 </v>
   <v>       0.87566311       0.37158707       0.24756564 </v>
   <v>       0.87442840       0.36455285       0.73459706 </v>
   <v>       0.88917459       0.86035551       0.25279020 </v>
   <v>       0.87953130       0.87366018       0.74752367 </v>
   <v>       0.35937641       0.11900238       0.26227275 </v>
   <v>       0.37576704       0.12979739       0.75074694 </v>
   <v>       0.36690700       0.61400809       0.23041353 </v>
   <v>       0.36987001       0.62653138       0.78073644 </v>
   <v>       0.86251467       0.11211740       0.24244700 </v>
   <v>       0.87288268       0.12310666       0.75750633 </v>
   <v>       0.86458236       0.62068532       0.25859251 </v>
   <v>       0.86903786       0.61971582       0.75077312 </v>
   <v>       0.13529723       0.37927132       0.26235949 </v>
   <v>       0.12562451       0.37615705       0.74751437 </v>
   <v>       0.12570622       0.87897602       0.74003197 </v>
   <v>       0.62573752       0.37574954       0.73312969 </v>
   <v>       0.63846283       0.88226000       0.25930925 </v>
   <v>       0.62730040       0.87553820       0.74633566 </v>
   <v>       0.37300745       0.38114631       0.01260519 </v>
   <v>       0.36562570       0.37069404       0.47871824 </v>
   <v>       0.36169738       0.88222723       0.00298685 </v>
   <v>       0.37544453       0.87188461       0.50023903 </v>
   <v>       0.86541198       0.38241583       0.00826887 </v>
   <v>       0.86881799       0.37527185       0.51015208 </v>
   <v>       0.88880822       0.87384294       0.00694364 </v>
   <v>       0.87220331       0.87612438       0.48187392 </v>
   <v>       0.13785712       0.10721664       0.99892961 </v>
   <v>       0.12675518       0.12814548       0.47897255 </v>
   <v>       0.13399466       0.61896568       0.00186115 </v>
   <v>       0.12841869       0.62087173       0.49688008 </v>
   <v>       0.62713100       0.13242266       0.00376234 </v>
   <v>       0.63246049       0.13146697       0.51089737 </v>
   <v>       0.63623350       0.60264820       0.00206639 </v>
   <v>       0.63404412       0.62999505       0.47853138 </v>
   <v>       0.11816177       0.36454717       0.00211934 </v>
   <v>       0.12206795       0.37025893       0.49069383 </v>
   <v>       0.12311385       0.87516889       0.51019418 </v>
   <v>       0.61768602       0.38156516       0.52625296 </v>
   <v>       0.62238614       0.86961715       0.00446296 </v>
   <v>       0.63121744       0.87310283       0.48995095 </v>
   <v>       0.37932801       0.13316572       0.00227258 </v>
   <v>       0.36969633       0.12804533       0.48745307 </v>
   <v>       0.38721250       0.63484820       0.01078390 </v>
   <v>       0.38741199       0.61506960       0.50101605 </v>
   <v>       0.88302832       0.12877589       0.01768562 </v>
   <v>       0.87731264       0.12863201       0.48515161 </v>
   <v>       0.88368059       0.62808967       0.00293073 </v>
   <v>       0.87734409       0.63126825       0.48595878 </v>
   <v>       0.03391164       0.97498918       0.13015999 </v>
   <v>       0.99049660       0.01450179       0.61965214 </v>
   <v>       0.00601718       0.49730936       0.12920720 </v>
   <v>       0.00498891       0.50914935       0.62151508 </v>
   <v>       0.50117814       0.99992811       0.13006054 </v>
   <v>       0.49414190       0.99696251       0.62325828 </v>
   <v>       0.53429183       0.46959899       0.12702898 </v>
   <v>       0.02423981       0.97642482       0.36488517 </v>
   <v>       0.00554367       0.99047556       0.88088075 </v>
   <v>       0.99578660       0.49379094       0.37543098 </v>
   <v>       0.99479040       0.49063051       0.87617431 </v>
   <v>       0.50430348       0.00128813       0.37587346 </v>
   <v>       0.50646906       0.00176962       0.87474072 </v>
   <v>       0.52933337       0.46970986       0.36097094 </v>
   <v>       0.51935568       0.46527199       0.88839509 </v>
   <v>       0.25811858       0.26161347       0.87548446 </v>
   <v>       0.24741617       0.75325145       0.36989786 </v>
   <v>       0.21841402       0.77801765       0.88704008 </v>
   <v>       0.73262055       0.27008022       0.36852898 </v>
   <v>       0.73913240       0.27209870       0.88368369 </v>
   <v>       0.74629349       0.74914999       0.87478224 </v>
   <v>       0.24148856       0.24731863       0.12555082 </v>
   <v>       0.24499559       0.24302331       0.62166765 </v>
   <v>       0.21897190       0.77758572       0.12178748 </v>
   <v>       0.26137231       0.73423241       0.63137950 </v>
   <v>       0.72386932       0.27641833       0.12709454 </v>
   <v>       0.74723254       0.74977177       0.12463930 </v>
   <v>       0.75412461       0.74889670       0.62191975 </v>
  </varray>
 </structure>
 <calculation>
  <scstep>
   <time name="dav">  602.66  602.71</time>
   <time name="total">  609.89  609.98</time>
   <energy>
    <i name="alphaZ">   5619.49143849 </i>
    <i name="ewald"> -61794.02571077 </i>
    <i name="hartreedc"> -17823.52812367 </i>
    <i name="XCdc">   3185.64246235 </i>
    <i name="pawpsdc"> 114576.18573009 </i>
    <i name="pawaedc">-113779.04159455 </i>
    <i name="eentropy">     -0.00000000 </i>
    <i name="bandstr">  -7088.26952533 </i>
    <i name="atom">  76050.17612637 </i>
    <i name="e_fr_energy">  -1053.36919702 </i>
    <i name="e_wo_entrp">  -1053.36919702 </i>
    <i name="e_0_energy">  -1053.36919702 </i>
   </energy>
  </scstep>
  <scstep>
   <time name="diag">   64.58   64.62</time>
   <time name="diis">   63.72   63.74</time>
   <time name="orth">   33.28   33.28</time>
   <time name="total">  168.81  168.89</time>
   <energy>
    <i name="e_fr_energy">  -1053.36919358 </i>
    <i name="e_wo_entrp">  -1053.36919358 </i>
    <i name="e_0_energy">  -1053.36919358 </i>
   </energy>
  </scstep>
  <scstep>
   <time name="diag">   64.70   64.73</time>
   <time name="diis">   60.63   60.65</time>
   <time name="orth">   33.34   33.34</time>
   <time name="total">  165.90  166.00</time>
   <energy>
    <i name="e_fr_energy">  -1053.36919385 </i>
    <i name="e_wo_entrp">  -1053.36919385 </i>
    <i name="e_0_energy">  -1053.36919385 </i>
   </energy>
  </scstep>
  <scstep>
   <time name="diag">   64.58   64.64</time>
   <time name="diis">   51.03   51.08</time>
   <time name="orth">   33.30   33.33</time>
   <time name="total">  156.12  156.32</time>
   <energy>
    <i name="e_fr_energy">  -1053.36919398 </i>
    <i name="e_wo_entrp">  -1053.36919398 </i>
    <i name="e_0_energy">  -1053.36919398 </i>
   </energy>
  </scstep>
  <scstep>
   <time name="diag">   64.69   64.70</time>
   <time name="diis">   50.59   50.59</time>
   <time name="orth">   33.31   33.32</time>
   <time name="total">  155.81  155.95</time>
   <energy>
    <i name="e_fr_energy">  -1053.36919404 </i>
    <i name="e_wo_entrp">  -1053.36919404 </i>
    <i name="e_0_energy">  -1053.36919404 </i>
   </energy>
  </scstep>
  <scstep>
   <time name="diag">   64.68   64.69</time>
   <time name="diis">   47.48   47.48</time>
   <time name="orth">   33.34   33.34</time>
   <time name="total">  152.73  152.77</time>
   <energy>
    <i name="e_fr_energy">  -1053.36919418 </i>
    <i name="e_wo_entrp">  -1053.36919418 </i>
    <i name="e_0_energy">  -1053.36919418 </i>
   </energy>
  </scstep>
  <scstep>
   <time name="diag">   64.54   64.57</time>
   <time name="diis">   46.61   46.62</time>
   <time name="orth">   33.23   33.23</time>
   <time name="total">  151.63  151.78</time>
   <energy>
    <i name="e_fr_energy">  -1053.36919421 </i>
    <i name="e_wo_entrp">  -1053.36919421 </i>
    <i name="e_0_energy">  -1053.36919421 </i>
   </energy>
  </scstep>
  <scstep>
   <time name="diag">   64.66   64.70</time>
   <time name="diis">   45.65   45.65</time>
   <time name="orth">   33.18   33.18</time>
   <time name="total">  144.55  144.68</time>
   <energy>
    <i name="alphaZ">   5619.49143849 </i>
    <i name="ewald"> -61794.02571077 </i>
    <i name="hartreedc"> -17823.54532557 </i>
    <i name="XCdc">   3185.64195146 </i>
    <i name="pawpsdc"> 114575.40473114 </i>
    <i name="pawaedc">-113778.27141893 </i>
    <i name="eentropy">     -0.00000000 </i>
    <i name="bandstr">  -7088.24098645 </i>
    <i name="atom">  76050.17612637 </i>
    <i name="e_fr_energy">  -1053.36919426 </i>
    <i name="e_wo_entrp">  -1053.36919426 </i>
    <i name="e_0_energy">  -1053.36919426 </i>
   </energy>
  </scstep>
  <structure>
   <crystal>
    <varray name="basis" >
     <v>      11.25271839       0.00358344      -0.00540158 </v>
     <v>       0.00361148      11.25695992       0.00575848 </v>
     <v>      -0.00769908       0.00815679      15.82156200 </v>
    </varray>
    <i name="volume">   2004.13820641 </i>
    <varray name="rec_basis" >
     <v>       0.08886745      -0.00002853       0.00004326 </v>
     <v>      -0.00002831       0.08883396      -0.00004581 </v>
     <v>       0.00003035      -0.00003234       0.06320492 </v>
    </varray>
   </crystal>
   <varray name="positions" >
    <v>       0.99890302       0.26314199       0.12468978 </v>
    <v>       0.00537374       0.25291239       0.62972984 </v>
    <v>       0.99441043       0.74126509       0.12452466 </v>
    <v>       0.00635346       0.74903867       0.63113943 </v>
    <v>       0.49895030       0.23936874       0.12333829 </v>
    <v>       0.50063983       0.24264926       0.63109234 </v>
    <v>       0.50389004       0.76501066       0.12605163 </v>
    <v>       0.49521096       0.76473848       0.62829020 </v>
    <v>       0.99062035       0.25781051       0.37911373 </v>
    <v>       0.00359347       0.25583418       0.86258829 </v>
    <v>       0.01341784       0.74791818       0.38285352 </v>
    <v>       0.98770478       0.74445695       0.86581768 </v>
    <v>       0.50124041       0.24341605       0.37900469 </v>
    <v>       0.50175469       0.23395219       0.86828950 </v>
    <v>       0.49047469       0.75983430       0.38381019 </v>
    <v>       0.51089429       0.76662975       0.86651568 </v>
    <v>       0.26405181       0.00398066       0.12225723 </v>
    <v>       0.25707233       0.99460441       0.62951383 </v>
    <v>       0.23823662       0.49515191       0.12432555 </v>
    <v>       0.24040176       0.50474356       0.62888877 </v>
    <v>       0.73322861       0.99808740       0.11766412 </v>
    <v>       0.74259427       0.99582215       0.63112188 </v>
    <v>       0.76034571       0.50383052       0.12333467 </v>
    <v>       0.75233879       0.50062026       0.63259052 </v>
    <v>       0.25745875       0.98703383       0.38609410 </v>
    <v>       0.25848249       0.00587161       0.86598468 </v>
    <v>       0.24463594       0.51204622       0.38107966 </v>
    <v>       0.23525287       0.49324436       0.86658486 </v>
    <v>       0.73904783       0.01196706       0.38411465 </v>
    <v>       0.74114706       0.99092778       0.86499412 </v>
    <v>       0.75540494       0.49875003       0.37823791 </v>
    <v>       0.75469714       0.50563758       0.86995297 </v>
    <v>       0.99378379       0.00791453       0.00164929 </v>
    <v>       0.00063316       0.00061642       0.49726036 </v>
    <v>       0.99617555       0.49827209       0.99748489 </v>
    <v>       0.99927518       0.50098950       0.50167695 </v>
    <v>       0.49637368       0.50604567       0.00592521 </v>
    <v>       0.25290750       0.24861640       0.99464342 </v>
    <v>       0.25003630       0.24872157       0.50640544 </v>
    <v>       0.25759215       0.74544776       0.00213657 </v>
    <v>       0.75054805       0.75063395       0.50684560 </v>
    <v>       0.24940924       0.25009757       0.24125697 </v>
    <v>       0.25038698       0.74864539       0.75498034 </v>
    <v>       0.74940589       0.75025809       0.23989010 </v>
    <v>       0.99081338       0.00675987       0.24875769 </v>
    <v>       0.99904213       0.00148856       0.74908682 </v>
    <v>       0.99875516       0.50230866       0.25381625 </v>
    <v>       0.49821266       0.00275614       0.25453316 </v>
    <v>       0.50186287       0.00146837       0.99737257 </v>
    <v>       0.49981636       0.00185619       0.50248155 </v>
    <v>       0.50545757       0.49494138       0.47966986 </v>
    <v>       0.25390764       0.74755853       0.50527556 </v>
    <v>       0.75658335       0.24455252       0.00380022 </v>
    <v>       0.74478541       0.25678258       0.48960504 </v>
    <v>       0.75019174       0.74826907       0.99553315 </v>
    <v>       0.25337499       0.25366968       0.74843482 </v>
    <v>       0.25820374       0.74027728       0.24770047 </v>
    <v>       0.75256907       0.24385452       0.24520742 </v>
    <v>       0.74719174       0.25441345       0.76337582 </v>
    <v>       0.74692666       0.74658550       0.74953135 </v>
    <v>       0.99616281       0.49854123       0.74759179 </v>
    <v>       0.50115158       0.00272318       0.74807280 </v>
    <v>       0.49284607       0.50553760       0.24551176 </v>
    <v>       0.50127205       0.49526995       0.76635619 </v>
    <v>       0.11507810       0.13408811       0.25660845 </v>
    <v>       0.12237008       0.12638085       0.75320888 </v>
    <v>       0.11275345       0.63829468       0.25080020 </v>
    <v>       0.12195169       0.62886111       0.75636272 </v>
    <v>       0.60965975       0.14130855       0.25046364 </v>
    <v>       0.63224505       0.12904364       0.74056462 </v>
    <v>       0.62235809       0.63507132       0.25647236 </v>
    <v>       0.60948484       0.62311427       0.73786244 </v>
    <v>       0.38156533       0.35992713       0.25205913 </v>
    <v>       0.37717719       0.38849384       0.73035797 </v>
    <v>       0.37459338       0.87227952       0.24795364 </v>
    <v>       0.37295799       0.87314138       0.75487671 </v>
    <v>       0.87566311       0.37158707       0.24756564 </v>
    <v>       0.87442840       0.36455285       0.73459706 </v>
    <v>       0.88917459       0.86035551       0.25279020 </v>
    <v>       0.87953130       0.87366018       0.74752367 </v>
    <v>       0.35937641       0.11900238       0.26227275 </v>
    <v>       0.37576704       0.12979739       0.75074694 </v>
    <v>       0.36690700       0.61400809       0.23041353 </v>
    <v>       0.36987001       0.62653138       0.78073644 </v>
    <v>       0.86251467       0.11211740       0.24244700 </v>
    <v>       0.87288268       0.12310666       0.75750633 </v>
    <v>       0.86458236       0.62068532       0.25859251 </v>
    <v>       0.86903786       0.61971582       0.75077312 </v>
    <v>       0.13529723       0.37927132       0.26235949 </v>
    <v>       0.12562451       0.37615705       0.74751437 </v>
    <v>       0.12570622       0.87897602       0.74003197 </v>
    <v>       0.62573752       0.37574954       0.73312969 </v>
    <v>       0.63846283       0.88226000       0.25930925 </v>
    <v>       0.62730040       0.87553820       0.74633566 </v>
    <v>       0.37300745       0.38114631       0.01260519 </v>
    <v>       0.36562570       0.37069404       0.47871824 </v>
    <v>       0.36169738       0.88222723       0.00298685 </v>
    <v>       0.37544453       0.87188461       0.50023903 </v>
    <v>       0.86541198       0.38241583       0.00826887 </v>
    <v>       0.86881799       0.37527185       0.51015208 </v>
    <v>       0.88880822       0.87384294       0.00694364 </v>
    <v>       0.87220331       0.87612438       0.48187392 </v>
    <v>       0.13785712       0.10721664       0.99892961 </v>
    <v>       0.12675518       0.12814548       0.47897255 </v>
    <v>       0.13399466       0.61896568       0.00186115 </v>
    <v>       0.12841869       0.62087173       0.49688008 </v>
    <v>       0.62713100       0.13242266       0.00376234 </v>
    <v>       0.63246049       0.13146697       0.51089737 </v>
    <v>       0.63623350       0.60264820       0.00206639 </v>
    <v>       0.63404412       0.62999505       0.47853138 </v>
    <v>       0.11816177       0.36454717       0.00211934 </v>
    <v>       0.12206795       0.37025893       0.49069383 </v>
    <v>       0.12311385       0.87516889       0.51019418 </v>
    <v>       0.61768602       0.38156516       0.52625296 </v>
    <v>       0.62238614       0.86961715       0.00446296 </v>
    <v>       0.63121744       0.87310283       0.48995095 </v>
    <v>       0.37932801       0.13316572       0.00227258 </v>
    <v>       0.36969633       0.12804533       0.48745307 </v>
    <v>       0.38721250       0.63484820       0.01078390 </v>
    <v>       0.38741199       0.61506960       0.50101605 </v>
    <v>       0.88302832       0.12877589       0.01768562 </v>
    <v>       0.87731264       0.12863201       0.48515161 </v>
    <v>       0.88368059       0.62808967       0.00293073 </v>
    <v>       0.87734409       0.63126825       0.48595878 </v>
    <v>       0.03391164       0.97498918       0.13015999 </v>
    <v>       0.99049660       0.01450179       0.61965214 </v>
    <v>       0.00601718       0.49730936       0.12920720 </v>
    <v>       0.00498891       0.50914935       0.62151508 </v>
    <v>       0.50117814       0.99992811       0.13006054 </v>
    <v>       0.49414190       0.99696251       0.62325828 </v>
    <v>       0.53429183       0.46959899       0.12702898 </v>
    <v>       0.02423981       0.97642482       0.36488517 </v>
    <v>       0.00554367       0.99047556       0.88088075 </v>
    <v>       0.99578660       0.49379094       0.37543098 </v>
    <v>       0.99479040       0.49063051       0.87617431 </v>
    <v>       0.50430348       0.00128813       0.37587346 </v>
    <v>       0.50646906       0.00176962       0.87474072 </v>
    <v>       0.52933337       0.46970986       0.36097094 </v>
    <v>       0.51935568       0.46527199       0.88839509 </v>
    <v>       0.25811858       0.26161347       0.87548446 </v>
    <v>       0.24741617       0.75325145       0.36989786 </v>
    <v>       0.21841402       0.77801765       0.88704008 </v>
    <v>       0.73262055       0.27008022       0.36852898 </v>
    <v>       0.73913240       0.27209870       0.88368369 </v>
    <v>       0.74629349       0.74914999       0.87478224 </v>
    <v>       0.24148856       0.24731863       0.12555082 </v>
    <v>       0.24499559       0.24302331       0.62166765 </v>
    <v>       0.21897190       0.77758572       0.12178748 </v>
    <v>       0.26137231       0.73423241       0.63137950 </v>
    <v>       0.72386932       0.27641833       0.12709454 </v>
    <v>       0.74723254       0.74977177       0.12463930 </v>
    <v>       0.75412461       0.74889670       0.62191975 </v>
   </varray>
  </structure>
  <varray name="forces" >
   <v>       0.00238831      -0.00458076       0.01481518 </v>
   <v>       0.00693433       0.00352368      -0.00575839 </v>
   <v>      -0.00877707      -0.01367449      -0.00005083 </v>
   <v>      -0.00982545      -0.00112009      -0.00453157 </v>
   <v>      -0.01377374      -0.00444209       0.00292497 </v>
   <v>      -0.01318367      -0.00602928      -0.00160472 </v>
   <v>      -0.00041972       0.00547417      -0.02354366 </v>
   <v>       0.00277435       0.01057833      -0.00555208 </v>
   <v>      -0.00771517       0.00788212       0.00061535 </v>
   <v>      -0.00588838      -0.00972810       0.00202651 </v>
   <v>       0.00890129      -0.00600414       0.01233238 </v>
   <v>       0.00794634       0.01945463      -0.00739889 </v>
   <v>       0.01399790       0.00470921       0.00077660 </v>
   <v>       0.00011544       0.01475237       0.00814704 </v>
   <v>      -0.00917558      -0.00726144      -0.00105545 </v>
   <v>      -0.00107829      -0.00717070       0.01763472 </v>
   <v>       0.01430186       0.00717993      -0.00744052 </v>
   <v>       0.00033966      -0.00881595       0.00565486 </v>
   <v>       0.00676856       0.00517678       0.00255491 </v>
   <v>      -0.01314586      -0.01409216      -0.01570325 </v>
   <v>       0.02079499       0.01015728       0.01374619 </v>
   <v>      -0.00368304      -0.00386450      -0.00978918 </v>
   <v>       0.01310832      -0.00240546       0.01038227 </v>
   <v>       0.00552824       0.00590199       0.00760089 </v>
   <v>       0.00246972      -0.01794371      -0.00282970 </v>
   <v>      -0.00113264       0.00480023       0.00389494 </v>
   <v>       0.00965965       0.01295308      -0.00765477 </v>
   <v>       0.00285275      -0.01496504      -0.00856612 </v>
   <v>      -0.00327917       0.00150292      -0.01732203 </v>
   <v>       0.00730254       0.00984689      -0.00670644 </v>
   <v>      -0.00970599      -0.02656239      -0.00674851 </v>
   <v>       0.00038353       0.00319405       0.01208800 </v>
   <v>       0.02850752       0.02517021      -0.02030835 </v>
   <v>      -0.00237533      -0.00444356      -0.00481344 </v>
   <v>      -0.00175470      -0.01337914      -0.02315639 </v>
   <v>       0.01019701       0.01509713       0.01163661 </v>
   <v>      -0.00744073       0.03144905      -0.01208479 </v>
   <v>       0.01402752      -0.01547711      -0.01788960 </v>
   <v>      -0.00946974       0.01774742       0.02693545 </v>
   <v>       0.04023485      -0.02441005       0.02625491 </v>
   <v>      -0.00078036       0.00098456      -0.00518767 </v>
   <v>       0.01410796      -0.00603480      -0.04406478 </v>
   <v>       0.00375477       0.01472894       0.00092465 </v>
   <v>       0.00328182      -0.00223974       0.00516106 </v>
   <v>      -0.03221682       0.02120306       0.04765962 </v>
   <v>      -0.00986220       0.02452559       0.01483945 </v>
   <v>       0.00834190       0.00129213      -0.00461533 </v>
   <v>       0.01013423       0.00506258       0.00873642 </v>
   <v>       0.00806788      -0.01537312      -0.01446872 </v>
   <v>      -0.01209060      -0.01725421       0.01330658 </v>
   <v>      -0.01673300       0.01461411       0.00470090 </v>
   <v>       0.01584376       0.01211973      -0.02023834 </v>
   <v>       0.01611176      -0.00569638       0.01009690 </v>
   <v>      -0.01543840      -0.00952662      -0.04279356 </v>
   <v>      -0.01591246       0.01143835      -0.00067068 </v>
   <v>      -0.01590903      -0.00635796       0.00932493 </v>
   <v>       0.01127448      -0.02245903      -0.00770536 </v>
   <v>       0.00357401       0.01224624       0.01121081 </v>
   <v>      -0.00080122      -0.02071047       0.02804104 </v>
   <v>       0.00598180       0.00887998      -0.00779547 </v>
   <v>       0.00545529       0.00832503      -0.00676259 </v>
   <v>      -0.00990404      -0.00549122      -0.02104484 </v>
   <v>      -0.00052768       0.00378602       0.00258277 </v>
   <v>      -0.00237216       0.00935024       0.05902121 </v>
   <v>      -0.00452429      -0.00709120       0.01295826 </v>
   <v>      -0.01178008      -0.02724121      -0.00626031 </v>
   <v>      -0.01207244      -0.00958097      -0.00864912 </v>
   <v>       0.00008423      -0.00172041      -0.01437025 </v>
   <v>       0.01297501      -0.00222756      -0.01347364 </v>
   <v>       0.00406098       0.03315360      -0.00828256 </v>
   <v>       0.00501558      -0.02133108      -0.00417095 </v>
   <v>       0.00819172      -0.00899896       0.00591593 </v>
   <v>      -0.00143409      -0.00794360       0.00114785 </v>
   <v>       0.01897920       0.02088206       0.00905958 </v>
   <v>      -0.00442547       0.02584997      -0.02398679 </v>
   <v>      -0.00000409      -0.01871783      -0.00618697 </v>
   <v>       0.00455212      -0.01495446      -0.01172481 </v>
   <v>      -0.00931258       0.01353263      -0.00233624 </v>
   <v>       0.01564948       0.00860151       0.00124243 </v>
   <v>      -0.01476911       0.02525597      -0.01588500 </v>
   <v>      -0.01391554       0.01869539      -0.00228805 </v>
   <v>       0.01785590      -0.01585844       0.00657859 </v>
   <v>       0.00613410       0.00645712      -0.02496217 </v>
   <v>       0.00493154       0.02133578       0.00063296 </v>
   <v>       0.02082561      -0.01699668       0.01527130 </v>
   <v>       0.01237732       0.01301074      -0.02934574 </v>
   <v>       0.00760039       0.01547305      -0.00626179 </v>
   <v>      -0.01535761      -0.00479801       0.00413734 </v>
   <v>       0.01136107       0.00533935      -0.00893143 </v>
   <v>      -0.01018911       0.00845176      -0.00861709 </v>
   <v>      -0.01253215       0.00277929       0.00916831 </v>
   <v>      -0.01908348       0.00639180       0.01306421 </v>
   <v>       0.00379944      -0.01794194      -0.01092852 </v>
   <v>       0.00900783       0.00769355      -0.00155155 </v>
   <v>       0.00300188      -0.00435063      -0.00423248 </v>
   <v>       0.00586221      -0.00770956       0.01062494 </v>
   <v>       0.01938650      -0.00085431      -0.00145807 </v>
   <v>      -0.02312885      -0.00272433       0.00642793 </v>
   <v>      -0.01845648      -0.00288618      -0.00158782 </v>
   <v>      -0.00026577       0.01149333       0.01740659 </v>
   <v>       0.00982425      -0.01598245       0.00990878 </v>
   <v>      -0.00417056      -0.01172500      -0.00896113 </v>
   <v>      -0.01846839      -0.02652272       0.00407729 </v>
   <v>      -0.00210751      -0.00643608      -0.00508803 </v>
   <v>      -0.00766776      -0.00981245      -0.00289430 </v>
   <v>       0.00514710      -0.00327182      -0.00140738 </v>
   <v>       0.00484518       0.02130052      -0.00557128 </v>
   <v>      -0.00980368      -0.01860191       0.00168106 </v>
   <v>       0.01925648       0.01289534       0.00405557 </v>
   <v>       0.00312228      -0.00010119       0.00110627 </v>
   <v>      -0.02272034      -0.00105176      -0.00521994 </v>
   <v>       0.00644120      -0.02360538       0.00164200 </v>
   <v>       0.00035031      -0.00017621      -0.00434066 </v>
   <v>      -0.00876084       0.00376679      -0.01834644 </v>
   <v>       0.02298172       0.00094899      -0.00421232 </v>
   <v>       0.00486946      -0.02981891       0.01300327 </v>
   <v>       0.01030001      -0.00952802      -0.00637120 </v>
   <v>       0.00448674       0.02256247      -0.01093118 </v>
   <v>      -0.02579766      -0.00166085       0.00887588 </v>
   <v>       0.00401759      -0.01390516      -0.00653749 </v>
   <v>      -0.00123245      -0.01201081       0.01581521 </v>
   <v>       0.00438199      -0.01444696      -0.00288229 </v>
   <v>      -0.01936146       0.02238835      -0.00277868 </v>
   <v>      -0.02146472       0.01491208       0.00324757 </v>
   <v>      -0.00284568       0.00742688       0.00525101 </v>
   <v>       0.00718484      -0.00211453       0.00068103 </v>
   <v>       0.00706014       0.00732795      -0.00555455 </v>
   <v>      -0.01028803       0.00994958       0.04731708 </v>
   <v>      -0.00005907       0.00094403      -0.00113159 </v>
   <v>      -0.01473932       0.01507915       0.02118974 </v>
   <v>      -0.00185098      -0.01116638      -0.00700362 </v>
   <v>       0.01226791      -0.02159607      -0.02151984 </v>
   <v>      -0.02891917       0.02080436       0.01960205 </v>
   <v>      -0.00000772       0.00411908      -0.00766597 </v>
   <v>      -0.00755286      -0.01126733       0.01380328 </v>
   <v>       0.00650200      -0.00953697       0.00802743 </v>
   <v>      -0.00295637       0.00548761       0.01400677 </v>
   <v>      -0.02238258       0.02157270       0.00218658 </v>
   <v>       0.00568232      -0.00365015      -0.02992153 </v>
   <v>      -0.01288209      -0.00038878      -0.00327279 </v>
   <v>       0.01003166      -0.00459290       0.00806442 </v>
   <v>      -0.01866463       0.00829663       0.00949050 </v>
   <v>       0.00995570       0.00762813      -0.00329180 </v>
   <v>       0.00933281      -0.02489525      -0.00830751 </v>
   <v>       0.00285416       0.00345787       0.01472843 </v>
   <v>      -0.01653881      -0.01004735       0.04513474 </v>
   <v>       0.00919034      -0.00371908      -0.01405371 </v>
   <v>      -0.00910509       0.01719052      -0.01870538 </v>
   <v>       0.01136970      -0.00739329       0.01487434 </v>
   <v>       0.00290201      -0.00282068      -0.00448030 </v>
   <v>       0.01541946      -0.00638486      -0.01224991 </v>
   <v>      -0.01092260      -0.00789158       0.02701358 </v>
  </varray>
  <varray name="stress" >
   <v>      -0.12255964       0.06064287      -0.01926940 </v>
   <v>       0.06064312      -0.31062065       0.01461676 </v>
   <v>      -0.01926904       0.01461712      -0.26640019 </v>
  </varray>
  <energy>
   <i name="e_fr_energy">  -1053.36919426 </i>
   <i name="e_wo_entrp">  -1053.36919426 </i>
   <i name="e_0_energy">     -0.00000000 </i>
  </energy>
  <time name="totalsc"> 1969.09 1971.74</time>
 </calculation>
 <calculation>
  <scstep>
   <time name="dav">  568.28  568.34</time>
   <time name="total">  575.38  575.52</time>
   <energy>
    <i name="alphaZ">   5621.05251158 </i>
    <i name="ewald"> -61798.87905371 </i>
    <i name="hartreedc"> -17825.85451646 </i>
    <i name="XCdc">   3186.02376113 </i>
    <i name="pawpsdc"> 114575.38063471 </i>
    <i name="pawaedc">-113778.24748925 </i>
    <i name="eentropy">     -0.00000000 </i>
    <i name="bandstr">  -7083.02015167 </i>
    <i name="atom">  76050.17612637 </i>
    <i name="e_fr_energy">  -1053.36817730 </i>
    <i name="e_wo_entrp">  -1053.36817730 </i>
    <i name="e_0_energy">  -1053.36817730 </i>
   </energy>
  </scstep>
  <scstep>
   <time name="diag">   64.71   64.71</time>
   <time name="diis">  104.42  104.43</time>
   <time name="orth">   33.32   33.32</time>
   <time name="total">  209.68  209.72</time>
   <energy>
    <i name="e_fr_energy">  -1053.37097979 </i>
    <i name="e_wo_entrp">  -1053.37097979 </i>
    <i name="e_0_energy">  -1053.37097979 </i>
   </energy>
  </scstep>
  <scstep>
   <time name="diag">   64.61   64.67</time>
   <time name="diis">  105.05  105.05</time>
   <time name="orth">   33.32   33.33</time>
   <time name="total">  210.21  210.30</time>
   <energy>
    <i name="e_fr_energy">  -1053.37115124 </i>
    <i name="e_wo_entrp">  -1053.37115124 </i>
    <i name="e_0_energy">  -1053.37115124 </i>
   </energy>
  </scstep>
  <scstep>
   <time name="diag">   64.66   64.66</time>
   <time name="diis">   90.03   90.04</time>
   <time name="orth">   33.28   33.28</time>
   <time name="total">  195.20  195.26</time>
   <energy>
    <i name="e_fr_energy">  -1053.37101815 </i>
    <i name="e_wo_entrp">  -1053.37101815 </i>
    <i name="e_0_energy">  -1053.37101815 </i>
   </energy>
  </scstep>
  <scstep>
   <time name="diag">   64.65   64.66</time>
   <time name="diis">   71.66   71.67</time>
   <time name="orth">   33.30   33.30</time>
   <time name="total">  176.82  176.90</time>
   <energy>
    <i name="e_fr_energy">  -1053.37099552 </i>
    <i name="e_wo_entrp">  -1053.37099552 </i>
    <i name="e_0_energy">  -1053.37099552 </i>
   </energy>
  </scstep>
  <scstep>
   <time name="diag">   64.64   64.68</time>
   <time name="diis">   64.59   64.60</time>
   <time name="orth">   33.31   33.31</time>
   <time name="total">  169.76  169.87</time>
   <energy>
    <i name="e_fr_energy">  -1053.37100065 </i>
    <i name="e_wo_entrp">  -1053.37100065 </i>
    <i name="e_0_energy">  -1053.37100065 </i>
   </energy>
  </scstep>
  <scstep>
   <time name="diag">   64.66   64.68</time>
   <time name="diis">   63.41   63.41</time>
   <time name="orth">   33.25   33.25</time>
   <time name="total">  168.41  168.51</time>
   <energy>
    <i name="e_fr_energy">  -1053.37100493 </i>
    <i name="e_wo_entrp">  -1053.37100493 </i>
    <i name="e_0_energy">  -1053.37100493 </i>
   </energy>
  </scstep>
  <scstep>
   <time name="diag">   64.73   64.73</time>
   <time name="diis">   62.88   62.88</time>
   <time name="orth">   33.21   33.21</time>
   <time name="total">  161.87  161.94</time>
   <energy>
    <i name="alphaZ">   5621.05251158 </i>
    <i name="ewald"> -61798.87905371 </i>
    <i name="hartreedc"> -17821.68710892 </i>
    <i name="XCdc">   3185.74815306 </i>
    <i name="pawpsdc"> 114630.66509310 </i>
    <i name="pawaedc">-113833.60263043 </i>
    <i name="eentropy">     -0.00000000 </i>
    <i name="bandstr">  -7086.84410026 </i>
    <i name="atom">  76050.17612637 </i>
    <i name="e_fr_energy">  -1053.37100921 </i>
    <i name="e_wo_entrp">  -1053.37100921 </i>
    <i name="e_0_energy">  -1053.37100921 </i>
   </energy>
  </scstep>
  <structure>
   <crystal>
    <varray name="basis" >
     <v>      11.25217099       0.00385389      -0.00548707 </v>
     <v>       0.00388228      11.25557183       0.00582317 </v>
     <v>      -0.00781954       0.00824742      15.81988875 </v>
    </varray>
    <i name="volume">   2003.58161915 </i>
    <varray name="rec_basis" >
     <v>       0.08887177      -0.00003068       0.00004394 </v>
     <v>      -0.00003045       0.08884492      -0.00004633 </v>
     <v>       0.00003084      -0.00003271       0.06321160 </v>
    </varray>
   </crystal>
   <varray name="positions" >
    <v>       0.99891329       0.26312233       0.12473496 </v>
    <v>       0.00540345       0.25292750       0.62971228 </v>
    <v>       0.99437282       0.74120650       0.12452451 </v>
    <v>       0.00631133       0.74903390       0.63112560 </v>
    <v>       0.49889126       0.23934972       0.12334719 </v>
    <v>       0.50058331       0.24262345       0.63108743 </v>
    <v>       0.50388819       0.76503417       0.12597983 </v>
    <v>       0.49522282       0.76478382       0.62827326 </v>
    <v>       0.99058727       0.25784429       0.37911558 </v>
    <v>       0.00356824       0.25579249       0.86259448 </v>
    <v>       0.01345603       0.74789241       0.38289115 </v>
    <v>       0.98773880       0.74454033       0.86579510 </v>
    <v>       0.50130041       0.24343621       0.37900707 </v>
    <v>       0.50175518       0.23401539       0.86831432 </v>
    <v>       0.49043536       0.75980320       0.38380697 </v>
    <v>       0.51088972       0.76659898       0.86656946 </v>
    <v>       0.26411310       0.00401142       0.12223455 </v>
    <v>       0.25707381       0.99456662       0.62953108 </v>
    <v>       0.23826564       0.49517408       0.12433335 </v>
    <v>       0.24034538       0.50468322       0.62884089 </v>
    <v>       0.73331777       0.99813087       0.11770605 </v>
    <v>       0.74257847       0.99580561       0.63109203 </v>
    <v>       0.76040194       0.50382017       0.12336635 </v>
    <v>       0.75236250       0.50064553       0.63261369 </v>
    <v>       0.25746936       0.98695693       0.38608551 </v>
    <v>       0.25847763       0.00589218       0.86599655 </v>
    <v>       0.24467732       0.51210174       0.38105632 </v>
    <v>       0.23526511       0.49318024       0.86655876 </v>
    <v>       0.73903374       0.01197354       0.38406182 </v>
    <v>       0.74117834       0.99096998       0.86497367 </v>
    <v>       0.75536335       0.49863623       0.37821736 </v>
    <v>       0.75469881       0.50565124       0.86998983 </v>
    <v>       0.99390593       0.00802241       0.00158737 </v>
    <v>       0.00062298       0.00059739       0.49724569 </v>
    <v>       0.99616799       0.49821480       0.99741430 </v>
    <v>       0.99931890       0.50105416       0.50171242 </v>
    <v>       0.49634171       0.50618049       0.00588830 </v>
    <v>       0.25296762       0.24855010       0.99458891 </v>
    <v>       0.24999573       0.24879758       0.50648752 </v>
    <v>       0.25776473       0.74534303       0.00221673 </v>
    <v>       0.75054469       0.75063818       0.50682978 </v>
    <v>       0.24946964       0.25007178       0.24112264 </v>
    <v>       0.25040306       0.74870850       0.75498314 </v>
    <v>       0.74941997       0.75024848       0.23990584 </v>
    <v>       0.99067533       0.00685067       0.24890293 </v>
    <v>       0.99899985       0.00159365       0.74913201 </v>
    <v>       0.99879091       0.50231420       0.25380219 </v>
    <v>       0.49825612       0.00277780       0.25455981 </v>
    <v>       0.50189745       0.00140251       0.99732849 </v>
    <v>       0.49976457       0.00178224       0.50252213 </v>
    <v>       0.50538582       0.49500402       0.47968414 </v>
    <v>       0.25397551       0.74761049       0.50521385 </v>
    <v>       0.75665245       0.24452807       0.00383104 </v>
    <v>       0.74471914       0.25674186       0.48947454 </v>
    <v>       0.75012350       0.74831812       0.99553107 </v>
    <v>       0.25330681       0.25364243       0.74846324 </v>
    <v>       0.25825209       0.74018103       0.24767703 </v>
    <v>       0.75258439       0.24390697       0.24524159 </v>
    <v>       0.74718839       0.25432463       0.76346135 </v>
    <v>       0.74695228       0.74662357       0.74950757 </v>
    <v>       0.99618617       0.49857692       0.74757117 </v>
    <v>       0.50110908       0.00269970       0.74800862 </v>
    <v>       0.49284380       0.50555382       0.24551963 </v>
    <v>       0.50126199       0.49530990       0.76653614 </v>
    <v>       0.11505874       0.13405770       0.25664797 </v>
    <v>       0.12231960       0.12626413       0.75318981 </v>
    <v>       0.11270169       0.63825365       0.25077382 </v>
    <v>       0.12195202       0.62885377       0.75631891 </v>
    <v>       0.60971535       0.14129901       0.25042257 </v>
    <v>       0.63226240       0.12918574       0.74053932 </v>
    <v>       0.62237961       0.63497990       0.25645969 </v>
    <v>       0.60951998       0.62307568       0.73788051 </v>
    <v>       0.38155919       0.35989308       0.25206264 </v>
    <v>       0.37725855       0.38858328       0.73038559 </v>
    <v>       0.37457433       0.87239036       0.24788045 </v>
    <v>       0.37295799       0.87306117       0.75485788 </v>
    <v>       0.87568263       0.37152300       0.24752992 </v>
    <v>       0.87438845       0.36461086       0.73458990 </v>
    <v>       0.88924167       0.86039235       0.25279399 </v>
    <v>       0.87946791       0.87376847       0.74747518 </v>
    <v>       0.35931672       0.11908253       0.26226573 </v>
    <v>       0.37584363       0.12972939       0.75076705 </v>
    <v>       0.36693323       0.61403581       0.23033742 </v>
    <v>       0.36989112       0.62662281       0.78073835 </v>
    <v>       0.86260401       0.11204450       0.24249363 </v>
    <v>       0.87293566       0.12316247       0.75741685 </v>
    <v>       0.86461491       0.62075163       0.25857340 </v>
    <v>       0.86897203       0.61969527       0.75078572 </v>
    <v>       0.13534591       0.37929421       0.26233227 </v>
    <v>       0.12558080       0.37619331       0.74748807 </v>
    <v>       0.12565251       0.87898793       0.74005990 </v>
    <v>       0.62565572       0.37577693       0.73316948 </v>
    <v>       0.63847912       0.88218313       0.25927596 </v>
    <v>       0.62733900       0.87557116       0.74633093 </v>
    <v>       0.37302031       0.38112767       0.01259229 </v>
    <v>       0.36565087       0.37066096       0.47875065 </v>
    <v>       0.36178050       0.88222355       0.00298243 </v>
    <v>       0.37534539       0.87187295       0.50025860 </v>
    <v>       0.86533285       0.38240349       0.00826401 </v>
    <v>       0.86881687       0.37532107       0.51020514 </v>
    <v>       0.88885038       0.87377441       0.00697389 </v>
    <v>       0.87218543       0.87607415       0.48184660 </v>
    <v>       0.13777798       0.10710299       0.99894206 </v>
    <v>       0.12674615       0.12811792       0.47895704 </v>
    <v>       0.13396179       0.61892365       0.00185233 </v>
    <v>       0.12844075       0.62085771       0.49687580 </v>
    <v>       0.62715173       0.13251395       0.00374532 </v>
    <v>       0.63241849       0.13138725       0.51090251 </v>
    <v>       0.63631605       0.60270343       0.00207876 </v>
    <v>       0.63405751       0.62999461       0.47853475 </v>
    <v>       0.11806436       0.36454271       0.00210340 </v>
    <v>       0.12209560       0.37015775       0.49069889 </v>
    <v>       0.12311534       0.87516814       0.51018095 </v>
    <v>       0.61764842       0.38158136       0.52619700 </v>
    <v>       0.62248466       0.86962119       0.00445014 </v>
    <v>       0.63123838       0.87297500       0.48999065 </v>
    <v>       0.37937217       0.13312489       0.00225319 </v>
    <v>       0.36971552       0.12814204       0.48741971 </v>
    <v>       0.38710193       0.63484109       0.01081092 </v>
    <v>       0.38742922       0.61501001       0.50099615 </v>
    <v>       0.88302308       0.12872438       0.01773386 </v>
    <v>       0.87733144       0.12857009       0.48514285 </v>
    <v>       0.88359755       0.62818565       0.00292219 </v>
    <v>       0.87725205       0.63133218       0.48596863 </v>
    <v>       0.03389944       0.97502100       0.13017599 </v>
    <v>       0.99052741       0.01449272       0.61965423 </v>
    <v>       0.00604742       0.49734077       0.12919026 </v>
    <v>       0.00494489       0.50919190       0.62165933 </v>
    <v>       0.50117788       0.99993216       0.13005709 </v>
    <v>       0.49407873       0.99702711       0.62332284 </v>
    <v>       0.53428390       0.46955115       0.12700764 </v>
    <v>       0.02429238       0.97633230       0.36481961 </v>
    <v>       0.00541970       0.99056471       0.88094045 </v>
    <v>       0.99578655       0.49380861       0.37540760 </v>
    <v>       0.99475806       0.49058220       0.87621641 </v>
    <v>       0.50433138       0.00124723       0.37589796 </v>
    <v>       0.50645641       0.00179311       0.87478341 </v>
    <v>       0.52923739       0.46980234       0.36097754 </v>
    <v>       0.51937999       0.46525641       0.88830387 </v>
    <v>       0.25806335       0.26161183       0.87547446 </v>
    <v>       0.24745920       0.75323174       0.36992247 </v>
    <v>       0.21833400       0.77805321       0.88706898 </v>
    <v>       0.73266321       0.27011290       0.36851895 </v>
    <v>       0.73917242       0.27199201       0.88365841 </v>
    <v>       0.74630576       0.74916477       0.87482715 </v>
    <v>       0.24141776       0.24727549       0.12568843 </v>
    <v>       0.24503497       0.24300739       0.62162482 </v>
    <v>       0.21893281       0.77765944       0.12173040 </v>
    <v>       0.26142110       0.73420068       0.63142488 </v>
    <v>       0.72388176       0.27640625       0.12708088 </v>
    <v>       0.74729863       0.74974442       0.12460198 </v>
    <v>       0.75407785       0.74886283       0.62200211 </v>
   </varray>
  </structure>
  <varray name="forces" >
   <v>       0.00163729      -0.00711548       0.01421176 </v>
   <v>      -0.00592710       0.00228872      -0.00430315 </v>
   <v>      -0.01191589       0.00045353      -0.00959702 </v>
   <v>      -0.00918222       0.00425800       0.00256067 </v>
   <v>      -0.00295838      -0.00276354       0.00116296 </v>
   <v>      -0.00304986       0.00605385       0.00112754 </v>
   <v>       0.00925837       0.01231546      -0.01481245 </v>
   <v>       0.00816294      -0.00210849       0.00395425 </v>
   <v>       0.00712124       0.00659426      -0.00131966 </v>
   <v>      -0.01361090      -0.00121069       0.00229853 </v>
   <v>       0.00292503      -0.00177815       0.00305657 </v>
   <v>       0.00559497       0.01560533      -0.00077458 </v>
   <v>      -0.00357041       0.00503269       0.00550616 </v>
   <v>       0.01051250       0.01003268       0.00054952 </v>
   <v>       0.00110891      -0.01099353      -0.00435982 </v>
   <v>       0.00664434      -0.00178567       0.00697771 </v>
   <v>       0.00246402      -0.00158082      -0.00033605 </v>
   <v>      -0.00796987      -0.00850094       0.00294461 </v>
   <v>      -0.00359475       0.00129934       0.00109620 </v>
   <v>      -0.00469235      -0.00480802      -0.00515619 </v>
   <v>       0.02603213       0.00724654       0.00760844 </v>
   <v>       0.00202162      -0.00105747      -0.00695016 </v>
   <v>       0.01037085       0.00193819       0.00152738 </v>
   <v>      -0.00130981       0.00224305       0.01372244 </v>
   <v>      -0.00405798      -0.00052975      -0.00976240 </v>
   <v>       0.00168480      -0.00727416       0.00357341 </v>
   <v>       0.01004054      -0.00005459      -0.00961124 </v>
   <v>      -0.00179229       0.00077697      -0.01371364 </v>
   <v>      -0.00303384      -0.00790637      -0.01165387 </v>
   <v>       0.00533946       0.00505289       0.00124474 </v>
   <v>      -0.00836354      -0.01405474      -0.00235703 </v>
   <v>       0.00539889       0.00553367       0.00564957 </v>
   <v>      -0.02761001      -0.04011103       0.04390283 </v>
   <v>       0.00889152       0.00615185       0.00247759 </v>
   <v>      -0.01718752       0.01539435      -0.00141977 </v>
   <v>      -0.01022846       0.00008317       0.01036655 </v>
   <v>       0.02953680       0.00294578      -0.00351477 </v>
   <v>      -0.00696756      -0.00199661       0.01276247 </v>
   <v>       0.00023236      -0.00233653      -0.03746698 </v>
   <v>      -0.03567165       0.01586167      -0.02065918 </v>
   <v>      -0.00019166      -0.01098472       0.02809243 </v>
   <v>      -0.02949958      -0.00948832       0.06145807 </v>
   <v>      -0.01790279      -0.00501921       0.00959924 </v>
   <v>      -0.00259070       0.00005088      -0.02286656 </v>
   <v>       0.05242642      -0.01929425      -0.05451211 </v>
   <v>      -0.00213062      -0.02187158      -0.01261456 </v>
   <v>       0.01137838      -0.00855763      -0.01366091 </v>
   <v>      -0.00168391      -0.00114288      -0.01604034 </v>
   <v>       0.02171677      -0.01148259      -0.00372287 </v>
   <v>      -0.01103422      -0.00091586       0.00702633 </v>
   <v>      -0.00129501      -0.00148501       0.00848455 </v>
   <v>       0.00138979       0.00302002       0.00176528 </v>
   <v>       0.01089187      -0.00355649       0.00560578 </v>
   <v>      -0.00764940      -0.00139534       0.00056198 </v>
   <v>       0.01739154       0.01452334       0.00282452 </v>
   <v>       0.00031162       0.00054582      -0.00421092 </v>
   <v>      -0.00350769       0.00224292      -0.01122127 </v>
   <v>       0.01038804       0.00522820      -0.01181184 </v>
   <v>      -0.00213050       0.01062142      -0.00050123 </v>
   <v>       0.00233232       0.00076581       0.00915764 </v>
   <v>      -0.00971858       0.01206335       0.00730811 </v>
   <v>       0.00298631      -0.00366042       0.00487270 </v>
   <v>       0.00590681      -0.00508881      -0.00452923 </v>
   <v>       0.00795958       0.01623824       0.00835589 </v>
   <v>      -0.00021423       0.00575502       0.01528262 </v>
   <v>       0.01471389       0.00186075       0.00056632 </v>
   <v>       0.00747485       0.00243806      -0.00423795 </v>
   <v>       0.00050509      -0.00256833      -0.00854250 </v>
   <v>       0.01233454      -0.00156115      -0.00418688 </v>
   <v>      -0.00397076       0.00757610      -0.00818851 </v>
   <v>       0.00430211      -0.02091278      -0.00611547 </v>
   <v>       0.00602371      -0.00025101       0.01070394 </v>
   <v>       0.01300317       0.00913532      -0.00327452 </v>
   <v>      -0.01232528      -0.00162567       0.01121661 </v>
   <v>      -0.00981573       0.01079908      -0.01587460 </v>
   <v>       0.00754619       0.00443050      -0.00335525 </v>
   <v>       0.00119298      -0.00942090      -0.00459050 </v>
   <v>      -0.00755606       0.00652257       0.00246089 </v>
   <v>      -0.00806108      -0.00725357       0.00761825 </v>
   <v>      -0.01186381       0.02483537      -0.01023041 </v>
   <v>       0.01586809      -0.00507285       0.00115199 </v>
   <v>      -0.00353456      -0.00094239       0.00827362 </v>
   <v>       0.00637497       0.00536974      -0.02416739 </v>
   <v>       0.00363110       0.01274725       0.01164790 </v>
   <v>      -0.04132055       0.03653456       0.01907111 </v>
   <v>       0.00915634       0.01679687      -0.02454695 </v>
   <v>       0.00968846       0.00464177      -0.00149627 </v>
   <v>      -0.00758065      -0.00166460       0.00896133 </v>
[...]
       <r>   -17.0910     0.0000    32.0000 </r>
       <r>   -16.9371     0.0000    32.0000 </r>
       <r>   -16.7833     0.0000    32.0000 </r>
       <r>   -16.6295     0.0000    32.0000 </r>
       <r>   -16.4756     0.0000    32.0000 </r>
       <r>   -16.3218     0.0000    32.0000 </r>
       <r>   -16.1680     0.0000    32.0000 </r>
       <r>   -16.0142     0.0000    32.0000 </r>
       <r>   -15.8603     0.0000    32.0000 </r>
       <r>   -15.7065     0.0000    32.0000 </r>
       <r>   -15.5527     0.0000    32.0000 </r>
       <r>   -15.3988     0.5138    32.0790 </r>
       <r>   -15.2450    11.7600    33.8881 </r>
       <r>   -15.0912    22.3501    37.3262 </r>
       <r>   -14.9373    18.2126    40.1278 </r>
       <r>   -14.7835    31.6863    45.0022 </r>
       <r>   -14.6297    45.9148    52.0653 </r>
       <r>   -14.4759    40.5453    58.3024 </r>
       <r>   -14.3220    42.6378    64.8614 </r>
       <r>   -14.1682    50.0766    72.5647 </r>
       <r>   -14.0144    74.1845    83.9765 </r>
       <r>   -13.8605    84.0818    96.9108 </r>
       <r>   -13.7067    64.8813   106.8916 </r>
       <r>   -13.5529    39.8261   113.0180 </r>
       <r>   -13.3990    29.2799   117.5222 </r>
       <r>   -13.2452    10.7386   119.1741 </r>
       <r>   -13.0914     5.3662   119.9996 </r>
       <r>   -12.9375     0.0032   120.0001 </r>
       <r>   -12.7837    10.9278   121.6811 </r>
       <r>   -12.6299    52.7950   129.8026 </r>
       <r>   -12.4761    94.4191   144.3271 </r>
       <r>   -12.3222   121.9547   163.0875 </r>
       <r>   -12.1684   110.0570   180.0176 </r>
       <r>   -12.0146    89.7886   193.8298 </r>
       <r>   -11.8607    89.3126   207.5688 </r>
       <r>   -11.7069    45.0133   214.4932 </r>
       <r>   -11.5531     9.7712   215.9963 </r>
       <r>   -11.3992     0.0238   216.0000 </r>
       <r>   -11.2454     0.0000   216.0000 </r>
       <r>   -11.0916     0.0000   216.0000 </r>
       <r>   -10.9378     0.0000   216.0000 </r>
       <r>   -10.7839     0.0000   216.0000 </r>
       <r>   -10.6301     0.0000   216.0000 </r>
       <r>   -10.4763     0.0000   216.0000 </r>
       <r>   -10.3224     0.0000   216.0000 </r>
       <r>   -10.1686     0.0000   216.0000 </r>
       <r>   -10.0148     0.0000   216.0000 </r>
       <r>    -9.8609     0.0000   216.0000 </r>
       <r>    -9.7071     0.0000   216.0000 </r>
       <r>    -9.5533     0.0000   216.0000 </r>
       <r>    -9.3994     0.0000   216.0000 </r>
       <r>    -9.2456     0.0000   216.0000 </r>
       <r>    -9.0918     0.0000   216.0000 </r>
       <r>    -8.9380     0.0000   216.0000 </r>
       <r>    -8.7841     0.0000   216.0000 </r>
       <r>    -8.6303     0.0000   216.0000 </r>
       <r>    -8.4765     0.0000   216.0000 </r>
       <r>    -8.3226     0.0000   216.0000 </r>
       <r>    -8.1688     0.0000   216.0000 </r>
       <r>    -8.0150     0.0000   216.0000 </r>
       <r>    -7.8611     0.0000   216.0000 </r>
       <r>    -7.7073     0.0000   216.0000 </r>
       <r>    -7.5535     0.0000   216.0000 </r>
       <r>    -7.3997     0.0000   216.0000 </r>
       <r>    -7.2458     0.0000   216.0000 </r>
       <r>    -7.0920     0.0000   216.0000 </r>
       <r>    -6.9382     0.0000   216.0000 </r>
       <r>    -6.7843     0.0000   216.0000 </r>
       <r>    -6.6305     0.0000   216.0000 </r>
       <r>    -6.4767     0.0000   216.0000 </r>
       <r>    -6.3228     0.0000   216.0000 </r>
       <r>    -6.1690     0.0000   216.0000 </r>
       <r>    -6.0152     0.0000   216.0000 </r>
       <r>    -5.8613     0.0000   216.0000 </r>
       <r>    -5.7075     0.0000   216.0000 </r>
       <r>    -5.5537     0.0000   216.0000 </r>
       <r>    -5.3999     0.0000   216.0000 </r>
       <r>    -5.2460     0.0000   216.0000 </r>
       <r>    -5.0922     0.0000   216.0000 </r>
       <r>    -4.9384     0.0000   216.0000 </r>
       <r>    -4.7845     0.0000   216.0000 </r>
       <r>    -4.6307     0.0000   216.0000 </r>
       <r>    -4.4769     0.0000   216.0000 </r>
       <r>    -4.3230     0.0000   216.0000 </r>
       <r>    -4.1692     0.0000   216.0000 </r>
       <r>    -4.0154     0.0000   216.0000 </r>
       <r>    -3.8616     0.0000   216.0000 </r>
       <r>    -3.7077     0.0000   216.0000 </r>
       <r>    -3.5539     0.0000   216.0000 </r>
       <r>    -3.4001     0.0000   216.0000 </r>
       <r>    -3.2462     0.0000   216.0000 </r>
       <r>    -3.0924     0.0000   216.0000 </r>
       <r>    -2.9386     0.0000   216.0000 </r>
       <r>    -2.7847     0.0000   216.0000 </r>
       <r>    -2.6309     0.0027   216.0004 </r>
       <r>    -2.4771     5.7184   216.8801 </r>
       <r>    -2.3232    12.0029   218.7265 </r>
       <r>    -2.1694    20.5839   221.8929 </r>
       <r>    -2.0156    24.6861   225.6904 </r>
       <r>    -1.8618    25.7752   229.6554 </r>
       <r>    -1.7079    33.2119   234.7644 </r>
       <r>    -1.5541    49.7906   242.4237 </r>
       <r>    -1.4003    46.9703   249.6492 </r>
       <r>    -1.2464    52.6885   257.7543 </r>
       <r>    -1.0926    64.5693   267.6870 </r>
       <r>    -0.9388    66.4537   277.9096 </r>
       <r>    -0.7849    76.7861   289.7217 </r>
       <r>    -0.6311    88.6469   303.3582 </r>
       <r>    -0.4773    92.9574   317.6579 </r>
       <r>    -0.3235    88.9045   331.3341 </r>
       <r>    -0.1696    67.2290   341.6760 </r>
       <r>    -0.0158    58.3959   350.6591 </r>
       <r>     0.1380    49.3006   358.2430 </r>
       <r>     0.2919    50.8909   366.0716 </r>
       <r>     0.4457    50.8994   373.9015 </r>
       <r>     0.5995    51.9061   381.8862 </r>
       <r>     0.7534    55.0659   390.3570 </r>
       <r>     0.9072    55.4089   398.8806 </r>
       <r>     1.0610    55.9645   407.4896 </r>
       <r>     1.2149    61.5432   416.9569 </r>
       <r>     1.3687    71.3935   427.9393 </r>
       <r>     1.5225    70.2030   438.7387 </r>
       <r>     1.6763    66.4121   448.9549 </r>
       <r>     1.8302    66.3392   459.1599 </r>
       <r>     1.9840    55.8315   467.7485 </r>
       <r>     2.1378    33.9380   472.9692 </r>
       <r>     2.2917    22.7984   476.4763 </r>
       <r>     2.4455    15.9984   478.9373 </r>
       <r>     2.5993     2.3046   479.2918 </r>
       <r>     2.7532     4.6031   479.9999 </r>
       <r>     2.9070     0.0005   480.0000 </r>
       <r>     3.0608     0.0000   480.0000 </r>
       <r>     3.2146     0.0000   480.0000 </r>
       <r>     3.3685     0.0000   480.0000 </r>
       <r>     3.5223     0.0000   480.0000 </r>
       <r>     3.6761     0.0000   480.0000 </r>
       <r>     3.8300     0.0000   480.0000 </r>
       <r>     3.9838     0.0266   480.0041 </r>
       <r>     4.1376     5.6290   480.8700 </r>
       <r>     4.2915     8.3920   482.1609 </r>
       <r>     4.4453    14.6770   484.4187 </r>
       <r>     4.5991    36.3312   490.0075 </r>
       <r>     4.7530    49.9453   497.6907 </r>
       <r>     4.9068    49.7378   505.3418 </r>
       <r>     5.0606    55.6584   513.9038 </r>
       <r>     5.2144    64.4613   523.8199 </r>
       <r>     5.3683    71.5254   534.8227 </r>
       <r>     5.5221    73.6315   546.1495 </r>
       <r>     5.6759    70.4415   556.9855 </r>
       <r>     5.8298    84.3800   569.9657 </r>
       <r>     5.9836    73.0648   581.2053 </r>
       <r>     6.1374    68.4676   591.7377 </r>
       <r>     6.2913    65.0984   601.7518 </r>
       <r>     6.4451    43.3990   608.4279 </r>
       <r>     6.5989    16.4474   610.9580 </r>
       <r>     6.7528    14.4807   613.1856 </r>
       <r>     6.9066    15.5657   615.5801 </r>
       <r>     7.0604    18.0802   618.3614 </r>
       <r>     7.2142    16.2510   620.8613 </r>
       <r>     7.3681    15.6064   623.2620 </r>
       <r>     7.5219    17.1202   625.8956 </r>
       <r>     7.6757    15.4303   628.2692 </r>
       <r>     7.8296    14.3527   630.4771 </r>
       <r>     7.9834    14.6439   632.7298 </r>
       <r>     8.1372    21.2052   635.9918 </r>
       <r>     8.2911    22.4266   639.4417 </r>
       <r>     8.4449    23.3973   643.0409 </r>
       <r>     8.5987    30.8814   647.7914 </r>
       <r>     8.7525    32.4787   652.7876 </r>
       <r>     8.9064    31.2708   657.5981 </r>
       <r>     9.0602    37.5133   663.3687 </r>
       <r>     9.2140    36.7410   669.0206 </r>
       <r>     9.3679    39.2014   675.0510 </r>
       <r>     9.5217    44.9594   681.9671 </r>
       <r>     9.6755    51.2038   689.8438 </r>
       <r>     9.8294    51.5973   697.7811 </r>
       <r>     9.9832    52.5326   705.8622 </r>
       <r>    10.1370    55.5052   714.4006 </r>
       <r>    10.2909    53.6394   722.6519 </r>
       <r>    10.4447    53.6574   730.9061 </r>
       <r>    10.5985    54.8243   739.3397 </r>
       <r>    10.7523    54.9691   747.7956 </r>
       <r>    10.9062    52.1364   755.8158 </r>
       <r>    11.0600    56.8024   764.5537 </r>
       <r>    11.2138    22.3893   767.9979 </r>
       <r>    11.3677     0.0136   768.0000 </r>
       <r>    11.5215     0.0000   768.0000 </r>
       <r>    11.6753     0.0000   768.0000 </r>
       <r>    11.8292     0.0000   768.0000 </r>
       <r>    11.9830     0.0000   768.0000 </r>
       <r>    12.1368     0.0000   768.0000 </r>
       <r>    12.2906     0.0000   768.0000 </r>
       <r>    12.4445     0.0000   768.0000 </r>
       <r>    12.5983     0.0000   768.0000 </r>
       <r>    12.7521     0.0000   768.0000 </r>
       <r>    12.9060     0.0000   768.0000 </r>
       <r>    13.0598     0.0000   768.0000 </r>
       <r>    13.2136     0.0000   768.0000 </r>
      </set>
     </set>
    </array>
   </total>
  </dos>
 </calculation>
 <structure name="finalpos" >
  <crystal>
   <varray name="basis" >
    <v>      11.25241027       0.00372838      -0.00862340 </v>
    <v>       0.00375689      11.25664822       0.00944884 </v>
    <v>      -0.01222983       0.01334398      15.82261144 </v>
   </varray>
   <i name="volume">   2004.15913594 </i>
   <varray name="rec_basis" >
    <v>       0.08886991      -0.00002972       0.00006872 </v>
    <v>      -0.00002949       0.08883646      -0.00007494 </v>
    <v>       0.00004845      -0.00005307       0.06320077 </v>
   </varray>
  </crystal>
  <varray name="positions" >
   <v>       0.99852693       0.26270907       0.12616130 </v>
   <v>       0.00403413       0.25270011       0.62991311 </v>
   <v>       0.99416983       0.74108774       0.12464960 </v>
   <v>       0.00579780       0.74929947       0.63120623 </v>
   <v>       0.49910389       0.23848823       0.12348025 </v>
   <v>       0.49950825       0.24332442       0.63120157 </v>
   <v>       0.50539425       0.76531294       0.12421871 </v>
   <v>       0.49502352       0.76573504       0.62833207 </v>
   <v>       0.99103920       0.25834282       0.37919040 </v>
   <v>       0.00228207       0.25481300       0.86197320 </v>
   <v>       0.01385888       0.74630341       0.38262846 </v>
   <v>       0.98736506       0.74611815       0.86557873 </v>
   <v>       0.50088338       0.24439877       0.37899873 </v>
   <v>       0.50270392       0.23432642       0.86868398 </v>
   <v>       0.49000237       0.75918785       0.38429995 </v>
   <v>       0.51234934       0.76830726       0.86738924 </v>
   <v>       0.26522561       0.00299169       0.12134689 </v>
   <v>       0.25517392       0.99357024       0.62974266 </v>
   <v>       0.23859705       0.49432605       0.12350344 </v>
   <v>       0.23925070       0.50403267       0.62806615 </v>
   <v>       0.73441576       0.99951356       0.11944796 </v>
   <v>       0.74249960       0.99651759       0.63045298 </v>
   <v>       0.76057815       0.50407656       0.12359495 </v>
   <v>       0.75129673       0.50140720       0.63296529 </v>
   <v>       0.25766701       0.98627380       0.38536332 </v>
   <v>       0.25964524       0.00698359       0.86620229 </v>
   <v>       0.24526883       0.51190421       0.38119963 </v>
   <v>       0.23424527       0.49191811       0.86603543 </v>
   <v>       0.73791285       0.01085705       0.38362646 </v>
   <v>       0.74208790       0.99374513       0.86364990 </v>
   <v>       0.75429006       0.49932539       0.37753232 </v>
   <v>       0.75568755       0.50551242       0.87023510 </v>
   <v>       0.99374911       0.00857663       0.00142985 </v>
   <v>       0.00085303      -0.00031523       0.49615475 </v>
   <v>       0.99639312       0.49758605       0.99723719 </v>
   <v>       0.99857768       0.50108227       0.50193377 </v>
   <v>       0.49671225       0.50588706       0.00634826 </v>
   <v>       0.25288976       0.24815082       0.99455532 </v>
   <v>       0.24961835       0.24803631       0.50654028 </v>
   <v>       0.25772520       0.74495723       0.00217651 </v>
   <v>       0.75013389       0.75042533       0.50687707 </v>
   <v>       0.24957162       0.24981781       0.24113549 </v>
   <v>       0.25025148       0.74880109       0.75606140 </v>
   <v>       0.74987943       0.74973479       0.23977586 </v>
   <v>       0.99158464       0.00708280       0.24982722 </v>
   <v>       0.99823151       0.00226422       0.74807948 </v>
   <v>       0.99942355       0.50208181       0.25372945 </v>
   <v>       0.49785045       0.00206691       0.25446900 </v>
   <v>       0.50396823       0.00206172       0.99728063 </v>
   <v>       0.49866729       0.00207111       0.50243099 </v>
   <v>       0.50464804       0.49537799       0.48039572 </v>
   <v>       0.25379251       0.74718769       0.50566742 </v>
   <v>       0.75745815       0.24458518       0.00428472 </v>
   <v>       0.74432773       0.25687344       0.48909381 </v>
   <v>       0.75183957       0.74958015       0.99547875 </v>
   <v>       0.25278445       0.25342779       0.74844900 </v>
   <v>       0.25892408       0.73976011       0.24675938 </v>
   <v>       0.75286260       0.24406529       0.24603012 </v>
   <v>       0.74704861       0.25512326       0.76201836 </v>
   <v>       0.74666060       0.74753102       0.74956274 </v>
   <v>       0.99565585       0.49900494       0.74760062 </v>
   <v>       0.50088389       0.00367455       0.74783271 </v>
   <v>       0.49293620       0.50561268       0.24445578 </v>
   <v>       0.50093820       0.49615722       0.76808201 </v>
   <v>       0.11554024       0.13530993       0.25935572 </v>
   <v>       0.12362332       0.12458362       0.75290121 </v>
   <v>       0.11429486       0.63804756       0.25027699 </v>
   <v>       0.12289876       0.62791121       0.75734679 </v>
   <v>       0.61131695       0.13898556       0.25143260 </v>
   <v>       0.63234365       0.12937037       0.73980152 </v>
   <v>       0.62570661       0.63028636       0.25501243 </v>
   <v>       0.60924441       0.62347989       0.73904275 </v>
   <v>       0.38168452       0.36061028       0.25099487 </v>
   <v>       0.37534774       0.39107340       0.73195673 </v>
   <v>       0.37231414       0.87375496       0.24628985 </v>
   <v>       0.37180376       0.87416450       0.75537991 </v>
   <v>       0.87683033       0.37182512       0.24793786 </v>
   <v>       0.87256127       0.36775704       0.73431495 </v>
   <v>       0.88731701       0.86177797       0.25336785 </v>
   <v>       0.87741599       0.87593041       0.74616454 </v>
   <v>       0.36064474       0.11977138       0.26174811 </v>
   <v>       0.37693675       0.13154787       0.75216722 </v>
   <v>       0.36963513       0.61628866       0.22583762 </v>
   <v>       0.37017269       0.62888036       0.78541736 </v>
   <v>       0.86369618       0.11316869       0.24574389 </v>
   <v>       0.87359137       0.12648685       0.75021584 </v>
   <v>       0.86676461       0.62179097       0.25897647 </v>
   <v>       0.86931675       0.62128229       0.75191221 </v>
   <v>       0.13636208       0.37995444       0.26199792 </v>
   <v>       0.12383527       0.37461028       0.74596478 </v>
   <v>       0.12319562       0.87785901       0.74135143 </v>
   <v>       0.62404228       0.37577913       0.73370510 </v>
   <v>       0.63617500       0.87872622       0.25954919 </v>
   <v>       0.62642513       0.87603525       0.74527683 </v>
   <v>       0.37210772       0.37995910       0.01192026 </v>
   <v>       0.36471297       0.37112614       0.47984456 </v>
   <v>       0.36735810       0.87813903       0.00312838 </v>
   <v>       0.37445735       0.87201718       0.50065820 </v>
   <v>       0.86325316       0.38307377       0.00833350 </v>
   <v>       0.86843886       0.37468290       0.51112848 </v>
   <v>       0.89467855       0.87093646       0.00717750 </v>
   <v>       0.87167767       0.87515838       0.48105409 </v>
   <v>       0.13916640       0.10299342       0.99787547 </v>
   <v>       0.12691327       0.12704477       0.47865241 </v>
   <v>       0.13515815       0.61591956       0.00088869 </v>
   <v>       0.12905490       0.61976553       0.49685802 </v>
   <v>       0.62584939       0.13593132       0.00421837 </v>
   <v>       0.63219188       0.13130527       0.51012048 </v>
   <v>       0.63400070       0.60673318       0.00266156 </v>
   <v>       0.63379055       0.62987301       0.47827029 </v>
   <v>       0.11592275       0.36142425       0.00261613 </v>
   <v>       0.12118885       0.36928349       0.49244492 </v>
   <v>       0.12316114       0.87311575       0.50998226 </v>
   <v>       0.61699280       0.38159004       0.52603824 </v>
   <v>       0.62776697       0.87388144       0.00469323 </v>
   <v>       0.63032706       0.87282030       0.49130675 </v>
   <v>       0.37902947       0.13191085       0.00186157 </v>
   <v>       0.36992936       0.12880523       0.48540707 </v>
   <v>       0.38539827       0.63201224       0.01246616 </v>
   <v>       0.38744926       0.61549288       0.50274843 </v>
   <v>       0.88241448       0.12780809       0.02143551 </v>
   <v>       0.87728164       0.12745804       0.48283468 </v>
   <v>       0.88336438       0.62724245       0.00204450 </v>
   <v>       0.87687957       0.63080172       0.48550436 </v>
   <v>       0.03378004       0.97728732       0.13186189 </v>
   <v>       0.99243231       0.01327247       0.61827332 </v>
   <v>       0.00576389       0.49746590       0.12902489 </v>
   <v>       0.00374781       0.51189729       0.62173799 </v>
   <v>       0.50242463       0.00039421       0.12995843 </v>
   <v>       0.49151310       0.99892144       0.62318967 </v>
   <v>       0.53538592       0.46672819       0.12600037 </v>
   <v>       0.02780941       0.97225699       0.36475734 </v>
   <v>      -0.00364253       0.99800818       0.87960942 </v>
   <v>       0.99671083       0.49338328       0.37557182 </v>
   <v>       0.99465656       0.48841043       0.87607964 </v>
   <v>       0.50359614      -0.00100130       0.37569952 </v>
   <v>       0.50800557       0.00229966       0.87473436 </v>
   <v>       0.52479713       0.47293029       0.36129189 </v>
   <v>       0.52296294       0.46329437       0.88953144 </v>
   <v>       0.25599120       0.26099408       0.87550255 </v>
   <v>       0.25050727       0.75063975       0.36932133 </v>
   <v>       0.21445613       0.78253384       0.88879235 </v>
   <v>       0.73076374       0.27354301       0.36840907 </v>
   <v>       0.74458155       0.26678826       0.88274787 </v>
   <v>       0.74685409       0.75137075       0.87479656 </v>
   <v>       0.24006964       0.24496067       0.12557978 </v>
   <v>       0.24689789       0.24076592       0.62177011 </v>
   <v>       0.21615198       0.77909374       0.11999092 </v>
   <v>       0.26182163       0.73371189       0.63262134 </v>
   <v>       0.72485197       0.27569894       0.12845033 </v>
   <v>       0.74920976       0.75004669       0.12449732 </v>
   <v>       0.75422050       0.74720839       0.62195991 </v>
  </varray>
 </structure>
</modeling>
