       N       E                     dE             d eps       ncg     rms          rms(c)
DAV:   1    -0.111728066066E+04   -0.11173E+04   -0.11689E-02 13400   0.250E-01    0.916E-02
RMM:   2    -0.111728066652E+04   -0.58613E-05   -0.44440E-05  6694   0.873E-03    0.219E-01
RMM:   3    -0.111728065748E+04    0.90415E-05   -0.17347E-05  6016   0.761E-03    0.491E-02
RMM:   4    -0.111728065688E+04    0.59963E-06   -0.63639E-06  4175   0.283E-03    0.179E-02
RMM:   5    -0.111728065695E+04   -0.67303E-07   -0.12708E-06  2836   0.223E-03    0.544E-03
RMM:   6    -0.111728065700E+04   -0.47774E-07   -0.36821E-07  1979   0.183E-03    0.785E-03
RMM:   7    -0.111728065702E+04   -0.19529E-07   -0.13218E-07  1605   0.169E-03    0.590E-03
RMM:   8    -0.111728065702E+04   -0.16589E-08   -0.69351E-08  1316   0.167E-03
   1 F= -.11172807E+04 E0= -.11172803E+04  d E =-.111728E+04  mag=    40.0000
       N       E                     dE             d eps       ncg     rms          rms(c)
DAV:   1    -0.111728076767E+04   -0.11065E-03   -0.21736E-01 12568   0.543E-01    0.170E-01
RMM:   2    -0.111728138026E+04   -0.61260E-03   -0.59825E-03 12278   0.102E-01    0.126E-01
RMM:   3    -0.111728139274E+04   -0.12475E-04   -0.25484E-04  8590   0.318E-02    0.727E-02
RMM:   4    -0.111728136632E+04    0.26412E-04   -0.80689E-05  7142   0.128E-02    0.621E-02
RMM:   5    -0.111728135815E+04    0.81755E-05   -0.42917E-05  7029   0.923E-03    0.336E-02
RMM:   6    -0.111728135852E+04   -0.36924E-06   -0.16096E-05  6605   0.594E-03    0.143E-02
RMM:   7    -0.111728135893E+04   -0.40894E-06   -0.63149E-06  5668   0.391E-03    0.919E-03
RMM:   8    -0.111728135908E+04   -0.14984E-06   -0.33873E-06  4544   0.292E-03
   2 F= -.11172814E+04 E0= -.11172810E+04  d E =-.702059E-03  mag=    40.0000
       N       E                     dE             d eps       ncg     rms          rms(c)
DAV:   1    -0.111728134733E+04    0.11591E-04   -0.21083E-02 12416   0.169E-01    0.536E-02
RMM:   2    -0.111728140744E+04   -0.60104E-04   -0.59113E-04 11145   0.325E-02    0.405E-02
RMM:   3    -0.111728140932E+04   -0.18763E-05   -0.27560E-05  6842   0.100E-02    0.236E-02
RMM:   4    -0.111728140718E+04    0.21395E-05   -0.98957E-06  6540   0.465E-03    0.156E-02
RMM:   5    -0.111728140622E+04    0.95546E-06   -0.58872E-06  5852   0.348E-03    0.160E-02
RMM:   6    -0.111728140625E+04   -0.31534E-07   -0.18053E-06  3997   0.260E-03    0.414E-03
RMM:   7    -0.111728140628E+04   -0.26295E-07   -0.58196E-07  2653   0.192E-03    0.219E-03
RMM:   8    -0.111728140628E+04   -0.49040E-08   -0.33678E-07  2512   0.195E-03
   3 F= -.11172814E+04 E0= -.11172810E+04  d E =-.749266E-03  mag=    40.0000
       N       E                     dE             d eps       ncg     rms          rms(c)
DAV:   1    -0.111728157611E+04   -0.16983E-03   -0.12325E-01 12480   0.409E-01    0.103E-01
RMM:   2    -0.111728189342E+04   -0.31731E-03   -0.31391E-03 12265   0.724E-02    0.761E-02
RMM:   3    -0.111728189832E+04   -0.49024E-05   -0.13294E-04  7342   0.239E-02    0.478E-02
RMM:   4    -0.111728189346E+04    0.48542E-05   -0.37197E-05  6889   0.847E-03    0.361E-02
RMM:   5    -0.111728188861E+04    0.48512E-05   -0.19489E-05  6512   0.632E-03    0.228E-02
RMM:   6    -0.111728188906E+04   -0.44692E-06   -0.98100E-06  5955   0.437E-03    0.131E-02
RMM:   7    -0.111728188961E+04   -0.55124E-06   -0.36844E-06  4622   0.337E-03    0.672E-03
RMM:   8    -0.111728188983E+04   -0.22039E-06   -0.17048E-06  3094   0.229E-03
   4 F= -.11172819E+04 E0= -.11172815E+04  d E =-.483549E-03  mag=    40.0000
       N       E                     dE             d eps       ncg     rms          rms(c)
DAV:   1    -0.111728108807E+04    0.80154E-03   -0.45086E-01 12560   0.782E-01    0.198E-01
RMM:   2    -0.111728224638E+04   -0.11583E-02   -0.11476E-02 12370   0.138E-01    0.141E-01
RMM:   3    -0.111728227280E+04   -0.26418E-04   -0.57428E-04 10471   0.454E-02    0.885E-02
RMM:   4    -0.111728224755E+04    0.25253E-04   -0.10739E-04  7214   0.137E-02    0.712E-02
RMM:   5    -0.111728222964E+04    0.17908E-04   -0.63601E-05  7115   0.105E-02    0.317E-02
RMM:   6    -0.111728223146E+04   -0.18143E-05   -0.26843E-05  7001   0.770E-03    0.211E-02
RMM:   7    -0.111728223284E+04   -0.13804E-05   -0.11229E-05  6684   0.509E-03    0.132E-02
RMM:   8    -0.111728223346E+04   -0.62567E-06   -0.57862E-06  5311   0.376E-03
   5 F= -.11172822E+04 E0= -.11172819E+04  d E =-.827178E-03  mag=    40.0000
       N       E                     dE             d eps       ncg     rms          rms(c)
DAV:   1    -0.111728223762E+04   -0.47883E-05   -0.16779E-01 12528   0.475E-01    0.101E-01
RMM:   2    -0.111728263568E+04   -0.39805E-03   -0.41669E-03 12336   0.806E-02    0.686E-02
RMM:   3    -0.111728263315E+04    0.25231E-05   -0.17841E-04  7584   0.272E-02    0.426E-02
RMM:   4    -0.111728262608E+04    0.70707E-05   -0.51595E-05  6999   0.933E-03    0.308E-02
RMM:   5    -0.111728262491E+04    0.11711E-05   -0.19395E-05  6680   0.651E-03    0.218E-02
RMM:   6    -0.111728262610E+04   -0.11892E-05   -0.10102E-05  6233   0.443E-03    0.897E-03
RMM:   7    -0.111728262679E+04   -0.68614E-06   -0.47579E-06  5030   0.361E-03    0.599E-03
RMM:   8    -0.111728262717E+04   -0.38499E-06   -0.27701E-06  3829   0.261E-03
   6 F= -.11172826E+04 E0= -.11172823E+04  d E =-.393709E-03  mag=    40.0000
