<?xml version="1.0" encoding="ISO-8859-1"?>
<modeling>
 <generator>
  <i name="program" type="string">vasp </i>
  <i name="version" type="string">5.4.1  </i>
  <i name="subversion" type="string">05Feb16 (build Jan 25 2017 20:16:33) complex                          parallel </i>
  <i name="platform" type="string">BWXE6 </i>
  <i name="date" type="string">2019 07 09 </i>
  <i name="time" type="string">13:58:33 </i>
 </generator>
 <incar>
  <i type="string" name="SYSTEM"> STF</i>
  <i type="string" name="PREC">normal</i>
  <i type="string" name="ALGO"> Fast</i>
  <i type="int" name="ISPIN">     2</i>
  <i type="int" name="NELM">    40</i>
  <i type="int" name="NELMIN">     8</i>
  <i type="int" name="IBRION">     2</i>
  <i name="EDIFF">      0.00010000</i>
  <i name="EDIFFG">     -0.03000000</i>
  <i type="int" name="NSW">    30</i>
  <i type="int" name="ISIF">     3</i>
  <i name="ENCUT">    520.00000000</i>
  <i type="int" name="NBANDS">   768</i>
  <v name="MAGMOM">      0.60000000      0.60000000      0.60000000      0.60000000      0.60000000      0.60000000      0.60000000      0.60000000      0.60000000      0.60000000      0.60000000      0.60000000      0.60000000      0.60000000      0.60000000      0.60000000      0.60000000      0.60000000      0.60000000      0.60000000
      0.60000000      0.60000000      0.60000000      0.60000000      0.60000000      0.60000000      0.60000000      0.60000000      0.60000000      0.60000000      0.60000000      0.60000000      0.60000000      0.60000000      0.60000000      0.60000000      0.60000000      0.60000000      0.60000000      0.60000000
      0.60000000      0.60000000      0.60000000      0.60000000      0.60000000      0.60000000      0.60000000      0.60000000      5.00000000      5.00000000      5.00000000      5.00000000      5.00000000      5.00000000      5.00000000      5.00000000      5.00000000      5.00000000      5.00000000      5.00000000
      5.00000000      5.00000000      5.00000000      5.00000000      0.60000000      0.60000000      0.60000000      0.60000000      0.60000000      0.60000000      0.60000000      0.60000000      0.60000000      0.60000000      0.60000000      0.60000000      0.60000000      0.60000000      0.60000000      0.60000000
      0.60000000      0.60000000      0.60000000      0.60000000      0.60000000      0.60000000      0.60000000      0.60000000      0.60000000      0.60000000      0.60000000      0.60000000      0.60000000      0.60000000      0.60000000      0.60000000      0.60000000      0.60000000      0.60000000      0.60000000
      0.60000000      0.60000000      0.60000000      0.60000000      0.60000000      0.60000000      0.60000000      0.60000000      0.60000000      0.60000000      0.60000000      0.60000000      0.60000000      0.60000000      0.60000000      0.60000000      0.60000000      0.60000000      0.60000000      0.60000000
      0.60000000      0.60000000      0.60000000      0.60000000      0.60000000      0.60000000      0.60000000      0.60000000      0.60000000      0.60000000      0.60000000      0.60000000      0.60000000      0.60000000      0.60000000      0.60000000      0.60000000      0.60000000      0.60000000      0.60000000
      0.60000000      0.60000000      0.60000000      0.60000000      0.60000000      0.60000000      0.60000000      0.60000000      0.60000000      0.60000000      0.60000000      0.60000000</v>
  <i type="string" name="LREAL"> Auto</i>
  <i type="int" name="ISMEAR">     0</i>
  <i name="SIGMA">      0.05000000</i>
  <i type="int" name="LMAXMIX">     4</i>
  <v type="int" name="KPOINT_BSE">    -1     0     0     0</v>
  <i type="int" name="NELM">    40</i>
  <i type="logical" name="LDAU"> T  </i>
  <v type="int" name="LDAUTYPE">     2</v>
  <v type="int" name="LDAUL">     0     2     2     0</v>
  <v name="LDAUU">      0.00000000      3.00000000      5.00000000      0.00000000</v>
  <v name="LDAUJ">      0.00000000      0.00000000      0.00000000      0.00000000</v>
  <i type="int" name="LDAUPRINT">     1</i>
 </incar>
 <kpoints>
  <generation param="Monkhorst-Pack">
   <v type="int" name="divisions">       2        2        2 </v>
   <v name="usershift">      0.00000000       0.00000000       0.00000000 </v>
   <v name="genvec1">      0.50000000       0.00000000      -0.00000000 </v>
   <v name="genvec2">      0.00000000       0.50000000       0.00000000 </v>
   <v name="genvec3">      0.00000000       0.00000000       0.50000000 </v>
   <v name="shift">      0.50000000       0.50000000       0.50000000 </v>
  </generation>
  <varray name="kpointlist" >
   <v>       0.25000000       0.25000000       0.25000000 </v>
   <v>      -0.25000000       0.25000000       0.25000000 </v>
   <v>       0.25000000      -0.25000000       0.25000000 </v>
   <v>      -0.25000000      -0.25000000       0.25000000 </v>
  </varray>
  <varray name="weights" >
   <v>       0.25000000 </v>
   <v>       0.25000000 </v>
   <v>       0.25000000 </v>
   <v>       0.25000000 </v>
  </varray>
 </kpoints>
 <parameters>
  <separator name="general" >
   <i type="string" name="SYSTEM">STF</i>
   <i type="logical" name="LCOMPAT"> F  </i>
  </separator>
  <separator name="electronic" >
   <i type="string" name="PREC">normal</i>
   <i name="ENMAX">    520.00000000</i>
   <i name="ENAUG">    605.39200000</i>
   <i name="EDIFF">      0.00010000</i>
   <i type="int" name="IALGO">    68</i>
   <i type="int" name="IWAVPR">    11</i>
   <i type="int" name="NBANDS">   768</i>
   <i name="NELECT">   1040.00000000</i>
   <i type="int" name="TURBO">     0</i>
   <i type="int" name="IRESTART">     0</i>
   <i type="int" name="NREBOOT">     0</i>
   <i type="int" name="NMIN">     0</i>
   <i name="EREF">      0.00000000</i>
   <separator name="electronic smearing" >
    <i type="int" name="ISMEAR">     0</i>
    <i name="SIGMA">      0.05000000</i>
    <i name="KSPACING">      0.50000000</i>
    <i type="logical" name="KGAMMA"> T  </i>
   </separator>
   <separator name="electronic projectors" >
    <i type="logical" name="LREAL"> T  </i>
    <v name="ROPT">     -0.00050000     -0.00050000     -0.00050000     -0.00050000</v>
    <i type="int" name="LMAXPAW">  -100</i>
    <i type="int" name="LMAXMIX">     4</i>
    <i type="logical" name="NLSPLINE"> F  </i>
   </separator>
   <separator name="electronic startup" >
    <i type="int" name="ISTART">     1</i>
    <i type="int" name="ICHARG">     0</i>
    <i type="int" name="INIWAV">     1</i>
   </separator>
   <separator name="electronic spin" >
    <i type="int" name="ISPIN">     2</i>
    <i type="logical" name="LNONCOLLINEAR"> F  </i>
    <v name="MAGMOM">      0.60000000      0.60000000      0.60000000      0.60000000      0.60000000      0.60000000      0.60000000      0.60000000      0.60000000      0.60000000      0.60000000      0.60000000      0.60000000      0.60000000      0.60000000      0.60000000      0.60000000      0.60000000      0.60000000      0.60000000
      0.60000000      0.60000000      0.60000000      0.60000000      0.60000000      0.60000000      0.60000000      0.60000000      0.60000000      0.60000000      0.60000000      0.60000000      0.60000000      0.60000000      0.60000000      0.60000000      0.60000000      0.60000000      0.60000000      0.60000000
      0.60000000      0.60000000      0.60000000      0.60000000      0.60000000      0.60000000      0.60000000      0.60000000      5.00000000      5.00000000      5.00000000      5.00000000      5.00000000      5.00000000      5.00000000      5.00000000      5.00000000      5.00000000      5.00000000      5.00000000
      5.00000000      5.00000000      5.00000000      5.00000000      0.60000000      0.60000000      0.60000000      0.60000000      0.60000000      0.60000000      0.60000000      0.60000000      0.60000000      0.60000000      0.60000000      0.60000000      0.60000000      0.60000000      0.60000000      0.60000000
      0.60000000      0.60000000      0.60000000      0.60000000      0.60000000      0.60000000      0.60000000      0.60000000      0.60000000      0.60000000      0.60000000      0.60000000      0.60000000      0.60000000      0.60000000      0.60000000      0.60000000      0.60000000      0.60000000      0.60000000
      0.60000000      0.60000000      0.60000000      0.60000000      0.60000000      0.60000000      0.60000000      0.60000000      0.60000000      0.60000000      0.60000000      0.60000000      0.60000000      0.60000000      0.60000000      0.60000000      0.60000000      0.60000000      0.60000000      0.60000000
      0.60000000      0.60000000      0.60000000      0.60000000      0.60000000      0.60000000      0.60000000      0.60000000      0.60000000      0.60000000      0.60000000      0.60000000      0.60000000      0.60000000      0.60000000      0.60000000      0.60000000      0.60000000      0.60000000      0.60000000
      0.60000000      0.60000000      0.60000000      0.60000000      0.60000000      0.60000000      0.60000000      0.60000000      0.60000000      0.60000000      0.60000000      0.60000000</v>
    <i name="NUPDOWN">     -1.00000000</i>
    <i type="logical" name="LSORBIT"> F  </i>
    <v name="SAXIS">      0.00000000      0.00000000      1.00000000</v>
    <i type="logical" name="LSPIRAL"> F  </i>
    <v name="QSPIRAL">      0.00000000      0.00000000      0.00000000</v>
    <i type="logical" name="LZEROZ"> F  </i>
   </separator>
   <separator name="electronic exchange-correlation" >
    <i type="logical" name="LASPH"> F  </i>
    <i type="logical" name="LMETAGGA"> F  </i>
   </separator>
   <separator name="electronic convergence" >
    <i type="int" name="NELM">    40</i>
    <i type="int" name="NELMDL">     0</i>
    <i type="int" name="NELMIN">     8</i>
    <i name="ENINI">    520.00000000</i>
    <separator name="electronic convergence detail" >
     <i type="logical" name="LDIAG"> T  </i>
     <i type="logical" name="LSUBROT"> F  </i>
     <i name="WEIMIN">      0.00100000</i>
     <i name="EBREAK">      0.00000003</i>
     <i name="DEPER">      0.30000000</i>
     <i type="int" name="NRMM">     4</i>
     <i name="TIME">      0.40000000</i>
    </separator>
   </separator>
   <separator name="electronic mixer" >
    <i name="AMIX">      0.40000000</i>
    <i name="BMIX">      1.00000000</i>
    <i name="AMIN">      0.10000000</i>
    <i name="AMIX_MAG">      1.60000000</i>
    <i name="BMIX_MAG">      1.00000000</i>
    <separator name="electronic mixer details" >
     <i type="int" name="IMIX">     4</i>
     <i type="logical" name="MIXFIRST"> F  </i>
     <i type="int" name="MAXMIX">   -45</i>
     <i name="WC">    100.00000000</i>
     <i type="int" name="INIMIX">     1</i>
     <i type="int" name="MIXPRE">     1</i>
     <i type="int" name="MREMOVE">     5</i>
    </separator>
   </separator>
   <separator name="electronic dipolcorrection" >
    <i type="logical" name="LDIPOL"> F  </i>
    <i type="logical" name="LMONO"> F  </i>
    <i type="int" name="IDIPOL">     0</i>
    <i name="EPSILON">      1.00000000</i>
    <v name="DIPOL">   -100.00000000   -100.00000000   -100.00000000</v>
    <i name="EFIELD">      0.00000000</i>
   </separator>
  </separator>
  <separator name="grids" >
   <i type="int" name="NGX">    64</i>
   <i type="int" name="NGY">    64</i>
   <i type="int" name="NGZ">    90</i>
   <i type="int" name="NGXF">   128</i>
   <i type="int" name="NGYF">   128</i>
   <i type="int" name="NGZF">   180</i>
   <i type="logical" name="ADDGRID"> F  </i>
  </separator>
  <separator name="ionic" >
   <i type="int" name="NSW">    30</i>
   <i type="int" name="IBRION">     2</i>
   <i type="int" name="ISIF">     3</i>
   <i name="PSTRESS">      0.00000000</i>
   <i name="EDIFFG">     -0.03000000</i>
   <i type="int" name="NFREE">     1</i>
   <i name="POTIM">      0.50000000</i>
   <i name="SMASS">     -3.00000000</i>
   <i name="SCALEE">      1.00000000</i>
  </separator>
  <separator name="ionic md" >
   <i name="TEBEG">      0.00010000</i>
   <i name="TEEND">      0.00010000</i>
   <i type="int" name="NBLOCK">     1</i>
   <i type="int" name="KBLOCK">    30</i>
   <i type="int" name="NPACO">   256</i>
   <i name="APACO">     16.00000000</i>
  </separator>
  <separator name="symmetry" >
   <i type="int" name="ISYM">     2</i>
   <i name="SYMPREC">      0.00001000</i>
  </separator>
  <separator name="dos" >
   <i type="logical" name="LORBIT"> F  </i>
   <v name="RWIGS">     -1.00000000     -1.00000000     -1.00000000     -1.00000000</v>
   <i type="int" name="NEDOS">   301</i>
   <i name="EMIN">     10.00000000</i>
   <i name="EMAX">    -10.00000000</i>
   <i name="EFERMI">      0.00000000</i>
  </separator>
  <separator name="writing" >
   <i type="int" name="NWRITE">     2</i>
   <i type="logical" name="LWAVE"> T  </i>
   <i type="logical" name="LCHARG"> T  </i>
   <i type="logical" name="LPARD"> F  </i>
   <i type="logical" name="LVTOT"> F  </i>
   <i type="logical" name="LVHAR"> F  </i>
   <i type="logical" name="LELF"> F  </i>
   <i type="logical" name="LOPTICS"> F  </i>
   <v name="STM">      0.00000000      0.00000000      0.00000000      0.00000000      0.00000000      0.00000000      0.00000000</v>
  </separator>
  <separator name="performance" >
   <i type="int" name="NPAR">     2</i>
   <i type="int" name="NSIM">     4</i>
   <i type="int" name="NBLK">    -1</i>
   <i type="logical" name="LPLANE"> T  </i>
   <i type="logical" name="LSCALAPACK"> T  </i>
   <i type="logical" name="LSCAAWARE"> F  </i>
   <i type="logical" name="LSCALU"> F  </i>
   <i type="logical" name="LASYNC"> F  </i>
   <i type="logical" name="LORBITALREAL"> F  </i>
  </separator>
  <separator name="miscellaneous" >
   <i type="int" name="IDIOT">     3</i>
   <i type="logical" name="LMUSIC"> F  </i>
   <v name="POMASS">     87.62000000     47.88000000     55.84700000     16.00000000</v>
   <v name="DARWINR">      0.00000000      0.00000000      0.00000000      0.00000000</v>
   <v name="DARWINV">      1.00000000      1.00000000      1.00000000      1.00000000</v>
   <i type="logical" name="LCORR"> T  </i>
  </separator>
  <i type="logical" name="GGA_COMPAT"> T  </i>
  <i type="logical" name="LBERRY"> F  </i>
  <i type="int" name="ICORELEVEL">     0</i>
  <i type="logical" name="LDAU"> T  </i>
  <v type="int" name="LDAUTYPE">     2</v>
  <v type="int" name="LDAUL">     0</v>
  <v name="LDAUU">      0.00000000</v>
  <v name="LDAUJ">      0.00000000</v>
  <i type="int" name="LDAUPRINT">     1</i>
  <i type="int" name="I_CONSTRAINED_M">     0</i>
  <separator name="electronic exchange-correlation" >
   <i type="string" name="GGA">--</i>
   <i type="int" name="VOSKOWN">     0</i>
   <i type="logical" name="LHFCALC"> F  </i>
   <i type="string" name="PRECFOCK"></i>
   <i type="logical" name="LSYMGRAD"> F  </i>
   <i type="logical" name="LHFONE"> F  </i>
   <i type="logical" name="LRHFCALC"> F  </i>
   <i type="logical" name="LTHOMAS"> F  </i>
   <i type="logical" name="LMODELHF"> F  </i>
   <i name="ENCUT4O">     -1.00000000</i>
   <i type="int" name="EXXOEP">     0</i>
   <i type="int" name="FOURORBIT">     0</i>
   <i name="AEXX">      0.00000000</i>
   <i name="HFALPHA">      0.00000000</i>
   <i name="MCALPHA">      0.00000000</i>
   <i name="ALDAX">      1.00000000</i>
   <i name="AGGAX">      1.00000000</i>
   <i name="ALDAC">      1.00000000</i>
   <i name="AGGAC">      1.00000000</i>
   <i type="int" name="NKREDX">     1</i>
   <i type="int" name="NKREDY">     1</i>
   <i type="int" name="NKREDZ">     1</i>
   <i type="logical" name="SHIFTRED"> F  </i>
   <i type="logical" name="ODDONLY"> F  </i>
   <i type="logical" name="EVENONLY"> F  </i>
   <i type="int" name="LMAXFOCK">     0</i>
   <i type="int" name="NMAXFOCKAE">     0</i>
   <i type="logical" name="LFOCKAEDFT"> F  </i>
   <i name="HFSCREEN">      0.00000000</i>
   <i name="HFSCREENC">      0.00000000</i>
   <i type="int" name="NBANDSGWLOW">     0</i>
  </separator>
  <separator name="vdW DFT" >
   <i type="logical" name="LUSE_VDW"> F  </i>
   <i name="Zab_VDW">     -0.84910000</i>
   <i name="PARAM1">      0.12340000</i>
   <i name="PARAM2">      1.00000000</i>
   <i name="PARAM3">      0.00000000</i>
  </separator>
  <separator name="model GW" >
   <i type="int" name="MODEL_GW">     0</i>
   <i name="MODEL_EPS0">      7.93373503</i>
   <i name="MODEL_ALPHA">      1.00000000</i>
  </separator>
  <separator name="linear response parameters" >
   <i type="logical" name="LEPSILON"> F  </i>
   <i type="logical" name="LRPA"> F  </i>
   <i type="logical" name="LNABLA"> F  </i>
   <i type="logical" name="LVEL"> F  </i>
   <i type="int" name="KINTER">     0</i>
   <i name="CSHIFT">      0.10000000</i>
   <i name="OMEGAMAX">     -1.00000000</i>
   <i name="DEG_THRESHOLD">      0.00200000</i>
  </separator>
  <separator name="orbital magnetization" >
   <i type="logical" name="NUCIND"> F  </i>
   <v name="MAGPOS">      0.00000000      0.00000000      0.00000000</v>
   <i type="logical" name="LNICSALL"> T  </i>
   <i type="logical" name="ORBITALMAG"> F  </i>
   <i type="logical" name="LMAGBLOCH"> F  </i>
   <i type="logical" name="LCHIMAG"> F  </i>
   <i type="logical" name="LGAUGE"> T  </i>
   <i type="int" name="MAGATOM">     0</i>
   <v name="MAGDIPOL">      0.00000000      0.00000000      0.00000000</v>
   <v name="AVECCONST">      0.00000000      0.00000000      0.00000000</v>
  </separator>
  <separator name="response functions" >
   <i type="logical" name="LADDER"> F  </i>
   <i type="logical" name="LFXC"> F  </i>
   <i type="logical" name="LHARTREE"> T  </i>
   <i type="int" name="IBSE">     0</i>
   <v type="int" name="KPOINT">    -1     0     0     0</v>
   <i type="logical" name="LTCTE"> F  </i>
   <i type="logical" name="LTETE"> F  </i>
   <i type="logical" name="LTRIPLET"> F  </i>
   <i type="logical" name="LFXCEPS"> F  </i>
   <i type="logical" name="LFXHEG"> F  </i>
   <i type="int" name="NATURALO">     0</i>
   <i type="logical" name="L2ORDER"> F  </i>
   <i type="logical" name="LUSEW"> F  </i>
   <i name="ENCUTGW">     -2.00000000</i>
   <i name="ENCUTGWSOFT">     -2.00000000</i>
   <i name="ENCUTLF">     -1.00000000</i>
   <i type="int" name="LMAXMP2">    -1</i>
   <i name="SCISSOR">      0.00000000</i>
   <i type="int" name="NOMEGA">     0</i>
   <i type="int" name="NOMEGAR">     0</i>
   <i type="int" name="NBANDSGW">    -1</i>
   <i type="int" name="NBANDSO">    -1</i>
   <i type="int" name="NBANDSV">    -1</i>
   <i type="int" name="NELM">    40</i>
   <i type="int" name="NELMHF">     1</i>
   <i type="int" name="DIM">     3</i>
   <i type="int" name="ANTIRES">     0</i>
   <i name="OMEGAMAX">    -30.00000000</i>
   <i name="OMEGAMIN">    -30.00000000</i>
   <i name="OMEGATL">   -200.00000000</i>
   <i type="int" name="OMEGAGRID">     0</i>
   <i name="CSHIFT">     -0.10000000</i>
   <i type="logical" name="SELFENERGY"> F  </i>
   <i type="logical" name="LSPECTRAL"> F  </i>
   <i type="logical" name="LSPECTRALGW"> F  </i>
   <i type="logical" name="LSINGLES"> F  </i>
   <i type="logical" name="LFERMIGW"> F  </i>
   <i type="logical" name="ODDONLYGW"> F  </i>
   <i type="logical" name="EVENONLYGW"> F  </i>
   <i type="int" name="NKREDLFX">     1</i>
   <i type="int" name="NKREDLFY">     1</i>
   <i type="int" name="NKREDLFZ">     1</i>
   <i type="int" name="MAXMEM">  1800</i>
   <i type="int" name="TELESCOPE">     0</i>
   <i type="int" name="TAUPAR">     1</i>
   <i type="int" name="OMEGAPAR">    -1</i>
   <i name="LAMBDA">      1.00000000</i>
  </separator>
  <separator name="External order field" >
   <i name="OFIELD_KAPPA">      0.00000000</i>
   <v name="OFIELD_K">      0.00000000      0.00000000      0.00000000</v>
   <i name="OFIELD_Q6_NEAR">      0.00000000</i>
   <i name="OFIELD_Q6_FAR">      0.00000000</i>
   <i name="OFIELD_A">      0.00000000</i>
  </separator>
 </parameters>
 <atominfo>
  <atoms>     152 </atoms>
  <types>       4 </types>
  <array name="atoms" >
   <dimension dim="1">ion</dimension>
   <field type="string">element</field>
   <field type="int">atomtype</field>
   <set>
    <rc><c>Sr</c><c>   1</c></rc>
    <rc><c>Sr</c><c>   1</c></rc>
    <rc><c>Sr</c><c>   1</c></rc>
    <rc><c>Sr</c><c>   1</c></rc>
    <rc><c>Sr</c><c>   1</c></rc>
    <rc><c>Sr</c><c>   1</c></rc>
    <rc><c>Sr</c><c>   1</c></rc>
    <rc><c>Sr</c><c>   1</c></rc>
    <rc><c>Sr</c><c>   1</c></rc>
    <rc><c>Sr</c><c>   1</c></rc>
    <rc><c>Sr</c><c>   1</c></rc>
    <rc><c>Sr</c><c>   1</c></rc>
    <rc><c>Sr</c><c>   1</c></rc>
    <rc><c>Sr</c><c>   1</c></rc>
    <rc><c>Sr</c><c>   1</c></rc>
    <rc><c>Sr</c><c>   1</c></rc>
    <rc><c>Sr</c><c>   1</c></rc>
    <rc><c>Sr</c><c>   1</c></rc>
    <rc><c>Sr</c><c>   1</c></rc>
    <rc><c>Sr</c><c>   1</c></rc>
    <rc><c>Sr</c><c>   1</c></rc>
    <rc><c>Sr</c><c>   1</c></rc>
    <rc><c>Sr</c><c>   1</c></rc>
    <rc><c>Sr</c><c>   1</c></rc>
    <rc><c>Sr</c><c>   1</c></rc>
    <rc><c>Sr</c><c>   1</c></rc>
    <rc><c>Sr</c><c>   1</c></rc>
    <rc><c>Sr</c><c>   1</c></rc>
    <rc><c>Sr</c><c>   1</c></rc>
    <rc><c>Sr</c><c>   1</c></rc>
    <rc><c>Sr</c><c>   1</c></rc>
    <rc><c>Sr</c><c>   1</c></rc>
    <rc><c>Ti</c><c>   2</c></rc>
    <rc><c>Ti</c><c>   2</c></rc>
    <rc><c>Ti</c><c>   2</c></rc>
    <rc><c>Ti</c><c>   2</c></rc>
    <rc><c>Ti</c><c>   2</c></rc>
    <rc><c>Ti</c><c>   2</c></rc>
    <rc><c>Ti</c><c>   2</c></rc>
    <rc><c>Ti</c><c>   2</c></rc>
    <rc><c>Ti</c><c>   2</c></rc>
    <rc><c>Ti</c><c>   2</c></rc>
    <rc><c>Ti</c><c>   2</c></rc>
    <rc><c>Ti</c><c>   2</c></rc>
    <rc><c>Ti</c><c>   2</c></rc>
    <rc><c>Ti</c><c>   2</c></rc>
    <rc><c>Ti</c><c>   2</c></rc>
    <rc><c>Ti</c><c>   2</c></rc>
    <rc><c>Fe</c><c>   3</c></rc>
    <rc><c>Fe</c><c>   3</c></rc>
    <rc><c>Fe</c><c>   3</c></rc>
    <rc><c>Fe</c><c>   3</c></rc>
    <rc><c>Fe</c><c>   3</c></rc>
    <rc><c>Fe</c><c>   3</c></rc>
    <rc><c>Fe</c><c>   3</c></rc>
    <rc><c>Fe</c><c>   3</c></rc>
    <rc><c>Fe</c><c>   3</c></rc>
    <rc><c>Fe</c><c>   3</c></rc>
    <rc><c>Fe</c><c>   3</c></rc>
    <rc><c>Fe</c><c>   3</c></rc>
    <rc><c>Fe</c><c>   3</c></rc>
    <rc><c>Fe</c><c>   3</c></rc>
    <rc><c>Fe</c><c>   3</c></rc>
    <rc><c>Fe</c><c>   3</c></rc>
    <rc><c>O </c><c>   4</c></rc>
    <rc><c>O </c><c>   4</c></rc>
    <rc><c>O </c><c>   4</c></rc>
    <rc><c>O </c><c>   4</c></rc>
    <rc><c>O </c><c>   4</c></rc>
    <rc><c>O </c><c>   4</c></rc>
    <rc><c>O </c><c>   4</c></rc>
    <rc><c>O </c><c>   4</c></rc>
    <rc><c>O </c><c>   4</c></rc>
    <rc><c>O </c><c>   4</c></rc>
    <rc><c>O </c><c>   4</c></rc>
    <rc><c>O </c><c>   4</c></rc>
    <rc><c>O </c><c>   4</c></rc>
    <rc><c>O </c><c>   4</c></rc>
    <rc><c>O </c><c>   4</c></rc>
    <rc><c>O </c><c>   4</c></rc>
    <rc><c>O </c><c>   4</c></rc>
    <rc><c>O </c><c>   4</c></rc>
    <rc><c>O </c><c>   4</c></rc>
    <rc><c>O </c><c>   4</c></rc>
    <rc><c>O </c><c>   4</c></rc>
    <rc><c>O </c><c>   4</c></rc>
    <rc><c>O </c><c>   4</c></rc>
    <rc><c>O </c><c>   4</c></rc>
    <rc><c>O </c><c>   4</c></rc>
    <rc><c>O </c><c>   4</c></rc>
    <rc><c>O </c><c>   4</c></rc>
    <rc><c>O </c><c>   4</c></rc>
    <rc><c>O </c><c>   4</c></rc>
    <rc><c>O </c><c>   4</c></rc>
    <rc><c>O </c><c>   4</c></rc>
    <rc><c>O </c><c>   4</c></rc>
    <rc><c>O </c><c>   4</c></rc>
    <rc><c>O </c><c>   4</c></rc>
    <rc><c>O </c><c>   4</c></rc>
    <rc><c>O </c><c>   4</c></rc>
    <rc><c>O </c><c>   4</c></rc>
    <rc><c>O </c><c>   4</c></rc>
    <rc><c>O </c><c>   4</c></rc>
    <rc><c>O </c><c>   4</c></rc>
    <rc><c>O </c><c>   4</c></rc>
    <rc><c>O </c><c>   4</c></rc>
    <rc><c>O </c><c>   4</c></rc>
    <rc><c>O </c><c>   4</c></rc>
    <rc><c>O </c><c>   4</c></rc>
    <rc><c>O </c><c>   4</c></rc>
    <rc><c>O </c><c>   4</c></rc>
    <rc><c>O </c><c>   4</c></rc>
    <rc><c>O </c><c>   4</c></rc>
    <rc><c>O </c><c>   4</c></rc>
    <rc><c>O </c><c>   4</c></rc>
    <rc><c>O </c><c>   4</c></rc>
    <rc><c>O </c><c>   4</c></rc>
    <rc><c>O </c><c>   4</c></rc>
    <rc><c>O </c><c>   4</c></rc>
    <rc><c>O </c><c>   4</c></rc>
    <rc><c>O </c><c>   4</c></rc>
    <rc><c>O </c><c>   4</c></rc>
    <rc><c>O </c><c>   4</c></rc>
    <rc><c>O </c><c>   4</c></rc>
    <rc><c>O </c><c>   4</c></rc>
    <rc><c>O </c><c>   4</c></rc>
    <rc><c>O </c><c>   4</c></rc>
    <rc><c>O </c><c>   4</c></rc>
    <rc><c>O </c><c>   4</c></rc>
    <rc><c>O </c><c>   4</c></rc>
    <rc><c>O </c><c>   4</c></rc>
    <rc><c>O </c><c>   4</c></rc>
    <rc><c>O </c><c>   4</c></rc>
    <rc><c>O </c><c>   4</c></rc>
    <rc><c>O </c><c>   4</c></rc>
    <rc><c>O </c><c>   4</c></rc>
    <rc><c>O </c><c>   4</c></rc>
    <rc><c>O </c><c>   4</c></rc>
    <rc><c>O </c><c>   4</c></rc>
    <rc><c>O </c><c>   4</c></rc>
    <rc><c>O </c><c>   4</c></rc>
    <rc><c>O </c><c>   4</c></rc>
    <rc><c>O </c><c>   4</c></rc>
    <rc><c>O </c><c>   4</c></rc>
    <rc><c>O </c><c>   4</c></rc>
    <rc><c>O </c><c>   4</c></rc>
    <rc><c>O </c><c>   4</c></rc>
    <rc><c>O </c><c>   4</c></rc>
    <rc><c>O </c><c>   4</c></rc>
    <rc><c>O </c><c>   4</c></rc>
    <rc><c>O </c><c>   4</c></rc>
    <rc><c>O </c><c>   4</c></rc>
   </set>
  </array>
  <array name="atomtypes" >
   <dimension dim="1">type</dimension>
   <field type="int">atomspertype</field>
   <field type="string">element</field>
   <field>mass</field>
   <field>valence</field>
   <field type="string">pseudopotential</field>
   <set>
    <rc><c>  32</c><c>Sr</c><c>     87.62000000</c><c>     10.00000000</c><c>  PAW_PBE Sr_sv 07Sep2000               </c></rc>
    <rc><c>  16</c><c>Ti</c><c>     47.88000000</c><c>      4.00000000</c><c>  PAW_PBE Ti 08Apr2002                  </c></rc>
    <rc><c>  16</c><c>Fe</c><c>     55.84700000</c><c>      8.00000000</c><c>  PAW_PBE Fe 06Sep2000                  </c></rc>
    <rc><c>  88</c><c>O </c><c>     16.00000000</c><c>      6.00000000</c><c>  PAW_PBE O 08Apr2002                   </c></rc>
   </set>
  </array>
 </atominfo>
 <structure name="initialpos" >
  <crystal>
   <varray name="basis" >
    <v>      11.24477977      -0.01045865      -0.00906933 </v>
    <v>      -0.01074904      11.29231451      -0.02565118 </v>
    <v>      -0.01281726      -0.03585960      15.82847281 </v>
   </varray>
   <i name="volume">   2009.87954083 </i>
   <varray name="rec_basis" >
    <v>       0.08893029       0.00008482       0.00007220 </v>
    <v>       0.00008253       0.08855634       0.00020069 </v>
    <v>       0.00005109       0.00014356       0.06317766 </v>
   </varray>
  </crystal>
  <varray name="positions" >
   <v>       0.99864272       0.24526957       0.11838903 </v>
   <v>       0.99764903       0.24794946       0.63240600 </v>
   <v>       0.99838094       0.75783214       0.11778293 </v>
   <v>       0.00799507       0.75162313       0.63438629 </v>
   <v>       0.50075556       0.25903278       0.12524372 </v>
   <v>       0.50270877       0.24815266       0.62973888 </v>
   <v>       0.51141592       0.75216230       0.12004833 </v>
   <v>       0.49391467       0.75796765       0.63051939 </v>
   <v>       0.99990813       0.24039992       0.38356575 </v>
   <v>       0.99989699       0.25040404       0.86981783 </v>
   <v>       0.01157462       0.76341915       0.37238896 </v>
   <v>       0.99495271       0.75728720       0.87212002 </v>
   <v>       0.50093654       0.23655908       0.38025075 </v>
   <v>       0.50022649       0.25302927       0.86991762 </v>
   <v>       0.48904708       0.75891384       0.38497817 </v>
   <v>       0.51816808       0.75229909       0.86496245 </v>
   <v>       0.24855318       0.99191866       0.11866883 </v>
   <v>       0.25519879       0.00795057       0.62727818 </v>
   <v>       0.24701067       0.50075883       0.11976958 </v>
   <v>       0.25317567       0.49238978       0.63029516 </v>
   <v>       0.75563585       0.98752376       0.12089127 </v>
   <v>       0.74581413       0.00992582       0.63000061 </v>
   <v>       0.75218912       0.50631420       0.11417346 </v>
   <v>       0.75301632       0.49748465       0.63295658 </v>
   <v>       0.25657461       0.99173067       0.38251221 </v>
   <v>       0.24571193       0.01416889       0.86620266 </v>
   <v>       0.23264036       0.49895248       0.38469968 </v>
   <v>       0.24980993       0.49129301       0.86927933 </v>
   <v>       0.74830044       0.00000019       0.37847964 </v>
   <v>       0.75524197       0.00111893       0.86861346 </v>
   <v>       0.73474735       0.48593100       0.37212485 </v>
   <v>       0.75381400       0.50084353       0.86999987 </v>
   <v>       0.75216578       0.74956993       0.25395973 </v>
   <v>       0.99931649       0.99451326       0.24859956 </v>
   <v>       0.25138490       0.25070417       0.99977165 </v>
   <v>       0.50179776       0.50271846       0.75043116 </v>
   <v>       0.75029658       0.25344090       0.00175549 </v>
   <v>       0.25809527       0.25163905       0.49963595 </v>
   <v>       0.00197952       0.50236409       0.75177824 </v>
   <v>       0.00003366       0.00104096       0.74836673 </v>
   <v>       0.49980832       0.00172559       0.75158334 </v>
   <v>       0.75222547       0.75234724       0.99642353 </v>
   <v>       0.50134433       0.50484187       0.99566194 </v>
   <v>       0.74772744       0.25397071       0.50016112 </v>
   <v>       0.24450615       0.74741529       0.50055873 </v>
   <v>       0.00005310       0.49550533       0.00009675 </v>
   <v>       0.25203301       0.74879238       0.25164493 </v>
   <v>       0.49727654       0.98840136       0.24862456 </v>
   <v>       0.49650320       0.52698503       0.24053813 </v>
   <v>       0.99966442       0.00889377       0.99850395 </v>
   <v>       0.25202999       0.25142993       0.74842326 </v>
   <v>       0.50038697       0.00254658       0.50186394 </v>
   <v>       0.00763467       0.48562840       0.50701517 </v>
   <v>       0.49442116       0.49821568       0.50872748 </v>
   <v>       0.24778577       0.73326266       0.00843143 </v>
   <v>       0.51440237       0.01412186       0.00308586 </v>
   <v>       0.24448467       0.21726023       0.25103634 </v>
   <v>       0.01284884       0.01194390       0.50074804 </v>
   <v>       0.74968025       0.25189325       0.75118944 </v>
   <v>       0.75538784       0.74961756       0.74555596 </v>
   <v>       0.72300154       0.74275684       0.49693305 </v>
   <v>       0.74058795       0.22088952       0.24875195 </v>
   <v>       0.25108996       0.74820774       0.74230795 </v>
   <v>       0.99236322       0.52682732       0.24586178 </v>
   <v>       0.09249053       0.14671189       0.25011464 </v>
   <v>       0.12108448       0.12947892       0.74261130 </v>
   <v>       0.10550723       0.65010534       0.24511884 </v>
   <v>       0.12503117       0.63386255       0.76925925 </v>
   <v>       0.59948495       0.13082222       0.24084537 </v>
   <v>       0.62305426       0.86931337       0.00035482 </v>
   <v>       0.60616654       0.64788580       0.26882337 </v>
   <v>       0.62307415       0.63264130       0.74119166 </v>
   <v>       0.56085106       0.38804761       0.27684150 </v>
   <v>       0.38123728       0.37419211       0.75343393 </v>
   <v>       0.37805133       0.86850636       0.75358202 </v>
   <v>       0.00392285       0.47385593       0.13294642 </v>
   <v>       0.88194608       0.37219228       0.75067043 </v>
   <v>       0.89709714       0.84888841       0.24443625 </v>
   <v>       0.88116057       0.87193606       0.75227841 </v>
   <v>       0.35370836       0.09209866       0.24882919 </v>
   <v>       0.34218472       0.58741851       0.26242273 </v>
   <v>       0.37206785       0.62469415       0.76479108 </v>
   <v>       0.85585912       0.09625236       0.24318635 </v>
   <v>       0.87110756       0.12212208       0.74991186 </v>
   <v>       0.87439608       0.62028979       0.75459272 </v>
   <v>       0.25468645       0.27291595       0.36222550 </v>
   <v>       0.13093209       0.38204528       0.74727625 </v>
   <v>       0.14765259       0.89389350       0.25274636 </v>
   <v>       0.13210106       0.87887131       0.75261920 </v>
   <v>       0.98629043       0.98838225       0.37649377 </v>
   <v>       0.63002888       0.38240955       0.74739109 </v>
   <v>       0.64725599       0.88894974       0.25376444 </v>
   <v>       0.63166143       0.87943033       0.74252189 </v>
   <v>       0.36441217       0.39377569       0.99697687 </v>
   <v>       0.37048386       0.38239992       0.48898804 </v>
   <v>       0.17290760       0.87039646       0.97536497 </v>
   <v>       0.86562169       0.38377190       0.99880340 </v>
   <v>       0.87996263       0.87487087       0.99920506 </v>
   <v>       0.61883373       0.61299019       0.47862483 </v>
   <v>       0.13479926       0.12432888       0.01282590 </v>
   <v>       0.13905515       0.12069285       0.49124964 </v>
   <v>       0.48739755       0.51698730       0.12178469 </v>
   <v>       0.10034619       0.62370442       0.48414308 </v>
   <v>       0.63561101       0.12599998       0.02245106 </v>
   <v>       0.63293513       0.12394185       0.49250691 </v>
   <v>       0.63573630       0.61869832       0.00048064 </v>
   <v>       0.85949593       0.40378101       0.49879708 </v>
   <v>       0.11743069       0.36570250       0.00289025 </v>
   <v>       0.11966558       0.36344287       0.50462439 </v>
   <v>       0.11028403       0.86509293       0.50337104 </v>
   <v>       0.61407459       0.37095475       0.00816504 </v>
   <v>       0.61337752       0.36885070       0.49098953 </v>
   <v>       0.01133460       0.44995940       0.34651123 </v>
   <v>       0.84016366       0.59505989       0.25093686 </v>
   <v>       0.38141447       0.13513162       0.00896590 </v>
   <v>       0.37975064       0.12999606       0.49308206 </v>
   <v>       0.37285560       0.12191937       0.75296876 </v>
   <v>       0.36748049       0.62180443       0.48728205 </v>
   <v>       0.87849643       0.13410411       0.00899835 </v>
   <v>       0.88002168       0.13279110       0.49894186 </v>
   <v>       0.88516411       0.62842823       0.00773402 </v>
   <v>       0.62647505       0.87664939       0.50507620 </v>
   <v>       0.01174964       0.98428184       0.12343483 </v>
   <v>       0.98907215       0.99434692       0.62163932 </v>
   <v>       0.49704815       0.99188761       0.37293401 </v>
   <v>       0.00289749       0.51449048       0.62702676 </v>
   <v>       0.48135230       0.97205132       0.12096677 </v>
   <v>       0.62039521       0.12826423       0.75323918 </v>
   <v>       0.26315377       0.25107484       0.62110685 </v>
   <v>       0.39888814       0.84112605       0.25315045 </v>
   <v>       0.00283851       0.01071673       0.87571190 </v>
   <v>       0.48968376       0.50728106       0.62634332 </v>
   <v>       0.00020720       0.49321473       0.87865992 </v>
   <v>       0.36418996       0.87396707       0.50596713 </v>
   <v>       0.49611527       0.99533954       0.88135257 </v>
   <v>       0.39038595       0.65626081       0.97996904 </v>
   <v>       0.51542592       0.49786528       0.87497413 </v>
   <v>       0.49485244       0.00659124       0.62644026 </v>
   <v>       0.24675416       0.24771146       0.87849305 </v>
   <v>       0.24652190       0.75701835       0.37487430 </v>
   <v>       0.13239566       0.61360922       0.00230067 </v>
   <v>       0.76326207       0.26031302       0.36469472 </v>
   <v>       0.74294874       0.24736944       0.88109737 </v>
   <v>       0.78745853       0.75890017       0.38627075 </v>
   <v>       0.75195292       0.74731695       0.87524797 </v>
   <v>       0.26225068       0.28470993       0.14319663 </v>
   <v>       0.26407290       0.75252142       0.12617273 </v>
   <v>       0.24569884       0.72613935       0.62276593 </v>
   <v>       0.76233523       0.28618990       0.14131389 </v>
   <v>       0.74765768       0.25325505       0.62180815 </v>
   <v>       0.74640521       0.74735233       0.12903064 </v>
   <v>       0.78842528       0.73231588       0.60530778 </v>
  </varray>
 </structure>
 <calculation>
  <scstep>
   <time name="dav">  295.28  295.27</time>
   <time name="total">  299.02  299.08</time>
   <energy>
    <i name="alphaZ">   5603.43904384 </i>
    <i name="ewald"> -62156.01034490 </i>
    <i name="hartreedc"> -17400.96443540 </i>
    <i name="XCdc">   3185.11866685 </i>
    <i name="pawpsdc"> 114581.93993457 </i>
    <i name="pawaedc">-113786.58093350 </i>
    <i name="eentropy">     -0.00000000 </i>
    <i name="bandstr">  -7134.82467263 </i>
    <i name="atom">  76050.17612637 </i>
    <i name="e_fr_energy">  -1057.70661479 </i>
    <i name="e_wo_entrp">  -1057.70661479 </i>
    <i name="e_0_energy">  -1057.70661479 </i>
   </energy>
  </scstep>
  <scstep>
   <time name="diag">   33.25   33.25</time>
   <time name="diis">   31.31   31.31</time>
   <time name="orth">   18.90   18.90</time>
   <time name="total">   87.25   87.27</time>
   <energy>
    <i name="e_fr_energy">  -1057.70661551 </i>
    <i name="e_wo_entrp">  -1057.70661551 </i>
    <i name="e_0_energy">  -1057.70661551 </i>
   </energy>
  </scstep>
  <scstep>
   <time name="diag">   33.26   33.26</time>
   <time name="diis">   30.53   30.54</time>
   <time name="orth">   18.85   18.85</time>
   <time name="total">   86.43   86.51</time>
   <energy>
    <i name="e_fr_energy">  -1057.70661581 </i>
    <i name="e_wo_entrp">  -1057.70661581 </i>
    <i name="e_0_energy">  -1057.70661581 </i>
   </energy>
  </scstep>
  <scstep>
   <time name="diag">   33.26   33.26</time>
   <time name="diis">   27.81   27.81</time>
   <time name="orth">   18.87   18.87</time>
   <time name="total">   83.71   83.78</time>
   <energy>
    <i name="e_fr_energy">  -1057.70661622 </i>
    <i name="e_wo_entrp">  -1057.70661622 </i>
    <i name="e_0_energy">  -1057.70661622 </i>
   </energy>
  </scstep>
  <scstep>
   <time name="diag">   33.27   33.28</time>
   <time name="diis">   27.41   27.41</time>
   <time name="orth">   18.84   18.84</time>
   <time name="total">   83.29   83.35</time>
   <energy>
    <i name="e_fr_energy">  -1057.70661652 </i>
    <i name="e_wo_entrp">  -1057.70661652 </i>
    <i name="e_0_energy">  -1057.70661652 </i>
   </energy>
  </scstep>
  <scstep>
   <time name="diag">   33.27   33.28</time>
   <time name="diis">   24.82   24.82</time>
   <time name="orth">   18.89   18.88</time>
   <time name="total">   80.77   80.85</time>
   <energy>
    <i name="e_fr_energy">  -1057.70661669 </i>
    <i name="e_wo_entrp">  -1057.70661669 </i>
    <i name="e_0_energy">  -1057.70661669 </i>
   </energy>
  </scstep>
  <scstep>
   <time name="diag">   33.25   33.25</time>
   <time name="diis">   23.87   23.86</time>
   <time name="orth">   18.86   18.86</time>
   <time name="total">   79.72   79.78</time>
   <energy>
    <i name="e_fr_energy">  -1057.70661671 </i>
    <i name="e_wo_entrp">  -1057.70661671 </i>
    <i name="e_0_energy">  -1057.70661671 </i>
   </energy>
  </scstep>
  <scstep>
   <time name="diag">   33.24   33.24</time>
   <time name="diis">   22.68   22.69</time>
   <time name="orth">   18.85   18.85</time>
   <time name="total">   75.34   75.40</time>
   <energy>
    <i name="alphaZ">   5603.43904384 </i>
    <i name="ewald"> -62156.01034490 </i>
    <i name="hartreedc"> -17400.96709391 </i>
    <i name="XCdc">   3185.11732736 </i>
    <i name="pawpsdc"> 114579.26781788 </i>
    <i name="pawaedc">-113783.90998052 </i>
    <i name="eentropy">     -0.00000000 </i>
    <i name="bandstr">  -7134.81951286 </i>
    <i name="atom">  76050.17612637 </i>
    <i name="e_fr_energy">  -1057.70661673 </i>
    <i name="e_wo_entrp">  -1057.70661673 </i>
    <i name="e_0_energy">  -1057.70661673 </i>
   </energy>
  </scstep>
  <structure>
   <crystal>
    <varray name="basis" >
     <v>      11.24477977      -0.01045865      -0.00906933 </v>
     <v>      -0.01074904      11.29231451      -0.02565118 </v>
     <v>      -0.01281726      -0.03585960      15.82847281 </v>
    </varray>
    <i name="volume">   2009.87954083 </i>
    <varray name="rec_basis" >
     <v>       0.08893029       0.00008482       0.00007220 </v>
     <v>       0.00008253       0.08855634       0.00020069 </v>
     <v>       0.00005109       0.00014356       0.06317766 </v>
    </varray>
   </crystal>
   <varray name="positions" >
    <v>       0.99864272       0.24526957       0.11838903 </v>
    <v>       0.99764903       0.24794946       0.63240600 </v>
    <v>       0.99838094       0.75783214       0.11778293 </v>
    <v>       0.00799507       0.75162313       0.63438629 </v>
    <v>       0.50075556       0.25903278       0.12524372 </v>
    <v>       0.50270877       0.24815266       0.62973888 </v>
    <v>       0.51141592       0.75216230       0.12004833 </v>
    <v>       0.49391467       0.75796765       0.63051939 </v>
    <v>       0.99990813       0.24039992       0.38356575 </v>
    <v>       0.99989699       0.25040404       0.86981783 </v>
    <v>       0.01157462       0.76341915       0.37238896 </v>
    <v>       0.99495271       0.75728720       0.87212002 </v>
    <v>       0.50093654       0.23655908       0.38025075 </v>
    <v>       0.50022649       0.25302927       0.86991762 </v>
    <v>       0.48904708       0.75891384       0.38497817 </v>
    <v>       0.51816808       0.75229909       0.86496245 </v>
    <v>       0.24855318       0.99191866       0.11866883 </v>
    <v>       0.25519879       0.00795057       0.62727818 </v>
    <v>       0.24701067       0.50075883       0.11976958 </v>
    <v>       0.25317567       0.49238978       0.63029516 </v>
    <v>       0.75563585       0.98752376       0.12089127 </v>
    <v>       0.74581413       0.00992582       0.63000061 </v>
    <v>       0.75218912       0.50631420       0.11417346 </v>
    <v>       0.75301632       0.49748465       0.63295658 </v>
    <v>       0.25657461       0.99173067       0.38251221 </v>
    <v>       0.24571193       0.01416889       0.86620266 </v>
    <v>       0.23264036       0.49895248       0.38469968 </v>
    <v>       0.24980993       0.49129301       0.86927933 </v>
    <v>       0.74830044       0.00000019       0.37847964 </v>
    <v>       0.75524197       0.00111893       0.86861346 </v>
    <v>       0.73474735       0.48593100       0.37212485 </v>
    <v>       0.75381400       0.50084353       0.86999987 </v>
    <v>       0.75216578       0.74956993       0.25395973 </v>
    <v>       0.99931649       0.99451326       0.24859956 </v>
    <v>       0.25138490       0.25070417       0.99977165 </v>
    <v>       0.50179776       0.50271846       0.75043116 </v>
    <v>       0.75029658       0.25344090       0.00175549 </v>
    <v>       0.25809527       0.25163905       0.49963595 </v>
    <v>       0.00197952       0.50236409       0.75177824 </v>
    <v>       0.00003366       0.00104096       0.74836673 </v>
    <v>       0.49980832       0.00172559       0.75158334 </v>
    <v>       0.75222547       0.75234724       0.99642353 </v>
    <v>       0.50134433       0.50484187       0.99566194 </v>
    <v>       0.74772744       0.25397071       0.50016112 </v>
    <v>       0.24450615       0.74741529       0.50055873 </v>
    <v>       0.00005310       0.49550533       0.00009675 </v>
    <v>       0.25203301       0.74879238       0.25164493 </v>
    <v>       0.49727654       0.98840136       0.24862456 </v>
    <v>       0.49650320       0.52698503       0.24053813 </v>
    <v>       0.99966442       0.00889377       0.99850395 </v>
    <v>       0.25202999       0.25142993       0.74842326 </v>
    <v>       0.50038697       0.00254658       0.50186394 </v>
    <v>       0.00763467       0.48562840       0.50701517 </v>
    <v>       0.49442116       0.49821568       0.50872748 </v>
    <v>       0.24778577       0.73326266       0.00843143 </v>
    <v>       0.51440237       0.01412186       0.00308586 </v>
    <v>       0.24448467       0.21726023       0.25103634 </v>
    <v>       0.01284884       0.01194390       0.50074804 </v>
    <v>       0.74968025       0.25189325       0.75118944 </v>
    <v>       0.75538784       0.74961756       0.74555596 </v>
    <v>       0.72300154       0.74275684       0.49693305 </v>
    <v>       0.74058795       0.22088952       0.24875195 </v>
    <v>       0.25108996       0.74820774       0.74230795 </v>
    <v>       0.99236322       0.52682732       0.24586178 </v>
    <v>       0.09249053       0.14671189       0.25011464 </v>
    <v>       0.12108448       0.12947892       0.74261130 </v>
    <v>       0.10550723       0.65010534       0.24511884 </v>
    <v>       0.12503117       0.63386255       0.76925925 </v>
    <v>       0.59948495       0.13082222       0.24084537 </v>
    <v>       0.62305426       0.86931337       0.00035482 </v>
    <v>       0.60616654       0.64788580       0.26882337 </v>
    <v>       0.62307415       0.63264130       0.74119166 </v>
    <v>       0.56085106       0.38804761       0.27684150 </v>
    <v>       0.38123728       0.37419211       0.75343393 </v>
    <v>       0.37805133       0.86850636       0.75358202 </v>
    <v>       0.00392285       0.47385593       0.13294642 </v>
    <v>       0.88194608       0.37219228       0.75067043 </v>
    <v>       0.89709714       0.84888841       0.24443625 </v>
    <v>       0.88116057       0.87193606       0.75227841 </v>
    <v>       0.35370836       0.09209866       0.24882919 </v>
    <v>       0.34218472       0.58741851       0.26242273 </v>
    <v>       0.37206785       0.62469415       0.76479108 </v>
    <v>       0.85585912       0.09625236       0.24318635 </v>
    <v>       0.87110756       0.12212208       0.74991186 </v>
    <v>       0.87439608       0.62028979       0.75459272 </v>
    <v>       0.25468645       0.27291595       0.36222550 </v>
    <v>       0.13093209       0.38204528       0.74727625 </v>
    <v>       0.14765259       0.89389350       0.25274636 </v>
    <v>       0.13210106       0.87887131       0.75261920 </v>
    <v>       0.98629043       0.98838225       0.37649377 </v>
    <v>       0.63002888       0.38240955       0.74739109 </v>
    <v>       0.64725599       0.88894974       0.25376444 </v>
    <v>       0.63166143       0.87943033       0.74252189 </v>
    <v>       0.36441217       0.39377569       0.99697687 </v>
    <v>       0.37048386       0.38239992       0.48898804 </v>
    <v>       0.17290760       0.87039646       0.97536497 </v>
    <v>       0.86562169       0.38377190       0.99880340 </v>
    <v>       0.87996263       0.87487087       0.99920506 </v>
    <v>       0.61883373       0.61299019       0.47862483 </v>
    <v>       0.13479926       0.12432888       0.01282590 </v>
    <v>       0.13905515       0.12069285       0.49124964 </v>
    <v>       0.48739755       0.51698730       0.12178469 </v>
    <v>       0.10034619       0.62370442       0.48414308 </v>
    <v>       0.63561101       0.12599998       0.02245106 </v>
    <v>       0.63293513       0.12394185       0.49250691 </v>
    <v>       0.63573630       0.61869832       0.00048064 </v>
    <v>       0.85949593       0.40378101       0.49879708 </v>
    <v>       0.11743069       0.36570250       0.00289025 </v>
    <v>       0.11966558       0.36344287       0.50462439 </v>
    <v>       0.11028403       0.86509293       0.50337104 </v>
    <v>       0.61407459       0.37095475       0.00816504 </v>
    <v>       0.61337752       0.36885070       0.49098953 </v>
    <v>       0.01133460       0.44995940       0.34651123 </v>
    <v>       0.84016366       0.59505989       0.25093686 </v>
    <v>       0.38141447       0.13513162       0.00896590 </v>
    <v>       0.37975064       0.12999606       0.49308206 </v>
    <v>       0.37285560       0.12191937       0.75296876 </v>
    <v>       0.36748049       0.62180443       0.48728205 </v>
    <v>       0.87849643       0.13410411       0.00899835 </v>
    <v>       0.88002168       0.13279110       0.49894186 </v>
    <v>       0.88516411       0.62842823       0.00773402 </v>
    <v>       0.62647505       0.87664939       0.50507620 </v>
    <v>       0.01174964       0.98428184       0.12343483 </v>
    <v>       0.98907215       0.99434692       0.62163932 </v>
    <v>       0.49704815       0.99188761       0.37293401 </v>
    <v>       0.00289749       0.51449048       0.62702676 </v>
    <v>       0.48135230       0.97205132       0.12096677 </v>
    <v>       0.62039521       0.12826423       0.75323918 </v>
    <v>       0.26315377       0.25107484       0.62110685 </v>
    <v>       0.39888814       0.84112605       0.25315045 </v>
    <v>       0.00283851       0.01071673       0.87571190 </v>
    <v>       0.48968376       0.50728106       0.62634332 </v>
    <v>       0.00020720       0.49321473       0.87865992 </v>
    <v>       0.36418996       0.87396707       0.50596713 </v>
    <v>       0.49611527       0.99533954       0.88135257 </v>
    <v>       0.39038595       0.65626081       0.97996904 </v>
    <v>       0.51542592       0.49786528       0.87497413 </v>
    <v>       0.49485244       0.00659124       0.62644026 </v>
    <v>       0.24675416       0.24771146       0.87849305 </v>
    <v>       0.24652190       0.75701835       0.37487430 </v>
    <v>       0.13239566       0.61360922       0.00230067 </v>
    <v>       0.76326207       0.26031302       0.36469472 </v>
    <v>       0.74294874       0.24736944       0.88109737 </v>
    <v>       0.78745853       0.75890017       0.38627075 </v>
    <v>       0.75195292       0.74731695       0.87524797 </v>
    <v>       0.26225068       0.28470993       0.14319663 </v>
    <v>       0.26407290       0.75252142       0.12617273 </v>
    <v>       0.24569884       0.72613935       0.62276593 </v>
    <v>       0.76233523       0.28618990       0.14131389 </v>
    <v>       0.74765768       0.25325505       0.62180815 </v>
    <v>       0.74640521       0.74735233       0.12903064 </v>
    <v>       0.78842528       0.73231588       0.60530778 </v>
   </varray>
  </structure>
  <varray name="forces" >
   <v>       0.00111439      -0.00055169       0.00207572 </v>
   <v>      -0.00723836      -0.00299892      -0.00367123 </v>
   <v>      -0.00008186      -0.00700082       0.00136302 </v>
   <v>       0.01058080       0.00417297      -0.00328616 </v>
   <v>       0.00644005      -0.00923505       0.00400092 </v>
   <v>       0.00036932      -0.00505032       0.00703893 </v>
   <v>      -0.00125663       0.00751409      -0.00264774 </v>
   <v>      -0.01028603      -0.00332408      -0.01138364 </v>
   <v>       0.00077275       0.00492363       0.00123607 </v>
   <v>      -0.00590870       0.00226716       0.01121868 </v>
   <v>       0.00992638       0.00760365      -0.00260512 </v>
   <v>      -0.00012791       0.00334627      -0.00602849 </v>
   <v>       0.00086939       0.00904244      -0.00651959 </v>
   <v>      -0.00506018       0.00875238      -0.01085871 </v>
   <v>       0.00006864       0.00241017       0.00830098 </v>
   <v>       0.00259489       0.01049992       0.00896068 </v>
   <v>      -0.00526255      -0.00192552      -0.00020660 </v>
   <v>      -0.00195347      -0.00751055      -0.00417672 </v>
   <v>      -0.00582553       0.00772793       0.00049277 </v>
   <v>      -0.01007872      -0.00444250       0.00154596 </v>
   <v>       0.00648567      -0.00042799      -0.00483040 </v>
   <v>      -0.00067877      -0.00279405       0.00873647 </v>
   <v>       0.00573401       0.00492371       0.00911594 </v>
   <v>       0.00435397      -0.00615880      -0.00798866 </v>
   <v>      -0.00168125       0.00503829       0.00163553 </v>
   <v>      -0.00406683       0.00110171       0.00994297 </v>
   <v>      -0.00187091      -0.00760060      -0.01098800 </v>
   <v>      -0.00497129      -0.00714699       0.00785138 </v>
   <v>      -0.00644525      -0.01048668       0.00383907 </v>
   <v>       0.00352347      -0.00484994       0.00382534 </v>
   <v>      -0.00422874       0.00285564      -0.00298302 </v>
   <v>       0.00457550      -0.00329930      -0.00004527 </v>
   <v>      -0.00140397      -0.00391612      -0.00551476 </v>
   <v>       0.01232605       0.01195028       0.01315945 </v>
   <v>      -0.01730072       0.00518725      -0.01358474 </v>
   <v>       0.00058269      -0.01933379      -0.00016676 </v>
   <v>       0.01518450       0.00529531      -0.00429529 </v>
   <v>      -0.00051067      -0.00232589      -0.00980377 </v>
   <v>       0.00570681      -0.01165958       0.01911665 </v>
   <v>      -0.00985909      -0.00936307       0.00244034 </v>
   <v>       0.00294395      -0.00464508       0.00347404 </v>
   <v>       0.01325707       0.02342054      -0.00759231 </v>
   <v>      -0.01658606       0.00280145      -0.02889773 </v>
   <v>       0.01483131       0.00546287       0.00191228 </v>
   <v>       0.00051036       0.00615455      -0.00560207 </v>
   <v>       0.01499458      -0.00272183      -0.00049854 </v>
   <v>       0.01090721       0.00740697      -0.00594911 </v>
   <v>      -0.01045373      -0.00205050       0.00915027 </v>
   <v>       0.00614618       0.00054772       0.01245634 </v>
   <v>      -0.00903957       0.00161859      -0.00019925 </v>
   <v>       0.00177745       0.00529301      -0.00057846 </v>
   <v>      -0.01074878      -0.01211875      -0.00886420 </v>
   <v>       0.01099853      -0.00911695       0.00476815 </v>
   <v>      -0.01372150      -0.00832534      -0.00934474 </v>
   <v>      -0.00574800       0.01579090      -0.00436929 </v>
   <v>      -0.00778269      -0.00440245      -0.00364895 </v>
   <v>       0.00402632      -0.01145346       0.01802823 </v>
   <v>       0.00697587      -0.01522492      -0.00499346 </v>
   <v>       0.00439932       0.00605984      -0.00179203 </v>
   <v>       0.00172603       0.01042493       0.00489243 </v>
   <v>      -0.00504129       0.00722995       0.02147538 </v>
   <v>      -0.00457156      -0.00259382      -0.00802893 </v>
   <v>      -0.00702286      -0.00331039      -0.01259173 </v>
   <v>      -0.00557776      -0.00000271       0.00284548 </v>
   <v>      -0.00137775      -0.00191834      -0.00773309 </v>
   <v>       0.01125719       0.00046731      -0.00574954 </v>
   <v>       0.00572065       0.00545654      -0.01291219 </v>
   <v>      -0.00478600      -0.01342977       0.00052725 </v>
   <v>       0.00962912       0.00874845       0.00229285 </v>
   <v>       0.00169105       0.00539542       0.00362972 </v>
   <v>       0.00663237       0.00910430      -0.00797728 </v>
   <v>      -0.00206612      -0.01324107       0.00438434 </v>
   <v>       0.01044025       0.00953497       0.00383497 </v>
   <v>       0.00036516       0.00267917       0.00288886 </v>
   <v>      -0.00848644      -0.01882124       0.01107534 </v>
   <v>      -0.00618071       0.01205799      -0.00912984 </v>
   <v>      -0.01156508       0.00282117      -0.00348560 </v>
   <v>      -0.00292874       0.01637094       0.00604640 </v>
   <v>      -0.00260234      -0.00590420       0.00259925 </v>
   <v>       0.01546571      -0.00259799       0.00498697 </v>
   <v>      -0.00730915       0.00734486      -0.00559602 </v>
   <v>       0.00589470       0.01315740      -0.00197035 </v>
   <v>      -0.00094466       0.01166192       0.00078898 </v>
   <v>      -0.01100829       0.00339094       0.00604087 </v>
   <v>       0.00751833       0.00963423       0.00864701 </v>
   <v>       0.00535134      -0.00383087       0.00618823 </v>
   <v>      -0.01385634      -0.01039380      -0.01662996 </v>
   <v>      -0.01497796       0.00329867      -0.00799455 </v>
   <v>      -0.00004268      -0.00566643       0.00255333 </v>
   <v>       0.00126237       0.00272078      -0.00095911 </v>
   <v>      -0.01432118      -0.00551698      -0.00940814 </v>
   <v>      -0.01292134       0.00643763      -0.01421453 </v>
   <v>      -0.00120793      -0.00729135       0.00388812 </v>
   <v>       0.01446649      -0.00039018       0.00012005 </v>
   <v>       0.01182708      -0.00239949       0.01092075 </v>
   <v>       0.00720136      -0.00481499      -0.00600217 </v>
   <v>      -0.01895294      -0.00390087       0.00581652 </v>
   <v>      -0.00319596      -0.00687912      -0.00323682 </v>
   <v>       0.00769521      -0.00398683       0.01005530 </v>
   <v>       0.00243471       0.00025115       0.00325095 </v>
   <v>       0.00581920      -0.00056182       0.00512913 </v>
   <v>      -0.00396946      -0.00906513       0.00408646 </v>
   <v>      -0.00287806      -0.00199740       0.00379005 </v>
   <v>       0.00564050       0.02554650      -0.00576051 </v>
   <v>       0.00682145      -0.00066441       0.01053087 </v>
   <v>       0.00513925      -0.00221196       0.00148528 </v>
   <v>      -0.00194031       0.00325959      -0.01004571 </v>
   <v>       0.00265094      -0.00606667       0.01188212 </v>
   <v>      -0.00269031       0.00320842       0.00581902 </v>
   <v>      -0.01136812      -0.00873342      -0.00195061 </v>
   <v>       0.01031152      -0.01017997      -0.00152766 </v>
   <v>       0.00570010       0.00010395       0.00815251 </v>
   <v>       0.01605407      -0.00288906      -0.01585354 </v>
   <v>       0.00111323      -0.00555427       0.00331042 </v>
   <v>       0.01416720       0.00083226      -0.00637066 </v>
   <v>      -0.00870207       0.00559849       0.00025077 </v>
   <v>       0.00956579       0.00655706       0.01573826 </v>
   <v>       0.01542791      -0.00514267       0.00668494 </v>
   <v>      -0.00765566       0.01309173      -0.00498540 </v>
   <v>      -0.00689849      -0.00060251      -0.00707334 </v>
   <v>      -0.01299931       0.01045614      -0.00909370 </v>
   <v>      -0.00215281      -0.00985788       0.00772707 </v>
   <v>      -0.00037127       0.00943509       0.01227209 </v>
   <v>      -0.01365980      -0.00197867       0.00654636 </v>
   <v>       0.01265161       0.00038837       0.00287159 </v>
   <v>      -0.00413294       0.00476555      -0.01204298 </v>
   <v>      -0.01046156      -0.00399716      -0.00133182 </v>
   <v>       0.00758454      -0.00600001      -0.00411511 </v>
   <v>       0.00972576      -0.00888865       0.02338128 </v>
   <v>       0.00332780       0.00568902      -0.01231209 </v>
   <v>       0.00402168      -0.00704200      -0.00492626 </v>
   <v>      -0.01382772      -0.00383202       0.00081116 </v>
   <v>       0.00414000       0.00056435       0.00710307 </v>
   <v>      -0.00455509       0.01093744       0.00207896 </v>
   <v>       0.01214147      -0.00047816       0.00691277 </v>
   <v>       0.00814784      -0.01369180       0.00807762 </v>
   <v>      -0.00174543       0.00208729       0.00328566 </v>
   <v>      -0.00819797       0.00914158      -0.00306768 </v>
   <v>      -0.01008613      -0.00340013      -0.00028605 </v>
   <v>      -0.00349436      -0.00383700      -0.01227774 </v>
   <v>      -0.01089425      -0.00895211      -0.00890547 </v>
   <v>      -0.00536327      -0.00174867       0.00800604 </v>
   <v>      -0.00132149      -0.00313914       0.01497758 </v>
   <v>      -0.00880570       0.01155739      -0.00512267 </v>
   <v>      -0.00220141       0.00272949      -0.00391066 </v>
   <v>       0.01073514       0.00723981      -0.01634457 </v>
   <v>       0.01019162      -0.00599367       0.00052296 </v>
   <v>       0.00426193       0.00055755       0.00962006 </v>
   <v>      -0.00468905      -0.00175754       0.00405257 </v>
   <v>       0.01718617       0.00049753      -0.01131090 </v>
   <v>       0.00191167      -0.01040485       0.00469911 </v>
   <v>      -0.00781000       0.00541821      -0.01909155 </v>
  </varray>
  <varray name="stress" >
   <v>      -0.03859391      -0.02535142       0.05512632 </v>
   <v>      -0.02535132      -0.02848735       0.06407175 </v>
   <v>       0.05512588       0.06407156       0.01155942 </v>
  </varray>
  <energy>
   <i name="e_fr_energy">  -1057.70661673 </i>
   <i name="e_wo_entrp">  -1057.70661673 </i>
   <i name="e_0_energy">     -0.00000000 </i>
  </energy>
  <time name="totalsc"> 1027.59 1029.70</time>
 </calculation>
 <calculation>
  <scstep>
   <time name="dav">  289.69  289.68</time>
   <time name="total">  293.42  293.57</time>
   <energy>
    <i name="alphaZ">   5603.56292304 </i>
    <i name="ewald"> -62156.48808848 </i>
    <i name="hartreedc"> -17401.06074523 </i>
    <i name="XCdc">   3185.14659988 </i>
    <i name="pawpsdc"> 114579.27003269 </i>
    <i name="pawaedc">-113783.91224008 </i>
    <i name="eentropy">     -0.00000000 </i>
    <i name="bandstr">  -7134.40097828 </i>
    <i name="atom">  76050.17612637 </i>
    <i name="e_fr_energy">  -1057.70637010 </i>
    <i name="e_wo_entrp">  -1057.70637010 </i>
    <i name="e_0_energy">  -1057.70637010 </i>
   </energy>
  </scstep>
  <scstep>
   <time name="diag">   33.26   33.28</time>
   <time name="diis">   52.09   52.09</time>
   <time name="orth">   18.87   18.86</time>
   <time name="total">  108.00  108.02</time>
   <energy>
    <i name="e_fr_energy">  -1057.70736900 </i>
    <i name="e_wo_entrp">  -1057.70736900 </i>
    <i name="e_0_energy">  -1057.70736900 </i>
   </energy>
  </scstep>
  <scstep>
   <time name="diag">   33.26   33.28</time>
   <time name="diis">   43.49   43.50</time>
   <time name="orth">   18.88   18.88</time>
   <time name="total">   99.40   99.49</time>
   <energy>
    <i name="e_fr_energy">  -1057.70744004 </i>
    <i name="e_wo_entrp">  -1057.70744004 </i>
    <i name="e_0_energy">  -1057.70744004 </i>
   </energy>
  </scstep>
  <scstep>
   <time name="diag">   33.28   33.28</time>
   <time name="diis">   32.75   32.76</time>
   <time name="orth">   18.92   18.92</time>
   <time name="total">   88.73   88.78</time>
   <energy>
    <i name="e_fr_energy">  -1057.70740093 </i>
    <i name="e_wo_entrp">  -1057.70740093 </i>
    <i name="e_0_energy">  -1057.70740093 </i>
   </energy>
  </scstep>
  <scstep>
   <time name="diag">   33.25   33.26</time>
   <time name="diis">   32.05   32.06</time>
   <time name="orth">   18.89   18.89</time>
   <time name="total">   87.98   88.07</time>
   <energy>
    <i name="e_fr_energy">  -1057.70738869 </i>
    <i name="e_wo_entrp">  -1057.70738869 </i>
    <i name="e_0_energy">  -1057.70738869 </i>
   </energy>
  </scstep>
  <scstep>
   <time name="diag">   33.27   33.27</time>
   <time name="diis">   31.50   31.51</time>
   <time name="orth">   18.87   18.87</time>
   <time name="total">   87.43   87.50</time>
   <energy>
    <i name="e_fr_energy">  -1057.70739071 </i>
    <i name="e_wo_entrp">  -1057.70739071 </i>
    <i name="e_0_energy">  -1057.70739071 </i>
   </energy>
  </scstep>
  <scstep>
   <time name="diag">   33.31   33.31</time>
   <time name="diis">   30.80   30.80</time>
   <time name="orth">   18.86   18.86</time>
   <time name="total">   86.80   86.86</time>
   <energy>
    <i name="e_fr_energy">  -1057.70739145 </i>
    <i name="e_wo_entrp">  -1057.70739145 </i>
    <i name="e_0_energy">  -1057.70739145 </i>
   </energy>
  </scstep>
  <scstep>
   <time name="diag">   33.26   33.26</time>
   <time name="diis">   29.45   29.45</time>
   <time name="orth">   18.88   18.88</time>
   <time name="total">   82.16   82.20</time>
   <energy>
    <i name="alphaZ">   5603.56292304 </i>
    <i name="ewald"> -62156.48808848 </i>
    <i name="hartreedc"> -17400.71985697 </i>
    <i name="XCdc">   3185.12446292 </i>
    <i name="pawpsdc"> 114578.78626137 </i>
    <i name="pawaedc">-113783.43739605 </i>
    <i name="eentropy">     -0.00000000 </i>
    <i name="bandstr">  -7134.71182408 </i>
    <i name="atom">  76050.17612637 </i>
    <i name="e_fr_energy">  -1057.70739188 </i>
    <i name="e_wo_entrp">  -1057.70739188 </i>
    <i name="e_0_energy">  -1057.70739188 </i>
   </energy>
  </scstep>
  <structure>
   <crystal>
    <varray name="basis" >
     <v>      11.24460689      -0.01057227      -0.00882283 </v>
     <v>      -0.01086341      11.29218588      -0.02536346 </v>
     <v>      -0.01246929      -0.03545527      15.82854446 </v>
    </varray>
    <i name="volume">   2009.83510797 </i>
    <varray name="rec_basis" >
     <v>       0.08893166       0.00008571       0.00007025 </v>
     <v>       0.00008342       0.08855734       0.00019843 </v>
     <v>       0.00004970       0.00014195       0.06317736 </v>
    </varray>
   </crystal>
   <varray name="positions" >
    <v>       0.99864750       0.24526724       0.11839536 </v>
    <v>       0.99761795       0.24793658       0.63239477 </v>
    <v>       0.99838056       0.75780224       0.11778703 </v>
    <v>       0.00804047       0.75164097       0.63437633 </v>
    <v>       0.50078317       0.25899339       0.12525587 </v>
    <v>       0.50271036       0.24813116       0.62976030 </v>
    <v>       0.51141055       0.75219437       0.12004030 </v>
    <v>       0.49387048       0.75795329       0.63048465 </v>
    <v>       0.99991147       0.24042097       0.38356956 </v>
    <v>       0.99987168       0.25041381       0.86985203 </v>
    <v>       0.01161722       0.76345165       0.37238110 </v>
    <v>       0.99495216       0.75730144       0.87210167 </v>
    <v>       0.50094029       0.23659765       0.38023095 </v>
    <v>       0.50020478       0.25306654       0.86988457 </v>
    <v>       0.48904741       0.75892422       0.38500348 </v>
    <v>       0.51817929       0.75234405       0.86498984 </v>
    <v>       0.24853059       0.99191041       0.11866817 </v>
    <v>       0.25519036       0.00791844       0.62726539 </v>
    <v>       0.24698571       0.50079183       0.11977112 </v>
    <v>       0.25313241       0.49237078       0.63029982 </v>
    <v>       0.75566366       0.98752191       0.12087656 </v>
    <v>       0.74581124       0.00991396       0.63002722 </v>
    <v>       0.75221377       0.50633534       0.11420129 </v>
    <v>       0.75303495       0.49745828       0.63293220 </v>
    <v>       0.25656742       0.99175220       0.38251722 </v>
    <v>       0.24569453       0.01417368       0.86623296 </v>
    <v>       0.23263226       0.49891990       0.38466613 </v>
    <v>       0.24978860       0.49126253       0.86930320 </v>
    <v>       0.74827276      -0.00004460       0.37849125 </v>
    <v>       0.75525708       0.00109826       0.86862510 </v>
    <v>       0.73472921       0.48594316       0.37211576 </v>
    <v>       0.75383362       0.50082945       0.86999972 </v>
    <v>       0.75215972       0.74955314       0.25394289 </v>
    <v>       0.99936947       0.99456449       0.24863978 </v>
    <v>       0.25131065       0.25072613       0.99973024 </v>
    <v>       0.50180018       0.50263586       0.75043052 </v>
    <v>       0.75036173       0.25346354       0.00174248 </v>
    <v>       0.25809304       0.25162902       0.49960605 </v>
    <v>       0.00200403       0.50231449       0.75183644 </v>
    <v>      -0.00000866       0.00100094       0.74837408 </v>
    <v>       0.49982094       0.00170579       0.75159391 </v>
    <v>       0.75228242       0.75244728       0.99640058 </v>
    <v>       0.50127308       0.50485349       0.99557384 </v>
    <v>       0.74779109       0.25399413       0.50016702 </v>
    <v>       0.24450835       0.74744153       0.50054170 </v>
    <v>       0.00011741       0.49549376       0.00009525 </v>
    <v>       0.25207981       0.74882401       0.25162687 </v>
    <v>       0.49723171       0.98839264       0.24865241 </v>
    <v>       0.49652961       0.52698752       0.24057611 </v>
    <v>       0.99962564       0.00890065       0.99850333 </v>
    <v>       0.25203763       0.25145254       0.74842154 </v>
    <v>       0.50034077       0.00249468       0.50183681 </v>
    <v>       0.00768184       0.48558954       0.50702967 </v>
    <v>       0.49436222       0.49817997       0.50869891 </v>
    <v>       0.24776116       0.73333006       0.00841821 </v>
    <v>       0.51436895       0.01410298       0.00307469 </v>
    <v>       0.24450196       0.21721149       0.25109122 </v>
    <v>       0.01287868       0.01187884       0.50073273 </v>
    <v>       0.74969914       0.25191914       0.75118403 </v>
    <v>       0.75539531       0.74966215       0.74557095 </v>
    <v>       0.72298002       0.74278791       0.49699854 </v>
    <v>       0.74056830       0.22087834       0.24872745 </v>
    <v>       0.25105977       0.74819344       0.74226953 </v>
    <v>       0.99233930       0.52682731       0.24587043 </v>
    <v>       0.09248458       0.14670361       0.25009105 </v>
    <v>       0.12113276       0.12948091       0.74259380 </v>
    <v>       0.10553175       0.65012855       0.24507954 </v>
    <v>       0.12501058       0.63380517       0.76926075 </v>
    <v>       0.59952631       0.13085966       0.24085244 </v>
    <v>       0.62306155       0.86933646       0.00036593 </v>
    <v>       0.60619501       0.64792464       0.26879913 </v>
    <v>       0.62306525       0.63258477       0.74120492 </v>
    <v>       0.56089590       0.38808842       0.27685328 </v>
    <v>       0.38123887       0.37420359       0.75344276 </v>
    <v>       0.37801489       0.86842602       0.75361563 </v>
    <v>       0.00389636       0.47390733       0.13291867 </v>
    <v>       0.88189646       0.37220425       0.75065980 </v>
    <v>       0.89708466       0.84895840       0.24445479 </v>
    <v>       0.88114939       0.87191085       0.75228628 </v>
    <v>       0.35377472       0.09208767       0.24884441 </v>
    <v>       0.34215337       0.58744981       0.26240571 </v>
    <v>       0.37209319       0.62475037       0.76478518 </v>
    <v>       0.85585512       0.09630219       0.24318883 </v>
    <v>       0.87106037       0.12213659       0.74993027 </v>
    <v>       0.87442841       0.62033106       0.75461916 </v>
    <v>       0.25470941       0.27289966       0.36224435 </v>
    <v>       0.13087254       0.38200066       0.74722546 </v>
    <v>       0.14758831       0.89390745       0.25272198 </v>
    <v>       0.13210086       0.87884713       0.75262695 </v>
    <v>       0.98629585       0.98839387       0.37649087 </v>
    <v>       0.62996738       0.38238583       0.74736235 </v>
    <v>       0.64720054       0.88897705       0.25372113 </v>
    <v>       0.63165623       0.87939921       0.74253368 </v>
    <v>       0.36447424       0.39377408       0.99697726 </v>
    <v>       0.37053463       0.38238982       0.48902134 </v>
    <v>       0.17293846       0.87037586       0.97534667 </v>
    <v>       0.86554038       0.38375521       0.99882106 </v>
    <v>       0.87994888       0.87484143       0.99919514 </v>
    <v>       0.61886677       0.61297329       0.47865547 </v>
    <v>       0.13480972       0.12433000       0.01283582 </v>
    <v>       0.13908013       0.12069053       0.49126528 </v>
    <v>       0.48738050       0.51694859       0.12179707 </v>
    <v>       0.10033385       0.62369591       0.48415462 </v>
    <v>       0.63563529       0.12610909       0.02243369 </v>
    <v>       0.63296443       0.12393914       0.49253902 </v>
    <v>       0.63575834       0.61868891       0.00048517 </v>
    <v>       0.85948758       0.40379483       0.49876648 </v>
    <v>       0.11744208       0.36567671       0.00292643 </v>
    <v>       0.11965407       0.36345663       0.50464214 </v>
    <v>       0.11023522       0.86505555       0.50336501 </v>
    <v>       0.61411878       0.37091129       0.00816034 </v>
    <v>       0.61340200       0.36885125       0.49101439 </v>
    <v>       0.01140341       0.44994697       0.34646293 </v>
    <v>       0.84016842       0.59503620       0.25094692 </v>
    <v>       0.38147523       0.13513517       0.00894653 </v>
    <v>       0.37971333       0.13001995       0.49308284 </v>
    <v>       0.37289672       0.12194758       0.75301680 </v>
    <v>       0.36754668       0.62178259       0.48730243 </v>
    <v>       0.87846362       0.13415996       0.00898323 </v>
    <v>       0.87999206       0.13278843       0.49892028 </v>
    <v>       0.88510835       0.62847276       0.00770634 </v>
    <v>       0.62646580       0.87660734       0.50509967 </v>
    <v>       0.01174813       0.98432226       0.12347230 </v>
    <v>       0.98901356       0.99433848       0.62165922 </v>
    <v>       0.49710244       0.99188935       0.37294279 </v>
    <v>       0.00287973       0.51451071       0.62699008 </v>
    <v>       0.48130740       0.97203419       0.12096265 </v>
    <v>       0.62042771       0.12823859       0.75322662 </v>
    <v>       0.26319554       0.25103714       0.62117808 </v>
    <v>       0.39890239       0.84115025       0.25311297 </v>
    <v>       0.00285572       0.01068661       0.87569685 </v>
    <v>       0.48962443       0.50726465       0.62634574 </v>
    <v>       0.00022499       0.49321723       0.87868158 </v>
    <v>       0.36417047       0.87401380       0.50597353 </v>
    <v>       0.49616738       0.99533761       0.88137366 </v>
    <v>       0.39042088       0.65620242       0.97999359 </v>
    <v>       0.51541845       0.49787423       0.87498416 </v>
    <v>       0.49481730       0.00663023       0.62643095 </v>
    <v>       0.24671088       0.24769689       0.87849213 </v>
    <v>       0.24650685       0.75700183       0.37483685 </v>
    <v>       0.13234886       0.61357085       0.00227344 </v>
    <v>       0.76323908       0.26030561       0.36471909 </v>
    <v>       0.74294311       0.24735617       0.88114299 </v>
    <v>       0.78742078       0.75894946       0.38625520 </v>
    <v>       0.75194348       0.74732856       0.87523607 </v>
    <v>       0.26229671       0.28474075       0.14314689 </v>
    <v>       0.26411661       0.75249586       0.12617430 </v>
    <v>       0.24571716       0.72614184       0.62279527 </v>
    <v>       0.76231512       0.28618241       0.14132622 </v>
    <v>       0.74773138       0.25325713       0.62177372 </v>
    <v>       0.74641338       0.74730793       0.12904489 </v>
    <v>       0.78839173       0.73233881       0.60524961 </v>
   </varray>
  </structure>
  <varray name="forces" >
   <v>      -0.00291738      -0.00050779       0.00490384 </v>
   <v>      -0.00454289      -0.00382677      -0.00249892 </v>
   <v>      -0.00309973      -0.00464174       0.00762795 </v>
   <v>       0.00383141      -0.00189213      -0.00332100 </v>
   <v>       0.00887127      -0.00400059      -0.00406009 </v>
   <v>       0.00222087      -0.00588870       0.00177601 </v>
   <v>       0.00380256       0.00067528      -0.00437951 </v>
   <v>      -0.00787518      -0.01065935      -0.00262942 </v>
   <v>      -0.00609760       0.00354420       0.00097861 </v>
   <v>      -0.00884035      -0.00141162       0.00681958 </v>
   <v>       0.00054708       0.00453821      -0.00669179 </v>
   <v>      -0.00261800      -0.00016938      -0.00652103 </v>
   <v>       0.01059318       0.00884024      -0.00221610 </v>
   <v>       0.00042675       0.00226822      -0.00114189 </v>
   <v>       0.00616750      -0.00075671       0.00440053 </v>
   <v>       0.00299026       0.00403620       0.00469842 </v>
   <v>      -0.00207440       0.00234062      -0.00108461 </v>
   <v>       0.00040980      -0.00047441       0.00319668 </v>
   <v>       0.00568993       0.00579008       0.00275089 </v>
   <v>      -0.00776582      -0.00358996       0.00209311 </v>
   <v>       0.00289667       0.00594724       0.00097424 </v>
   <v>      -0.00333927       0.00086806       0.00466842 </v>
   <v>      -0.00288332       0.00299424       0.00072892 </v>
   <v>       0.00265868      -0.00008912      -0.00963626 </v>
   <v>      -0.00135953       0.00486798       0.00091102 </v>
   <v>      -0.00020302       0.00275769       0.00148301 </v>
   <v>      -0.00162419      -0.00084975      -0.00823952 </v>
   <v>       0.00023556      -0.00157733       0.00320133 </v>
   <v>      -0.00579815      -0.00843427       0.00136204 </v>
   <v>      -0.00292680       0.00168119       0.00419274 </v>
   <v>      -0.00449374       0.00268265       0.00063263 </v>
   <v>      -0.00071958       0.00164699       0.00559172 </v>
   <v>      -0.00160370       0.01187743      -0.00113781 </v>
   <v>      -0.01356207      -0.00265445       0.00558099 </v>
   <v>       0.01862575      -0.01172498       0.00496973 </v>
   <v>      -0.00251963       0.00370115      -0.01177189 </v>
   <v>      -0.02508876       0.00890807       0.00859666 </v>
   <v>       0.00510860       0.00120727       0.01404264 </v>
   <v>       0.00109925       0.00380236      -0.00341946 </v>
   <v>       0.00728149       0.00862543      -0.00192372 </v>
   <v>      -0.00429340      -0.00348723      -0.00116563 </v>
   <v>      -0.01455502      -0.00846499      -0.00326226 </v>
   <v>       0.01585442      -0.00057005       0.02507335 </v>
   <v>      -0.01651853      -0.01538066      -0.00877354 </v>
   <v>       0.00219213      -0.01176863       0.00114308 </v>
   <v>      -0.02348861       0.00389698       0.01635649 </v>
   <v>       0.00008024      -0.00820280      -0.01283998 </v>
   <v>       0.01995759       0.00110008      -0.00358937 </v>
   <v>      -0.00262670       0.00767387      -0.00950471 </v>
   <v>      -0.01010673       0.00882000       0.00606707 </v>
   <v>      -0.00136105      -0.00712159      -0.00502192 </v>
   <v>       0.00326840       0.00231069      -0.00081585 </v>
   <v>      -0.00658915      -0.00178617       0.00731290 </v>
   <v>       0.00762822      -0.00544436       0.00320915 </v>
   <v>       0.00928540      -0.01465965      -0.00009926 </v>
   <v>       0.00657996       0.01515378       0.00517432 </v>
   <v>       0.00719774      -0.00108897      -0.01707818 </v>
   <v>      -0.00438663      -0.00044454       0.00182584 </v>
   <v>       0.00020884       0.00110801       0.00132358 </v>
   <v>      -0.00283722      -0.01021457       0.00232037 </v>
   <v>      -0.00193330      -0.00549704      -0.01028770 </v>
   <v>       0.00293587       0.00392975       0.00369623 </v>
   <v>       0.00145389      -0.00685276       0.00473955 </v>
   <v>       0.00175494       0.00701385      -0.00851969 </v>
   <v>       0.01007943       0.00922817      -0.00156686 </v>
   <v>       0.00107362      -0.00820847      -0.00366935 </v>
   <v>       0.00202254       0.00326581      -0.01196005 </v>
   <v>      -0.00103610      -0.01300370       0.00150810 </v>
   <v>      -0.00703424      -0.00490529       0.00310044 </v>
   <v>       0.00375536       0.00780977       0.00332666 </v>
   <v>       0.00116724       0.00722936      -0.00436532 </v>
   <v>       0.00323529      -0.00765261       0.00270539 </v>
   <v>       0.01161830       0.00591011       0.00953976 </v>
   <v>      -0.00689997      -0.00010089       0.00736551 </v>
   <v>      -0.00080797      -0.00317052       0.01081719 </v>
   <v>      -0.00571940       0.01297646      -0.00850223 </v>
   <v>      -0.00751103       0.00474442       0.00177594 </v>
   <v>      -0.00534632       0.01208312       0.00468506 </v>
   <v>       0.00013874      -0.00046845       0.00223898 </v>
   <v>       0.00099365       0.00542662       0.00536887 </v>
   <v>      -0.00294765       0.00814401      -0.00318934 </v>
   <v>       0.00381735       0.00483768      -0.00000851 </v>
   <v>       0.00998710       0.00343664       0.00148787 </v>
   <v>      -0.00054170      -0.00275605       0.00550415 </v>
   <v>       0.01108588       0.00588705       0.00695353 </v>
   <v>       0.00469451      -0.00326562       0.00990820 </v>
   <v>      -0.01309789      -0.00842457      -0.01129135 </v>
   <v>      -0.00139595       0.00199764      -0.00421885 </v>
[...]
       <r>   -17.0994     0.0000    32.0000 </r>
       <r>   -16.9459     0.0000    32.0000 </r>
       <r>   -16.7924     0.0000    32.0000 </r>
       <r>   -16.6389     0.0000    32.0000 </r>
       <r>   -16.4854     0.0000    32.0000 </r>
       <r>   -16.3319     0.0000    32.0000 </r>
       <r>   -16.1784     0.0000    32.0000 </r>
       <r>   -16.0249     0.0000    32.0000 </r>
       <r>   -15.8714     0.0000    32.0000 </r>
       <r>   -15.7179     0.0000    32.0000 </r>
       <r>   -15.5645     0.0000    32.0000 </r>
       <r>   -15.4110     0.0000    32.0000 </r>
       <r>   -15.2575     0.0096    32.0015 </r>
       <r>   -15.1040    14.7720    34.2689 </r>
       <r>   -14.9505    27.9397    38.5576 </r>
       <r>   -14.7970    49.1631    46.1040 </r>
       <r>   -14.6435    47.3159    53.3669 </r>
       <r>   -14.4900    37.0627    59.0559 </r>
       <r>   -14.3365    41.4874    65.4241 </r>
       <r>   -14.1830    62.2480    74.9790 </r>
       <r>   -14.0295    96.1973    89.7450 </r>
       <r>   -13.8760    86.8937   103.0830 </r>
       <r>   -13.7225    66.2026   113.2449 </r>
       <r>   -13.5690    42.7111   119.8009 </r>
       <r>   -13.4155     1.2968   120.0000 </r>
       <r>   -13.2620     0.0000   120.0000 </r>
       <r>   -13.1085     0.0000   120.0000 </r>
       <r>   -12.9550     0.0000   120.0000 </r>
       <r>   -12.8015     5.1400   120.7890 </r>
       <r>   -12.6480    61.0357   130.1578 </r>
       <r>   -12.4945   130.0379   150.1182 </r>
       <r>   -12.3410   124.1574   169.1761 </r>
       <r>   -12.1875   107.8553   185.7316 </r>
       <r>   -12.0340   100.2792   201.1242 </r>
       <r>   -11.8805    67.8710   211.5422 </r>
       <r>   -11.7270    26.1588   215.5575 </r>
       <r>   -11.5735     2.8829   216.0000 </r>
       <r>   -11.4200     0.0000   216.0000 </r>
       <r>   -11.2665     0.0000   216.0000 </r>
       <r>   -11.1130     0.0000   216.0000 </r>
       <r>   -10.9595     0.0000   216.0000 </r>
       <r>   -10.8060     0.0000   216.0000 </r>
       <r>   -10.6525     0.0000   216.0000 </r>
       <r>   -10.4990     0.0000   216.0000 </r>
       <r>   -10.3455     0.0000   216.0000 </r>
       <r>   -10.1920     0.0000   216.0000 </r>
       <r>   -10.0385     0.0000   216.0000 </r>
       <r>    -9.8850     0.0000   216.0000 </r>
       <r>    -9.7316     0.0000   216.0000 </r>
       <r>    -9.5781     0.0000   216.0000 </r>
       <r>    -9.4246     0.0000   216.0000 </r>
       <r>    -9.2711     0.0000   216.0000 </r>
       <r>    -9.1176     0.0000   216.0000 </r>
       <r>    -8.9641     0.0000   216.0000 </r>
       <r>    -8.8106     0.0000   216.0000 </r>
       <r>    -8.6571     0.0000   216.0000 </r>
       <r>    -8.5036     0.0000   216.0000 </r>
       <r>    -8.3501     0.0000   216.0000 </r>
       <r>    -8.1966     0.0000   216.0000 </r>
       <r>    -8.0431     0.0000   216.0000 </r>
       <r>    -7.8896     0.0000   216.0000 </r>
       <r>    -7.7361     0.0000   216.0000 </r>
       <r>    -7.5826     0.0000   216.0000 </r>
       <r>    -7.4291     0.0000   216.0000 </r>
       <r>    -7.2756     0.0000   216.0000 </r>
       <r>    -7.1221     0.0000   216.0000 </r>
       <r>    -6.9686     0.0000   216.0000 </r>
       <r>    -6.8151     0.0000   216.0000 </r>
       <r>    -6.6616     0.0000   216.0000 </r>
       <r>    -6.5081     0.0000   216.0000 </r>
       <r>    -6.3546     0.0000   216.0000 </r>
       <r>    -6.2011     0.0000   216.0000 </r>
       <r>    -6.0476     0.0000   216.0000 </r>
       <r>    -5.8941     0.0000   216.0000 </r>
       <r>    -5.7406     0.0000   216.0000 </r>
       <r>    -5.5871     0.0000   216.0000 </r>
       <r>    -5.4336     0.0000   216.0000 </r>
       <r>    -5.2801     0.0000   216.0000 </r>
       <r>    -5.1266     0.0000   216.0000 </r>
       <r>    -4.9731     0.0000   216.0000 </r>
       <r>    -4.8196     0.0000   216.0000 </r>
       <r>    -4.6661     0.0006   216.0001 </r>
       <r>    -4.5126     5.4469   216.8362 </r>
       <r>    -4.3591     7.5796   217.9996 </r>
       <r>    -4.2056     7.0933   219.0884 </r>
       <r>    -4.0522    12.4319   220.9967 </r>
       <r>    -3.8987     0.0215   221.0000 </r>
       <r>    -3.7452     0.0000   221.0000 </r>
       <r>    -3.5917     0.0000   221.0000 </r>
       <r>    -3.4382     0.0000   221.0000 </r>
       <r>    -3.2847     0.0000   221.0000 </r>
       <r>    -3.1312     0.0000   221.0000 </r>
       <r>    -2.9777     0.0000   221.0000 </r>
       <r>    -2.8242     0.0000   221.0000 </r>
       <r>    -2.6707     0.0000   221.0000 </r>
       <r>    -2.5172     0.0106   221.0016 </r>
       <r>    -2.3637     6.2447   221.9602 </r>
       <r>    -2.2102    20.7646   225.1475 </r>
       <r>    -2.0567    29.5788   229.6878 </r>
       <r>    -1.9032    30.6162   234.3873 </r>
       <r>    -1.7497    29.2166   238.8719 </r>
       <r>    -1.5962    28.1311   243.1900 </r>
       <r>    -1.4427    47.4611   250.4751 </r>
       <r>    -1.2892    51.6013   258.3958 </r>
       <r>    -1.1357    67.5595   268.7660 </r>
       <r>    -0.9822    79.5632   280.9788 </r>
       <r>    -0.8287    76.6005   292.7367 </r>
       <r>    -0.6752    83.9889   305.6288 </r>
       <r>    -0.5217    98.0841   320.6845 </r>
       <r>    -0.3682    86.6333   333.9824 </r>
       <r>    -0.2147    65.6611   344.0613 </r>
       <r>    -0.0612    55.7578   352.6199 </r>
       <r>     0.0923    45.8869   359.6635 </r>
       <r>     0.2458    56.1706   368.2855 </r>
       <r>     0.3993    60.4121   377.5586 </r>
       <r>     0.5528    61.6611   387.0234 </r>
       <r>     0.7063    53.8969   395.2964 </r>
       <r>     0.8598    51.5049   403.2023 </r>
       <r>     1.0133    53.7053   411.4459 </r>
       <r>     1.1668    64.3207   421.3190 </r>
       <r>     1.3203    83.0396   434.0653 </r>
       <r>     1.4738    78.8572   446.1697 </r>
       <r>     1.6273    79.6263   458.3921 </r>
       <r>     1.7807    67.8716   468.8102 </r>
       <r>     1.9342    46.6598   475.9724 </r>
       <r>     2.0877    36.0837   481.5112 </r>
       <r>     2.2412    16.1724   483.9936 </r>
       <r>     2.3947     6.4863   484.9892 </r>
       <r>     2.5482     0.0703   485.0000 </r>
       <r>     2.7017     0.0000   485.0000 </r>
       <r>     2.8552     0.0000   485.0000 </r>
       <r>     3.0087     0.0000   485.0000 </r>
       <r>     3.1622     0.0000   485.0000 </r>
       <r>     3.3157     0.0000   485.0000 </r>
       <r>     3.4692     0.0000   485.0000 </r>
       <r>     3.6227     0.0000   485.0000 </r>
       <r>     3.7762     0.0000   485.0000 </r>
       <r>     3.9297     0.0000   485.0000 </r>
       <r>     4.0832     0.0000   485.0000 </r>
       <r>     4.2367     0.0000   485.0000 </r>
       <r>     4.3902     0.3531   485.0542 </r>
       <r>     4.5437    32.3529   490.0203 </r>
       <r>     4.6972    50.0011   497.6953 </r>
       <r>     4.8507    50.6233   505.4659 </r>
       <r>     5.0042    59.2943   514.5674 </r>
       <r>     5.1577    76.6062   526.3262 </r>
       <r>     5.3112    83.4144   539.1301 </r>
       <r>     5.4647    70.3220   549.9243 </r>
       <r>     5.6182    56.0568   558.5289 </r>
       <r>     5.7717    60.2407   567.7757 </r>
       <r>     5.9252    74.2290   579.1697 </r>
       <r>     6.0787    97.3152   594.1073 </r>
       <r>     6.2322    69.0498   604.7062 </r>
       <r>     6.3857    21.3104   607.9773 </r>
       <r>     6.5392     1.0071   608.1319 </r>
       <r>     6.6927    12.3229   610.0235 </r>
       <r>     6.8462    15.0668   612.3362 </r>
       <r>     6.9997    18.1100   615.1160 </r>
       <r>     7.1532    15.2321   617.4541 </r>
       <r>     7.3067    17.6009   620.1558 </r>
       <r>     7.4601    15.4983   622.5347 </r>
       <r>     7.6136    17.0785   625.1562 </r>
       <r>     7.7671    20.8812   628.3614 </r>
       <r>     7.9206    20.1522   631.4547 </r>
       <r>     8.0741    29.2396   635.9429 </r>
       <r>     8.2276    25.9924   639.9327 </r>
       <r>     8.3811    25.0439   643.7769 </r>
       <r>     8.5346    28.6255   648.1708 </r>
       <r>     8.6881    35.0872   653.5566 </r>
       <r>     8.8416    30.9944   658.3142 </r>
       <r>     8.9951    29.6544   662.8660 </r>
       <r>     9.1486    33.4778   668.0048 </r>
       <r>     9.3021    37.9486   673.8298 </r>
       <r>     9.4556    41.7230   680.2342 </r>
       <r>     9.6091    49.1693   687.7815 </r>
       <r>     9.7626    53.7342   696.0296 </r>
       <r>     9.9161    56.6249   704.7214 </r>
       <r>    10.0696    58.3855   713.6834 </r>
       <r>    10.2231    53.7018   721.9265 </r>
       <r>    10.3766    52.8943   730.0456 </r>
       <r>    10.5301    57.8214   738.9210 </r>
       <r>    10.6836    54.1648   747.2352 </r>
       <r>    10.8371    55.8886   755.8139 </r>
       <r>    10.9906    58.4263   764.7822 </r>
       <r>    11.1441    20.9521   767.9983 </r>
       <r>    11.2976     0.0109   768.0000 </r>
       <r>    11.4511     0.0000   768.0000 </r>
       <r>    11.6046     0.0000   768.0000 </r>
       <r>    11.7581     0.0000   768.0000 </r>
       <r>    11.9116     0.0000   768.0000 </r>
       <r>    12.0651     0.0000   768.0000 </r>
       <r>    12.2186     0.0000   768.0000 </r>
       <r>    12.3721     0.0000   768.0000 </r>
       <r>    12.5256     0.0000   768.0000 </r>
       <r>    12.6791     0.0000   768.0000 </r>
       <r>    12.8326     0.0000   768.0000 </r>
       <r>    12.9861     0.0000   768.0000 </r>
       <r>    13.1395     0.0000   768.0000 </r>
      </set>
     </set>
    </array>
   </total>
  </dos>
 </calculation>
 <structure name="finalpos" >
  <crystal>
   <varray name="basis" >
    <v>      11.24460689      -0.01057227      -0.00882283 </v>
    <v>      -0.01086341      11.29218588      -0.02536346 </v>
    <v>      -0.01246929      -0.03545527      15.82854446 </v>
   </varray>
   <i name="volume">   2009.83510797 </i>
   <varray name="rec_basis" >
    <v>       0.08893166       0.00008571       0.00007025 </v>
    <v>       0.00008342       0.08855734       0.00019843 </v>
    <v>       0.00004970       0.00014195       0.06317736 </v>
   </varray>
  </crystal>
  <varray name="positions" >
   <v>       0.99864750       0.24526724       0.11839536 </v>
   <v>       0.99761795       0.24793658       0.63239477 </v>
   <v>       0.99838056       0.75780224       0.11778703 </v>
   <v>       0.00804047       0.75164097       0.63437633 </v>
   <v>       0.50078317       0.25899339       0.12525587 </v>
   <v>       0.50271036       0.24813116       0.62976030 </v>
   <v>       0.51141055       0.75219437       0.12004030 </v>
   <v>       0.49387048       0.75795329       0.63048465 </v>
   <v>       0.99991147       0.24042097       0.38356956 </v>
   <v>       0.99987168       0.25041381       0.86985203 </v>
   <v>       0.01161722       0.76345165       0.37238110 </v>
   <v>       0.99495216       0.75730144       0.87210167 </v>
   <v>       0.50094029       0.23659765       0.38023095 </v>
   <v>       0.50020478       0.25306654       0.86988457 </v>
   <v>       0.48904741       0.75892422       0.38500348 </v>
   <v>       0.51817929       0.75234405       0.86498984 </v>
   <v>       0.24853059       0.99191041       0.11866817 </v>
   <v>       0.25519036       0.00791844       0.62726539 </v>
   <v>       0.24698571       0.50079183       0.11977112 </v>
   <v>       0.25313241       0.49237078       0.63029982 </v>
   <v>       0.75566366       0.98752191       0.12087656 </v>
   <v>       0.74581124       0.00991396       0.63002722 </v>
   <v>       0.75221377       0.50633534       0.11420129 </v>
   <v>       0.75303495       0.49745828       0.63293220 </v>
   <v>       0.25656742       0.99175220       0.38251722 </v>
   <v>       0.24569453       0.01417368       0.86623296 </v>
   <v>       0.23263226       0.49891990       0.38466613 </v>
   <v>       0.24978860       0.49126253       0.86930320 </v>
   <v>       0.74827276      -0.00004460       0.37849125 </v>
   <v>       0.75525708       0.00109826       0.86862510 </v>
   <v>       0.73472921       0.48594316       0.37211576 </v>
   <v>       0.75383362       0.50082945       0.86999972 </v>
   <v>       0.75215972       0.74955314       0.25394289 </v>
   <v>       0.99936947       0.99456449       0.24863978 </v>
   <v>       0.25131065       0.25072613       0.99973024 </v>
   <v>       0.50180018       0.50263586       0.75043052 </v>
   <v>       0.75036173       0.25346354       0.00174248 </v>
   <v>       0.25809304       0.25162902       0.49960605 </v>
   <v>       0.00200403       0.50231449       0.75183644 </v>
   <v>      -0.00000866       0.00100094       0.74837408 </v>
   <v>       0.49982094       0.00170579       0.75159391 </v>
   <v>       0.75228242       0.75244728       0.99640058 </v>
   <v>       0.50127308       0.50485349       0.99557384 </v>
   <v>       0.74779109       0.25399413       0.50016702 </v>
   <v>       0.24450835       0.74744153       0.50054170 </v>
   <v>       0.00011741       0.49549376       0.00009525 </v>
   <v>       0.25207981       0.74882401       0.25162687 </v>
   <v>       0.49723171       0.98839264       0.24865241 </v>
   <v>       0.49652961       0.52698752       0.24057611 </v>
   <v>       0.99962564       0.00890065       0.99850333 </v>
   <v>       0.25203763       0.25145254       0.74842154 </v>
   <v>       0.50034077       0.00249468       0.50183681 </v>
   <v>       0.00768184       0.48558954       0.50702967 </v>
   <v>       0.49436222       0.49817997       0.50869891 </v>
   <v>       0.24776116       0.73333006       0.00841821 </v>
   <v>       0.51436895       0.01410298       0.00307469 </v>
   <v>       0.24450196       0.21721149       0.25109122 </v>
   <v>       0.01287868       0.01187884       0.50073273 </v>
   <v>       0.74969914       0.25191914       0.75118403 </v>
   <v>       0.75539531       0.74966215       0.74557095 </v>
   <v>       0.72298002       0.74278791       0.49699854 </v>
   <v>       0.74056830       0.22087834       0.24872745 </v>
   <v>       0.25105977       0.74819344       0.74226953 </v>
   <v>       0.99233930       0.52682731       0.24587043 </v>
   <v>       0.09248458       0.14670361       0.25009105 </v>
   <v>       0.12113276       0.12948091       0.74259380 </v>
   <v>       0.10553175       0.65012855       0.24507954 </v>
   <v>       0.12501058       0.63380517       0.76926075 </v>
   <v>       0.59952631       0.13085966       0.24085244 </v>
   <v>       0.62306155       0.86933646       0.00036593 </v>
   <v>       0.60619501       0.64792464       0.26879913 </v>
   <v>       0.62306525       0.63258477       0.74120492 </v>
   <v>       0.56089590       0.38808842       0.27685328 </v>
   <v>       0.38123887       0.37420359       0.75344276 </v>
   <v>       0.37801489       0.86842602       0.75361563 </v>
   <v>       0.00389636       0.47390733       0.13291867 </v>
   <v>       0.88189646       0.37220425       0.75065980 </v>
   <v>       0.89708466       0.84895840       0.24445479 </v>
   <v>       0.88114939       0.87191085       0.75228628 </v>
   <v>       0.35377472       0.09208767       0.24884441 </v>
   <v>       0.34215337       0.58744981       0.26240571 </v>
   <v>       0.37209319       0.62475037       0.76478518 </v>
   <v>       0.85585512       0.09630219       0.24318883 </v>
   <v>       0.87106037       0.12213659       0.74993027 </v>
   <v>       0.87442841       0.62033106       0.75461916 </v>
   <v>       0.25470941       0.27289966       0.36224435 </v>
   <v>       0.13087254       0.38200066       0.74722546 </v>
   <v>       0.14758831       0.89390745       0.25272198 </v>
   <v>       0.13210086       0.87884713       0.75262695 </v>
   <v>       0.98629585       0.98839387       0.37649087 </v>
   <v>       0.62996738       0.38238583       0.74736235 </v>
   <v>       0.64720054       0.88897705       0.25372113 </v>
   <v>       0.63165623       0.87939921       0.74253368 </v>
   <v>       0.36447424       0.39377408       0.99697726 </v>
   <v>       0.37053463       0.38238982       0.48902134 </v>
   <v>       0.17293846       0.87037586       0.97534667 </v>
   <v>       0.86554038       0.38375521       0.99882106 </v>
   <v>       0.87994888       0.87484143       0.99919514 </v>
   <v>       0.61886677       0.61297329       0.47865547 </v>
   <v>       0.13480972       0.12433000       0.01283582 </v>
   <v>       0.13908013       0.12069053       0.49126528 </v>
   <v>       0.48738050       0.51694859       0.12179707 </v>
   <v>       0.10033385       0.62369591       0.48415462 </v>
   <v>       0.63563529       0.12610909       0.02243369 </v>
   <v>       0.63296443       0.12393914       0.49253902 </v>
   <v>       0.63575834       0.61868891       0.00048517 </v>
   <v>       0.85948758       0.40379483       0.49876648 </v>
   <v>       0.11744208       0.36567671       0.00292643 </v>
   <v>       0.11965407       0.36345663       0.50464214 </v>
   <v>       0.11023522       0.86505555       0.50336501 </v>
   <v>       0.61411878       0.37091129       0.00816034 </v>
   <v>       0.61340200       0.36885125       0.49101439 </v>
   <v>       0.01140341       0.44994697       0.34646293 </v>
   <v>       0.84016842       0.59503620       0.25094692 </v>
   <v>       0.38147523       0.13513517       0.00894653 </v>
   <v>       0.37971333       0.13001995       0.49308284 </v>
   <v>       0.37289672       0.12194758       0.75301680 </v>
   <v>       0.36754668       0.62178259       0.48730243 </v>
   <v>       0.87846362       0.13415996       0.00898323 </v>
   <v>       0.87999206       0.13278843       0.49892028 </v>
   <v>       0.88510835       0.62847276       0.00770634 </v>
   <v>       0.62646580       0.87660734       0.50509967 </v>
   <v>       0.01174813       0.98432226       0.12347230 </v>
   <v>       0.98901356       0.99433848       0.62165922 </v>
   <v>       0.49710244       0.99188935       0.37294279 </v>
   <v>       0.00287973       0.51451071       0.62699008 </v>
   <v>       0.48130740       0.97203419       0.12096265 </v>
   <v>       0.62042771       0.12823859       0.75322662 </v>
   <v>       0.26319554       0.25103714       0.62117808 </v>
   <v>       0.39890239       0.84115025       0.25311297 </v>
   <v>       0.00285572       0.01068661       0.87569685 </v>
   <v>       0.48962443       0.50726465       0.62634574 </v>
   <v>       0.00022499       0.49321723       0.87868158 </v>
   <v>       0.36417047       0.87401380       0.50597353 </v>
   <v>       0.49616738       0.99533761       0.88137366 </v>
   <v>       0.39042088       0.65620242       0.97999359 </v>
   <v>       0.51541845       0.49787423       0.87498416 </v>
   <v>       0.49481730       0.00663023       0.62643095 </v>
   <v>       0.24671088       0.24769689       0.87849213 </v>
   <v>       0.24650685       0.75700183       0.37483685 </v>
   <v>       0.13234886       0.61357085       0.00227344 </v>
   <v>       0.76323908       0.26030561       0.36471909 </v>
   <v>       0.74294311       0.24735617       0.88114299 </v>
   <v>       0.78742078       0.75894946       0.38625520 </v>
   <v>       0.75194348       0.74732856       0.87523607 </v>
   <v>       0.26229671       0.28474075       0.14314689 </v>
   <v>       0.26411661       0.75249586       0.12617430 </v>
   <v>       0.24571716       0.72614184       0.62279527 </v>
   <v>       0.76231512       0.28618241       0.14132622 </v>
   <v>       0.74773138       0.25325713       0.62177372 </v>
   <v>       0.74641338       0.74730793       0.12904489 </v>
   <v>       0.78839173       0.73233881       0.60524961 </v>
  </varray>
 </structure>
</modeling>
