<?xml version="1.0" encoding="ISO-8859-1"?>
<modeling>
 <generator>
  <i name="program" type="string">vasp </i>
  <i name="version" type="string">5.4.1  </i>
  <i name="subversion" type="string">05Feb16 (build Jan 25 2017 20:16:33) complex                          parallel </i>
  <i name="platform" type="string">BWXE6 </i>
  <i name="date" type="string">2019 06 18 </i>
  <i name="time" type="string">09:36:53 </i>
 </generator>
 <incar>
  <i type="string" name="SYSTEM"> STF</i>
  <i type="string" name="PREC">normal</i>
  <i type="string" name="ALGO"> Fast</i>
  <i type="int" name="ISPIN">     2</i>
  <i type="int" name="NELM">    40</i>
  <i type="int" name="NELMIN">     8</i>
  <i type="int" name="IBRION">     2</i>
  <i name="EDIFF">      0.00010000</i>
  <i name="EDIFFG">     -0.03000000</i>
  <i type="int" name="NSW">    30</i>
  <i type="int" name="ISIF">     3</i>
  <i name="ENCUT">    520.00000000</i>
  <i type="int" name="NBANDS">   768</i>
  <v name="MAGMOM">      0.60000000      0.60000000      0.60000000      0.60000000      0.60000000      0.60000000      0.60000000      0.60000000      0.60000000      0.60000000      0.60000000      0.60000000      0.60000000      0.60000000      0.60000000      0.60000000      0.60000000      0.60000000      0.60000000      0.60000000
      0.60000000      0.60000000      0.60000000      0.60000000      0.60000000      0.60000000      0.60000000      0.60000000      0.60000000      0.60000000      0.60000000      0.60000000      0.60000000      0.60000000      0.60000000      0.60000000      0.60000000      0.60000000      0.60000000      0.60000000
      0.60000000      0.60000000      0.60000000      0.60000000      0.60000000      0.60000000      0.60000000      0.60000000      0.60000000      0.60000000      0.60000000      0.60000000      5.00000000      5.00000000      5.00000000      5.00000000      5.00000000      5.00000000      5.00000000      5.00000000
      5.00000000      5.00000000      5.00000000      5.00000000      0.60000000      0.60000000      0.60000000      0.60000000      0.60000000      0.60000000      0.60000000      0.60000000      0.60000000      0.60000000      0.60000000      0.60000000      0.60000000      0.60000000      0.60000000      0.60000000
      0.60000000      0.60000000      0.60000000      0.60000000      0.60000000      0.60000000      0.60000000      0.60000000      0.60000000      0.60000000      0.60000000      0.60000000      0.60000000      0.60000000      0.60000000      0.60000000      0.60000000      0.60000000      0.60000000      0.60000000
      0.60000000      0.60000000      0.60000000      0.60000000      0.60000000      0.60000000      0.60000000      0.60000000      0.60000000      0.60000000      0.60000000      0.60000000      0.60000000      0.60000000      0.60000000      0.60000000      0.60000000      0.60000000      0.60000000      0.60000000
      0.60000000      0.60000000      0.60000000      0.60000000      0.60000000      0.60000000      0.60000000      0.60000000      0.60000000      0.60000000      0.60000000      0.60000000      0.60000000      0.60000000      0.60000000      0.60000000      0.60000000      0.60000000      0.60000000      0.60000000
      0.60000000      0.60000000      0.60000000      0.60000000      0.60000000      0.60000000      0.60000000      0.60000000      0.60000000      0.60000000      0.60000000      0.60000000      0.60000000      0.60000000</v>
  <i type="string" name="LREAL"> Auto</i>
  <i type="int" name="ISMEAR">     0</i>
  <i name="SIGMA">      0.05000000</i>
  <i type="int" name="LMAXMIX">     4</i>
  <v type="int" name="KPOINT_BSE">    -1     0     0     0</v>
  <i type="int" name="NELM">    40</i>
  <i type="logical" name="LDAU"> T  </i>
  <v type="int" name="LDAUTYPE">     2</v>
  <v type="int" name="LDAUL">     0     2     2     0</v>
  <v name="LDAUU">      0.00000000      3.00000000      5.00000000      0.00000000</v>
  <v name="LDAUJ">      0.00000000      0.00000000      0.00000000      0.00000000</v>
  <i type="int" name="LDAUPRINT">     1</i>
 </incar>
 <kpoints>
  <generation param="Monkhorst-Pack">
   <v type="int" name="divisions">       2        2        2 </v>
   <v name="usershift">      0.00000000       0.00000000       0.00000000 </v>
   <v name="genvec1">      0.50000000      -0.00000000       0.00000000 </v>
   <v name="genvec2">     -0.00000000       0.50000000       0.00000000 </v>
   <v name="genvec3">      0.00000000      -0.00000000       0.50000000 </v>
   <v name="shift">      0.50000000       0.50000000       0.50000000 </v>
  </generation>
  <varray name="kpointlist" >
   <v>       0.25000000       0.25000000       0.25000000 </v>
   <v>      -0.25000000       0.25000000       0.25000000 </v>
   <v>       0.25000000      -0.25000000       0.25000000 </v>
   <v>      -0.25000000      -0.25000000       0.25000000 </v>
  </varray>
  <varray name="weights" >
   <v>       0.25000000 </v>
   <v>       0.25000000 </v>
   <v>       0.25000000 </v>
   <v>       0.25000000 </v>
  </varray>
 </kpoints>
 <parameters>
  <separator name="general" >
   <i type="string" name="SYSTEM">STF</i>
   <i type="logical" name="LCOMPAT"> F  </i>
  </separator>
  <separator name="electronic" >
   <i type="string" name="PREC">normal</i>
   <i name="ENMAX">    520.00000000</i>
   <i name="ENAUG">    605.39200000</i>
   <i name="EDIFF">      0.00010000</i>
   <i type="int" name="IALGO">    68</i>
   <i type="int" name="IWAVPR">    11</i>
   <i type="int" name="NBANDS">   768</i>
   <i name="NELECT">   1036.00000000</i>
   <i type="int" name="TURBO">     0</i>
   <i type="int" name="IRESTART">     0</i>
   <i type="int" name="NREBOOT">     0</i>
   <i type="int" name="NMIN">     0</i>
   <i name="EREF">      0.00000000</i>
   <separator name="electronic smearing" >
    <i type="int" name="ISMEAR">     0</i>
    <i name="SIGMA">      0.05000000</i>
    <i name="KSPACING">      0.50000000</i>
    <i type="logical" name="KGAMMA"> T  </i>
   </separator>
   <separator name="electronic projectors" >
    <i type="logical" name="LREAL"> T  </i>
    <v name="ROPT">     -0.00050000     -0.00050000     -0.00050000     -0.00050000</v>
    <i type="int" name="LMAXPAW">  -100</i>
    <i type="int" name="LMAXMIX">     4</i>
    <i type="logical" name="NLSPLINE"> F  </i>
   </separator>
   <separator name="electronic startup" >
    <i type="int" name="ISTART">     1</i>
    <i type="int" name="ICHARG">     0</i>
    <i type="int" name="INIWAV">     1</i>
   </separator>
   <separator name="electronic spin" >
    <i type="int" name="ISPIN">     2</i>
    <i type="logical" name="LNONCOLLINEAR"> F  </i>
    <v name="MAGMOM">      0.60000000      0.60000000      0.60000000      0.60000000      0.60000000      0.60000000      0.60000000      0.60000000      0.60000000      0.60000000      0.60000000      0.60000000      0.60000000      0.60000000      0.60000000      0.60000000      0.60000000      0.60000000      0.60000000      0.60000000
      0.60000000      0.60000000      0.60000000      0.60000000      0.60000000      0.60000000      0.60000000      0.60000000      0.60000000      0.60000000      0.60000000      0.60000000      0.60000000      0.60000000      0.60000000      0.60000000      0.60000000      0.60000000      0.60000000      0.60000000
      0.60000000      0.60000000      0.60000000      0.60000000      0.60000000      0.60000000      0.60000000      0.60000000      0.60000000      0.60000000      0.60000000      0.60000000      5.00000000      5.00000000      5.00000000      5.00000000      5.00000000      5.00000000      5.00000000      5.00000000
      5.00000000      5.00000000      5.00000000      5.00000000      0.60000000      0.60000000      0.60000000      0.60000000      0.60000000      0.60000000      0.60000000      0.60000000      0.60000000      0.60000000      0.60000000      0.60000000      0.60000000      0.60000000      0.60000000      0.60000000
      0.60000000      0.60000000      0.60000000      0.60000000      0.60000000      0.60000000      0.60000000      0.60000000      0.60000000      0.60000000      0.60000000      0.60000000      0.60000000      0.60000000      0.60000000      0.60000000      0.60000000      0.60000000      0.60000000      0.60000000
      0.60000000      0.60000000      0.60000000      0.60000000      0.60000000      0.60000000      0.60000000      0.60000000      0.60000000      0.60000000      0.60000000      0.60000000      0.60000000      0.60000000      0.60000000      0.60000000      0.60000000      0.60000000      0.60000000      0.60000000
      0.60000000      0.60000000      0.60000000      0.60000000      0.60000000      0.60000000      0.60000000      0.60000000      0.60000000      0.60000000      0.60000000      0.60000000      0.60000000      0.60000000      0.60000000      0.60000000      0.60000000      0.60000000      0.60000000      0.60000000
      0.60000000      0.60000000      0.60000000      0.60000000      0.60000000      0.60000000      0.60000000      0.60000000      0.60000000      0.60000000      0.60000000      0.60000000      0.60000000      0.60000000</v>
    <i name="NUPDOWN">     -1.00000000</i>
    <i type="logical" name="LSORBIT"> F  </i>
    <v name="SAXIS">      0.00000000      0.00000000      1.00000000</v>
    <i type="logical" name="LSPIRAL"> F  </i>
    <v name="QSPIRAL">      0.00000000      0.00000000      0.00000000</v>
    <i type="logical" name="LZEROZ"> F  </i>
   </separator>
   <separator name="electronic exchange-correlation" >
    <i type="logical" name="LASPH"> F  </i>
    <i type="logical" name="LMETAGGA"> F  </i>
   </separator>
   <separator name="electronic convergence" >
    <i type="int" name="NELM">    40</i>
    <i type="int" name="NELMDL">     0</i>
    <i type="int" name="NELMIN">     8</i>
    <i name="ENINI">    520.00000000</i>
    <separator name="electronic convergence detail" >
     <i type="logical" name="LDIAG"> T  </i>
     <i type="logical" name="LSUBROT"> F  </i>
     <i name="WEIMIN">      0.00100000</i>
     <i name="EBREAK">      0.00000003</i>
     <i name="DEPER">      0.30000000</i>
     <i type="int" name="NRMM">     4</i>
     <i name="TIME">      0.40000000</i>
    </separator>
   </separator>
   <separator name="electronic mixer" >
    <i name="AMIX">      0.40000000</i>
    <i name="BMIX">      1.00000000</i>
    <i name="AMIN">      0.10000000</i>
    <i name="AMIX_MAG">      1.60000000</i>
    <i name="BMIX_MAG">      1.00000000</i>
    <separator name="electronic mixer details" >
     <i type="int" name="IMIX">     4</i>
     <i type="logical" name="MIXFIRST"> F  </i>
     <i type="int" name="MAXMIX">   -45</i>
     <i name="WC">    100.00000000</i>
     <i type="int" name="INIMIX">     1</i>
     <i type="int" name="MIXPRE">     1</i>
     <i type="int" name="MREMOVE">     5</i>
    </separator>
   </separator>
   <separator name="electronic dipolcorrection" >
    <i type="logical" name="LDIPOL"> F  </i>
    <i type="logical" name="LMONO"> F  </i>
    <i type="int" name="IDIPOL">     0</i>
    <i name="EPSILON">      1.00000000</i>
    <v name="DIPOL">   -100.00000000   -100.00000000   -100.00000000</v>
    <i name="EFIELD">      0.00000000</i>
   </separator>
  </separator>
  <separator name="grids" >
   <i type="int" name="NGX">    64</i>
   <i type="int" name="NGY">    64</i>
   <i type="int" name="NGZ">    90</i>
   <i type="int" name="NGXF">   128</i>
   <i type="int" name="NGYF">   128</i>
   <i type="int" name="NGZF">   180</i>
   <i type="logical" name="ADDGRID"> F  </i>
  </separator>
  <separator name="ionic" >
   <i type="int" name="NSW">    30</i>
   <i type="int" name="IBRION">     2</i>
   <i type="int" name="ISIF">     3</i>
   <i name="PSTRESS">      0.00000000</i>
   <i name="EDIFFG">     -0.03000000</i>
   <i type="int" name="NFREE">     1</i>
   <i name="POTIM">      0.50000000</i>
   <i name="SMASS">     -3.00000000</i>
   <i name="SCALEE">      1.00000000</i>
  </separator>
  <separator name="ionic md" >
   <i name="TEBEG">      0.00010000</i>
   <i name="TEEND">      0.00010000</i>
   <i type="int" name="NBLOCK">     1</i>
   <i type="int" name="KBLOCK">    30</i>
   <i type="int" name="NPACO">   256</i>
   <i name="APACO">     16.00000000</i>
  </separator>
  <separator name="symmetry" >
   <i type="int" name="ISYM">     2</i>
   <i name="SYMPREC">      0.00001000</i>
  </separator>
  <separator name="dos" >
   <i type="logical" name="LORBIT"> F  </i>
   <v name="RWIGS">     -1.00000000     -1.00000000     -1.00000000     -1.00000000</v>
   <i type="int" name="NEDOS">   301</i>
   <i name="EMIN">     10.00000000</i>
   <i name="EMAX">    -10.00000000</i>
   <i name="EFERMI">      0.00000000</i>
  </separator>
  <separator name="writing" >
   <i type="int" name="NWRITE">     2</i>
   <i type="logical" name="LWAVE"> T  </i>
   <i type="logical" name="LCHARG"> T  </i>
   <i type="logical" name="LPARD"> F  </i>
   <i type="logical" name="LVTOT"> F  </i>
   <i type="logical" name="LVHAR"> F  </i>
   <i type="logical" name="LELF"> F  </i>
   <i type="logical" name="LOPTICS"> F  </i>
   <v name="STM">      0.00000000      0.00000000      0.00000000      0.00000000      0.00000000      0.00000000      0.00000000</v>
  </separator>
  <separator name="performance" >
   <i type="int" name="NPAR">     2</i>
   <i type="int" name="NSIM">     4</i>
   <i type="int" name="NBLK">    -1</i>
   <i type="logical" name="LPLANE"> T  </i>
   <i type="logical" name="LSCALAPACK"> T  </i>
   <i type="logical" name="LSCAAWARE"> F  </i>
   <i type="logical" name="LSCALU"> F  </i>
   <i type="logical" name="LASYNC"> F  </i>
   <i type="logical" name="LORBITALREAL"> F  </i>
  </separator>
  <separator name="miscellaneous" >
   <i type="int" name="IDIOT">     3</i>
   <i type="logical" name="LMUSIC"> F  </i>
   <v name="POMASS">     87.62000000     47.88000000     55.84700000     16.00000000</v>
   <v name="DARWINR">      0.00000000      0.00000000      0.00000000      0.00000000</v>
   <v name="DARWINV">      1.00000000      1.00000000      1.00000000      1.00000000</v>
   <i type="logical" name="LCORR"> T  </i>
  </separator>
  <i type="logical" name="GGA_COMPAT"> T  </i>
  <i type="logical" name="LBERRY"> F  </i>
  <i type="int" name="ICORELEVEL">     0</i>
  <i type="logical" name="LDAU"> T  </i>
  <v type="int" name="LDAUTYPE">     2</v>
  <v type="int" name="LDAUL">     0</v>
  <v name="LDAUU">      0.00000000</v>
  <v name="LDAUJ">      0.00000000</v>
  <i type="int" name="LDAUPRINT">     1</i>
  <i type="int" name="I_CONSTRAINED_M">     0</i>
  <separator name="electronic exchange-correlation" >
   <i type="string" name="GGA">--</i>
   <i type="int" name="VOSKOWN">     0</i>
   <i type="logical" name="LHFCALC"> F  </i>
   <i type="string" name="PRECFOCK"></i>
   <i type="logical" name="LSYMGRAD"> F  </i>
   <i type="logical" name="LHFONE"> F  </i>
   <i type="logical" name="LRHFCALC"> F  </i>
   <i type="logical" name="LTHOMAS"> F  </i>
   <i type="logical" name="LMODELHF"> F  </i>
   <i name="ENCUT4O">     -1.00000000</i>
   <i type="int" name="EXXOEP">     0</i>
   <i type="int" name="FOURORBIT">     0</i>
   <i name="AEXX">      0.00000000</i>
   <i name="HFALPHA">      0.00000000</i>
   <i name="MCALPHA">      0.00000000</i>
   <i name="ALDAX">      1.00000000</i>
   <i name="AGGAX">      1.00000000</i>
   <i name="ALDAC">      1.00000000</i>
   <i name="AGGAC">      1.00000000</i>
   <i type="int" name="NKREDX">     1</i>
   <i type="int" name="NKREDY">     1</i>
   <i type="int" name="NKREDZ">     1</i>
   <i type="logical" name="SHIFTRED"> F  </i>
   <i type="logical" name="ODDONLY"> F  </i>
   <i type="logical" name="EVENONLY"> F  </i>
   <i type="int" name="LMAXFOCK">     0</i>
   <i type="int" name="NMAXFOCKAE">     0</i>
   <i type="logical" name="LFOCKAEDFT"> F  </i>
   <i name="HFSCREEN">      0.00000000</i>
   <i name="HFSCREENC">      0.00000000</i>
   <i type="int" name="NBANDSGWLOW">     0</i>
  </separator>
  <separator name="vdW DFT" >
   <i type="logical" name="LUSE_VDW"> F  </i>
   <i name="Zab_VDW">     -0.84910000</i>
   <i name="PARAM1">      0.12340000</i>
   <i name="PARAM2">      1.00000000</i>
   <i name="PARAM3">      0.00000000</i>
  </separator>
  <separator name="model GW" >
   <i type="int" name="MODEL_GW">     0</i>
   <i name="MODEL_EPS0">      7.84780508</i>
   <i name="MODEL_ALPHA">      1.00000000</i>
  </separator>
  <separator name="linear response parameters" >
   <i type="logical" name="LEPSILON"> F  </i>
   <i type="logical" name="LRPA"> F  </i>
   <i type="logical" name="LNABLA"> F  </i>
   <i type="logical" name="LVEL"> F  </i>
   <i type="int" name="KINTER">     0</i>
   <i name="CSHIFT">      0.10000000</i>
   <i name="OMEGAMAX">     -1.00000000</i>
   <i name="DEG_THRESHOLD">      0.00200000</i>
  </separator>
  <separator name="orbital magnetization" >
   <i type="logical" name="NUCIND"> F  </i>
   <v name="MAGPOS">      0.00000000      0.00000000      0.00000000</v>
   <i type="logical" name="LNICSALL"> T  </i>
   <i type="logical" name="ORBITALMAG"> F  </i>
   <i type="logical" name="LMAGBLOCH"> F  </i>
   <i type="logical" name="LCHIMAG"> F  </i>
   <i type="logical" name="LGAUGE"> T  </i>
   <i type="int" name="MAGATOM">     0</i>
   <v name="MAGDIPOL">      0.00000000      0.00000000      0.00000000</v>
   <v name="AVECCONST">      0.00000000      0.00000000      0.00000000</v>
  </separator>
  <separator name="response functions" >
   <i type="logical" name="LADDER"> F  </i>
   <i type="logical" name="LFXC"> F  </i>
   <i type="logical" name="LHARTREE"> T  </i>
   <i type="int" name="IBSE">     0</i>
   <v type="int" name="KPOINT">    -1     0     0     0</v>
   <i type="logical" name="LTCTE"> F  </i>
   <i type="logical" name="LTETE"> F  </i>
   <i type="logical" name="LTRIPLET"> F  </i>
   <i type="logical" name="LFXCEPS"> F  </i>
   <i type="logical" name="LFXHEG"> F  </i>
   <i type="int" name="NATURALO">     0</i>
   <i type="logical" name="L2ORDER"> F  </i>
   <i type="logical" name="LUSEW"> F  </i>
   <i name="ENCUTGW">     -2.00000000</i>
   <i name="ENCUTGWSOFT">     -2.00000000</i>
   <i name="ENCUTLF">     -1.00000000</i>
   <i type="int" name="LMAXMP2">    -1</i>
   <i name="SCISSOR">      0.00000000</i>
   <i type="int" name="NOMEGA">     0</i>
   <i type="int" name="NOMEGAR">     0</i>
   <i type="int" name="NBANDSGW">    -1</i>
   <i type="int" name="NBANDSO">    -1</i>
   <i type="int" name="NBANDSV">    -1</i>
   <i type="int" name="NELM">    40</i>
   <i type="int" name="NELMHF">     1</i>
   <i type="int" name="DIM">     3</i>
   <i type="int" name="ANTIRES">     0</i>
   <i name="OMEGAMAX">    -30.00000000</i>
   <i name="OMEGAMIN">    -30.00000000</i>
   <i name="OMEGATL">   -200.00000000</i>
   <i type="int" name="OMEGAGRID">     0</i>
   <i name="CSHIFT">     -0.10000000</i>
   <i type="logical" name="SELFENERGY"> F  </i>
   <i type="logical" name="LSPECTRAL"> F  </i>
   <i type="logical" name="LSPECTRALGW"> F  </i>
   <i type="logical" name="LSINGLES"> F  </i>
   <i type="logical" name="LFERMIGW"> F  </i>
   <i type="logical" name="ODDONLYGW"> F  </i>
   <i type="logical" name="EVENONLYGW"> F  </i>
   <i type="int" name="NKREDLFX">     1</i>
   <i type="int" name="NKREDLFY">     1</i>
   <i type="int" name="NKREDLFZ">     1</i>
   <i type="int" name="MAXMEM">  1800</i>
   <i type="int" name="TELESCOPE">     0</i>
   <i type="int" name="TAUPAR">     1</i>
   <i type="int" name="OMEGAPAR">    -1</i>
   <i name="LAMBDA">      1.00000000</i>
  </separator>
  <separator name="External order field" >
   <i name="OFIELD_KAPPA">      0.00000000</i>
   <v name="OFIELD_K">      0.00000000      0.00000000      0.00000000</v>
   <i name="OFIELD_Q6_NEAR">      0.00000000</i>
   <i name="OFIELD_Q6_FAR">      0.00000000</i>
   <i name="OFIELD_A">      0.00000000</i>
  </separator>
 </parameters>
 <atominfo>
  <atoms>     154 </atoms>
  <types>       4 </types>
  <array name="atoms" >
   <dimension dim="1">ion</dimension>
   <field type="string">element</field>
   <field type="int">atomtype</field>
   <set>
    <rc><c>Sr</c><c>   1</c></rc>
    <rc><c>Sr</c><c>   1</c></rc>
    <rc><c>Sr</c><c>   1</c></rc>
    <rc><c>Sr</c><c>   1</c></rc>
    <rc><c>Sr</c><c>   1</c></rc>
    <rc><c>Sr</c><c>   1</c></rc>
    <rc><c>Sr</c><c>   1</c></rc>
    <rc><c>Sr</c><c>   1</c></rc>
    <rc><c>Sr</c><c>   1</c></rc>
    <rc><c>Sr</c><c>   1</c></rc>
    <rc><c>Sr</c><c>   1</c></rc>
    <rc><c>Sr</c><c>   1</c></rc>
    <rc><c>Sr</c><c>   1</c></rc>
    <rc><c>Sr</c><c>   1</c></rc>
    <rc><c>Sr</c><c>   1</c></rc>
    <rc><c>Sr</c><c>   1</c></rc>
    <rc><c>Sr</c><c>   1</c></rc>
    <rc><c>Sr</c><c>   1</c></rc>
    <rc><c>Sr</c><c>   1</c></rc>
    <rc><c>Sr</c><c>   1</c></rc>
    <rc><c>Sr</c><c>   1</c></rc>
    <rc><c>Sr</c><c>   1</c></rc>
    <rc><c>Sr</c><c>   1</c></rc>
    <rc><c>Sr</c><c>   1</c></rc>
    <rc><c>Sr</c><c>   1</c></rc>
    <rc><c>Sr</c><c>   1</c></rc>
    <rc><c>Sr</c><c>   1</c></rc>
    <rc><c>Sr</c><c>   1</c></rc>
    <rc><c>Sr</c><c>   1</c></rc>
    <rc><c>Sr</c><c>   1</c></rc>
    <rc><c>Sr</c><c>   1</c></rc>
    <rc><c>Sr</c><c>   1</c></rc>
    <rc><c>Ti</c><c>   2</c></rc>
    <rc><c>Ti</c><c>   2</c></rc>
    <rc><c>Ti</c><c>   2</c></rc>
    <rc><c>Ti</c><c>   2</c></rc>
    <rc><c>Ti</c><c>   2</c></rc>
    <rc><c>Ti</c><c>   2</c></rc>
    <rc><c>Ti</c><c>   2</c></rc>
    <rc><c>Ti</c><c>   2</c></rc>
    <rc><c>Ti</c><c>   2</c></rc>
    <rc><c>Ti</c><c>   2</c></rc>
    <rc><c>Ti</c><c>   2</c></rc>
    <rc><c>Ti</c><c>   2</c></rc>
    <rc><c>Ti</c><c>   2</c></rc>
    <rc><c>Ti</c><c>   2</c></rc>
    <rc><c>Ti</c><c>   2</c></rc>
    <rc><c>Ti</c><c>   2</c></rc>
    <rc><c>Ti</c><c>   2</c></rc>
    <rc><c>Ti</c><c>   2</c></rc>
    <rc><c>Ti</c><c>   2</c></rc>
    <rc><c>Ti</c><c>   2</c></rc>
    <rc><c>Fe</c><c>   3</c></rc>
    <rc><c>Fe</c><c>   3</c></rc>
    <rc><c>Fe</c><c>   3</c></rc>
    <rc><c>Fe</c><c>   3</c></rc>
    <rc><c>Fe</c><c>   3</c></rc>
    <rc><c>Fe</c><c>   3</c></rc>
    <rc><c>Fe</c><c>   3</c></rc>
    <rc><c>Fe</c><c>   3</c></rc>
    <rc><c>Fe</c><c>   3</c></rc>
    <rc><c>Fe</c><c>   3</c></rc>
    <rc><c>Fe</c><c>   3</c></rc>
    <rc><c>Fe</c><c>   3</c></rc>
    <rc><c>O </c><c>   4</c></rc>
    <rc><c>O </c><c>   4</c></rc>
    <rc><c>O </c><c>   4</c></rc>
    <rc><c>O </c><c>   4</c></rc>
    <rc><c>O </c><c>   4</c></rc>
    <rc><c>O </c><c>   4</c></rc>
    <rc><c>O </c><c>   4</c></rc>
    <rc><c>O </c><c>   4</c></rc>
    <rc><c>O </c><c>   4</c></rc>
    <rc><c>O </c><c>   4</c></rc>
    <rc><c>O </c><c>   4</c></rc>
    <rc><c>O </c><c>   4</c></rc>
    <rc><c>O </c><c>   4</c></rc>
    <rc><c>O </c><c>   4</c></rc>
    <rc><c>O </c><c>   4</c></rc>
    <rc><c>O </c><c>   4</c></rc>
    <rc><c>O </c><c>   4</c></rc>
    <rc><c>O </c><c>   4</c></rc>
    <rc><c>O </c><c>   4</c></rc>
    <rc><c>O </c><c>   4</c></rc>
    <rc><c>O </c><c>   4</c></rc>
    <rc><c>O </c><c>   4</c></rc>
    <rc><c>O </c><c>   4</c></rc>
    <rc><c>O </c><c>   4</c></rc>
    <rc><c>O </c><c>   4</c></rc>
    <rc><c>O </c><c>   4</c></rc>
    <rc><c>O </c><c>   4</c></rc>
    <rc><c>O </c><c>   4</c></rc>
    <rc><c>O </c><c>   4</c></rc>
    <rc><c>O </c><c>   4</c></rc>
    <rc><c>O </c><c>   4</c></rc>
    <rc><c>O </c><c>   4</c></rc>
    <rc><c>O </c><c>   4</c></rc>
    <rc><c>O </c><c>   4</c></rc>
    <rc><c>O </c><c>   4</c></rc>
    <rc><c>O </c><c>   4</c></rc>
    <rc><c>O </c><c>   4</c></rc>
    <rc><c>O </c><c>   4</c></rc>
    <rc><c>O </c><c>   4</c></rc>
    <rc><c>O </c><c>   4</c></rc>
    <rc><c>O </c><c>   4</c></rc>
    <rc><c>O </c><c>   4</c></rc>
    <rc><c>O </c><c>   4</c></rc>
    <rc><c>O </c><c>   4</c></rc>
    <rc><c>O </c><c>   4</c></rc>
    <rc><c>O </c><c>   4</c></rc>
    <rc><c>O </c><c>   4</c></rc>
    <rc><c>O </c><c>   4</c></rc>
    <rc><c>O </c><c>   4</c></rc>
    <rc><c>O </c><c>   4</c></rc>
    <rc><c>O </c><c>   4</c></rc>
    <rc><c>O </c><c>   4</c></rc>
    <rc><c>O </c><c>   4</c></rc>
    <rc><c>O </c><c>   4</c></rc>
    <rc><c>O </c><c>   4</c></rc>
    <rc><c>O </c><c>   4</c></rc>
    <rc><c>O </c><c>   4</c></rc>
    <rc><c>O </c><c>   4</c></rc>
    <rc><c>O </c><c>   4</c></rc>
    <rc><c>O </c><c>   4</c></rc>
    <rc><c>O </c><c>   4</c></rc>
    <rc><c>O </c><c>   4</c></rc>
    <rc><c>O </c><c>   4</c></rc>
    <rc><c>O </c><c>   4</c></rc>
    <rc><c>O </c><c>   4</c></rc>
    <rc><c>O </c><c>   4</c></rc>
    <rc><c>O </c><c>   4</c></rc>
    <rc><c>O </c><c>   4</c></rc>
    <rc><c>O </c><c>   4</c></rc>
    <rc><c>O </c><c>   4</c></rc>
    <rc><c>O </c><c>   4</c></rc>
    <rc><c>O </c><c>   4</c></rc>
    <rc><c>O </c><c>   4</c></rc>
    <rc><c>O </c><c>   4</c></rc>
    <rc><c>O </c><c>   4</c></rc>
    <rc><c>O </c><c>   4</c></rc>
    <rc><c>O </c><c>   4</c></rc>
    <rc><c>O </c><c>   4</c></rc>
    <rc><c>O </c><c>   4</c></rc>
    <rc><c>O </c><c>   4</c></rc>
    <rc><c>O </c><c>   4</c></rc>
    <rc><c>O </c><c>   4</c></rc>
    <rc><c>O </c><c>   4</c></rc>
    <rc><c>O </c><c>   4</c></rc>
    <rc><c>O </c><c>   4</c></rc>
    <rc><c>O </c><c>   4</c></rc>
    <rc><c>O </c><c>   4</c></rc>
    <rc><c>O </c><c>   4</c></rc>
    <rc><c>O </c><c>   4</c></rc>
    <rc><c>O </c><c>   4</c></rc>
   </set>
  </array>
  <array name="atomtypes" >
   <dimension dim="1">type</dimension>
   <field type="int">atomspertype</field>
   <field type="string">element</field>
   <field>mass</field>
   <field>valence</field>
   <field type="string">pseudopotential</field>
   <set>
    <rc><c>  32</c><c>Sr</c><c>     87.62000000</c><c>     10.00000000</c><c>  PAW_PBE Sr_sv 07Sep2000               </c></rc>
    <rc><c>  20</c><c>Ti</c><c>     47.88000000</c><c>      4.00000000</c><c>  PAW_PBE Ti 08Apr2002                  </c></rc>
    <rc><c>  12</c><c>Fe</c><c>     55.84700000</c><c>      8.00000000</c><c>  PAW_PBE Fe 06Sep2000                  </c></rc>
    <rc><c>  90</c><c>O </c><c>     16.00000000</c><c>      6.00000000</c><c>  PAW_PBE O 08Apr2002                   </c></rc>
   </set>
  </array>
 </atominfo>
 <structure name="initialpos" >
  <crystal>
   <varray name="basis" >
    <v>      11.22841200      -0.03771999       0.00240037 </v>
    <v>      -0.03766979      11.25154367       0.00364425 </v>
    <v>       0.00352268       0.00497078      15.94381248 </v>
   </varray>
   <i name="volume">   2014.26997102 </i>
   <varray name="rec_basis" >
    <v>       0.08906079       0.00029818      -0.00001977 </v>
    <v>       0.00029858       0.08887770      -0.00002778 </v>
    <v>      -0.00001348      -0.00002036       0.06272027 </v>
   </varray>
  </crystal>
  <varray name="positions" >
   <v>       0.99400543       0.25017603       0.12302738 </v>
   <v>       0.00474185       0.25216298       0.62215864 </v>
   <v>       0.00618512       0.75139642       0.11904304 </v>
   <v>       0.00062123       0.74872585       0.61852481 </v>
   <v>       0.51034321       0.24620570       0.12139850 </v>
   <v>       0.49915034       0.26039057       0.62229074 </v>
   <v>       0.49297283       0.74893802       0.11892222 </v>
   <v>       0.49588408       0.73786552       0.61851456 </v>
   <v>       0.98845898       0.24568949       0.37814622 </v>
   <v>       0.00696246       0.25145343       0.88340641 </v>
   <v>       0.00944237       0.76053912       0.37616629 </v>
   <v>       0.99683190       0.74409918       0.88543872 </v>
   <v>       0.51508936       0.25032435       0.36569836 </v>
   <v>       0.49092048       0.25286082       0.88576531 </v>
   <v>       0.49415697       0.74880037       0.37253526 </v>
   <v>       0.50038837       0.74132097       0.88608476 </v>
   <v>       0.25515572       0.99086731       0.12093955 </v>
   <v>       0.24713314       0.99742932       0.61867874 </v>
   <v>       0.25093813       0.51066389       0.11502143 </v>
   <v>       0.24705495       0.50930923       0.62306517 </v>
   <v>       0.74369642       0.99948345       0.12912988 </v>
   <v>       0.76133329       0.98563221       0.61410829 </v>
   <v>       0.74007590       0.50012075       0.11829595 </v>
   <v>       0.75108996       0.51449227       0.61927538 </v>
   <v>       0.25201681       0.98701008       0.37044025 </v>
   <v>       0.25210027       0.00083379       0.88386892 </v>
   <v>       0.24918348       0.52099160       0.37850016 </v>
   <v>       0.24782063       0.50332880       0.88443025 </v>
   <v>       0.75338496       0.00637759       0.36842829 </v>
   <v>       0.74687805       0.98437382       0.88823577 </v>
   <v>       0.74781098       0.49203541       0.37627010 </v>
   <v>       0.74848552       0.51816156       0.88643184 </v>
   <v>       0.99938106       0.99976235       0.00231730 </v>
   <v>       0.00170814       0.50033201       0.49934018 </v>
   <v>       0.50075796       0.99755541       0.00294971 </v>
   <v>       0.50926936       0.98879148       0.50066024 </v>
   <v>       0.50023875       0.49716925       0.49673487 </v>
   <v>       0.24800845       0.25398045       0.00122587 </v>
   <v>       0.75034461       0.25016503       0.00094897 </v>
   <v>       0.75235781       0.24554265       0.49895654 </v>
   <v>       0.75335513       0.74479829       0.49312418 </v>
   <v>       0.25209569       0.25115714       0.75281166 </v>
   <v>       0.25450508       0.75264549       0.24854342 </v>
   <v>       0.25012228       0.74376216       0.75107126 </v>
   <v>       0.75576817       0.27809147       0.75160712 </v>
   <v>       0.75066720       0.75114531       0.74915380 </v>
   <v>       0.00242922       0.00706693       0.25063864 </v>
   <v>       0.01736393       0.99045345       0.74991484 </v>
   <v>       0.98233617       0.50904826       0.24869278 </v>
   <v>       0.00471820       0.50619763       0.75164995 </v>
   <v>       0.49005398       0.98575456       0.74990198 </v>
   <v>       0.49375530       0.50338351       0.75177098 </v>
   <v>       0.00297457       0.99929122       0.49681393 </v>
   <v>       0.99862810       0.50041653       0.00130060 </v>
   <v>       0.49806772       0.49986836       0.00192460 </v>
   <v>       0.24413675       0.26139911       0.51035293 </v>
   <v>       0.24843653       0.74886745       0.99810809 </v>
   <v>       0.24741244       0.75308184       0.50124948 </v>
   <v>       0.74662747       0.74753759       0.01015905 </v>
   <v>       0.25867057       0.23617929       0.23766981 </v>
   <v>       0.75014744       0.25212805       0.24671999 </v>
   <v>       0.75663749       0.76482859       0.25119176 </v>
   <v>       0.50258441       0.99961283       0.25019082 </v>
   <v>       0.47904549       0.48138563       0.25107751 </v>
   <v>       0.11423919       0.15789612       0.26375333 </v>
   <v>       0.10036425       0.14695648       0.75125446 </v>
   <v>       0.12143685       0.62170100       0.25118964 </v>
   <v>       0.10359833       0.64953838       0.74637900 </v>
   <v>       0.62065240       0.13261873       0.24737335 </v>
   <v>       0.60450134       0.64723433       0.74344276 </v>
   <v>       0.34220916       0.37396015       0.27617865 </v>
   <v>       0.39842659       0.35219297       0.75267037 </v>
   <v>       0.38119288       0.86951082       0.25446024 </v>
   <v>       0.40052212       0.84820159       0.74960480 </v>
   <v>       0.89474652       0.35970594       0.25396951 </v>
   <v>       0.90293644       0.35171328       0.75053489 </v>
   <v>       0.89044147       0.86697296       0.24826570 </v>
   <v>       0.89115464       0.86857295       0.74373939 </v>
   <v>       0.36908750       0.11845219       0.24855545 </v>
   <v>       0.36139447       0.10726104       0.75319700 </v>
   <v>       0.38298715       0.62695387       0.25141313 </v>
   <v>       0.35142792       0.60216707       0.75024569 </v>
   <v>       0.86709573       0.11405898       0.24681719 </v>
   <v>       0.85218863       0.60901629       0.24845656 </v>
   <v>       0.85613628       0.60939047       0.74750059 </v>
   <v>       0.14724117       0.39622027       0.74747030 </v>
   <v>       0.13511057       0.88704452       0.25088261 </v>
   <v>       0.15308812       0.89805482       0.74929721 </v>
   <v>       0.62982293       0.38644390       0.25375558 </v>
   <v>       0.64391782       0.39661741       0.74402026 </v>
   <v>       0.62850081       0.87998119       0.26547389 </v>
   <v>       0.64668642       0.91024587       0.74202181 </v>
   <v>       0.36820913       0.37918641       0.99544518 </v>
   <v>       0.38399571       0.34818387       0.48337828 </v>
   <v>       0.36891925       0.88395638       0.99475814 </v>
   <v>       0.36891323       0.88777734       0.50361482 </v>
   <v>       0.86607291       0.37765228       0.98572292 </v>
   <v>       0.86881025       0.37767904       0.51007731 </v>
   <v>       0.86806369       0.88214469       0.01180435 </v>
   <v>       0.86412861       0.87852887       0.48997731 </v>
   <v>       0.13223227       0.11876023       0.99588184 </v>
   <v>       0.16948802       0.11873068       0.48324679 </v>
   <v>       0.12741881       0.62072864       0.00186773 </v>
   <v>       0.12643484       0.61946086       0.50102455 </v>
   <v>       0.63215197       0.11759163       0.00506551 </v>
   <v>       0.62928630       0.11964861       0.50221634 </v>
   <v>       0.62838577       0.61752468       0.99945238 </v>
   <v>       0.62794618       0.61623770       0.50750588 </v>
   <v>       0.11857193       0.36858607       0.99434039 </v>
   <v>       0.12095746       0.36966728       0.49817668 </v>
   <v>       0.11549705       0.87216151       0.99555162 </v>
   <v>       0.11530312       0.86975225       0.50441521 </v>
   <v>       0.62070973       0.36393398       0.99089769 </v>
   <v>       0.62713130       0.36795736       0.51058623 </v>
   <v>       0.61690740       0.86910529       0.99618602 </v>
   <v>       0.61682963       0.86465534       0.49888528 </v>
   <v>       0.38084796       0.13224756       0.00379545 </v>
   <v>       0.37845350       0.62996123       0.00142017 </v>
   <v>       0.37661053       0.61920612       0.49738595 </v>
   <v>       0.88209867       0.13244554       0.00031177 </v>
   <v>       0.88716165       0.13444988       0.50241856 </v>
   <v>       0.87792833       0.62980693       0.00741767 </v>
   <v>       0.88016404       0.62681199       0.49373888 </v>
   <v>       0.01472817       0.01036914       0.12633598 </v>
   <v>       0.99888157       0.01335869       0.62731710 </v>
   <v>       0.00892861       0.48325432       0.13033612 </v>
   <v>       0.99994554       0.50173799       0.62441330 </v>
   <v>       0.50091007       0.99152821       0.12443380 </v>
   <v>       0.48973804       0.02320324       0.62380911 </v>
   <v>       0.49699727       0.48857875       0.12998779 </v>
   <v>       0.48508822       0.49328474       0.62336743 </v>
   <v>       0.99966664       0.00301550       0.37371924 </v>
   <v>       0.98710834       0.00449937       0.87071178 </v>
   <v>       0.00822572       0.48690729       0.37315060 </v>
   <v>       0.00122620       0.50798236       0.87065491 </v>
   <v>       0.48233178       0.02449125       0.38551382 </v>
   <v>       0.50879125       0.01204414       0.86944618 </v>
   <v>       0.51442459       0.50791764       0.37437337 </v>
   <v>       0.50215291       0.50355146       0.87043172 </v>
   <v>       0.25006308       0.24808714       0.87390589 </v>
   <v>       0.24722216       0.75088329       0.37544369 </v>
   <v>       0.24861853       0.74901734       0.87104018 </v>
   <v>       0.75182804       0.24949919       0.37959618 </v>
   <v>       0.73967312       0.20803895       0.85679218 </v>
   <v>       0.73432751       0.72785751       0.37218981 </v>
   <v>       0.75148174       0.75282740       0.86981802 </v>
   <v>       0.23893442       0.26627109       0.12415184 </v>
   <v>       0.26002880       0.24334670       0.62673506 </v>
   <v>       0.24824165       0.75544356       0.12644342 </v>
   <v>       0.25480343       0.74805051       0.62727495 </v>
   <v>       0.75251106       0.26079688       0.12127022 </v>
   <v>       0.74738980       0.20428798       0.64699512 </v>
   <v>       0.72116709       0.74011536       0.13521010 </v>
   <v>       0.75590905       0.75007001       0.62062679 </v>
  </varray>
 </structure>
 <calculation>
  <scstep>
   <time name="dav">  603.38  603.37</time>
   <time name="total">  610.60  610.65</time>
   <energy>
    <i name="alphaZ">   5597.06979401 </i>
    <i name="ewald"> -61069.36392421 </i>
    <i name="hartreedc"> -17444.69696819 </i>
    <i name="XCdc">   3073.51737437 </i>
    <i name="pawpsdc"> 113449.83510274 </i>
    <i name="pawaedc">-112501.33224773 </i>
    <i name="eentropy">     -0.00000000 </i>
    <i name="bandstr">  -7108.71219175 </i>
    <i name="atom">  74916.81196153 </i>
    <i name="e_fr_energy">  -1086.87109923 </i>
    <i name="e_wo_entrp">  -1086.87109923 </i>
    <i name="e_0_energy">  -1086.87109923 </i>
   </energy>
  </scstep>
  <scstep>
   <time name="diag">   64.94   64.96</time>
   <time name="diis">   61.22   61.23</time>
   <time name="orth">   33.56   33.56</time>
   <time name="total">  166.95  167.00</time>
   <energy>
    <i name="e_fr_energy">  -1086.87109911 </i>
    <i name="e_wo_entrp">  -1086.87109911 </i>
    <i name="e_0_energy">  -1086.87109911 </i>
   </energy>
  </scstep>
  <scstep>
   <time name="diag">   64.81   64.86</time>
   <time name="diis">   57.10   57.15</time>
   <time name="orth">   33.58   33.60</time>
   <time name="total">  162.71  162.86</time>
   <energy>
    <i name="e_fr_energy">  -1086.87109939 </i>
    <i name="e_wo_entrp">  -1086.87109939 </i>
    <i name="e_0_energy">  -1086.87109939 </i>
   </energy>
  </scstep>
  <scstep>
   <time name="diag">   64.85   64.86</time>
   <time name="diis">   48.36   48.35</time>
   <time name="orth">   33.57   33.57</time>
   <time name="total">  154.01  154.08</time>
   <energy>
    <i name="e_fr_energy">  -1086.87109957 </i>
    <i name="e_wo_entrp">  -1086.87109957 </i>
    <i name="e_0_energy">  -1086.87109957 </i>
   </energy>
  </scstep>
  <scstep>
   <time name="diag">   64.85   64.86</time>
   <time name="diis">   47.47   47.51</time>
   <time name="orth">   33.55   33.56</time>
   <time name="total">  153.12  153.19</time>
   <energy>
    <i name="e_fr_energy">  -1086.87109965 </i>
    <i name="e_wo_entrp">  -1086.87109965 </i>
    <i name="e_0_energy">  -1086.87109965 </i>
   </energy>
  </scstep>
  <scstep>
   <time name="diag">   64.96   65.02</time>
   <time name="diis">   44.35   44.35</time>
   <time name="orth">   33.48   33.48</time>
   <time name="total">  150.04  150.13</time>
   <energy>
    <i name="e_fr_energy">  -1086.87109968 </i>
    <i name="e_wo_entrp">  -1086.87109968 </i>
    <i name="e_0_energy">  -1086.87109968 </i>
   </energy>
  </scstep>
  <scstep>
   <time name="diag">   64.94   64.95</time>
   <time name="diis">   44.53   44.55</time>
   <time name="orth">   33.45   33.45</time>
   <time name="total">  150.15  150.24</time>
   <energy>
    <i name="e_fr_energy">  -1086.87109970 </i>
    <i name="e_wo_entrp">  -1086.87109970 </i>
    <i name="e_0_energy">  -1086.87109970 </i>
   </energy>
  </scstep>
  <scstep>
   <time name="diag">   65.06   65.09</time>
   <time name="diis">   43.40   43.41</time>
   <time name="orth">   33.46   33.46</time>
   <time name="total">  142.97  143.08</time>
   <energy>
    <i name="alphaZ">   5597.06979401 </i>
    <i name="ewald"> -61069.36392421 </i>
    <i name="hartreedc"> -17444.68984740 </i>
    <i name="XCdc">   3073.51763827 </i>
    <i name="pawpsdc"> 113448.87163363 </i>
    <i name="pawaedc">-112500.36333024 </i>
    <i name="eentropy">     -0.00000000 </i>
    <i name="bandstr">  -7108.72502531 </i>
    <i name="atom">  74916.81196153 </i>
    <i name="e_fr_energy">  -1086.87109971 </i>
    <i name="e_wo_entrp">  -1086.87109971 </i>
    <i name="e_0_energy">  -1086.87109971 </i>
   </energy>
  </scstep>
  <structure>
   <crystal>
    <varray name="basis" >
     <v>      11.22841200      -0.03771999       0.00240037 </v>
     <v>      -0.03766979      11.25154367       0.00364425 </v>
     <v>       0.00352268       0.00497078      15.94381248 </v>
    </varray>
    <i name="volume">   2014.26997102 </i>
    <varray name="rec_basis" >
     <v>       0.08906079       0.00029818      -0.00001977 </v>
     <v>       0.00029858       0.08887770      -0.00002778 </v>
     <v>      -0.00001348      -0.00002036       0.06272027 </v>
    </varray>
   </crystal>
   <varray name="positions" >
    <v>       0.99400543       0.25017603       0.12302738 </v>
    <v>       0.00474185       0.25216298       0.62215864 </v>
    <v>       0.00618512       0.75139642       0.11904304 </v>
    <v>       0.00062123       0.74872585       0.61852481 </v>
    <v>       0.51034321       0.24620570       0.12139850 </v>
    <v>       0.49915034       0.26039057       0.62229074 </v>
    <v>       0.49297283       0.74893802       0.11892222 </v>
    <v>       0.49588408       0.73786552       0.61851456 </v>
    <v>       0.98845898       0.24568949       0.37814622 </v>
    <v>       0.00696246       0.25145343       0.88340641 </v>
    <v>       0.00944237       0.76053912       0.37616629 </v>
    <v>       0.99683190       0.74409918       0.88543872 </v>
    <v>       0.51508936       0.25032435       0.36569836 </v>
    <v>       0.49092048       0.25286082       0.88576531 </v>
    <v>       0.49415697       0.74880037       0.37253526 </v>
    <v>       0.50038837       0.74132097       0.88608476 </v>
    <v>       0.25515572       0.99086731       0.12093955 </v>
    <v>       0.24713314       0.99742932       0.61867874 </v>
    <v>       0.25093813       0.51066389       0.11502143 </v>
    <v>       0.24705495       0.50930923       0.62306517 </v>
    <v>       0.74369642       0.99948345       0.12912988 </v>
    <v>       0.76133329       0.98563221       0.61410829 </v>
    <v>       0.74007590       0.50012075       0.11829595 </v>
    <v>       0.75108996       0.51449227       0.61927538 </v>
    <v>       0.25201681       0.98701008       0.37044025 </v>
    <v>       0.25210027       0.00083379       0.88386892 </v>
    <v>       0.24918348       0.52099160       0.37850016 </v>
    <v>       0.24782063       0.50332880       0.88443025 </v>
    <v>       0.75338496       0.00637759       0.36842829 </v>
    <v>       0.74687805       0.98437382       0.88823577 </v>
    <v>       0.74781098       0.49203541       0.37627010 </v>
    <v>       0.74848552       0.51816156       0.88643184 </v>
    <v>       0.99938106       0.99976235       0.00231730 </v>
    <v>       0.00170814       0.50033201       0.49934018 </v>
    <v>       0.50075796       0.99755541       0.00294971 </v>
    <v>       0.50926936       0.98879148       0.50066024 </v>
    <v>       0.50023875       0.49716925       0.49673487 </v>
    <v>       0.24800845       0.25398045       0.00122587 </v>
    <v>       0.75034461       0.25016503       0.00094897 </v>
    <v>       0.75235781       0.24554265       0.49895654 </v>
    <v>       0.75335513       0.74479829       0.49312418 </v>
    <v>       0.25209569       0.25115714       0.75281166 </v>
    <v>       0.25450508       0.75264549       0.24854342 </v>
    <v>       0.25012228       0.74376216       0.75107126 </v>
    <v>       0.75576817       0.27809147       0.75160712 </v>
    <v>       0.75066720       0.75114531       0.74915380 </v>
    <v>       0.00242922       0.00706693       0.25063864 </v>
    <v>       0.01736393       0.99045345       0.74991484 </v>
    <v>       0.98233617       0.50904826       0.24869278 </v>
    <v>       0.00471820       0.50619763       0.75164995 </v>
    <v>       0.49005398       0.98575456       0.74990198 </v>
    <v>       0.49375530       0.50338351       0.75177098 </v>
    <v>       0.00297457       0.99929122       0.49681393 </v>
    <v>       0.99862810       0.50041653       0.00130060 </v>
    <v>       0.49806772       0.49986836       0.00192460 </v>
    <v>       0.24413675       0.26139911       0.51035293 </v>
    <v>       0.24843653       0.74886745       0.99810809 </v>
    <v>       0.24741244       0.75308184       0.50124948 </v>
    <v>       0.74662747       0.74753759       0.01015905 </v>
    <v>       0.25867057       0.23617929       0.23766981 </v>
    <v>       0.75014744       0.25212805       0.24671999 </v>
    <v>       0.75663749       0.76482859       0.25119176 </v>
    <v>       0.50258441       0.99961283       0.25019082 </v>
    <v>       0.47904549       0.48138563       0.25107751 </v>
    <v>       0.11423919       0.15789612       0.26375333 </v>
    <v>       0.10036425       0.14695648       0.75125446 </v>
    <v>       0.12143685       0.62170100       0.25118964 </v>
    <v>       0.10359833       0.64953838       0.74637900 </v>
    <v>       0.62065240       0.13261873       0.24737335 </v>
    <v>       0.60450134       0.64723433       0.74344276 </v>
    <v>       0.34220916       0.37396015       0.27617865 </v>
    <v>       0.39842659       0.35219297       0.75267037 </v>
    <v>       0.38119288       0.86951082       0.25446024 </v>
    <v>       0.40052212       0.84820159       0.74960480 </v>
    <v>       0.89474652       0.35970594       0.25396951 </v>
    <v>       0.90293644       0.35171328       0.75053489 </v>
    <v>       0.89044147       0.86697296       0.24826570 </v>
    <v>       0.89115464       0.86857295       0.74373939 </v>
    <v>       0.36908750       0.11845219       0.24855545 </v>
    <v>       0.36139447       0.10726104       0.75319700 </v>
    <v>       0.38298715       0.62695387       0.25141313 </v>
    <v>       0.35142792       0.60216707       0.75024569 </v>
    <v>       0.86709573       0.11405898       0.24681719 </v>
    <v>       0.85218863       0.60901629       0.24845656 </v>
    <v>       0.85613628       0.60939047       0.74750059 </v>
    <v>       0.14724117       0.39622027       0.74747030 </v>
    <v>       0.13511057       0.88704452       0.25088261 </v>
    <v>       0.15308812       0.89805482       0.74929721 </v>
    <v>       0.62982293       0.38644390       0.25375558 </v>
    <v>       0.64391782       0.39661741       0.74402026 </v>
    <v>       0.62850081       0.87998119       0.26547389 </v>
    <v>       0.64668642       0.91024587       0.74202181 </v>
    <v>       0.36820913       0.37918641       0.99544518 </v>
    <v>       0.38399571       0.34818387       0.48337828 </v>
    <v>       0.36891925       0.88395638       0.99475814 </v>
    <v>       0.36891323       0.88777734       0.50361482 </v>
    <v>       0.86607291       0.37765228       0.98572292 </v>
    <v>       0.86881025       0.37767904       0.51007731 </v>
    <v>       0.86806369       0.88214469       0.01180435 </v>
    <v>       0.86412861       0.87852887       0.48997731 </v>
    <v>       0.13223227       0.11876023       0.99588184 </v>
    <v>       0.16948802       0.11873068       0.48324679 </v>
    <v>       0.12741881       0.62072864       0.00186773 </v>
    <v>       0.12643484       0.61946086       0.50102455 </v>
    <v>       0.63215197       0.11759163       0.00506551 </v>
    <v>       0.62928630       0.11964861       0.50221634 </v>
    <v>       0.62838577       0.61752468       0.99945238 </v>
    <v>       0.62794618       0.61623770       0.50750588 </v>
    <v>       0.11857193       0.36858607       0.99434039 </v>
    <v>       0.12095746       0.36966728       0.49817668 </v>
    <v>       0.11549705       0.87216151       0.99555162 </v>
    <v>       0.11530312       0.86975225       0.50441521 </v>
    <v>       0.62070973       0.36393398       0.99089769 </v>
    <v>       0.62713130       0.36795736       0.51058623 </v>
    <v>       0.61690740       0.86910529       0.99618602 </v>
    <v>       0.61682963       0.86465534       0.49888528 </v>
    <v>       0.38084796       0.13224756       0.00379545 </v>
    <v>       0.37845350       0.62996123       0.00142017 </v>
    <v>       0.37661053       0.61920612       0.49738595 </v>
    <v>       0.88209867       0.13244554       0.00031177 </v>
    <v>       0.88716165       0.13444988       0.50241856 </v>
    <v>       0.87792833       0.62980693       0.00741767 </v>
    <v>       0.88016404       0.62681199       0.49373888 </v>
    <v>       0.01472817       0.01036914       0.12633598 </v>
    <v>       0.99888157       0.01335869       0.62731710 </v>
    <v>       0.00892861       0.48325432       0.13033612 </v>
    <v>       0.99994554       0.50173799       0.62441330 </v>
    <v>       0.50091007       0.99152821       0.12443380 </v>
    <v>       0.48973804       0.02320324       0.62380911 </v>
    <v>       0.49699727       0.48857875       0.12998779 </v>
    <v>       0.48508822       0.49328474       0.62336743 </v>
    <v>       0.99966664       0.00301550       0.37371924 </v>
    <v>       0.98710834       0.00449937       0.87071178 </v>
    <v>       0.00822572       0.48690729       0.37315060 </v>
    <v>       0.00122620       0.50798236       0.87065491 </v>
    <v>       0.48233178       0.02449125       0.38551382 </v>
    <v>       0.50879125       0.01204414       0.86944618 </v>
    <v>       0.51442459       0.50791764       0.37437337 </v>
    <v>       0.50215291       0.50355146       0.87043172 </v>
    <v>       0.25006308       0.24808714       0.87390589 </v>
    <v>       0.24722216       0.75088329       0.37544369 </v>
    <v>       0.24861853       0.74901734       0.87104018 </v>
    <v>       0.75182804       0.24949919       0.37959618 </v>
    <v>       0.73967312       0.20803895       0.85679218 </v>
    <v>       0.73432751       0.72785751       0.37218981 </v>
    <v>       0.75148174       0.75282740       0.86981802 </v>
    <v>       0.23893442       0.26627109       0.12415184 </v>
    <v>       0.26002880       0.24334670       0.62673506 </v>
    <v>       0.24824165       0.75544356       0.12644342 </v>
    <v>       0.25480343       0.74805051       0.62727495 </v>
    <v>       0.75251106       0.26079688       0.12127022 </v>
    <v>       0.74738980       0.20428798       0.64699512 </v>
    <v>       0.72116709       0.74011536       0.13521010 </v>
    <v>       0.75590905       0.75007001       0.62062679 </v>
   </varray>
  </structure>
  <varray name="forces" >
   <v>       0.00125977      -0.01376001      -0.00215444 </v>
   <v>       0.01936241      -0.01181128       0.00704385 </v>
   <v>      -0.00318126      -0.00028371      -0.00401711 </v>
   <v>       0.00339995       0.00739495      -0.00828603 </v>
   <v>       0.00893635       0.00006691      -0.00236854 </v>
   <v>      -0.01341745       0.00309866       0.00672714 </v>
   <v>       0.00654817       0.00175357       0.00395604 </v>
   <v>      -0.00304073      -0.00372912       0.00156051 </v>
   <v>      -0.00475882       0.00587561      -0.00326517 </v>
   <v>       0.00417957      -0.00425339       0.00288635 </v>
   <v>      -0.00672124      -0.00256104      -0.00195160 </v>
   <v>       0.00694948       0.00771438       0.00722331 </v>
   <v>       0.00888901       0.00002122       0.00956828 </v>
   <v>       0.00027719       0.00847793       0.00390690 </v>
   <v>       0.00346432       0.00309032      -0.01115018 </v>
   <v>      -0.00093710      -0.00335964      -0.00337460 </v>
   <v>      -0.00321740      -0.00332633      -0.00266963 </v>
   <v>      -0.00956275      -0.01664787       0.00408880 </v>
   <v>      -0.00052142      -0.00344793       0.00666120 </v>
   <v>      -0.00069487       0.00803809       0.00496282 </v>
   <v>       0.00045527       0.00039596      -0.00225480 </v>
   <v>      -0.00144800      -0.01351391       0.00304361 </v>
   <v>       0.00078658      -0.00018450       0.00594941 </v>
   <v>       0.00261944      -0.00599392       0.02476381 </v>
   <v>       0.00569852      -0.02082847      -0.00484250 </v>
   <v>       0.00060047      -0.00725538      -0.00504009 </v>
   <v>      -0.01041752      -0.01142810      -0.01783511 </v>
   <v>       0.00156691       0.00186263      -0.00479419 </v>
   <v>       0.00834496      -0.00533941      -0.01246654 </v>
   <v>      -0.00356884       0.00330130      -0.01564287 </v>
   <v>      -0.00210143       0.00460213      -0.00355779 </v>
   <v>       0.00174532       0.00039015       0.00346859 </v>
   <v>       0.00948827      -0.00258291      -0.00535208 </v>
   <v>       0.00972711      -0.00338959      -0.01292908 </v>
   <v>      -0.00339536      -0.00309750      -0.01432456 </v>
   <v>      -0.00536194      -0.00132440      -0.00580832 </v>
   <v>      -0.00542719       0.00559960      -0.02026728 </v>
   <v>      -0.01314777       0.00603638       0.00038279 </v>
   <v>      -0.00115759      -0.00074226       0.00879676 </v>
   <v>      -0.01548402       0.01709842      -0.00148434 </v>
   <v>       0.02843985      -0.00796230      -0.01191374 </v>
   <v>      -0.01151593      -0.00856834       0.00235485 </v>
   <v>       0.00795593      -0.00323752       0.01452937 </v>
   <v>      -0.02667737      -0.01078697       0.01270051 </v>
   <v>      -0.00336858      -0.03648959      -0.01895580 </v>
   <v>      -0.00527281       0.01541471       0.01515497 </v>
   <v>       0.02444394       0.00989547       0.00009900 </v>
   <v>       0.00870839      -0.00354345       0.00382102 </v>
   <v>      -0.01495347      -0.00072189       0.01286881 </v>
   <v>       0.00944199      -0.00743641       0.00357891 </v>
   <v>      -0.00421161      -0.00575547      -0.00442112 </v>
   <v>      -0.00604897       0.00644582       0.01220265 </v>
   <v>       0.00910580      -0.02065565       0.01042979 </v>
   <v>       0.01138546       0.01289078      -0.00098038 </v>
   <v>       0.00136929       0.00993549       0.00722079 </v>
   <v>      -0.01623646      -0.00899719       0.00697554 </v>
   <v>       0.00304730      -0.00257403      -0.01539800 </v>
   <v>      -0.00294929       0.00574491       0.01349466 </v>
   <v>      -0.00679672      -0.00836830      -0.00208308 </v>
   <v>      -0.01885535       0.00780737       0.01356894 </v>
   <v>       0.01056938       0.00933707      -0.00540595 </v>
   <v>      -0.00113615      -0.00617786      -0.00304920 </v>
   <v>      -0.00901288       0.00536602       0.00239186 </v>
   <v>       0.00649943      -0.00851281      -0.00694895 </v>
   <v>      -0.00546978      -0.00389477       0.00956701 </v>
   <v>      -0.00221866       0.00852906      -0.00906925 </v>
   <v>       0.00345013      -0.01632528      -0.00222268 </v>
   <v>      -0.01005296       0.00861460      -0.01608974 </v>
   <v>       0.00670951      -0.00316520       0.00703430 </v>
   <v>       0.00520487      -0.00013978       0.00009635 </v>
   <v>       0.00743508      -0.00221470       0.00477808 </v>
   <v>       0.00134409       0.00740721      -0.00886888 </v>
   <v>      -0.00293095       0.00483385       0.00230985 </v>
   <v>      -0.00416192      -0.00608115       0.01062774 </v>
   <v>       0.01661150       0.00689115       0.00593387 </v>
   <v>       0.01967509      -0.00257418      -0.00494014 </v>
   <v>       0.01124597       0.00897177       0.01063803 </v>
   <v>      -0.01218253       0.00025431       0.00826669 </v>
   <v>       0.01264412      -0.01158906      -0.01596465 </v>
   <v>      -0.00289479       0.00922739      -0.00415530 </v>
   <v>       0.00282021       0.01487749       0.00620409 </v>
   <v>       0.01491327      -0.01601693      -0.00373857 </v>
   <v>      -0.00482653       0.01139048       0.01176112 </v>
   <v>      -0.00472505       0.00203229      -0.00806241 </v>
   <v>       0.00294470       0.01491852      -0.01238975 </v>
   <v>      -0.01500280      -0.01101294       0.00207165 </v>
   <v>      -0.00052097      -0.00010385       0.00872620 </v>
   <v>       0.00406571       0.00504642      -0.00188403 </v>
   <v>       0.00255752      -0.00208729       0.00558124 </v>
   <v>      -0.01214628       0.00826222       0.00303340 </v>
   <v>       0.01216087      -0.01693434       0.00567360 </v>
   <v>      -0.01595836       0.01131618       0.00893009 </v>
   <v>       0.01262845      -0.00161119       0.00416045 </v>
   <v>      -0.00815178      -0.00664670      -0.00095209 </v>
   <v>       0.01560160       0.00310655      -0.00247527 </v>
   <v>       0.00888191       0.01551154      -0.00376050 </v>
   <v>       0.00125191      -0.01091136      -0.00267086 </v>
   <v>      -0.00128365      -0.02556078      -0.00718998 </v>
   <v>       0.00222093       0.00852687      -0.00099953 </v>
   <v>       0.01583318       0.00137726       0.00914338 </v>
   <v>      -0.01078487       0.01030480       0.00689017 </v>
   <v>      -0.00388898      -0.00377728       0.00324688 </v>
   <v>      -0.00824991      -0.00528608       0.00757240 </v>
   <v>       0.00612597      -0.00114175       0.00838129 </v>
   <v>       0.00341654      -0.00185753       0.00235394 </v>
   <v>      -0.01744879       0.02219239       0.00642863 </v>
   <v>       0.00723393       0.00014877       0.00627637 </v>
   <v>      -0.01257718       0.01550733      -0.00241054 </v>
   <v>       0.00313607      -0.00165775      -0.01646229 </v>
   <v>       0.00691973       0.01134312      -0.01490325 </v>
   <v>      -0.00078095       0.00447630       0.00166729 </v>
   <v>       0.00070970      -0.00289445       0.00390779 </v>
   <v>      -0.00393366      -0.01650822      -0.00115672 </v>
   <v>       0.01215940      -0.00252634       0.01166303 </v>
   <v>       0.00694023      -0.01440511      -0.00350154 </v>
   <v>      -0.00187236       0.00333702      -0.01546780 </v>
   <v>       0.00627079      -0.00175194       0.02048795 </v>
   <v>      -0.00340409      -0.00446580      -0.00097639 </v>
   <v>      -0.01346875       0.01745716       0.00164671 </v>
   <v>      -0.00662258      -0.00799049      -0.00179292 </v>
   <v>      -0.01679184       0.00513122      -0.00789748 </v>
   <v>      -0.00025852       0.00138528       0.00002393 </v>
   <v>      -0.00949193      -0.00188620       0.01659092 </v>
   <v>      -0.00198344       0.00355618       0.00296296 </v>
   <v>      -0.01111684       0.00891488       0.00690253 </v>
   <v>       0.00007815      -0.00070696       0.00771197 </v>
   <v>      -0.00179047      -0.01020952      -0.00114632 </v>
   <v>       0.00417083      -0.00164551      -0.00877649 </v>
   <v>       0.00811601       0.00549765      -0.00027291 </v>
   <v>       0.00085480       0.01665079      -0.00431194 </v>
   <v>       0.00741775       0.00242659       0.00075589 </v>
   <v>      -0.00660520      -0.00376646       0.00014402 </v>
   <v>      -0.01048774       0.01348959       0.00675601 </v>
   <v>       0.00993227       0.01084174      -0.02317968 </v>
   <v>      -0.01296192      -0.00144599       0.01847306 </v>
   <v>      -0.01973121       0.00670513       0.00749016 </v>
   <v>       0.01122025       0.01021187      -0.01440180 </v>
   <v>       0.00931490       0.01202607       0.01814760 </v>
   <v>       0.00217771      -0.00162311       0.01154536 </v>
   <v>       0.00200262      -0.01893177      -0.00679063 </v>
   <v>       0.00300161       0.00024537       0.00404290 </v>
   <v>      -0.00526487      -0.00169389       0.00523065 </v>
   <v>      -0.00505680       0.00063329      -0.00164121 </v>
   <v>       0.01308560       0.00195337      -0.01438313 </v>
   <v>      -0.00384209      -0.00777209      -0.00489960 </v>
   <v>       0.00037972       0.00361378       0.00631898 </v>
   <v>      -0.02291966       0.02301414      -0.02628904 </v>
   <v>       0.01614280      -0.00248959      -0.01741675 </v>
   <v>       0.00844005      -0.00917369       0.00547971 </v>
   <v>      -0.00820099       0.00753312      -0.02134510 </v>
   <v>       0.00580180       0.00358645      -0.01002735 </v>
   <v>      -0.00228080       0.00271187       0.00671322 </v>
   <v>       0.00879096       0.00083020       0.00241772 </v>
   <v>      -0.01036489      -0.00335095      -0.00927140 </v>
  </varray>
  <varray name="stress" >
   <v>       0.05362864      -0.02270960       0.04390687 </v>
   <v>      -0.02270929       0.00450862      -0.04642259 </v>
   <v>       0.04390693      -0.04642318      -0.02771847 </v>
  </varray>
  <energy>
   <i name="e_fr_energy">  -1086.87109971 </i>
   <i name="e_wo_entrp">  -1086.87109971 </i>
   <i name="e_0_energy">     -0.00000000 </i>
  </energy>
  <time name="totalsc"> 1955.19 1958.16</time>
 </calculation>
 <calculation>
  <scstep>
   <time name="dav">  581.52  581.56</time>
   <time name="total">  588.72  588.82</time>
   <energy>
    <i name="alphaZ">   5597.00274668 </i>
    <i name="ewald"> -61069.91311248 </i>
    <i name="hartreedc"> -17443.86132783 </i>
    <i name="XCdc">   3073.49844029 </i>
    <i name="pawpsdc"> 113448.86005038 </i>
    <i name="pawaedc">-112500.35175111 </i>
    <i name="eentropy">     -0.00000000 </i>
    <i name="bandstr">  -7108.91807670 </i>
    <i name="atom">  74916.81196153 </i>
    <i name="e_fr_energy">  -1086.87106926 </i>
    <i name="e_wo_entrp">  -1086.87106926 </i>
    <i name="e_0_energy">  -1086.87106926 </i>
   </energy>
  </scstep>
  <scstep>
   <time name="diag">   64.84   64.88</time>
   <time name="diis">  104.42  104.49</time>
   <time name="orth">   33.59   33.60</time>
   <time name="total">  210.09  210.21</time>
   <energy>
    <i name="e_fr_energy">  -1086.87224670 </i>
    <i name="e_wo_entrp">  -1086.87224670 </i>
    <i name="e_0_energy">  -1086.87224670 </i>
   </energy>
  </scstep>
  <scstep>
   <time name="diag">   64.90   64.92</time>
   <time name="diis">   89.69   89.72</time>
   <time name="orth">   33.55   33.55</time>
   <time name="total">  195.37  195.43</time>
   <energy>
    <i name="e_fr_energy">  -1086.87231185 </i>
    <i name="e_wo_entrp">  -1086.87231185 </i>
    <i name="e_0_energy">  -1086.87231185 </i>
   </energy>
  </scstep>
  <scstep>
   <time name="diag">   64.96   65.01</time>
   <time name="diis">   65.01   65.05</time>
   <time name="orth">   33.54   33.54</time>
   <time name="total">  170.75  170.84</time>
   <energy>
    <i name="e_fr_energy">  -1086.87226765 </i>
    <i name="e_wo_entrp">  -1086.87226765 </i>
    <i name="e_0_energy">  -1086.87226765 </i>
   </energy>
  </scstep>
  <scstep>
   <time name="diag">   64.99   65.00</time>
   <time name="diis">   64.06   64.08</time>
   <time name="orth">   33.51   33.51</time>
   <time name="total">  169.79  169.86</time>
   <energy>
    <i name="e_fr_energy">  -1086.87225210 </i>
    <i name="e_wo_entrp">  -1086.87225210 </i>
    <i name="e_0_energy">  -1086.87225210 </i>
   </energy>
  </scstep>
  <scstep>
   <time name="diag">   64.92   64.93</time>
   <time name="diis">   62.64   62.65</time>
   <time name="orth">   33.55   33.56</time>
   <time name="total">  168.36  168.40</time>
   <energy>
    <i name="e_fr_energy">  -1086.87225367 </i>
    <i name="e_wo_entrp">  -1086.87225367 </i>
    <i name="e_0_energy">  -1086.87225367 </i>
   </energy>
  </scstep>
  <scstep>
   <time name="diag">   64.98   64.99</time>
   <time name="diis">   58.90   58.91</time>
   <time name="orth">   33.51   33.51</time>
   <time name="total">  164.63  164.73</time>
   <energy>
    <i name="e_fr_energy">  -1086.87225424 </i>
    <i name="e_wo_entrp">  -1086.87225424 </i>
    <i name="e_0_energy">  -1086.87225424 </i>
   </energy>
  </scstep>
  <scstep>
   <time name="diag">   64.97   64.98</time>
   <time name="diis">   57.01   57.01</time>
   <time name="orth">   33.51   33.51</time>
   <time name="total">  156.53  156.64</time>
   <energy>
    <i name="alphaZ">   5597.00274668 </i>
    <i name="ewald"> -61069.91311248 </i>
    <i name="hartreedc"> -17443.97281198 </i>
    <i name="XCdc">   3073.51197370 </i>
    <i name="pawpsdc"> 113447.98715344 </i>
    <i name="pawaedc">-112499.47381322 </i>
    <i name="eentropy">     -0.00000000 </i>
    <i name="bandstr">  -7108.82635209 </i>
    <i name="atom">  74916.81196153 </i>
    <i name="e_fr_energy">  -1086.87225442 </i>
    <i name="e_wo_entrp">  -1086.87225442 </i>
    <i name="e_0_energy">  -1086.87225442 </i>
   </energy>
  </scstep>
  <structure>
   <crystal>
    <varray name="basis" >
     <v>      11.22864953      -0.03782053       0.00259519 </v>
     <v>      -0.03777115      11.25156392       0.00343785 </v>
     <v>       0.00379841       0.00467926      15.94363840 </v>
    </varray>
    <i name="volume">   2014.29410026 </i>
    <varray name="rec_basis" >
     <v>       0.08905892       0.00029897      -0.00002131 </v>
     <v>       0.00029936       0.08887755      -0.00002616 </v>
     <v>      -0.00001456      -0.00001921       0.06272095 </v>
    </varray>
   </crystal>
   <varray name="positions" >
    <v>       0.99401065       0.25011705       0.12302087 </v>
    <v>       0.00482487       0.25211261       0.62217996 </v>
    <v>       0.00617145       0.75139517       0.11903088 </v>
    <v>       0.00063595       0.74875762       0.61849973 </v>
    <v>       0.51038161       0.24620611       0.12139133 </v>
    <v>       0.49909273       0.26040366       0.62231110 </v>
    <v>       0.49300099       0.74894563       0.11893418 </v>
    <v>       0.49587096       0.73784949       0.61851929 </v>
    <v>       0.98843863       0.24571461       0.37813634 </v>
    <v>       0.00698036       0.25143525       0.88341515 </v>
    <v>       0.00941345       0.76052804       0.37616039 </v>
    <v>       0.99686186       0.74413235       0.88546057 </v>
    <v>       0.51512754       0.25032456       0.36572730 </v>
    <v>       0.49092179       0.25289717       0.88577712 </v>
    <v>       0.49417191       0.74881368       0.37250152 </v>
    <v>       0.50038430       0.74130655       0.88607455 </v>
    <v>       0.25514185       0.99085301       0.12093148 </v>
    <v>       0.24709181       0.99735780       0.61869114 </v>
    <v>       0.25093583       0.51064909       0.11504159 </v>
    <v>       0.24705208       0.50934368       0.62308018 </v>
    <v>       0.74369838       0.99948516       0.12912305 </v>
    <v>       0.76132687       0.98557424       0.61411751 </v>
    <v>       0.74007927       0.50011996       0.11831395 </v>
    <v>       0.75110110       0.51446657       0.61935031 </v>
    <v>       0.25204100       0.98692087       0.37042561 </v>
    <v>       0.25210275       0.00080270       0.88385367 </v>
    <v>       0.24913857       0.52094247       0.37844622 </v>
    <v>       0.24782740       0.50333682       0.88441574 </v>
    <v>       0.75342075       0.00635483       0.36839057 </v>
    <v>       0.74686278       0.98438794       0.88818844 </v>
    <v>       0.74780202       0.49205512       0.37625933 </v>
    <v>       0.74849303       0.51816325       0.88644234 </v>
    <v>       0.99942179       0.99975142       0.00230110 </v>
    <v>       0.00174990       0.50031764       0.49930106 </v>
    <v>       0.50074334       0.99754210       0.00290637 </v>
    <v>       0.50924630       0.98878573       0.50064267 </v>
    <v>       0.50021553       0.49719321       0.49667354 </v>
    <v>       0.24795204       0.25400614       0.00122703 </v>
    <v>       0.75033962       0.25016182       0.00097559 </v>
    <v>       0.75229153       0.24561574       0.49895204 </v>
    <v>       0.75347722       0.74476457       0.49308812 </v>
    <v>       0.25204609       0.25112023       0.75281880 </v>
    <v>       0.25453920       0.75263170       0.24858738 </v>
    <v>       0.25000749       0.74371551       0.75110972 </v>
    <v>       0.75575319       0.27793499       0.75154980 </v>
    <v>       0.75064475       0.75121131       0.74919965 </v>
    <v>       0.00253439       0.00710971       0.25063892 </v>
    <v>       0.01740129       0.99043837       0.74992640 </v>
    <v>       0.98227190       0.50904493       0.24873173 </v>
    <v>       0.00475866       0.50616588       0.75166078 </v>
    <v>       0.49003581       0.98572982       0.74988861 </v>
    <v>       0.49372939       0.50341104       0.75180790 </v>
    <v>       0.00301339       0.99920277       0.49684550 </v>
    <v>       0.99867721       0.50047197       0.00129761 </v>
    <v>       0.49807374       0.49991097       0.00194644 </v>
    <v>       0.24406685       0.26136029       0.51037405 </v>
    <v>       0.24844960       0.74885648       0.99806150 </v>
    <v>       0.24739983       0.75310641       0.50129031 </v>
    <v>       0.74659815       0.74750161       0.01015276 </v>
    <v>       0.25858966       0.23621247       0.23771088 </v>
    <v>       0.75019300       0.25216824       0.24670362 </v>
    <v>       0.75663252       0.76480209       0.25118254 </v>
    <v>       0.50254576       0.99963571       0.25019806 </v>
    <v>       0.47907330       0.48134924       0.25105649 </v>
    <v>       0.11421562       0.15787933       0.26378229 </v>
    <v>       0.10035485       0.14699303       0.75122702 </v>
    <v>       0.12145144       0.62163105       0.25118292 </v>
    <v>       0.10355528       0.64957520       0.74633031 </v>
    <v>       0.62068118       0.13260524       0.24739463 </v>
    <v>       0.60452370       0.64723380       0.74344305 </v>
    <v>       0.34224107       0.37395075       0.27619310 </v>
    <v>       0.39843248       0.35222476       0.75264353 </v>
    <v>       0.38118035       0.86953150       0.25446722 </v>
    <v>       0.40050414       0.84817544       0.74963696 </v>
    <v>       0.89481798       0.35973572       0.25398745 </v>
    <v>       0.90302094       0.35170253       0.75051993 </v>
    <v>       0.89048990       0.86701158       0.24829787 </v>
    <v>       0.89110230       0.86857385       0.74376441 </v>
    <v>       0.36914168       0.11840270       0.24850715 </v>
    <v>       0.36138217       0.10730057       0.75318442 </v>
    <v>       0.38299947       0.62701769       0.25143189 </v>
    <v>       0.35149177       0.60209862       0.75023438 </v>
    <v>       0.86707515       0.11410773       0.24685277 </v>
    <v>       0.85216837       0.60902494       0.24843216 </v>
    <v>       0.85614916       0.60945449       0.74746309 </v>
    <v>       0.14717655       0.39617283       0.74747659 </v>
    <v>       0.13510832       0.88704405       0.25090902 </v>
    <v>       0.15310566       0.89807652       0.74929150 </v>
    <v>       0.62983389       0.38643498       0.25377246 </v>
    <v>       0.64386575       0.39665266       0.74402943 </v>
    <v>       0.62855281       0.87990875       0.26549107 </v>
    <v>       0.64661801       0.91029415       0.74204883 </v>
    <v>       0.36826336       0.37917967       0.99545776 </v>
    <v>       0.38396059       0.34815525       0.48337541 </v>
    <v>       0.36898633       0.88396993       0.99475064 </v>
    <v>       0.36895161       0.88784399       0.50360342 </v>
    <v>       0.86607813       0.37760552       0.98571484 </v>
    <v>       0.86880438       0.37756944       0.51005558 </v>
    <v>       0.86807335       0.88218129       0.01180132 </v>
    <v>       0.86419665       0.87853499       0.49000496 </v>
    <v>       0.13218608       0.11880425       0.99590268 </v>
    <v>       0.16947126       0.11871443       0.48325662 </v>
    <v>       0.12738328       0.62070584       0.00189065 </v>
    <v>       0.12646114       0.61945604       0.50104991 </v>
    <v>       0.63216662       0.11758371       0.00507263 </v>
    <v>       0.62921164       0.11974350       0.50223578 </v>
    <v>       0.62841685       0.61752542       0.99947136 </v>
    <v>       0.62789236       0.61630401       0.50749857 </v>
    <v>       0.11858539       0.36857903       0.99429058 </v>
    <v>       0.12098737       0.36971604       0.49813157 </v>
    <v>       0.11549375       0.87218068       0.99555666 </v>
    <v>       0.11530612       0.86973984       0.50442704 </v>
    <v>       0.62069259       0.36386314       0.99089421 </v>
    <v>       0.62718350       0.36794668       0.51062151 </v>
    <v>       0.61693701       0.86904363       0.99617544 </v>
    <v>       0.61682164       0.86466965       0.49883847 </v>
    <v>       0.38087486       0.13224012       0.00385744 </v>
    <v>       0.37843881       0.62994204       0.00141723 </v>
    <v>       0.37655291       0.61928077       0.49739092 </v>
    <v>       0.88207011       0.13241118       0.00030636 </v>
    <v>       0.88708958       0.13447165       0.50239467 </v>
    <v>       0.87792724       0.62981286       0.00741774 </v>
    <v>       0.88012321       0.62680374       0.49378909 </v>
    <v>       0.01471970       0.01038436       0.12634494 </v>
    <v>       0.99883393       0.01339675       0.62733799 </v>
    <v>       0.00892893       0.48325128       0.13035946 </v>
    <v>       0.99993770       0.50169419       0.62440985 </v>
    <v>       0.50092798       0.99152123       0.12440725 </v>
    <v>       0.48977299       0.02322693       0.62380827 </v>
    <v>       0.49700119       0.48865017       0.12997473 </v>
    <v>       0.48512013       0.49329525       0.62336971 </v>
    <v>       0.99963820       0.00299925       0.37371968 </v>
    <v>       0.98706347       0.00455705       0.87073222 </v>
    <v>       0.00826858       0.48695395       0.37308045 </v>
    <v>       0.00117047       0.50797595       0.87071082 </v>
    <v>       0.48224709       0.02451970       0.38553649 </v>
    <v>       0.50883962       0.01208811       0.86940259 </v>
    <v>       0.51446476       0.50796932       0.37442826 </v>
    <v>       0.50216223       0.50354451       0.87046665 </v>
    <v>       0.25007142       0.24800600       0.87388536 </v>
    <v>       0.24723506       0.75088438       0.37545592 </v>
    <v>       0.24859588       0.74900999       0.87105602 </v>
    <v>       0.75180632       0.24950183       0.37959122 </v>
    <v>       0.73972939       0.20804754       0.85674865 </v>
    <v>       0.73431090       0.72782413       0.37217499 </v>
    <v>       0.75148342       0.75284290       0.86983714 </v>
    <v>       0.23883630       0.26636947       0.12407229 </v>
    <v>       0.26009814       0.24333628       0.62668235 </v>
    <v>       0.24827777       0.75540434       0.12646000 </v>
    <v>       0.25476832       0.74808272       0.62721036 </v>
    <v>       0.75253605       0.26081235       0.12123987 </v>
    <v>       0.74738004       0.20429957       0.64701543 </v>
    <v>       0.72120487       0.74011904       0.13521741 </v>
    <v>       0.75586448       0.75005550       0.62059875 </v>
   </varray>
  </structure>
  <varray name="forces" >
   <v>      -0.00302269      -0.00866822      -0.00602518 </v>
   <v>       0.00977360      -0.00871848       0.00089639 </v>
   <v>      -0.00112827       0.00113213       0.00010135 </v>
   <v>      -0.00347531       0.00212884      -0.00691400 </v>
   <v>       0.00372930      -0.00337009      -0.00364263 </v>
   <v>      -0.01037420       0.00548940       0.00540434 </v>
   <v>       0.00406964       0.00696534       0.00414195 </v>
   <v>       0.00190204      -0.00683153      -0.00254417 </v>
   <v>      -0.01165118       0.00032042       0.00618566 </v>
   <v>      -0.00529507      -0.00173153       0.00222441 </v>
   <v>      -0.00195902      -0.00043612      -0.00835350 </v>
   <v>      -0.00358263       0.00315720       0.00792430 </v>
   <v>       0.00858629      -0.00339460       0.01240530 </v>
   <v>       0.00054324       0.00973662       0.00159715 </v>
   <v>       0.00756694       0.00463501      -0.00510452 </v>
   <v>       0.00308969      -0.00376099      -0.00421915 </v>
   <v>       0.00237151      -0.00434028      -0.00267890 </v>
   <v>      -0.00080491      -0.01007572      -0.00189535 </v>
   <v>      -0.00366993      -0.00094722       0.00629175 </v>
   <v>       0.00574489       0.00384785       0.00063323 </v>
   <v>       0.00139012      -0.00064535      -0.00233248 </v>
   <v>      -0.00438551      -0.00758352      -0.00432798 </v>
   <v>       0.00544599       0.00238564       0.00128509 </v>
   <v>      -0.00459419      -0.00336376       0.01558082 </v>
   <v>       0.00651565      -0.01609510       0.00076576 </v>
   <v>       0.00532870      -0.00042765      -0.00263839 </v>
   <v>      -0.00941287      -0.00547240      -0.01053230 </v>
   <v>       0.00432852      -0.00613990       0.00157971 </v>
   <v>       0.00834598      -0.00067566      -0.00712183 </v>
   <v>      -0.00306855       0.00448168      -0.00905010 </v>
   <v>      -0.00347614       0.00318215       0.00076061 </v>
   <v>       0.00363462      -0.00587649      -0.00138236 </v>
   <v>      -0.01531476       0.00400437       0.00067540 </v>
   <v>       0.00529378      -0.01117435       0.00266719 </v>
   <v>       0.01229550       0.00461640      -0.00618177 </v>
   <v>       0.01034018       0.00660200       0.00122027 </v>
   <v>      -0.00220582       0.01152443       0.02006563 </v>
   <v>       0.00437836       0.00769812      -0.00100326 </v>
   <v>       0.00486987      -0.00331482      -0.00564963 </v>
   <v>      -0.00725820      -0.00632452      -0.00265069 </v>
   <v>      -0.00890649       0.00472827       0.00192033 </v>
   <v>       0.01355735      -0.00450240      -0.00131549 </v>
   <v>       0.00027095      -0.00642926      -0.00235372 </v>
   <v>       0.00043774      -0.01163952      -0.01281250 </v>
   <v>       0.00026787       0.03754052       0.00333584 </v>
   <v>      -0.00103403      -0.00959323      -0.00258655 </v>
   <v>      -0.00493854       0.00641564       0.00584414 </v>
   <v>      -0.01139511       0.00504495       0.00553866 </v>
   <v>       0.00089003       0.00571748      -0.02146188 </v>
   <v>      -0.01684872      -0.01736610       0.00603956 </v>
   <v>      -0.01049675       0.00306603      -0.01204336 </v>
   <v>       0.01598180      -0.01050546      -0.01132003 </v>
   <v>      -0.01042112       0.00639431      -0.00097222 </v>
   <v>      -0.00347492      -0.00115440       0.00302151 </v>
   <v>       0.00231544       0.00170567       0.00037319 </v>
   <v>       0.00109143       0.00344083      -0.00499098 </v>
   <v>       0.00440964      -0.00498279       0.00628916 </v>
   <v>       0.00708259      -0.00039693       0.00333542 </v>
   <v>      -0.00052708       0.00080251      -0.00021576 </v>
   <v>       0.00561697      -0.00895657      -0.01262975 </v>
   <v>       0.00873401      -0.00181224       0.00145814 </v>
   <v>       0.01044603       0.00341155       0.00161972 </v>
   <v>       0.00425579       0.00064413      -0.00030222 </v>
   <v>       0.00576199       0.00088680      -0.00318394 </v>
   <v>       0.00644308       0.00275309       0.00507292 </v>
   <v>      -0.00002590      -0.00106509      -0.00598599 </v>
   <v>       0.00921642      -0.00869827      -0.00081510 </v>
   <v>      -0.00073633       0.00873813      -0.00963949 </v>
   <v>       0.00574554      -0.00279376       0.00497320 </v>
   <v>       0.00379347       0.00464319       0.00584375 </v>
   <v>       0.00463333      -0.00771291      -0.00012031 </v>
   <v>      -0.01254038       0.00132406      -0.00107279 </v>
   <v>      -0.00066297       0.00560188       0.00264841 </v>
   <v>      -0.01254308      -0.01025276       0.00906262 </v>
   <v>       0.00219125      -0.00401649       0.00441898 </v>
   <v>      -0.00791435      -0.01635889      -0.00628910 </v>
   <v>       0.00478134      -0.00033753       0.01099782 </v>
   <v>      -0.00162223       0.01053317       0.00875843 </v>
[...]
       <r>   -16.6435     0.0000    32.0000 </r>
       <r>   -16.4905     0.0000    32.0000 </r>
       <r>   -16.3375     0.0000    32.0000 </r>
       <r>   -16.1844     0.0000    32.0000 </r>
       <r>   -16.0314     0.0000    32.0000 </r>
       <r>   -15.8783     0.0000    32.0000 </r>
       <r>   -15.7253     0.0000    32.0000 </r>
       <r>   -15.5723     0.0000    32.0000 </r>
       <r>   -15.4192     0.0001    32.0000 </r>
       <r>   -15.2662     3.5633    32.5453 </r>
       <r>   -15.1132    16.3886    35.0534 </r>
       <r>   -14.9601    24.9570    38.8727 </r>
       <r>   -14.8071    46.0360    45.9178 </r>
       <r>   -14.6541    48.8951    53.4005 </r>
       <r>   -14.5010    39.1911    59.3982 </r>
       <r>   -14.3480    42.2854    65.8694 </r>
       <r>   -14.1950    52.2881    73.8713 </r>
       <r>   -14.0419    79.0890    85.9748 </r>
       <r>   -13.8889   101.3589   101.4863 </r>
       <r>   -13.7358    76.0422   113.1235 </r>
       <r>   -13.5828    32.8986   118.1581 </r>
       <r>   -13.4298    16.6022   120.6989 </r>
       <r>   -13.2767     8.4898   121.9981 </r>
       <r>   -13.1237     0.0123   122.0000 </r>
       <r>   -12.9707     0.0002   122.0000 </r>
       <r>   -12.8176     4.2337   122.6479 </r>
       <r>   -12.6646    35.8563   128.1352 </r>
       <r>   -12.5116   115.2053   145.7658 </r>
       <r>   -12.3585   143.8612   167.7817 </r>
       <r>   -12.2055   119.6773   186.0966 </r>
       <r>   -12.0525   101.0223   201.5566 </r>
       <r>   -11.8994    73.0158   212.7306 </r>
       <r>   -11.7464    33.3007   217.8268 </r>
       <r>   -11.5933     1.1316   218.0000 </r>
       <r>   -11.4403     0.0000   218.0000 </r>
       <r>   -11.2873     0.0000   218.0000 </r>
       <r>   -11.1342     0.0000   218.0000 </r>
       <r>   -10.9812     0.0000   218.0000 </r>
       <r>   -10.8282     0.0000   218.0000 </r>
       <r>   -10.6751     0.0000   218.0000 </r>
       <r>   -10.5221     0.0000   218.0000 </r>
       <r>   -10.3691     0.0000   218.0000 </r>
       <r>   -10.2160     0.0000   218.0000 </r>
       <r>   -10.0630     0.0000   218.0000 </r>
       <r>    -9.9100     0.0000   218.0000 </r>
       <r>    -9.7569     0.0000   218.0000 </r>
       <r>    -9.6039     0.0000   218.0000 </r>
       <r>    -9.4508     0.0000   218.0000 </r>
       <r>    -9.2978     0.0000   218.0000 </r>
       <r>    -9.1448     0.0000   218.0000 </r>
       <r>    -8.9917     0.0000   218.0000 </r>
       <r>    -8.8387     0.0000   218.0000 </r>
       <r>    -8.6857     0.0000   218.0000 </r>
       <r>    -8.5326     0.0000   218.0000 </r>
       <r>    -8.3796     0.0000   218.0000 </r>
       <r>    -8.2266     0.0000   218.0000 </r>
       <r>    -8.0735     0.0000   218.0000 </r>
       <r>    -7.9205     0.0000   218.0000 </r>
       <r>    -7.7674     0.0000   218.0000 </r>
       <r>    -7.6144     0.0000   218.0000 </r>
       <r>    -7.4614     0.0000   218.0000 </r>
       <r>    -7.3083     0.0000   218.0000 </r>
       <r>    -7.1553     0.0000   218.0000 </r>
       <r>    -7.0023     0.0000   218.0000 </r>
       <r>    -6.8492     0.0000   218.0000 </r>
       <r>    -6.6962     0.0000   218.0000 </r>
       <r>    -6.5432     0.0000   218.0000 </r>
       <r>    -6.3901     0.0000   218.0000 </r>
       <r>    -6.2371     0.0000   218.0000 </r>
       <r>    -6.0841     0.0000   218.0000 </r>
       <r>    -5.9310     0.0000   218.0000 </r>
       <r>    -5.7780     0.0000   218.0000 </r>
       <r>    -5.6249     0.0000   218.0000 </r>
       <r>    -5.4719     0.0000   218.0000 </r>
       <r>    -5.3189     0.0000   218.0000 </r>
       <r>    -5.1658     0.0000   218.0000 </r>
       <r>    -5.0128     0.0000   218.0000 </r>
       <r>    -4.8598     0.0000   218.0000 </r>
       <r>    -4.7067     0.0000   218.0000 </r>
       <r>    -4.5537     0.0000   218.0000 </r>
       <r>    -4.4007     0.0000   218.0000 </r>
       <r>    -4.2476     0.0000   218.0000 </r>
       <r>    -4.0946     0.0000   218.0000 </r>
       <r>    -3.9416     0.0000   218.0000 </r>
       <r>    -3.7885     0.0000   218.0000 </r>
       <r>    -3.6355     0.0000   218.0000 </r>
       <r>    -3.4824     0.0000   218.0000 </r>
       <r>    -3.3294     0.0000   218.0000 </r>
       <r>    -3.1764     0.0000   218.0000 </r>
       <r>    -3.0233     0.0000   218.0000 </r>
       <r>    -2.8703     0.0000   218.0000 </r>
       <r>    -2.7173     0.0000   218.0000 </r>
       <r>    -2.5642     0.0005   218.0001 </r>
       <r>    -2.4112     4.6345   218.7093 </r>
       <r>    -2.2582    13.6514   220.7985 </r>
       <r>    -2.1051    23.6556   224.4186 </r>
       <r>    -1.9521    28.5530   228.7883 </r>
       <r>    -1.7991    31.0650   233.5423 </r>
       <r>    -1.6460    43.4591   240.1931 </r>
       <r>    -1.4930    51.1126   248.0152 </r>
       <r>    -1.3399    53.6228   256.2214 </r>
       <r>    -1.1869    67.1697   266.5007 </r>
       <r>    -1.0339    73.0356   277.6778 </r>
       <r>    -0.8808    75.0729   289.1666 </r>
       <r>    -0.7278    80.1815   301.4373 </r>
       <r>    -0.5748    96.7654   316.2458 </r>
       <r>    -0.4217   103.2070   332.0402 </r>
       <r>    -0.2687    81.0491   344.4436 </r>
       <r>    -0.1157    57.9457   353.3114 </r>
       <r>     0.0374    52.3862   361.3283 </r>
       <r>     0.1904    52.7023   369.3937 </r>
       <r>     0.3434    52.2515   377.3900 </r>
       <r>     0.4965    51.9598   385.3417 </r>
       <r>     0.6495    51.6865   393.2516 </r>
       <r>     0.8026    50.8046   401.0265 </r>
       <r>     0.9556    56.0012   409.5967 </r>
       <r>     1.1086    65.8908   419.6804 </r>
       <r>     1.2617    70.3870   430.4521 </r>
       <r>     1.4147    74.6618   441.8780 </r>
       <r>     1.5677    79.6392   454.0657 </r>
       <r>     1.7208    77.5348   465.9313 </r>
       <r>     1.8738    49.7269   473.5413 </r>
       <r>     2.0268    46.2199   480.6146 </r>
       <r>     2.1799    25.4254   484.5056 </r>
       <r>     2.3329    15.2160   486.8342 </r>
       <r>     2.4859     7.5558   487.9905 </r>
       <r>     2.6390     0.0623   488.0000 </r>
       <r>     2.7920     0.0000   488.0000 </r>
       <r>     2.9451     0.0000   488.0000 </r>
       <r>     3.0981     0.0000   488.0000 </r>
       <r>     3.2511     0.0000   488.0000 </r>
       <r>     3.4042     0.0000   488.0000 </r>
       <r>     3.5572     0.0000   488.0000 </r>
       <r>     3.7102     0.0000   488.0000 </r>
       <r>     3.8633     0.0000   488.0000 </r>
       <r>     4.0163     0.0000   488.0000 </r>
       <r>     4.1693     0.0000   488.0000 </r>
       <r>     4.3224     0.0082   488.0013 </r>
       <r>     4.4754     8.4761   489.2984 </r>
       <r>     4.6284    31.2207   494.0763 </r>
       <r>     4.7815    53.2332   502.2229 </r>
       <r>     4.9345    41.1638   508.5224 </r>
       <r>     5.0876    49.8301   516.1482 </r>
       <r>     5.2406    58.2823   525.0675 </r>
       <r>     5.3936    76.7190   536.8082 </r>
       <r>     5.5467    74.5497   548.2170 </r>
       <r>     5.6997    75.5626   559.7808 </r>
       <r>     5.8527    79.6637   571.9722 </r>
       <r>     6.0058    79.1358   584.0828 </r>
       <r>     6.1588    65.9082   594.1691 </r>
       <r>     6.3118    66.3553   604.3238 </r>
       <r>     6.4649    41.7575   610.7142 </r>
       <r>     6.6179    20.4478   613.8435 </r>
       <r>     6.7709    13.6408   615.9310 </r>
       <r>     6.9240    15.2237   618.2608 </r>
       <r>     7.0770    19.0374   621.1742 </r>
       <r>     7.2301    19.8007   624.2044 </r>
       <r>     7.3831    17.0433   626.8126 </r>
       <r>     7.5361    18.1116   629.5843 </r>
       <r>     7.6892    20.8523   632.7755 </r>
       <r>     7.8422    20.0914   635.8502 </r>
       <r>     7.9952    17.4767   638.5248 </r>
       <r>     8.1483    22.5527   641.9761 </r>
       <r>     8.3013    21.6369   645.2873 </r>
       <r>     8.4543    23.8353   648.9350 </r>
       <r>     8.6074    27.2564   653.1062 </r>
       <r>     8.7604    30.3647   657.7531 </r>
       <r>     8.9134    29.7141   662.3004 </r>
       <r>     9.0665    38.5500   668.1999 </r>
       <r>     9.2195    36.7411   673.8226 </r>
       <r>     9.3726    39.5099   679.8691 </r>
       <r>     9.5256    45.5169   686.8348 </r>
       <r>     9.6786    47.3587   694.0824 </r>
       <r>     9.8317    59.1457   703.1338 </r>
       <r>     9.9847    58.4596   712.0802 </r>
       <r>    10.1377    62.1012   721.5839 </r>
       <r>    10.2908    55.9043   730.1393 </r>
       <r>    10.4438    54.1565   738.4271 </r>
       <r>    10.5968    58.8776   747.4375 </r>
       <r>    10.7499    57.0843   756.1735 </r>
       <r>    10.9029    56.3819   764.8019 </r>
       <r>    11.0560    20.8805   767.9974 </r>
       <r>    11.2090     0.0170   768.0000 </r>
       <r>    11.3620     0.0000   768.0000 </r>
       <r>    11.5151     0.0000   768.0000 </r>
       <r>    11.6681     0.0000   768.0000 </r>
       <r>    11.8211     0.0000   768.0000 </r>
       <r>    11.9742     0.0000   768.0000 </r>
       <r>    12.1272     0.0000   768.0000 </r>
       <r>    12.2802     0.0000   768.0000 </r>
       <r>    12.4333     0.0000   768.0000 </r>
       <r>    12.5863     0.0000   768.0000 </r>
       <r>    12.7393     0.0000   768.0000 </r>
       <r>    12.8924     0.0000   768.0000 </r>
       <r>    13.0454     0.0000   768.0000 </r>
      </set>
     </set>
    </array>
   </total>
  </dos>
 </calculation>
 <structure name="finalpos" >
  <crystal>
   <varray name="basis" >
    <v>      11.22885076      -0.03769715       0.00297941 </v>
    <v>      -0.03764896      11.25128962       0.00321716 </v>
    <v>       0.00434325       0.00436853      15.94278857 </v>
   </varray>
   <i name="volume">   2014.17386409 </i>
   <varray name="rec_basis" >
    <v>       0.08905732       0.00029801      -0.00002434 </v>
    <v>       0.00029839       0.08887971      -0.00002444 </v>
    <v>      -0.00001670      -0.00001799       0.06272429 </v>
   </varray>
  </crystal>
  <varray name="positions" >
   <v>       0.99399701       0.24993764       0.12297367 </v>
   <v>       0.00503777       0.25192114       0.62220120 </v>
   <v>       0.00614240       0.75141508       0.11901644 </v>
   <v>       0.00061208       0.74880705       0.61840704 </v>
   <v>       0.51048300       0.24615001       0.12135320 </v>
   <v>       0.49889139       0.26046764       0.62236530 </v>
   <v>       0.49309169       0.74904456       0.11898584 </v>
   <v>       0.49586999       0.73775936       0.61850205 </v>
   <v>       0.98826329       0.24575498       0.37818700 </v>
   <v>       0.00694159       0.25137287       0.88343880 </v>
   <v>       0.00936052       0.76050791       0.37608769 </v>
   <v>       0.99686223       0.74421670       0.88555198 </v>
   <v>       0.51526910       0.25028131       0.36587031 </v>
   <v>       0.49093119       0.25304519       0.88581572 </v>
   <v>       0.49428970       0.74888093       0.37241622 </v>
   <v>       0.50041526       0.74125049       0.88602783 </v>
   <v>       0.25516865       0.99077398       0.12089810 </v>
   <v>       0.24701964       0.99713062       0.61868737 </v>
   <v>       0.25088653       0.51062456       0.11513205 </v>
   <v>       0.24708498       0.50943529       0.62309500 </v>
   <v>       0.74371873       0.99947268       0.12909362 </v>
   <v>       0.76125979       0.98542789       0.61410270 </v>
   <v>       0.74014757       0.50014422       0.11835405 </v>
   <v>       0.75107652       0.51440731       0.61954435 </v>
   <v>       0.25213726       0.98663543       0.37043153 </v>
   <v>       0.25216459       0.00074934       0.88381688 </v>
   <v>       0.24895671       0.52080699       0.37829552 </v>
   <v>       0.24789360       0.50328800       0.88441553 </v>
   <v>       0.75357680       0.00635013       0.36826380 </v>
   <v>       0.74680511       0.98444799       0.88804193 </v>
   <v>       0.74775670       0.49210551       0.37625543 </v>
   <v>       0.74855293       0.51811022       0.88646023 </v>
   <v>       0.99936027       0.99974302       0.00229022 </v>
   <v>       0.00179048       0.50025146       0.49927812 </v>
   <v>       0.50085752       0.99755675       0.00280764 </v>
   <v>       0.50929855       0.98887865       0.50060685 </v>
   <v>       0.50016225       0.49738346       0.49667824 </v>
   <v>       0.24794236       0.25408550       0.00124289 </v>
   <v>       0.75037384       0.25012585       0.00096627 </v>
   <v>       0.75218001       0.24563890       0.49892248 </v>
   <v>       0.75352163       0.74475354       0.49304852 </v>
   <v>       0.25206514       0.25100517       0.75279596 </v>
   <v>       0.25459688       0.75253024       0.24864001 </v>
   <v>       0.24989884       0.74360565       0.75108721 </v>
   <v>       0.75582133       0.27791378       0.75148278 </v>
   <v>       0.75063030       0.75124246       0.74920705 </v>
   <v>       0.00263240       0.00720755       0.25068582 </v>
   <v>       0.01735616       0.99046081       0.74996362 </v>
   <v>       0.98222999       0.50910395       0.24866945 </v>
   <v>       0.00465736       0.50597021       0.75169193 </v>
   <v>       0.48989190       0.98570266       0.74980548 </v>
   <v>       0.49382055       0.50334642       0.75181776 </v>
   <v>       0.00295711       0.99918109       0.49687141 </v>
   <v>       0.99870263       0.50053732       0.00132706 </v>
   <v>       0.49810454       0.49998947       0.00198853 </v>
   <v>       0.24396671       0.26132264       0.51033682 </v>
   <v>       0.24852258       0.74880619       0.99805974 </v>
   <v>       0.24745602       0.75310848       0.50135267 </v>
   <v>       0.74655971       0.74748598       0.01013686 </v>
   <v>       0.25855073       0.23619623       0.23765607 </v>
   <v>       0.75034271       0.25218659       0.24671202 </v>
   <v>       0.75675942       0.76481456       0.25117095 </v>
   <v>       0.50255456       0.99968027       0.25019285 </v>
   <v>       0.47916879       0.48131208       0.25103025 </v>
   <v>       0.11422809       0.15787239       0.26387238 </v>
   <v>       0.10033933       0.14703520       0.75115050 </v>
   <v>       0.12160568       0.62143375       0.25115606 </v>
   <v>       0.10342961       0.64964280       0.74618726 </v>
   <v>       0.62077657       0.13253653       0.24746260 </v>
   <v>       0.60457724       0.64723861       0.74349259 </v>
   <v>       0.34236563       0.37385648       0.27620891 </v>
   <v>       0.39834068       0.35233312       0.75261272 </v>
   <v>       0.38117482       0.86961184       0.25450273 </v>
   <v>       0.40036443       0.84807994       0.74975430 </v>
   <v>       0.89494006       0.35972154       0.25405114 </v>
   <v>       0.90308426       0.35153838       0.75044594 </v>
   <v>       0.89059375       0.86706894       0.24843258 </v>
   <v>       0.89098489       0.86870251       0.74387666 </v>
   <v>       0.36904039       0.11847695       0.24825734 </v>
   <v>       0.36130945       0.10739153       0.75314275 </v>
   <v>       0.38316914       0.62710249       0.25152996 </v>
   <v>       0.35144968       0.60208881       0.75023343 </v>
   <v>       0.86714116       0.11426056       0.24696636 </v>
   <v>       0.85201526       0.60906126       0.24834614 </v>
   <v>       0.85626197       0.60968405       0.74735669 </v>
   <v>       0.14699326       0.39604898       0.74752737 </v>
   <v>       0.13515203       0.88703143       0.25098313 </v>
   <v>       0.15316956       0.89812294       0.74930633 </v>
   <v>       0.62984254       0.38646767       0.25381015 </v>
   <v>       0.64386363       0.39654696       0.74408013 </v>
   <v>       0.62853464       0.87974813       0.26552449 </v>
   <v>       0.64650588       0.91036510       0.74212221 </v>
   <v>       0.36838503       0.37910667       0.99549638 </v>
   <v>       0.38385119       0.34812067       0.48334764 </v>
   <v>       0.36911334       0.88390089       0.99465745 </v>
   <v>       0.36892124       0.88799621       0.50360098 </v>
   <v>       0.86613370       0.37750394       0.98571443 </v>
   <v>       0.86898735       0.37742513       0.50994323 </v>
   <v>       0.86813960       0.88226814       0.01177968 </v>
   <v>       0.86445931       0.87843539       0.49010886 </v>
   <v>       0.13204946       0.11897066       0.99597205 </v>
   <v>       0.16934454       0.11857928       0.48330355 </v>
   <v>       0.12737030       0.62072008       0.00195160 </v>
   <v>       0.12644776       0.61939311       0.50112091 </v>
   <v>       0.63222735       0.11751553       0.00508511 </v>
   <v>       0.62884801       0.12004694       0.50227512 </v>
   <v>       0.62849141       0.61745175       0.99954545 </v>
   <v>       0.62772426       0.61652731       0.50748378 </v>
   <v>       0.11863722       0.36865359       0.99406360 </v>
   <v>       0.12109571       0.36987902       0.49792599 </v>
   <v>       0.11557655       0.87219346       0.99556244 </v>
   <v>       0.11531737       0.86968757       0.50447871 </v>
   <v>       0.62060053       0.36369694       0.99089002 </v>
   <v>       0.62722222       0.36811088       0.51074892 </v>
   <v>       0.61697282       0.86889998       0.99610886 </v>
   <v>       0.61689450       0.86474223       0.49864129 </v>
   <v>       0.38088630       0.13222695       0.00406260 </v>
   <v>       0.37837001       0.62991136       0.00139041 </v>
   <v>       0.37641049       0.61945269       0.49740719 </v>
   <v>       0.88197028       0.13227230       0.00030533 </v>
   <v>       0.88688925       0.13438999       0.50230664 </v>
   <v>       0.87794466       0.62983325       0.00742139 </v>
   <v>       0.88008568       0.62665852       0.49394602 </v>
   <v>       0.01473298       0.01046036       0.12637801 </v>
   <v>       0.99867417       0.01346410       0.62744906 </v>
   <v>       0.00892840       0.48321131       0.13036774 </v>
   <v>       0.99994057       0.50150877       0.62440297 </v>
   <v>       0.50103879       0.99144304       0.12433724 </v>
   <v>       0.48988388       0.02325311       0.62386882 </v>
   <v>       0.49701965       0.48888879       0.12997965 </v>
   <v>       0.48520899       0.49338229       0.62338881 </v>
   <v>       0.99957390       0.00293263       0.37375060 </v>
   <v>       0.98699125       0.00476770       0.87071666 </v>
   <v>       0.00839247       0.48715407       0.37298347 </v>
   <v>       0.00099351       0.50802743       0.87077322 </v>
   <v>       0.48193269       0.02467741       0.38551873 </v>
   <v>       0.50897984       0.01229562       0.86932663 </v>
   <v>       0.51457769       0.50811955       0.37446239 </v>
   <v>       0.50218291       0.50355618       0.87057390 </v>
   <v>       0.25011603       0.24770017       0.87385842 </v>
   <v>       0.24724721       0.75089330       0.37549483 </v>
   <v>       0.24844195       0.74893829       0.87108253 </v>
   <v>       0.75167580       0.24958137       0.37951295 </v>
   <v>       0.73990117       0.20797545       0.85662559 </v>
   <v>       0.73434574       0.72764836       0.37214382 </v>
   <v>       0.75147014       0.75289159       0.86989053 </v>
   <v>       0.23842861       0.26670541       0.12414027 </v>
   <v>       0.26026014       0.24328154       0.62666704 </v>
   <v>       0.24842333       0.75527210       0.12649954 </v>
   <v>       0.25463350       0.74821580       0.62720227 </v>
   <v>       0.75263614       0.26090590       0.12125614 </v>
   <v>       0.74731305       0.20415198       0.64694595 </v>
   <v>       0.72135955       0.74012725       0.13519821 </v>
   <v>       0.75567728       0.75007984       0.62055362 </v>
  </varray>
 </structure>
</modeling>
