       N       E                     dE             d eps       ncg     rms          rms(c)
DAV:   1    -0.991384715453E+03   -0.99138E+03   -0.93031E-03 14248   0.231E-01    0.389E-02
RMM:   2    -0.991384715576E+03   -0.12266E-06   -0.45198E-05  7027   0.121E-02    0.691E-02
RMM:   3    -0.991384716459E+03   -0.88334E-06   -0.13129E-05  6766   0.658E-03    0.805E-03
RMM:   4    -0.991384717735E+03   -0.12754E-05   -0.50936E-06  5280   0.319E-03    0.823E-03
RMM:   5    -0.991384718866E+03   -0.11309E-05   -0.33669E-06  5210   0.327E-03    0.774E-03
RMM:   6    -0.991384720191E+03   -0.13252E-05   -0.22470E-06  4086   0.265E-03    0.451E-03
RMM:   7    -0.991384721276E+03   -0.10857E-05   -0.14650E-06  3546   0.239E-03    0.422E-03
RMM:   8    -0.991384722547E+03   -0.12700E-05   -0.14384E-06  3709   0.242E-03
   1 F= -.99138472E+03 E0= -.99138472E+03  d E =-.991385E+03  mag=   118.0000
       N       E                     dE             d eps       ncg     rms          rms(c)
DAV:   1    -0.991381070410E+03    0.36509E-02   -0.17268E+00 12416   0.155E+00    0.728E-01
RMM:   2    -0.991388453855E+03   -0.73834E-02   -0.52200E-02 12555   0.326E-01    0.493E-01
RMM:   3    -0.991389148173E+03   -0.69432E-03   -0.31213E-03 12814   0.923E-02    0.284E-01
RMM:   4    -0.991388901580E+03    0.24659E-03   -0.58034E-04 10863   0.312E-02    0.165E-01
RMM:   5    -0.991388824706E+03    0.76874E-04   -0.43404E-04 10401   0.251E-02    0.434E-02
RMM:   6    -0.991388824468E+03    0.23765E-06   -0.36596E-05  7449   0.113E-02    0.346E-02
RMM:   7    -0.991388825110E+03   -0.64161E-06   -0.16255E-05  7282   0.561E-03    0.216E-02
RMM:   8    -0.991388824396E+03    0.71390E-06   -0.87729E-06  6888   0.503E-03
   2 F= -.99138882E+03 E0= -.99138882E+03  d E =-.410185E-02  mag=   118.0000
       N       E                     dE             d eps       ncg     rms          rms(c)
DAV:   1    -0.991388804286E+03    0.20824E-04   -0.88144E-03 13696   0.110E-01    0.549E-02
RMM:   2    -0.991388838429E+03   -0.34143E-04   -0.23108E-04  8435   0.234E-02    0.421E-02
RMM:   3    -0.991388844343E+03   -0.59142E-05   -0.25107E-05  6645   0.103E-02    0.227E-02
RMM:   4    -0.991388843966E+03    0.37749E-06   -0.60788E-06  5838   0.410E-03    0.149E-02
RMM:   5    -0.991388843755E+03    0.21131E-06   -0.31248E-06  5374   0.318E-03    0.875E-03
RMM:   6    -0.991388843922E+03   -0.16743E-06   -0.36460E-07  2290   0.194E-03    0.347E-03
RMM:   7    -0.991388843994E+03   -0.71974E-07   -0.11553E-07  1729   0.180E-03    0.226E-03
RMM:   8    -0.991388844136E+03   -0.14191E-06   -0.18356E-07  1877   0.184E-03
   3 F= -.99138884E+03 E0= -.99138884E+03  d E =-.412159E-02  mag=   118.0000
       N       E                     dE             d eps       ncg     rms          rms(c)
DAV:   1    -0.991388640019E+03    0.20397E-03   -0.10238E+00 12672   0.120E+00    0.431E-01
RMM:   2    -0.991392275035E+03   -0.36350E-02   -0.27839E-02 12633   0.233E-01    0.264E-01
RMM:   3    -0.991392553975E+03   -0.27894E-03   -0.16078E-03 12485   0.662E-02    0.148E-01
RMM:   4    -0.991392469518E+03    0.84457E-04   -0.21626E-04  8414   0.199E-02    0.853E-02
RMM:   5    -0.991392448266E+03    0.21252E-04   -0.13624E-04  7475   0.148E-02    0.249E-02
RMM:   6    -0.991392452084E+03   -0.38173E-05   -0.28199E-05  7249   0.977E-03    0.291E-02
RMM:   7    -0.991392453424E+03   -0.13400E-05   -0.13174E-05  7116   0.503E-03    0.119E-02
RMM:   8    -0.991392454353E+03   -0.92921E-06   -0.70479E-06  6769   0.479E-03
   4 F= -.99139245E+03 E0= -.99139245E+03  d E =-.361022E-02  mag=   118.0000
       N       E                     dE             d eps       ncg     rms          rms(c)
DAV:   1    -0.991387053575E+03    0.53998E-02   -0.19327E+00 12584   0.165E+00    0.592E-01
RMM:   2    -0.991393938967E+03   -0.68854E-02   -0.52759E-02 12636   0.320E-01    0.363E-01
RMM:   3    -0.991394468469E+03   -0.52950E-03   -0.31012E-03 12908   0.913E-02    0.203E-01
RMM:   4    -0.991394314804E+03    0.15367E-03   -0.48668E-04 10674   0.275E-02    0.115E-01
RMM:   5    -0.991394273841E+03    0.40963E-04   -0.27407E-04  8501   0.195E-02    0.319E-02
RMM:   6    -0.991394279122E+03   -0.52809E-05   -0.41790E-05  7400   0.120E-02    0.312E-02
RMM:   7    -0.991394281421E+03   -0.22988E-05   -0.19801E-05  7250   0.627E-03    0.158E-02
RMM:   8    -0.991394283444E+03   -0.20228E-05   -0.11312E-05  7133   0.602E-03
   5 F= -.99139428E+03 E0= -.99139428E+03  d E =-.543931E-02  mag=   118.0000
       N       E                     dE             d eps       ncg     rms          rms(c)
DAV:   1    -0.991393101848E+03    0.11796E-02   -0.12578E+00 12704   0.133E+00    0.425E-01
RMM:   2    -0.991397252174E+03   -0.41503E-02   -0.34226E-02 12671   0.257E-01    0.263E-01
RMM:   3    -0.991397537873E+03   -0.28570E-03   -0.20023E-03 12701   0.713E-02    0.146E-01
RMM:   4    -0.991397449467E+03    0.88406E-04   -0.23101E-04  8484   0.204E-02    0.905E-02
RMM:   5    -0.991397415254E+03    0.34214E-04   -0.18298E-04  7646   0.163E-02    0.339E-02
RMM:   6    -0.991397420813E+03   -0.55593E-05   -0.36759E-05  7268   0.106E-02    0.305E-02
RMM:   7    -0.991397422857E+03   -0.20436E-05   -0.17228E-05  7157   0.592E-03    0.143E-02
RMM:   8    -0.991397424415E+03   -0.15580E-05   -0.99478E-06  6949   0.559E-03
   6 F= -.99139742E+03 E0= -.99139742E+03  d E =-.314097E-02  mag=   118.0000
       N       E                     dE             d eps       ncg     rms          rms(c)
DAV:   1    -0.991390120409E+03    0.73024E-02   -0.26445E+00 12640   0.192E+00    0.616E-01
RMM:   2    -0.991398837795E+03   -0.87174E-02   -0.71884E-02 12679   0.372E-01    0.381E-01
RMM:   3    -0.991399435751E+03   -0.59796E-03   -0.41776E-03 13001   0.103E-01    0.213E-01
RMM:   4    -0.991399255741E+03    0.18001E-03   -0.54507E-04 11389   0.292E-02    0.130E-01
RMM:   5    -0.991399183472E+03    0.72269E-04   -0.43017E-04  9813   0.217E-02    0.396E-02
RMM:   6    -0.991399188192E+03   -0.47204E-05   -0.47612E-05  7414   0.124E-02    0.290E-02
RMM:   7    -0.991399190694E+03   -0.25024E-05   -0.23000E-05  7276   0.640E-03    0.180E-02
RMM:   8    -0.991399192640E+03   -0.19453E-05   -0.13168E-05  7142   0.639E-03
   7 F= -.99139919E+03 E0= -.99139919E+03  d E =-.490920E-02  mag=   118.0000
       N       E                     dE             d eps       ncg     rms          rms(c)
DAV:   1    -0.991395868589E+03    0.33221E-02   -0.16804E+00 12600   0.152E+00    0.533E-01
RMM:   2    -0.991401834431E+03   -0.59658E-02   -0.44213E-02 12669   0.292E-01    0.318E-01
RMM:   3    -0.991402346963E+03   -0.51253E-03   -0.26512E-03 12937   0.808E-02    0.168E-01
RMM:   4    -0.991402225262E+03    0.12170E-03   -0.32667E-04  9384   0.230E-02    0.103E-01
RMM:   5    -0.991402178951E+03    0.46311E-04   -0.25368E-04  8309   0.182E-02    0.319E-02
RMM:   6    -0.991402183291E+03   -0.43400E-05   -0.38060E-05  7285   0.112E-02    0.297E-02
RMM:   7    -0.991402185188E+03   -0.18974E-05   -0.17921E-05  7086   0.594E-03    0.142E-02
RMM:   8    -0.991402186258E+03   -0.10702E-05   -0.10300E-05  6958   0.582E-03
   8 F= -.99140219E+03 E0= -.99140219E+03  d E =-.299362E-02  mag=   118.0000
       N       E                     dE             d eps       ncg     rms          rms(c)
DAV:   1    -0.991397472118E+03    0.47131E-02   -0.14875E+00 12664   0.143E+00    0.501E-01
RMM:   2    -0.991402754057E+03   -0.52819E-02   -0.39143E-02 12684   0.275E-01    0.298E-01
RMM:   3    -0.991403206850E+03   -0.45279E-03   -0.23487E-03 12866   0.755E-02    0.158E-01
RMM:   4    -0.991403097753E+03    0.10910E-03   -0.28014E-04  8988   0.215E-02    0.974E-02
RMM:   5    -0.991403056354E+03    0.41398E-04   -0.21687E-04  7917   0.173E-02    0.308E-02
RMM:   6    -0.991403060871E+03   -0.45166E-05   -0.37012E-05  7272   0.110E-02    0.299E-02
RMM:   7    -0.991403062616E+03   -0.17449E-05   -0.17517E-05  7075   0.586E-03    0.137E-02
RMM:   8    -0.991403063473E+03   -0.85669E-06   -0.10073E-05  6928   0.575E-03
   9 F= -.99140306E+03 E0= -.99140306E+03  d E =-.387083E-02  mag=   118.0000
       N       E                     dE             d eps       ncg     rms          rms(c)
DAV:   1    -0.991395611117E+03    0.74515E-02   -0.24442E+00 12496   0.183E+00    0.696E-01
RMM:   2    -0.991405161179E+03   -0.95501E-02   -0.63739E-02 12687   0.351E-01    0.409E-01
RMM:   3    -0.991406127877E+03   -0.96670E-03   -0.37329E-03 12872   0.982E-02    0.200E-01
RMM:   4    -0.991405963336E+03    0.16454E-03   -0.51915E-04 11151   0.284E-02    0.125E-01
RMM:   5    -0.991405902758E+03    0.60579E-04   -0.38568E-04  9599   0.212E-02    0.368E-02
RMM:   6    -0.991405906938E+03   -0.41803E-05   -0.39745E-05  7328   0.115E-02    0.294E-02
RMM:   7    -0.991405909175E+03   -0.22373E-05   -0.19535E-05  7203   0.604E-03    0.166E-02
RMM:   8    -0.991405910583E+03   -0.14081E-05   -0.11142E-05  7110   0.595E-03
  10 F= -.99140591E+03 E0= -.99140591E+03  d E =-.284711E-02  mag=   118.0000
       N       E                     dE             d eps       ncg     rms          rms(c)
DAV:   1    -0.991400711605E+03    0.51976E-02   -0.13933E+00 12592   0.138E+00    0.525E-01
RMM:   2    -0.991406166830E+03   -0.54552E-02   -0.36430E-02 12687   0.265E-01    0.308E-01
RMM:   3    -0.991406719283E+03   -0.55245E-03   -0.21488E-03 12746   0.743E-02    0.152E-01
RMM:   4    -0.991406623057E+03    0.96226E-04   -0.27344E-04  8889   0.216E-02    0.963E-02
RMM:   5    -0.991406588560E+03    0.34497E-04   -0.20530E-04  7777   0.173E-02    0.309E-02
RMM:   6    -0.991406593392E+03   -0.48318E-05   -0.36236E-05  7242   0.110E-02    0.322E-02
RMM:   7    -0.991406595466E+03   -0.20740E-05   -0.17524E-05  7167   0.572E-03    0.133E-02
RMM:   8    -0.991406596731E+03   -0.12657E-05   -0.96441E-06  7000   0.568E-03
  11 F= -.99140660E+03 E0= -.99140660E+03  d E =-.353326E-02  mag=   118.0000
       N       E                     dE             d eps       ncg     rms          rms(c)
DAV:   1    -0.991401657295E+03    0.49382E-02   -0.18136E+00 12288   0.158E+00    0.602E-01
RMM:   2    -0.991408627174E+03   -0.69699E-02   -0.47657E-02 12691   0.306E-01    0.346E-01
RMM:   3    -0.991409323974E+03   -0.69680E-03   -0.28368E-03 12888   0.844E-02    0.167E-01
RMM:   4    -0.991409178918E+03    0.14506E-03   -0.37591E-04  9762   0.245E-02    0.100E-01
RMM:   5    -0.991409127055E+03    0.51863E-04   -0.25149E-04  8153   0.187E-02    0.339E-02
RMM:   6    -0.991409130468E+03   -0.34129E-05   -0.37945E-05  7247   0.114E-02    0.323E-02
RMM:   7    -0.991409132063E+03   -0.15949E-05   -0.17404E-05  7110   0.591E-03    0.146E-02
RMM:   8    -0.991409132412E+03   -0.34904E-06   -0.95761E-06  6936   0.564E-03
  12 F= -.99140913E+03 E0= -.99140913E+03  d E =-.253568E-02  mag=   118.0000
       N       E                     dE             d eps       ncg     rms          rms(c)
DAV:   1    -0.991397385694E+03    0.11746E-01   -0.31693E+00 12288   0.209E+00    0.795E-01
RMM:   2    -0.991409563711E+03   -0.12178E-01   -0.83221E-02 12689   0.404E-01    0.456E-01
RMM:   3    -0.991410780059E+03   -0.12163E-02   -0.49446E-03 13026   0.112E-01    0.221E-01
RMM:   4    -0.991410528448E+03    0.25161E-03   -0.68236E-04 11646   0.323E-02    0.132E-01
RMM:   5    -0.991410441585E+03    0.86864E-04   -0.46344E-04 10262   0.233E-02    0.407E-02
RMM:   6    -0.991410443969E+03   -0.23844E-05   -0.42757E-05  7350   0.118E-02    0.261E-02
RMM:   7    -0.991410445561E+03   -0.15920E-05   -0.20956E-05  7240   0.616E-03    0.176E-02
RMM:   8    -0.991410446034E+03   -0.47305E-06   -0.11743E-05  7037   0.586E-03
  13 F= -.99141045E+03 E0= -.99141045E+03  d E =-.384930E-02  mag=   118.0000
       N       E                     dE             d eps       ncg     rms          rms(c)
DAV:   1    -0.991405536248E+03    0.49093E-02   -0.18177E+00 12360   0.158E+00    0.548E-01
RMM:   2    -0.991412143603E+03   -0.66074E-02   -0.47814E-02 12668   0.304E-01    0.305E-01
RMM:   3    -0.991412743185E+03   -0.59958E-03   -0.28819E-03 12930   0.842E-02    0.143E-01
RMM:   4    -0.991412608865E+03    0.13432E-03   -0.35518E-04  9597   0.236E-02    0.844E-02
RMM:   5    -0.991412563388E+03    0.45477E-04   -0.22215E-04  7929   0.176E-02    0.314E-02
RMM:   6    -0.991412567957E+03   -0.45689E-05   -0.37595E-05  7240   0.110E-02    0.277E-02
RMM:   7    -0.991412569829E+03   -0.18725E-05   -0.17215E-05  7129   0.593E-03    0.136E-02
RMM:   8    -0.991412570917E+03   -0.10878E-05   -0.96248E-06  6967   0.559E-03
  14 F= -.99141257E+03 E0= -.99141257E+03  d E =-.212488E-02  mag=   118.0000
       N       E                     dE             d eps       ncg     rms          rms(c)
DAV:   1    -0.991396898625E+03    0.15671E-01   -0.43925E+00 12376   0.245E+00    0.852E-01
RMM:   2    -0.991412842478E+03   -0.15944E-01   -0.11529E-01 12669   0.473E-01    0.474E-01
RMM:   3    -0.991414292197E+03   -0.14497E-02   -0.69408E-03 13274   0.131E-01    0.222E-01
RMM:   4    -0.991413973019E+03    0.31918E-03   -0.90280E-04 12174   0.362E-02    0.130E-01
RMM:   5    -0.991413865096E+03    0.10792E-03   -0.56878E-04 10796   0.252E-02    0.424E-02
RMM:   6    -0.991413869352E+03   -0.42559E-05   -0.53454E-05  7413   0.131E-02    0.242E-02
RMM:   7    -0.991413872187E+03   -0.28356E-05   -0.26107E-05  7250   0.673E-03    0.192E-02
RMM:   8    -0.991413873948E+03   -0.17608E-05   -0.14085E-05  7138   0.652E-03
  15 F= -.99141387E+03 E0= -.99141387E+03  d E =-.342791E-02  mag=   118.0000
       N       E                     dE             d eps       ncg     rms          rms(c)
DAV:   1    -0.991404001312E+03    0.98709E-02   -0.29462E+00 12680   0.200E+00    0.739E-01
RMM:   2    -0.991415466775E+03   -0.11465E-01   -0.76556E-02 12625   0.382E-01    0.408E-01
RMM:   3    -0.991416646150E+03   -0.11794E-02   -0.46155E-03 12853   0.110E-01    0.185E-01
RMM:   4    -0.991416464991E+03    0.18116E-03   -0.62584E-04 11414   0.309E-02    0.114E-01
RMM:   5    -0.991416395913E+03    0.69078E-04   -0.37625E-04  9495   0.214E-02    0.415E-02
RMM:   6    -0.991416401721E+03   -0.58084E-05   -0.46942E-05  7325   0.119E-02    0.284E-02
RMM:   7    -0.991416404586E+03   -0.28643E-05   -0.20914E-05  7221   0.671E-03    0.168E-02
RMM:   8    -0.991416406565E+03   -0.19793E-05   -0.11774E-05  7132   0.600E-03
  16 F= -.99141641E+03 E0= -.99141641E+03  d E =-.253262E-02  mag=   118.0000
       N       E                     dE             d eps       ncg     rms          rms(c)
DAV:   1    -0.991405799089E+03    0.10605E-01   -0.27037E+00 12688   0.192E+00    0.707E-01
RMM:   2    -0.991416330060E+03   -0.10531E-01   -0.70325E-02 12629   0.366E-01    0.391E-01
RMM:   3    -0.991417413019E+03   -0.10830E-02   -0.42347E-03 12837   0.105E-01    0.178E-01
RMM:   4    -0.991417246825E+03    0.16619E-03   -0.57014E-04 11161   0.295E-02    0.110E-01
RMM:   5    -0.991417183626E+03    0.63199E-04   -0.34221E-04  9184   0.206E-02    0.401E-02
RMM:   6    -0.991417189287E+03   -0.56610E-05   -0.45463E-05  7315   0.118E-02    0.290E-02
RMM:   7    -0.991417192025E+03   -0.27372E-05   -0.20199E-05  7217   0.663E-03    0.162E-02
RMM:   8    -0.991417193808E+03   -0.17835E-05   -0.11343E-05  7139   0.596E-03
  17 F= -.99141719E+03 E0= -.99141719E+03  d E =-.331986E-02  mag=   118.0000
       N       E                     dE             d eps       ncg     rms          rms(c)
DAV:   1    -0.991408788176E+03    0.84038E-02   -0.27006E+00 12688   0.191E+00    0.664E-01
RMM:   2    -0.991418518100E+03   -0.97299E-02   -0.69932E-02 12635   0.364E-01    0.369E-01
RMM:   3    -0.991419405296E+03   -0.88720E-03   -0.42953E-03 12866   0.104E-01    0.175E-01
RMM:   4    -0.991419222835E+03    0.18246E-03   -0.58031E-04 11053   0.294E-02    0.105E-01
RMM:   5    -0.991419155036E+03    0.67798E-04   -0.32011E-04  9056   0.200E-02    0.380E-02
RMM:   6    -0.991419158861E+03   -0.38244E-05   -0.44449E-05  7358   0.114E-02    0.247E-02
RMM:   7    -0.991419160622E+03   -0.17610E-05   -0.18857E-05  7225   0.648E-03    0.158E-02
RMM:   8    -0.991419160790E+03   -0.16800E-06   -0.10711E-05  6997   0.557E-03
  18 F= -.99141916E+03 E0= -.99141916E+03  d E =-.196698E-02  mag=   118.0000
       N       E                     dE             d eps       ncg     rms          rms(c)
DAV:   1    -0.991417318752E+03    0.18419E-02   -0.54232E-01 12976   0.857E-01    0.297E-01
RMM:   2    -0.991419279973E+03   -0.19612E-02   -0.14129E-02 12636   0.163E-01    0.165E-01
RMM:   3    -0.991419453620E+03   -0.17365E-03   -0.83885E-04 10620   0.470E-02    0.789E-02
RMM:   4    -0.991419417460E+03    0.36161E-04   -0.10573E-04  7501   0.147E-02    0.483E-02
RMM:   5    -0.991419405369E+03    0.12091E-04   -0.64370E-05  7270   0.105E-02    0.225E-02
RMM:   6    -0.991419407324E+03   -0.19552E-05   -0.16794E-05  7050   0.676E-03    0.103E-02
RMM:   7    -0.991419408110E+03   -0.78579E-06   -0.78923E-06  6584   0.420E-03    0.834E-03
RMM:   8    -0.991419408354E+03   -0.24444E-06   -0.40479E-06  5652   0.357E-03
  19 F= -.99141941E+03 E0= -.99141941E+03  d E =-.221455E-02  mag=   118.0000
       N       E                     dE             d eps       ncg     rms          rms(c)
DAV:   1    -0.991415414266E+03    0.39938E-02   -0.16486E+00 12496   0.149E+00    0.463E-01
RMM:   2    -0.991420721769E+03   -0.53075E-02   -0.43918E-02 12624   0.289E-01    0.279E-01
RMM:   3    -0.991421092122E+03   -0.37035E-03   -0.26664E-03 12711   0.823E-02    0.152E-01
RMM:   4    -0.991420982599E+03    0.10952E-03   -0.29743E-04  8993   0.223E-02    0.948E-02
RMM:   5    -0.991420934122E+03    0.48476E-04   -0.22458E-04  8122   0.173E-02    0.306E-02
RMM:   6    -0.991420937636E+03   -0.35138E-05   -0.33990E-05  7262   0.105E-02    0.285E-02
RMM:   7    -0.991420938973E+03   -0.13372E-05   -0.14835E-05  7144   0.559E-03    0.131E-02
RMM:   8    -0.991420938951E+03    0.22046E-07   -0.79629E-06  6871   0.505E-03
  20 F= -.99142094E+03 E0= -.99142094E+03  d E =-.153060E-02  mag=   118.0000
       N       E                     dE             d eps       ncg     rms          rms(c)
DAV:   1    -0.991419623088E+03    0.13159E-02   -0.45981E-01 12624   0.789E-01    0.244E-01
RMM:   2    -0.991421111541E+03   -0.14885E-02   -0.12336E-02 12635   0.153E-01    0.147E-01
RMM:   3    -0.991421208733E+03   -0.97192E-04   -0.69595E-04 10175   0.436E-02    0.810E-02
RMM:   4    -0.991421182100E+03    0.26633E-04   -0.86944E-05  7378   0.141E-02    0.512E-02
RMM:   5    -0.991421169199E+03    0.12900E-04   -0.64357E-05  7241   0.104E-02    0.242E-02
RMM:   6    -0.991421171406E+03   -0.22071E-05   -0.16470E-05  7085   0.666E-03    0.114E-02
RMM:   7    -0.991421172027E+03   -0.62035E-06   -0.74554E-06  6525   0.419E-03    0.934E-03
RMM:   8    -0.991421172228E+03   -0.20135E-06   -0.36658E-06  5360   0.335E-03
  21 F= -.99142117E+03 E0= -.99142117E+03  d E =-.176387E-02  mag=   118.0000
       N       E                     dE             d eps       ncg     rms          rms(c)
DAV:   1    -0.991418249321E+03    0.29227E-02   -0.11488E+00 12488   0.125E+00    0.421E-01
RMM:   2    -0.991422204289E+03   -0.39550E-02   -0.29835E-02 12692   0.237E-01    0.241E-01
RMM:   3    -0.991422522735E+03   -0.31845E-03   -0.17389E-03 12349   0.671E-02    0.123E-01
RMM:   4    -0.991422437857E+03    0.84878E-04   -0.22001E-04  8380   0.197E-02    0.711E-02
RMM:   5    -0.991422415031E+03    0.22826E-04   -0.12827E-04  7478   0.145E-02    0.272E-02
RMM:   6    -0.991422418617E+03   -0.35858E-05   -0.26754E-05  7198   0.933E-03    0.255E-02
RMM:   7    -0.991422419998E+03   -0.13811E-05   -0.12909E-05  7063   0.501E-03    0.123E-02
RMM:   8    -0.991422420772E+03   -0.77390E-06   -0.70173E-06  6640   0.483E-03
  22 F= -.99142242E+03 E0= -.99142242E+03  d E =-.124854E-02  mag=   118.0000
       N       E                     dE             d eps       ncg     rms          rms(c)
DAV:   1    -0.991420631609E+03    0.17884E-02   -0.56435E-01 12592   0.875E-01    0.295E-01
RMM:   2    -0.991422579726E+03   -0.19481E-02   -0.14714E-02 12693   0.166E-01    0.169E-01
RMM:   3    -0.991422732764E+03   -0.15304E-03   -0.82847E-04 10610   0.471E-02    0.864E-02
RMM:   4    -0.991422693462E+03    0.39302E-04   -0.11167E-04  7524   0.152E-02    0.507E-02
RMM:   5    -0.991422683819E+03    0.96427E-05   -0.69182E-05  7291   0.108E-02    0.204E-02
RMM:   6    -0.991422686206E+03   -0.23871E-05   -0.16255E-05  7123   0.698E-03    0.129E-02
RMM:   7    -0.991422687134E+03   -0.92809E-06   -0.80649E-06  6477   0.403E-03    0.839E-03
RMM:   8    -0.991422687700E+03   -0.56624E-06   -0.42914E-06  5804   0.380E-03
  23 F= -.99142269E+03 E0= -.99142269E+03  d E =-.151547E-02  mag=   118.0000
       N       E                     dE             d eps       ncg     rms          rms(c)
DAV:   1    -0.991419571532E+03    0.31156E-02   -0.11249E+00 12736   0.124E+00    0.414E-01
RMM:   2    -0.991423431911E+03   -0.38604E-02   -0.29497E-02 12671   0.233E-01    0.243E-01
RMM:   3    -0.991423724249E+03   -0.29234E-03   -0.16595E-03 12150   0.670E-02    0.128E-01
RMM:   4    -0.991423644129E+03    0.80120E-04   -0.23547E-04  8458   0.201E-02    0.754E-02
RMM:   5    -0.991423624362E+03    0.19768E-04   -0.12716E-04  7479   0.146E-02    0.320E-02
RMM:   6    -0.991423628248E+03   -0.38861E-05   -0.29172E-05  7229   0.965E-03    0.283E-02
RMM:   7    -0.991423629696E+03   -0.14480E-05   -0.13451E-05  7131   0.523E-03    0.123E-02
RMM:   8    -0.991423630655E+03   -0.95900E-06   -0.74711E-06  6800   0.489E-03
  24 F= -.99142363E+03 E0= -.99142363E+03  d E =-.942954E-03  mag=   118.0000
       N       E                     dE             d eps       ncg     rms          rms(c)
DAV:   1    -0.991423299668E+03    0.33003E-03   -0.10525E-01 12736   0.378E-01    0.126E-01
RMM:   2    -0.991423664922E+03   -0.36525E-03   -0.27932E-03 12294   0.718E-02    0.746E-02
RMM:   3    -0.991423689433E+03   -0.24511E-04   -0.12738E-04  7550   0.223E-02    0.402E-02
RMM:   4    -0.991423685489E+03    0.39436E-05   -0.34949E-05  7068   0.940E-03    0.238E-02
RMM:   5    -0.991423685041E+03    0.44800E-06   -0.17141E-05  6652   0.556E-03    0.143E-02
RMM:   6    -0.991423685762E+03   -0.72065E-06   -0.59835E-06  5742   0.420E-03    0.103E-02
RMM:   7    -0.991423686115E+03   -0.35297E-06   -0.26396E-06  4336   0.260E-03    0.332E-03
RMM:   8    -0.991423686309E+03   -0.19380E-06   -0.12671E-06  3674   0.248E-03
  25 F= -.99142369E+03 E0= -.99142369E+03  d E =-.998608E-03  mag=   118.0000
       N       E                     dE             d eps       ncg     rms          rms(c)
DAV:   1    -0.991420453382E+03    0.32327E-02   -0.12228E+00 12456   0.128E+00    0.409E-01
RMM:   2    -0.991424367924E+03   -0.39145E-02   -0.31506E-02 12623   0.241E-01    0.242E-01
RMM:   3    -0.991424638991E+03   -0.27107E-03   -0.18208E-03 12352   0.697E-02    0.129E-01
RMM:   4    -0.991424550470E+03    0.88520E-04   -0.24042E-04  8456   0.202E-02    0.744E-02
RMM:   5    -0.991424525543E+03    0.24927E-04   -0.13620E-04  7471   0.148E-02    0.279E-02
RMM:   6    -0.991424528549E+03   -0.30052E-05   -0.29096E-05  7190   0.979E-03    0.287E-02
RMM:   7    -0.991424529644E+03   -0.10955E-05   -0.13470E-05  7068   0.513E-03    0.112E-02
RMM:   8    -0.991424529754E+03   -0.10962E-06   -0.73446E-06  6641   0.486E-03
  26 F= -.99142453E+03 E0= -.99142453E+03  d E =-.843445E-03  mag=   118.0000
       N       E                     dE             d eps       ncg     rms          rms(c)
DAV:   1    -0.991424256932E+03    0.27271E-03   -0.98971E-02 12464   0.365E-01    0.116E-01
RMM:   2    -0.991424576795E+03   -0.31986E-03   -0.25878E-03 12316   0.689E-02    0.690E-02
RMM:   3    -0.991424594563E+03   -0.17768E-04   -0.11659E-04  7441   0.210E-02    0.375E-02
RMM:   4    -0.991424590507E+03    0.40557E-05   -0.31581E-05  7037   0.902E-03    0.221E-02
RMM:   5    -0.991424589027E+03    0.14808E-05   -0.16417E-05  6586   0.532E-03    0.129E-02
RMM:   6    -0.991424589448E+03   -0.42126E-06   -0.54557E-06  5659   0.409E-03    0.979E-03
RMM:   7    -0.991424589683E+03   -0.23462E-06   -0.23552E-06  4083   0.248E-03    0.298E-03
RMM:   8    -0.991424589756E+03   -0.73182E-07   -0.11630E-06  3507   0.244E-03
  27 F= -.99142459E+03 E0= -.99142459E+03  d E =-.903447E-03  mag=   118.0000
       N       E                     dE             d eps       ncg     rms          rms(c)
DAV:   1    -0.991423100174E+03    0.14895E-02   -0.61461E-01 12688   0.907E-01    0.299E-01
RMM:   2    -0.991425165009E+03   -0.20648E-02   -0.15880E-02 12559   0.171E-01    0.177E-01
RMM:   3    -0.991425321833E+03   -0.15682E-03   -0.88961E-04 10953   0.496E-02    0.963E-02
RMM:   4    -0.991425281072E+03    0.40761E-04   -0.11311E-04  7538   0.153E-02    0.574E-02
RMM:   5    -0.991425267977E+03    0.13095E-04   -0.74056E-05  7284   0.111E-02    0.203E-02
RMM:   6    -0.991425270145E+03   -0.21677E-05   -0.15779E-05  7013   0.683E-03    0.147E-02
RMM:   7    -0.991425270745E+03   -0.59987E-06   -0.70442E-06  6186   0.378E-03    0.783E-03
RMM:   8    -0.991425270848E+03   -0.10367E-06   -0.36874E-06  5552   0.354E-03
  28 F= -.99142527E+03 E0= -.99142527E+03  d E =-.681093E-03  mag=   118.0000
       N       E                     dE             d eps       ncg     rms          rms(c)
DAV:   1    -0.991424873299E+03    0.39745E-03   -0.13798E-01 12352   0.430E-01    0.141E-01
RMM:   2    -0.991425339370E+03   -0.46607E-03   -0.35924E-03 12343   0.812E-02    0.835E-02
RMM:   3    -0.991425369616E+03   -0.30246E-04   -0.16126E-04  7950   0.245E-02    0.464E-02
RMM:   4    -0.991425363886E+03    0.57298E-05   -0.39648E-05  7083   0.102E-02    0.272E-02
RMM:   5    -0.991425361583E+03    0.23026E-05   -0.21824E-05  6626   0.619E-03    0.160E-02
RMM:   6    -0.991425362185E+03   -0.60159E-06   -0.68780E-06  5865   0.456E-03    0.122E-02
RMM:   7    -0.991425362487E+03   -0.30208E-06   -0.28550E-06  4367   0.264E-03    0.371E-03
RMM:   8    -0.991425362591E+03   -0.10342E-06   -0.14045E-06  3801   0.253E-03
  29 F= -.99142536E+03 E0= -.99142536E+03  d E =-.772835E-03  mag=   118.0000
       N       E                     dE             d eps       ncg     rms          rms(c)
DAV:   1    -0.991424616161E+03    0.74633E-03   -0.36113E-01 12616   0.697E-01    0.219E-01
RMM:   2    -0.991425790644E+03   -0.11745E-02   -0.92699E-03 12525   0.130E-01    0.126E-01
RMM:   3    -0.991425870416E+03   -0.79772E-04   -0.46882E-04  9610   0.385E-02    0.662E-02
RMM:   4    -0.991425850939E+03    0.19476E-04   -0.81168E-05  7290   0.132E-02    0.382E-02
RMM:   5    -0.991425846342E+03    0.45972E-05   -0.41815E-05  7138   0.902E-03    0.152E-02
RMM:   6    -0.991425848008E+03   -0.16653E-05   -0.12170E-05  6789   0.549E-03    0.880E-03
RMM:   7    -0.991425848552E+03   -0.54407E-06   -0.52673E-06  5241   0.358E-03    0.510E-03
RMM:   8    -0.991425848882E+03   -0.32996E-06   -0.28633E-06  4466   0.288E-03
  30 F= -.99142585E+03 E0= -.99142585E+03  d E =-.486291E-03  mag=   118.0000
