<?xml version="1.0" encoding="ISO-8859-1"?>
<modeling>
 <generator>
  <i name="program" type="string">vasp </i>
  <i name="version" type="string">5.4.1  </i>
  <i name="subversion" type="string">05Feb16 (build Jan 25 2017 20:16:33) complex                          parallel </i>
  <i name="platform" type="string">BWXE6 </i>
  <i name="date" type="string">2019 07 03 </i>
  <i name="time" type="string">09:53:04 </i>
 </generator>
 <incar>
  <i type="string" name="SYSTEM"> STF</i>
  <i type="string" name="PREC">normal</i>
  <i type="string" name="ALGO"> Fast</i>
  <i type="int" name="ISPIN">     2</i>
  <i type="int" name="NELM">    40</i>
  <i type="int" name="NELMIN">     8</i>
  <i type="int" name="IBRION">     2</i>
  <i name="EDIFF">      0.00010000</i>
  <i name="EDIFFG">     -0.03000000</i>
  <i type="int" name="NSW">    30</i>
  <i type="int" name="ISIF">     3</i>
  <i name="ENCUT">    520.00000000</i>
  <i type="int" name="NBANDS">   768</i>
  <v name="MAGMOM">      0.60000000      0.60000000      0.60000000      0.60000000      0.60000000      0.60000000      0.60000000      0.60000000      0.60000000      0.60000000      0.60000000      0.60000000      0.60000000      0.60000000      0.60000000      0.60000000      0.60000000      0.60000000      0.60000000      0.60000000
      0.60000000      0.60000000      0.60000000      0.60000000      0.60000000      0.60000000      0.60000000      0.60000000      0.60000000      0.60000000      0.60000000      0.60000000      0.60000000      0.60000000      0.60000000      0.60000000      0.60000000      0.60000000      0.60000000      0.60000000
      5.00000000      5.00000000      5.00000000      5.00000000      5.00000000      5.00000000      5.00000000      5.00000000      5.00000000      5.00000000      5.00000000      5.00000000      5.00000000      5.00000000      5.00000000      5.00000000      5.00000000      5.00000000      5.00000000      5.00000000
      5.00000000      5.00000000      5.00000000      5.00000000      0.60000000      0.60000000      0.60000000      0.60000000      0.60000000      0.60000000      0.60000000      0.60000000      0.60000000      0.60000000      0.60000000      0.60000000      0.60000000      0.60000000      0.60000000      0.60000000
      0.60000000      0.60000000      0.60000000      0.60000000      0.60000000      0.60000000      0.60000000      0.60000000      0.60000000      0.60000000      0.60000000      0.60000000      0.60000000      0.60000000      0.60000000      0.60000000      0.60000000      0.60000000      0.60000000      0.60000000
      0.60000000      0.60000000      0.60000000      0.60000000      0.60000000      0.60000000      0.60000000      0.60000000      0.60000000      0.60000000      0.60000000      0.60000000      0.60000000      0.60000000      0.60000000      0.60000000      0.60000000      0.60000000      0.60000000      0.60000000
      0.60000000      0.60000000      0.60000000      0.60000000      0.60000000      0.60000000      0.60000000      0.60000000      0.60000000      0.60000000      0.60000000      0.60000000      0.60000000      0.60000000      0.60000000      0.60000000      0.60000000      0.60000000      0.60000000      0.60000000
      0.60000000      0.60000000      0.60000000      0.60000000      0.60000000      0.60000000      0.60000000      0.60000000</v>
  <i type="string" name="LREAL"> Auto</i>
  <i type="int" name="ISMEAR">     0</i>
  <i name="SIGMA">      0.05000000</i>
  <i type="int" name="LMAXMIX">     4</i>
  <v type="int" name="KPOINT_BSE">    -1     0     0     0</v>
  <i type="int" name="NELM">    40</i>
  <i type="logical" name="LDAU"> T  </i>
  <v type="int" name="LDAUTYPE">     2</v>
  <v type="int" name="LDAUL">     0     2     2     0</v>
  <v name="LDAUU">      0.00000000      3.00000000      5.00000000      0.00000000</v>
  <v name="LDAUJ">      0.00000000      0.00000000      0.00000000      0.00000000</v>
  <i type="int" name="LDAUPRINT">     1</i>
 </incar>
 <kpoints>
  <generation param="Monkhorst-Pack">
   <v type="int" name="divisions">       2        2        2 </v>
   <v name="usershift">      0.00000000       0.00000000       0.00000000 </v>
   <v name="genvec1">      0.50000000       0.00000000       0.00000000 </v>
   <v name="genvec2">      0.00000000       0.50000000       0.00000000 </v>
   <v name="genvec3">      0.00000000       0.00000000       0.50000000 </v>
   <v name="shift">      0.50000000       0.50000000       0.50000000 </v>
  </generation>
  <varray name="kpointlist" >
   <v>       0.25000000       0.25000000       0.25000000 </v>
   <v>      -0.25000000       0.25000000       0.25000000 </v>
   <v>       0.25000000      -0.25000000       0.25000000 </v>
   <v>      -0.25000000      -0.25000000       0.25000000 </v>
  </varray>
  <varray name="weights" >
   <v>       0.25000000 </v>
   <v>       0.25000000 </v>
   <v>       0.25000000 </v>
   <v>       0.25000000 </v>
  </varray>
 </kpoints>
 <parameters>
  <separator name="general" >
   <i type="string" name="SYSTEM">STF</i>
   <i type="logical" name="LCOMPAT"> F  </i>
  </separator>
  <separator name="electronic" >
   <i type="string" name="PREC">normal</i>
   <i name="ENMAX">    520.00000000</i>
   <i name="ENAUG">    605.39200000</i>
   <i name="EDIFF">      0.00010000</i>
   <i type="int" name="IALGO">    68</i>
   <i type="int" name="IWAVPR">    11</i>
   <i type="int" name="NBANDS">   768</i>
   <i name="NELECT">   1048.00000000</i>
   <i type="int" name="TURBO">     0</i>
   <i type="int" name="IRESTART">     0</i>
   <i type="int" name="NREBOOT">     0</i>
   <i type="int" name="NMIN">     0</i>
   <i name="EREF">      0.00000000</i>
   <separator name="electronic smearing" >
    <i type="int" name="ISMEAR">     0</i>
    <i name="SIGMA">      0.05000000</i>
    <i name="KSPACING">      0.50000000</i>
    <i type="logical" name="KGAMMA"> T  </i>
   </separator>
   <separator name="electronic projectors" >
    <i type="logical" name="LREAL"> T  </i>
    <v name="ROPT">     -0.00050000     -0.00050000     -0.00050000     -0.00050000</v>
    <i type="int" name="LMAXPAW">  -100</i>
    <i type="int" name="LMAXMIX">     4</i>
    <i type="logical" name="NLSPLINE"> F  </i>
   </separator>
   <separator name="electronic startup" >
    <i type="int" name="ISTART">     1</i>
    <i type="int" name="ICHARG">     0</i>
    <i type="int" name="INIWAV">     1</i>
   </separator>
   <separator name="electronic spin" >
    <i type="int" name="ISPIN">     2</i>
    <i type="logical" name="LNONCOLLINEAR"> F  </i>
    <v name="MAGMOM">      0.60000000      0.60000000      0.60000000      0.60000000      0.60000000      0.60000000      0.60000000      0.60000000      0.60000000      0.60000000      0.60000000      0.60000000      0.60000000      0.60000000      0.60000000      0.60000000      0.60000000      0.60000000      0.60000000      0.60000000
      0.60000000      0.60000000      0.60000000      0.60000000      0.60000000      0.60000000      0.60000000      0.60000000      0.60000000      0.60000000      0.60000000      0.60000000      0.60000000      0.60000000      0.60000000      0.60000000      0.60000000      0.60000000      0.60000000      0.60000000
      5.00000000      5.00000000      5.00000000      5.00000000      5.00000000      5.00000000      5.00000000      5.00000000      5.00000000      5.00000000      5.00000000      5.00000000      5.00000000      5.00000000      5.00000000      5.00000000      5.00000000      5.00000000      5.00000000      5.00000000
      5.00000000      5.00000000      5.00000000      5.00000000      0.60000000      0.60000000      0.60000000      0.60000000      0.60000000      0.60000000      0.60000000      0.60000000      0.60000000      0.60000000      0.60000000      0.60000000      0.60000000      0.60000000      0.60000000      0.60000000
      0.60000000      0.60000000      0.60000000      0.60000000      0.60000000      0.60000000      0.60000000      0.60000000      0.60000000      0.60000000      0.60000000      0.60000000      0.60000000      0.60000000      0.60000000      0.60000000      0.60000000      0.60000000      0.60000000      0.60000000
      0.60000000      0.60000000      0.60000000      0.60000000      0.60000000      0.60000000      0.60000000      0.60000000      0.60000000      0.60000000      0.60000000      0.60000000      0.60000000      0.60000000      0.60000000      0.60000000      0.60000000      0.60000000      0.60000000      0.60000000
      0.60000000      0.60000000      0.60000000      0.60000000      0.60000000      0.60000000      0.60000000      0.60000000      0.60000000      0.60000000      0.60000000      0.60000000      0.60000000      0.60000000      0.60000000      0.60000000      0.60000000      0.60000000      0.60000000      0.60000000
      0.60000000      0.60000000      0.60000000      0.60000000      0.60000000      0.60000000      0.60000000      0.60000000</v>
    <i name="NUPDOWN">     -1.00000000</i>
    <i type="logical" name="LSORBIT"> F  </i>
    <v name="SAXIS">      0.00000000      0.00000000      1.00000000</v>
    <i type="logical" name="LSPIRAL"> F  </i>
    <v name="QSPIRAL">      0.00000000      0.00000000      0.00000000</v>
    <i type="logical" name="LZEROZ"> F  </i>
   </separator>
   <separator name="electronic exchange-correlation" >
    <i type="logical" name="LASPH"> F  </i>
    <i type="logical" name="LMETAGGA"> F  </i>
   </separator>
   <separator name="electronic convergence" >
    <i type="int" name="NELM">    40</i>
    <i type="int" name="NELMDL">     0</i>
    <i type="int" name="NELMIN">     8</i>
    <i name="ENINI">    520.00000000</i>
    <separator name="electronic convergence detail" >
     <i type="logical" name="LDIAG"> T  </i>
     <i type="logical" name="LSUBROT"> F  </i>
     <i name="WEIMIN">      0.00100000</i>
     <i name="EBREAK">      0.00000003</i>
     <i name="DEPER">      0.30000000</i>
     <i type="int" name="NRMM">     4</i>
     <i name="TIME">      0.40000000</i>
    </separator>
   </separator>
   <separator name="electronic mixer" >
    <i name="AMIX">      0.40000000</i>
    <i name="BMIX">      1.00000000</i>
    <i name="AMIN">      0.10000000</i>
    <i name="AMIX_MAG">      1.60000000</i>
    <i name="BMIX_MAG">      1.00000000</i>
    <separator name="electronic mixer details" >
     <i type="int" name="IMIX">     4</i>
     <i type="logical" name="MIXFIRST"> F  </i>
     <i type="int" name="MAXMIX">   -45</i>
     <i name="WC">    100.00000000</i>
     <i type="int" name="INIMIX">     1</i>
     <i type="int" name="MIXPRE">     1</i>
     <i type="int" name="MREMOVE">     5</i>
    </separator>
   </separator>
   <separator name="electronic dipolcorrection" >
    <i type="logical" name="LDIPOL"> F  </i>
    <i type="logical" name="LMONO"> F  </i>
    <i type="int" name="IDIPOL">     0</i>
    <i name="EPSILON">      1.00000000</i>
    <v name="DIPOL">   -100.00000000   -100.00000000   -100.00000000</v>
    <i name="EFIELD">      0.00000000</i>
   </separator>
  </separator>
  <separator name="grids" >
   <i type="int" name="NGX">    64</i>
   <i type="int" name="NGY">    64</i>
   <i type="int" name="NGZ">    90</i>
   <i type="int" name="NGXF">   128</i>
   <i type="int" name="NGYF">   128</i>
   <i type="int" name="NGZF">   180</i>
   <i type="logical" name="ADDGRID"> F  </i>
  </separator>
  <separator name="ionic" >
   <i type="int" name="NSW">    30</i>
   <i type="int" name="IBRION">     2</i>
   <i type="int" name="ISIF">     3</i>
   <i name="PSTRESS">      0.00000000</i>
   <i name="EDIFFG">     -0.03000000</i>
   <i type="int" name="NFREE">     1</i>
   <i name="POTIM">      0.50000000</i>
   <i name="SMASS">     -3.00000000</i>
   <i name="SCALEE">      1.00000000</i>
  </separator>
  <separator name="ionic md" >
   <i name="TEBEG">      0.00010000</i>
   <i name="TEEND">      0.00010000</i>
   <i type="int" name="NBLOCK">     1</i>
   <i type="int" name="KBLOCK">    30</i>
   <i type="int" name="NPACO">   256</i>
   <i name="APACO">     16.00000000</i>
  </separator>
  <separator name="symmetry" >
   <i type="int" name="ISYM">     2</i>
   <i name="SYMPREC">      0.00001000</i>
  </separator>
  <separator name="dos" >
   <i type="logical" name="LORBIT"> F  </i>
   <v name="RWIGS">     -1.00000000     -1.00000000     -1.00000000     -1.00000000</v>
   <i type="int" name="NEDOS">   301</i>
   <i name="EMIN">     10.00000000</i>
   <i name="EMAX">    -10.00000000</i>
   <i name="EFERMI">      0.00000000</i>
  </separator>
  <separator name="writing" >
   <i type="int" name="NWRITE">     2</i>
   <i type="logical" name="LWAVE"> T  </i>
   <i type="logical" name="LCHARG"> T  </i>
   <i type="logical" name="LPARD"> F  </i>
   <i type="logical" name="LVTOT"> F  </i>
   <i type="logical" name="LVHAR"> F  </i>
   <i type="logical" name="LELF"> F  </i>
   <i type="logical" name="LOPTICS"> F  </i>
   <v name="STM">      0.00000000      0.00000000      0.00000000      0.00000000      0.00000000      0.00000000      0.00000000</v>
  </separator>
  <separator name="performance" >
   <i type="int" name="NPAR">     2</i>
   <i type="int" name="NSIM">     4</i>
   <i type="int" name="NBLK">    -1</i>
   <i type="logical" name="LPLANE"> T  </i>
   <i type="logical" name="LSCALAPACK"> T  </i>
   <i type="logical" name="LSCAAWARE"> F  </i>
   <i type="logical" name="LSCALU"> F  </i>
   <i type="logical" name="LASYNC"> F  </i>
   <i type="logical" name="LORBITALREAL"> F  </i>
  </separator>
  <separator name="miscellaneous" >
   <i type="int" name="IDIOT">     3</i>
   <i type="logical" name="LMUSIC"> F  </i>
   <v name="POMASS">     87.62000000     47.88000000     55.84700000     16.00000000</v>
   <v name="DARWINR">      0.00000000      0.00000000      0.00000000      0.00000000</v>
   <v name="DARWINV">      1.00000000      1.00000000      1.00000000      1.00000000</v>
   <i type="logical" name="LCORR"> T  </i>
  </separator>
  <i type="logical" name="GGA_COMPAT"> T  </i>
  <i type="logical" name="LBERRY"> F  </i>
  <i type="int" name="ICORELEVEL">     0</i>
  <i type="logical" name="LDAU"> T  </i>
  <v type="int" name="LDAUTYPE">     2</v>
  <v type="int" name="LDAUL">     0</v>
  <v name="LDAUU">      0.00000000</v>
  <v name="LDAUJ">      0.00000000</v>
  <i type="int" name="LDAUPRINT">     1</i>
  <i type="int" name="I_CONSTRAINED_M">     0</i>
  <separator name="electronic exchange-correlation" >
   <i type="string" name="GGA">--</i>
   <i type="int" name="VOSKOWN">     0</i>
   <i type="logical" name="LHFCALC"> F  </i>
   <i type="string" name="PRECFOCK"></i>
   <i type="logical" name="LSYMGRAD"> F  </i>
   <i type="logical" name="LHFONE"> F  </i>
   <i type="logical" name="LRHFCALC"> F  </i>
   <i type="logical" name="LTHOMAS"> F  </i>
   <i type="logical" name="LMODELHF"> F  </i>
   <i name="ENCUT4O">     -1.00000000</i>
   <i type="int" name="EXXOEP">     0</i>
   <i type="int" name="FOURORBIT">     0</i>
   <i name="AEXX">      0.00000000</i>
   <i name="HFALPHA">      0.00000000</i>
   <i name="MCALPHA">      0.00000000</i>
   <i name="ALDAX">      1.00000000</i>
   <i name="AGGAX">      1.00000000</i>
   <i name="ALDAC">      1.00000000</i>
   <i name="AGGAC">      1.00000000</i>
   <i type="int" name="NKREDX">     1</i>
   <i type="int" name="NKREDY">     1</i>
   <i type="int" name="NKREDZ">     1</i>
   <i type="logical" name="SHIFTRED"> F  </i>
   <i type="logical" name="ODDONLY"> F  </i>
   <i type="logical" name="EVENONLY"> F  </i>
   <i type="int" name="LMAXFOCK">     0</i>
   <i type="int" name="NMAXFOCKAE">     0</i>
   <i type="logical" name="LFOCKAEDFT"> F  </i>
   <i name="HFSCREEN">      0.00000000</i>
   <i name="HFSCREENC">      0.00000000</i>
   <i type="int" name="NBANDSGWLOW">     0</i>
  </separator>
  <separator name="vdW DFT" >
   <i type="logical" name="LUSE_VDW"> F  </i>
   <i name="Zab_VDW">     -0.84910000</i>
   <i name="PARAM1">      0.12340000</i>
   <i name="PARAM2">      1.00000000</i>
   <i name="PARAM3">      0.00000000</i>
  </separator>
  <separator name="model GW" >
   <i type="int" name="MODEL_GW">     0</i>
   <i name="MODEL_EPS0">      8.11830163</i>
   <i name="MODEL_ALPHA">      1.00000000</i>
  </separator>
  <separator name="linear response parameters" >
   <i type="logical" name="LEPSILON"> F  </i>
   <i type="logical" name="LRPA"> F  </i>
   <i type="logical" name="LNABLA"> F  </i>
   <i type="logical" name="LVEL"> F  </i>
   <i type="int" name="KINTER">     0</i>
   <i name="CSHIFT">      0.10000000</i>
   <i name="OMEGAMAX">     -1.00000000</i>
   <i name="DEG_THRESHOLD">      0.00200000</i>
  </separator>
  <separator name="orbital magnetization" >
   <i type="logical" name="NUCIND"> F  </i>
   <v name="MAGPOS">      0.00000000      0.00000000      0.00000000</v>
   <i type="logical" name="LNICSALL"> T  </i>
   <i type="logical" name="ORBITALMAG"> F  </i>
   <i type="logical" name="LMAGBLOCH"> F  </i>
   <i type="logical" name="LCHIMAG"> F  </i>
   <i type="logical" name="LGAUGE"> T  </i>
   <i type="int" name="MAGATOM">     0</i>
   <v name="MAGDIPOL">      0.00000000      0.00000000      0.00000000</v>
   <v name="AVECCONST">      0.00000000      0.00000000      0.00000000</v>
  </separator>
  <separator name="response functions" >
   <i type="logical" name="LADDER"> F  </i>
   <i type="logical" name="LFXC"> F  </i>
   <i type="logical" name="LHARTREE"> T  </i>
   <i type="int" name="IBSE">     0</i>
   <v type="int" name="KPOINT">    -1     0     0     0</v>
   <i type="logical" name="LTCTE"> F  </i>
   <i type="logical" name="LTETE"> F  </i>
   <i type="logical" name="LTRIPLET"> F  </i>
   <i type="logical" name="LFXCEPS"> F  </i>
   <i type="logical" name="LFXHEG"> F  </i>
   <i type="int" name="NATURALO">     0</i>
   <i type="logical" name="L2ORDER"> F  </i>
   <i type="logical" name="LUSEW"> F  </i>
   <i name="ENCUTGW">     -2.00000000</i>
   <i name="ENCUTGWSOFT">     -2.00000000</i>
   <i name="ENCUTLF">     -1.00000000</i>
   <i type="int" name="LMAXMP2">    -1</i>
   <i name="SCISSOR">      0.00000000</i>
   <i type="int" name="NOMEGA">     0</i>
   <i type="int" name="NOMEGAR">     0</i>
   <i type="int" name="NBANDSGW">    -1</i>
   <i type="int" name="NBANDSO">    -1</i>
   <i type="int" name="NBANDSV">    -1</i>
   <i type="int" name="NELM">    40</i>
   <i type="int" name="NELMHF">     1</i>
   <i type="int" name="DIM">     3</i>
   <i type="int" name="ANTIRES">     0</i>
   <i name="OMEGAMAX">    -30.00000000</i>
   <i name="OMEGAMIN">    -30.00000000</i>
   <i name="OMEGATL">   -200.00000000</i>
   <i type="int" name="OMEGAGRID">     0</i>
   <i name="CSHIFT">     -0.10000000</i>
   <i type="logical" name="SELFENERGY"> F  </i>
   <i type="logical" name="LSPECTRAL"> F  </i>
   <i type="logical" name="LSPECTRALGW"> F  </i>
   <i type="logical" name="LSINGLES"> F  </i>
   <i type="logical" name="LFERMIGW"> F  </i>
   <i type="logical" name="ODDONLYGW"> F  </i>
   <i type="logical" name="EVENONLYGW"> F  </i>
   <i type="int" name="NKREDLFX">     1</i>
   <i type="int" name="NKREDLFY">     1</i>
   <i type="int" name="NKREDLFZ">     1</i>
   <i type="int" name="MAXMEM">  1800</i>
   <i type="int" name="TELESCOPE">     0</i>
   <i type="int" name="TAUPAR">     1</i>
   <i type="int" name="OMEGAPAR">    -1</i>
   <i name="LAMBDA">      1.00000000</i>
  </separator>
  <separator name="External order field" >
   <i name="OFIELD_KAPPA">      0.00000000</i>
   <v name="OFIELD_K">      0.00000000      0.00000000      0.00000000</v>
   <i name="OFIELD_Q6_NEAR">      0.00000000</i>
   <i name="OFIELD_Q6_FAR">      0.00000000</i>
   <i name="OFIELD_A">      0.00000000</i>
  </separator>
 </parameters>
 <atominfo>
  <atoms>     148 </atoms>
  <types>       4 </types>
  <array name="atoms" >
   <dimension dim="1">ion</dimension>
   <field type="string">element</field>
   <field type="int">atomtype</field>
   <set>
    <rc><c>Sr</c><c>   1</c></rc>
    <rc><c>Sr</c><c>   1</c></rc>
    <rc><c>Sr</c><c>   1</c></rc>
    <rc><c>Sr</c><c>   1</c></rc>
    <rc><c>Sr</c><c>   1</c></rc>
    <rc><c>Sr</c><c>   1</c></rc>
    <rc><c>Sr</c><c>   1</c></rc>
    <rc><c>Sr</c><c>   1</c></rc>
    <rc><c>Sr</c><c>   1</c></rc>
    <rc><c>Sr</c><c>   1</c></rc>
    <rc><c>Sr</c><c>   1</c></rc>
    <rc><c>Sr</c><c>   1</c></rc>
    <rc><c>Sr</c><c>   1</c></rc>
    <rc><c>Sr</c><c>   1</c></rc>
    <rc><c>Sr</c><c>   1</c></rc>
    <rc><c>Sr</c><c>   1</c></rc>
    <rc><c>Sr</c><c>   1</c></rc>
    <rc><c>Sr</c><c>   1</c></rc>
    <rc><c>Sr</c><c>   1</c></rc>
    <rc><c>Sr</c><c>   1</c></rc>
    <rc><c>Sr</c><c>   1</c></rc>
    <rc><c>Sr</c><c>   1</c></rc>
    <rc><c>Sr</c><c>   1</c></rc>
    <rc><c>Sr</c><c>   1</c></rc>
    <rc><c>Sr</c><c>   1</c></rc>
    <rc><c>Sr</c><c>   1</c></rc>
    <rc><c>Sr</c><c>   1</c></rc>
    <rc><c>Sr</c><c>   1</c></rc>
    <rc><c>Sr</c><c>   1</c></rc>
    <rc><c>Sr</c><c>   1</c></rc>
    <rc><c>Sr</c><c>   1</c></rc>
    <rc><c>Sr</c><c>   1</c></rc>
    <rc><c>Ti</c><c>   2</c></rc>
    <rc><c>Ti</c><c>   2</c></rc>
    <rc><c>Ti</c><c>   2</c></rc>
    <rc><c>Ti</c><c>   2</c></rc>
    <rc><c>Ti</c><c>   2</c></rc>
    <rc><c>Ti</c><c>   2</c></rc>
    <rc><c>Ti</c><c>   2</c></rc>
    <rc><c>Ti</c><c>   2</c></rc>
    <rc><c>Fe</c><c>   3</c></rc>
    <rc><c>Fe</c><c>   3</c></rc>
    <rc><c>Fe</c><c>   3</c></rc>
    <rc><c>Fe</c><c>   3</c></rc>
    <rc><c>Fe</c><c>   3</c></rc>
    <rc><c>Fe</c><c>   3</c></rc>
    <rc><c>Fe</c><c>   3</c></rc>
    <rc><c>Fe</c><c>   3</c></rc>
    <rc><c>Fe</c><c>   3</c></rc>
    <rc><c>Fe</c><c>   3</c></rc>
    <rc><c>Fe</c><c>   3</c></rc>
    <rc><c>Fe</c><c>   3</c></rc>
    <rc><c>Fe</c><c>   3</c></rc>
    <rc><c>Fe</c><c>   3</c></rc>
    <rc><c>Fe</c><c>   3</c></rc>
    <rc><c>Fe</c><c>   3</c></rc>
    <rc><c>Fe</c><c>   3</c></rc>
    <rc><c>Fe</c><c>   3</c></rc>
    <rc><c>Fe</c><c>   3</c></rc>
    <rc><c>Fe</c><c>   3</c></rc>
    <rc><c>Fe</c><c>   3</c></rc>
    <rc><c>Fe</c><c>   3</c></rc>
    <rc><c>Fe</c><c>   3</c></rc>
    <rc><c>Fe</c><c>   3</c></rc>
    <rc><c>O </c><c>   4</c></rc>
    <rc><c>O </c><c>   4</c></rc>
    <rc><c>O </c><c>   4</c></rc>
    <rc><c>O </c><c>   4</c></rc>
    <rc><c>O </c><c>   4</c></rc>
    <rc><c>O </c><c>   4</c></rc>
    <rc><c>O </c><c>   4</c></rc>
    <rc><c>O </c><c>   4</c></rc>
    <rc><c>O </c><c>   4</c></rc>
    <rc><c>O </c><c>   4</c></rc>
    <rc><c>O </c><c>   4</c></rc>
    <rc><c>O </c><c>   4</c></rc>
    <rc><c>O </c><c>   4</c></rc>
    <rc><c>O </c><c>   4</c></rc>
    <rc><c>O </c><c>   4</c></rc>
    <rc><c>O </c><c>   4</c></rc>
    <rc><c>O </c><c>   4</c></rc>
    <rc><c>O </c><c>   4</c></rc>
    <rc><c>O </c><c>   4</c></rc>
    <rc><c>O </c><c>   4</c></rc>
    <rc><c>O </c><c>   4</c></rc>
    <rc><c>O </c><c>   4</c></rc>
    <rc><c>O </c><c>   4</c></rc>
    <rc><c>O </c><c>   4</c></rc>
    <rc><c>O </c><c>   4</c></rc>
    <rc><c>O </c><c>   4</c></rc>
    <rc><c>O </c><c>   4</c></rc>
    <rc><c>O </c><c>   4</c></rc>
    <rc><c>O </c><c>   4</c></rc>
    <rc><c>O </c><c>   4</c></rc>
    <rc><c>O </c><c>   4</c></rc>
    <rc><c>O </c><c>   4</c></rc>
    <rc><c>O </c><c>   4</c></rc>
    <rc><c>O </c><c>   4</c></rc>
    <rc><c>O </c><c>   4</c></rc>
    <rc><c>O </c><c>   4</c></rc>
    <rc><c>O </c><c>   4</c></rc>
    <rc><c>O </c><c>   4</c></rc>
    <rc><c>O </c><c>   4</c></rc>
    <rc><c>O </c><c>   4</c></rc>
    <rc><c>O </c><c>   4</c></rc>
    <rc><c>O </c><c>   4</c></rc>
    <rc><c>O </c><c>   4</c></rc>
    <rc><c>O </c><c>   4</c></rc>
    <rc><c>O </c><c>   4</c></rc>
    <rc><c>O </c><c>   4</c></rc>
    <rc><c>O </c><c>   4</c></rc>
    <rc><c>O </c><c>   4</c></rc>
    <rc><c>O </c><c>   4</c></rc>
    <rc><c>O </c><c>   4</c></rc>
    <rc><c>O </c><c>   4</c></rc>
    <rc><c>O </c><c>   4</c></rc>
    <rc><c>O </c><c>   4</c></rc>
    <rc><c>O </c><c>   4</c></rc>
    <rc><c>O </c><c>   4</c></rc>
    <rc><c>O </c><c>   4</c></rc>
    <rc><c>O </c><c>   4</c></rc>
    <rc><c>O </c><c>   4</c></rc>
    <rc><c>O </c><c>   4</c></rc>
    <rc><c>O </c><c>   4</c></rc>
    <rc><c>O </c><c>   4</c></rc>
    <rc><c>O </c><c>   4</c></rc>
    <rc><c>O </c><c>   4</c></rc>
    <rc><c>O </c><c>   4</c></rc>
    <rc><c>O </c><c>   4</c></rc>
    <rc><c>O </c><c>   4</c></rc>
    <rc><c>O </c><c>   4</c></rc>
    <rc><c>O </c><c>   4</c></rc>
    <rc><c>O </c><c>   4</c></rc>
    <rc><c>O </c><c>   4</c></rc>
    <rc><c>O </c><c>   4</c></rc>
    <rc><c>O </c><c>   4</c></rc>
    <rc><c>O </c><c>   4</c></rc>
    <rc><c>O </c><c>   4</c></rc>
    <rc><c>O </c><c>   4</c></rc>
    <rc><c>O </c><c>   4</c></rc>
    <rc><c>O </c><c>   4</c></rc>
    <rc><c>O </c><c>   4</c></rc>
    <rc><c>O </c><c>   4</c></rc>
    <rc><c>O </c><c>   4</c></rc>
    <rc><c>O </c><c>   4</c></rc>
    <rc><c>O </c><c>   4</c></rc>
    <rc><c>O </c><c>   4</c></rc>
    <rc><c>O </c><c>   4</c></rc>
   </set>
  </array>
  <array name="atomtypes" >
   <dimension dim="1">type</dimension>
   <field type="int">atomspertype</field>
   <field type="string">element</field>
   <field>mass</field>
   <field>valence</field>
   <field type="string">pseudopotential</field>
   <set>
    <rc><c>  32</c><c>Sr</c><c>     87.62000000</c><c>     10.00000000</c><c>  PAW_PBE Sr_sv 07Sep2000               </c></rc>
    <rc><c>   8</c><c>Ti</c><c>     47.88000000</c><c>      4.00000000</c><c>  PAW_PBE Ti 08Apr2002                  </c></rc>
    <rc><c>  24</c><c>Fe</c><c>     55.84700000</c><c>      8.00000000</c><c>  PAW_PBE Fe 06Sep2000                  </c></rc>
    <rc><c>  84</c><c>O </c><c>     16.00000000</c><c>      6.00000000</c><c>  PAW_PBE O 08Apr2002                   </c></rc>
   </set>
  </array>
 </atominfo>
 <structure name="initialpos" >
  <crystal>
   <varray name="basis" >
    <v>      11.25084510       0.04455836       0.02794873 </v>
    <v>       0.04429620      11.25576482      -0.02867793 </v>
    <v>       0.03992246      -0.04052552      15.81349416 </v>
   </varray>
   <i name="volume">   2002.51440190 </i>
   <varray name="rec_basis" >
    <v>       0.08888416      -0.00035037      -0.00022529 </v>
    <v>      -0.00035243       0.08884533       0.00022858 </v>
    <v>      -0.00015773       0.00016174       0.06323794 </v>
   </varray>
  </crystal>
  <varray name="positions" >
   <v>       0.99380085       0.25371475       0.11994153 </v>
   <v>       0.99098477       0.25755743       0.63223881 </v>
   <v>       0.98866463       0.75121596       0.13075132 </v>
   <v>       0.97766117       0.75083031       0.62420180 </v>
   <v>       0.51357529       0.26105956       0.12014859 </v>
   <v>       0.52253290       0.25955597       0.63465744 </v>
   <v>       0.50406488       0.73298217       0.12562347 </v>
   <v>       0.49323700       0.74844723       0.62741558 </v>
   <v>       0.98821382       0.25899342       0.36695411 </v>
   <v>       0.00714141       0.24823241       0.87566098 </v>
   <v>       0.00809612       0.74551641       0.36896202 </v>
   <v>       0.98926892       0.75423224       0.87773700 </v>
   <v>       0.51945389       0.24657752       0.37040371 </v>
   <v>       0.50407319       0.26529469       0.87385896 </v>
   <v>       0.48674397       0.74438427       0.36525321 </v>
   <v>       0.50790582       0.74214009       0.88527975 </v>
   <v>       0.23996834       0.00101523       0.11756285 </v>
   <v>       0.26141481       0.01198444       0.63182349 </v>
   <v>       0.25528332       0.49050221       0.12699766 </v>
   <v>       0.23646753       0.50781628       0.62550661 </v>
   <v>       0.76140264       0.00663026       0.12022557 </v>
   <v>       0.75337465       0.01411372       0.62978163 </v>
   <v>       0.74807771       0.49732480       0.12476643 </v>
   <v>       0.75251372       0.49464106       0.63137568 </v>
   <v>       0.25084872       0.99417349       0.36979302 </v>
   <v>       0.25507730       0.01774666       0.86775125 </v>
   <v>       0.25051586       0.50890549       0.35839341 </v>
   <v>       0.25463174       0.48938109       0.88069797 </v>
   <v>       0.76045627       0.00441491       0.37365603 </v>
   <v>       0.76367958       0.00751829       0.87366826 </v>
   <v>       0.74371854       0.48696586       0.36546852 </v>
   <v>       0.74644351       0.49758036       0.87991424 </v>
   <v>       0.25802124       0.24763973       0.99730864 </v>
   <v>       0.27358786       0.24403651       0.51286254 </v>
   <v>       0.75212045       0.24559243       0.99595263 </v>
   <v>       0.74823307       0.24989037       0.49898089 </v>
   <v>       0.74875408       0.75606163       0.00041828 </v>
   <v>       0.00631297       0.99741776       0.24905851 </v>
   <v>       0.00406577       0.50550367       0.75446038 </v>
   <v>       0.50037338       0.50715656       0.74891637 </v>
   <v>       0.00542144       0.99726106       0.99880731 </v>
   <v>       0.98959850       0.00097294       0.49777271 </v>
   <v>       0.98886548       0.49315374       0.99957246 </v>
   <v>       0.97115797       0.51538685       0.49631119 </v>
   <v>       0.50835264       0.99882808       0.97940135 </v>
   <v>       0.50737304       0.99114440       0.50372420 </v>
   <v>       0.49986412       0.49793747       0.00340040 </v>
   <v>       0.48026895       0.48997320       0.50024464 </v>
   <v>       0.25996965       0.76700687       0.99131431 </v>
   <v>       0.25677301       0.74629154       0.49319118 </v>
   <v>       0.74824485       0.76713226       0.51256821 </v>
   <v>       0.23827883       0.25757485       0.23717580 </v>
   <v>       0.25078458       0.25935363       0.74918957 </v>
   <v>       0.24798376       0.75152804       0.25206755 </v>
   <v>       0.24884522       0.73282318       0.76252094 </v>
   <v>       0.75457934       0.25102666       0.24640603 </v>
   <v>       0.75505430       0.25702826       0.75267353 </v>
   <v>       0.75431109       0.74479940       0.24429391 </v>
   <v>       0.75493383       0.74437800       0.75404645 </v>
   <v>       0.99852081       0.00942758       0.74986362 </v>
   <v>       0.99695472       0.50504111       0.24700328 </v>
   <v>       0.51807080       0.98125466       0.26422319 </v>
   <v>       0.50124241       0.02135644       0.74544377 </v>
   <v>       0.50632410       0.50070030       0.25187956 </v>
   <v>       0.14980608       0.11851237       0.25884050 </v>
   <v>       0.12854859       0.12290867       0.74522893 </v>
   <v>       0.12624614       0.63090430       0.24121209 </v>
   <v>       0.10737538       0.65717603       0.72718826 </v>
   <v>       0.60267578       0.11340826       0.22693567 </v>
   <v>       0.63209702       0.12688868       0.74395987 </v>
   <v>       0.62686468       0.62563171       0.25283364 </v>
   <v>       0.60528316       0.65286772       0.75382595 </v>
   <v>       0.36735482       0.34416700       0.27925771 </v>
   <v>       0.38669086       0.37594783       0.74152939 </v>
   <v>       0.31802997       0.87619411       0.73988591 </v>
   <v>       0.87281384       0.37957206       0.25176589 </v>
   <v>       0.88989294       0.37679036       0.75869252 </v>
   <v>       0.88439751       0.87336740       0.25607028 </v>
   <v>       0.87772979       0.87727754       0.74418962 </v>
   <v>       0.37709136       0.13221271       0.74338042 </v>
   <v>       0.37010753       0.62744766       0.24377752 </v>
   <v>       0.36323801       0.61986438       0.73170303 </v>
   <v>       0.88383804       0.12187252       0.25909145 </v>
   <v>       0.88048455       0.12754864       0.74324006 </v>
   <v>       0.87248315       0.62866185       0.27672189 </v>
   <v>       0.86466803       0.61756222       0.75197153 </v>
   <v>       0.12083200       0.37456933       0.23941672 </v>
   <v>       0.13655346       0.39686147       0.75113709 </v>
   <v>       0.13431156       0.87465039       0.22840293 </v>
   <v>       0.62134201       0.36804808       0.25379707 </v>
   <v>       0.63478155       0.39339566       0.75467709 </v>
   <v>       0.63919519       0.86670096       0.27906513 </v>
   <v>       0.37520953       0.37658351       0.99615639 </v>
   <v>       0.33690888       0.39281970       0.48316134 </v>
   <v>       0.37279227       0.88760804       0.99940155 </v>
   <v>       0.34914527       0.88324313       0.51071764 </v>
   <v>       0.87446052       0.37468839       0.99001484 </v>
   <v>       0.86990984       0.37496769       0.48941572 </v>
   <v>       0.86959182       0.88217826       0.99975290 </v>
   <v>       0.87077647       0.87511517       0.49013797 </v>
   <v>       0.13735550       0.11893607       0.99841687 </v>
   <v>       0.15290960       0.17291483       0.45541253 </v>
   <v>       0.11611006       0.66076236       0.50915351 </v>
   <v>       0.63228334       0.11728398       0.00271925 </v>
   <v>       0.64340698       0.10272107       0.50412144 </v>
   <v>       0.62014430       0.62840225       0.00068024 </v>
   <v>       0.12973591       0.37891188       0.00879183 </v>
   <v>       0.11861921       0.84446103       0.02327368 </v>
   <v>       0.62669860       0.37388038       0.99821562 </v>
   <v>       0.60949463       0.36044028       0.49378003 </v>
   <v>       0.61623767       0.87628571       0.02269817 </v>
   <v>       0.60551076       0.83767177       0.47813365 </v>
   <v>       0.39053069       0.12821244       0.98331354 </v>
   <v>       0.39624235       0.13521950       0.52436861 </v>
   <v>       0.34445431       0.63175657       0.02589606 </v>
   <v>       0.37525004       0.63125409       0.52323304 </v>
   <v>       0.88547712       0.12757772       0.98751923 </v>
   <v>       0.89041688       0.13304447       0.50840897 </v>
   <v>       0.87422007       0.63315307       0.98718320 </v>
   <v>       0.83092354       0.62170351       0.48857462 </v>
   <v>       0.99833489       0.01653664       0.12661539 </v>
   <v>       0.04719908       0.96621267       0.60844245 </v>
   <v>       0.98865751       0.52176077       0.12011368 </v>
   <v>       0.99777778       0.49311921       0.61621029 </v>
   <v>       0.38570784       0.89047139       0.22343066 </v>
   <v>       0.52411194       0.96636673       0.63169933 </v>
   <v>       0.49622920       0.48875653       0.12897421 </v>
   <v>       0.52507392       0.50482698       0.61810287 </v>
   <v>       0.02830027       0.97732250       0.38105055 </v>
   <v>       0.02830906       0.97662435       0.86926864 </v>
   <v>       0.03187279       0.49099663       0.38589200 </v>
   <v>       0.02528637       0.52277063       0.87703329 </v>
   <v>       0.47457326       0.02061744       0.37708957 </v>
   <v>       0.52387915       0.96469442       0.85852111 </v>
   <v>       0.50576698       0.52642694       0.38468253 </v>
   <v>       0.48671859       0.51282527       0.87410003 </v>
   <v>       0.24704297       0.25562648       0.87296435 </v>
   <v>       0.24489307       0.77151392       0.37066113 </v>
   <v>       0.22476951       0.72275599       0.87945609 </v>
   <v>       0.74542184       0.23352902       0.37383378 </v>
   <v>       0.74412901       0.24647652       0.87368128 </v>
   <v>       0.73359945       0.77519893       0.87435801 </v>
   <v>       0.28182526       0.23211246       0.12351341 </v>
   <v>       0.22009100       0.26965929       0.62102323 </v>
   <v>       0.76345987       0.24756641       0.12182047 </v>
   <v>       0.75213601       0.26473708       0.62415015 </v>
   <v>       0.75963639       0.74203862       0.12559299 </v>
   <v>       0.73111273       0.76352164       0.62974353 </v>
  </varray>
 </structure>
 <calculation>
  <scstep>
   <time name="dav">  633.56  633.56</time>
   <time name="total">  640.83  640.89</time>
   <energy>
    <i name="alphaZ">   5611.65356100 </i>
    <i name="ewald"> -63147.96749298 </i>
    <i name="hartreedc"> -18521.41910916 </i>
    <i name="XCdc">   3406.16976214 </i>
    <i name="pawpsdc"> 117135.34795287 </i>
    <i name="pawaedc">-116641.29629833 </i>
    <i name="eentropy">     -0.00000001 </i>
    <i name="bandstr">  -7150.77754703 </i>
    <i name="atom">  78316.90445604 </i>
    <i name="e_fr_energy">   -991.38471545 </i>
    <i name="e_wo_entrp">   -991.38471544 </i>
    <i name="e_0_energy">   -991.38471545 </i>
   </energy>
  </scstep>
  <scstep>
   <time name="diag">   64.88   64.93</time>
   <time name="diis">   62.59   62.61</time>
   <time name="orth">   33.41   33.41</time>
   <time name="total">  168.06  168.21</time>
   <energy>
    <i name="e_fr_energy">   -991.38471558 </i>
    <i name="e_wo_entrp">   -991.38471557 </i>
    <i name="e_0_energy">   -991.38471557 </i>
   </energy>
  </scstep>
  <scstep>
   <time name="diag">   64.85   64.87</time>
   <time name="diis">   60.59   60.59</time>
   <time name="orth">   33.34   33.34</time>
   <time name="total">  166.00  166.11</time>
   <energy>
    <i name="e_fr_energy">   -991.38471646 </i>
    <i name="e_wo_entrp">   -991.38471645 </i>
    <i name="e_0_energy">   -991.38471645 </i>
   </energy>
  </scstep>
  <scstep>
   <time name="diag">   64.80   64.85</time>
   <time name="diis">   54.94   54.98</time>
   <time name="orth">   33.41   33.40</time>
   <time name="total">  160.36  160.56</time>
   <energy>
    <i name="e_fr_energy">   -991.38471773 </i>
    <i name="e_wo_entrp">   -991.38471772 </i>
    <i name="e_0_energy">   -991.38471773 </i>
   </energy>
  </scstep>
  <scstep>
   <time name="diag">   64.82   64.87</time>
   <time name="diis">   54.88   54.91</time>
   <time name="orth">   33.39   33.39</time>
   <time name="total">  160.27  160.46</time>
   <energy>
    <i name="e_fr_energy">   -991.38471887 </i>
    <i name="e_wo_entrp">   -991.38471886 </i>
    <i name="e_0_energy">   -991.38471886 </i>
   </energy>
  </scstep>
  <scstep>
   <time name="diag">   64.81   64.85</time>
   <time name="diis">   51.05   51.05</time>
   <time name="orth">   33.37   33.36</time>
   <time name="total">  156.42  156.55</time>
   <energy>
    <i name="e_fr_energy">   -991.38472019 </i>
    <i name="e_wo_entrp">   -991.38472018 </i>
    <i name="e_0_energy">   -991.38472019 </i>
   </energy>
  </scstep>
  <scstep>
   <time name="diag">   64.67   64.67</time>
   <time name="diis">   49.39   49.42</time>
   <time name="orth">   33.37   33.37</time>
   <time name="total">  154.64  154.74</time>
   <energy>
    <i name="e_fr_energy">   -991.38472128 </i>
    <i name="e_wo_entrp">   -991.38472127 </i>
    <i name="e_0_energy">   -991.38472127 </i>
   </energy>
  </scstep>
  <scstep>
   <time name="diag">   64.66   64.68</time>
   <time name="diis">   50.10   50.10</time>
   <time name="orth">   33.35   33.35</time>
   <time name="total">  149.16  149.27</time>
   <energy>
    <i name="alphaZ">   5611.65356100 </i>
    <i name="ewald"> -63147.96749298 </i>
    <i name="hartreedc"> -18521.41042256 </i>
    <i name="XCdc">   3406.16991824 </i>
    <i name="pawpsdc"> 117135.38338206 </i>
    <i name="pawaedc">-116641.31465511 </i>
    <i name="eentropy">     -0.00000001 </i>
    <i name="bandstr">  -7150.80346923 </i>
    <i name="atom">  78316.90445604 </i>
    <i name="e_fr_energy">   -991.38472255 </i>
    <i name="e_wo_entrp">   -991.38472254 </i>
    <i name="e_0_energy">   -991.38472254 </i>
   </energy>
  </scstep>
  <structure>
   <crystal>
    <varray name="basis" >
     <v>      11.25084510       0.04455836       0.02794873 </v>
     <v>       0.04429620      11.25576482      -0.02867793 </v>
     <v>       0.03992246      -0.04052552      15.81349416 </v>
    </varray>
    <i name="volume">   2002.51440190 </i>
    <varray name="rec_basis" >
     <v>       0.08888416      -0.00035037      -0.00022529 </v>
     <v>      -0.00035243       0.08884533       0.00022858 </v>
     <v>      -0.00015773       0.00016174       0.06323794 </v>
    </varray>
   </crystal>
   <varray name="positions" >
    <v>       0.99380085       0.25371475       0.11994153 </v>
    <v>       0.99098477       0.25755743       0.63223881 </v>
    <v>       0.98866463       0.75121596       0.13075132 </v>
    <v>       0.97766117       0.75083031       0.62420180 </v>
    <v>       0.51357529       0.26105956       0.12014859 </v>
    <v>       0.52253290       0.25955597       0.63465744 </v>
    <v>       0.50406488       0.73298217       0.12562347 </v>
    <v>       0.49323700       0.74844723       0.62741558 </v>
    <v>       0.98821382       0.25899342       0.36695411 </v>
    <v>       0.00714141       0.24823241       0.87566098 </v>
    <v>       0.00809612       0.74551641       0.36896202 </v>
    <v>       0.98926892       0.75423224       0.87773700 </v>
    <v>       0.51945389       0.24657752       0.37040371 </v>
    <v>       0.50407319       0.26529469       0.87385896 </v>
    <v>       0.48674397       0.74438427       0.36525321 </v>
    <v>       0.50790582       0.74214009       0.88527975 </v>
    <v>       0.23996834       0.00101523       0.11756285 </v>
    <v>       0.26141481       0.01198444       0.63182349 </v>
    <v>       0.25528332       0.49050221       0.12699766 </v>
    <v>       0.23646753       0.50781628       0.62550661 </v>
    <v>       0.76140264       0.00663026       0.12022557 </v>
    <v>       0.75337465       0.01411372       0.62978163 </v>
    <v>       0.74807771       0.49732480       0.12476643 </v>
    <v>       0.75251372       0.49464106       0.63137568 </v>
    <v>       0.25084872       0.99417349       0.36979302 </v>
    <v>       0.25507730       0.01774666       0.86775125 </v>
    <v>       0.25051586       0.50890549       0.35839341 </v>
    <v>       0.25463174       0.48938109       0.88069797 </v>
    <v>       0.76045627       0.00441491       0.37365603 </v>
    <v>       0.76367958       0.00751829       0.87366826 </v>
    <v>       0.74371854       0.48696586       0.36546852 </v>
    <v>       0.74644351       0.49758036       0.87991424 </v>
    <v>       0.25802124       0.24763973       0.99730864 </v>
    <v>       0.27358786       0.24403651       0.51286254 </v>
    <v>       0.75212045       0.24559243       0.99595263 </v>
    <v>       0.74823307       0.24989037       0.49898089 </v>
    <v>       0.74875408       0.75606163       0.00041828 </v>
    <v>       0.00631297       0.99741776       0.24905851 </v>
    <v>       0.00406577       0.50550367       0.75446038 </v>
    <v>       0.50037338       0.50715656       0.74891637 </v>
    <v>       0.00542144       0.99726106       0.99880731 </v>
    <v>       0.98959850       0.00097294       0.49777271 </v>
    <v>       0.98886548       0.49315374       0.99957246 </v>
    <v>       0.97115797       0.51538685       0.49631119 </v>
    <v>       0.50835264       0.99882808       0.97940135 </v>
    <v>       0.50737304       0.99114440       0.50372420 </v>
    <v>       0.49986412       0.49793747       0.00340040 </v>
    <v>       0.48026895       0.48997320       0.50024464 </v>
    <v>       0.25996965       0.76700687       0.99131431 </v>
    <v>       0.25677301       0.74629154       0.49319118 </v>
    <v>       0.74824485       0.76713226       0.51256821 </v>
    <v>       0.23827883       0.25757485       0.23717580 </v>
    <v>       0.25078458       0.25935363       0.74918957 </v>
    <v>       0.24798376       0.75152804       0.25206755 </v>
    <v>       0.24884522       0.73282318       0.76252094 </v>
    <v>       0.75457934       0.25102666       0.24640603 </v>
    <v>       0.75505430       0.25702826       0.75267353 </v>
    <v>       0.75431109       0.74479940       0.24429391 </v>
    <v>       0.75493383       0.74437800       0.75404645 </v>
    <v>       0.99852081       0.00942758       0.74986362 </v>
    <v>       0.99695472       0.50504111       0.24700328 </v>
    <v>       0.51807080       0.98125466       0.26422319 </v>
    <v>       0.50124241       0.02135644       0.74544377 </v>
    <v>       0.50632410       0.50070030       0.25187956 </v>
    <v>       0.14980608       0.11851237       0.25884050 </v>
    <v>       0.12854859       0.12290867       0.74522893 </v>
    <v>       0.12624614       0.63090430       0.24121209 </v>
    <v>       0.10737538       0.65717603       0.72718826 </v>
    <v>       0.60267578       0.11340826       0.22693567 </v>
    <v>       0.63209702       0.12688868       0.74395987 </v>
    <v>       0.62686468       0.62563171       0.25283364 </v>
    <v>       0.60528316       0.65286772       0.75382595 </v>
    <v>       0.36735482       0.34416700       0.27925771 </v>
    <v>       0.38669086       0.37594783       0.74152939 </v>
    <v>       0.31802997       0.87619411       0.73988591 </v>
    <v>       0.87281384       0.37957206       0.25176589 </v>
    <v>       0.88989294       0.37679036       0.75869252 </v>
    <v>       0.88439751       0.87336740       0.25607028 </v>
    <v>       0.87772979       0.87727754       0.74418962 </v>
    <v>       0.37709136       0.13221271       0.74338042 </v>
    <v>       0.37010753       0.62744766       0.24377752 </v>
    <v>       0.36323801       0.61986438       0.73170303 </v>
    <v>       0.88383804       0.12187252       0.25909145 </v>
    <v>       0.88048455       0.12754864       0.74324006 </v>
    <v>       0.87248315       0.62866185       0.27672189 </v>
    <v>       0.86466803       0.61756222       0.75197153 </v>
    <v>       0.12083200       0.37456933       0.23941672 </v>
    <v>       0.13655346       0.39686147       0.75113709 </v>
    <v>       0.13431156       0.87465039       0.22840293 </v>
    <v>       0.62134201       0.36804808       0.25379707 </v>
    <v>       0.63478155       0.39339566       0.75467709 </v>
    <v>       0.63919519       0.86670096       0.27906513 </v>
    <v>       0.37520953       0.37658351       0.99615639 </v>
    <v>       0.33690888       0.39281970       0.48316134 </v>
    <v>       0.37279227       0.88760804       0.99940155 </v>
    <v>       0.34914527       0.88324313       0.51071764 </v>
    <v>       0.87446052       0.37468839       0.99001484 </v>
    <v>       0.86990984       0.37496769       0.48941572 </v>
    <v>       0.86959182       0.88217826       0.99975290 </v>
    <v>       0.87077647       0.87511517       0.49013797 </v>
    <v>       0.13735550       0.11893607       0.99841687 </v>
    <v>       0.15290960       0.17291483       0.45541253 </v>
    <v>       0.11611006       0.66076236       0.50915351 </v>
    <v>       0.63228334       0.11728398       0.00271925 </v>
    <v>       0.64340698       0.10272107       0.50412144 </v>
    <v>       0.62014430       0.62840225       0.00068024 </v>
    <v>       0.12973591       0.37891188       0.00879183 </v>
    <v>       0.11861921       0.84446103       0.02327368 </v>
    <v>       0.62669860       0.37388038       0.99821562 </v>
    <v>       0.60949463       0.36044028       0.49378003 </v>
    <v>       0.61623767       0.87628571       0.02269817 </v>
    <v>       0.60551076       0.83767177       0.47813365 </v>
    <v>       0.39053069       0.12821244       0.98331354 </v>
    <v>       0.39624235       0.13521950       0.52436861 </v>
    <v>       0.34445431       0.63175657       0.02589606 </v>
    <v>       0.37525004       0.63125409       0.52323304 </v>
    <v>       0.88547712       0.12757772       0.98751923 </v>
    <v>       0.89041688       0.13304447       0.50840897 </v>
    <v>       0.87422007       0.63315307       0.98718320 </v>
    <v>       0.83092354       0.62170351       0.48857462 </v>
    <v>       0.99833489       0.01653664       0.12661539 </v>
    <v>       0.04719908       0.96621267       0.60844245 </v>
    <v>       0.98865751       0.52176077       0.12011368 </v>
    <v>       0.99777778       0.49311921       0.61621029 </v>
    <v>       0.38570784       0.89047139       0.22343066 </v>
    <v>       0.52411194       0.96636673       0.63169933 </v>
    <v>       0.49622920       0.48875653       0.12897421 </v>
    <v>       0.52507392       0.50482698       0.61810287 </v>
    <v>       0.02830027       0.97732250       0.38105055 </v>
    <v>       0.02830906       0.97662435       0.86926864 </v>
    <v>       0.03187279       0.49099663       0.38589200 </v>
    <v>       0.02528637       0.52277063       0.87703329 </v>
    <v>       0.47457326       0.02061744       0.37708957 </v>
    <v>       0.52387915       0.96469442       0.85852111 </v>
    <v>       0.50576698       0.52642694       0.38468253 </v>
    <v>       0.48671859       0.51282527       0.87410003 </v>
    <v>       0.24704297       0.25562648       0.87296435 </v>
    <v>       0.24489307       0.77151392       0.37066113 </v>
    <v>       0.22476951       0.72275599       0.87945609 </v>
    <v>       0.74542184       0.23352902       0.37383378 </v>
    <v>       0.74412901       0.24647652       0.87368128 </v>
    <v>       0.73359945       0.77519893       0.87435801 </v>
    <v>       0.28182526       0.23211246       0.12351341 </v>
    <v>       0.22009100       0.26965929       0.62102323 </v>
    <v>       0.76345987       0.24756641       0.12182047 </v>
    <v>       0.75213601       0.26473708       0.62415015 </v>
    <v>       0.75963639       0.74203862       0.12559299 </v>
    <v>       0.73111273       0.76352164       0.62974353 </v>
   </varray>
  </structure>
  <varray name="forces" >
   <v>      -0.00762442      -0.01654204      -0.00083758 </v>
   <v>       0.01214284       0.01723892      -0.00555254 </v>
   <v>      -0.00383566      -0.01887473      -0.00533006 </v>
   <v>       0.00361976       0.00173132      -0.03586021 </v>
   <v>      -0.02603510       0.00138475       0.00061430 </v>
   <v>      -0.01074878      -0.01933660      -0.01185196 </v>
   <v>       0.03784294      -0.01445399       0.00785176 </v>
   <v>       0.00583576      -0.00560931       0.01561991 </v>
   <v>      -0.00379179       0.02039111       0.00522889 </v>
   <v>      -0.00777595      -0.00625263       0.00338039 </v>
   <v>      -0.01355757      -0.00002814       0.01221153 </v>
   <v>       0.01457297       0.00530798       0.01548255 </v>
   <v>       0.01060740      -0.01158019      -0.03681817 </v>
   <v>       0.00091121      -0.00859769       0.00754855 </v>
   <v>       0.00799077       0.00487529       0.01325375 </v>
   <v>       0.00001666       0.01303693      -0.01328433 </v>
   <v>      -0.00804247       0.00398196       0.00044302 </v>
   <v>      -0.00827501       0.02067989      -0.01672845 </v>
   <v>       0.01711544      -0.01272039       0.02431821 </v>
   <v>       0.01126055       0.00875980      -0.00086600 </v>
   <v>      -0.01134673       0.01271982       0.00360442 </v>
   <v>      -0.00962153      -0.00422545      -0.00882545 </v>
   <v>      -0.01376280      -0.00613284       0.02528185 </v>
   <v>       0.01923582       0.00386320      -0.00631792 </v>
   <v>      -0.01081108       0.00585499       0.03998454 </v>
   <v>      -0.01188441       0.00555252       0.01449142 </v>
   <v>      -0.01152922       0.02845658       0.00660158 </v>
   <v>       0.02427148      -0.00068753       0.00356672 </v>
   <v>      -0.00096317       0.00162055      -0.01072953 </v>
   <v>      -0.03076060      -0.01348616       0.02222802 </v>
   <v>       0.00958236      -0.01142560      -0.02259845 </v>
   <v>       0.00629348       0.01590347      -0.00387012 </v>
   <v>       0.01060486      -0.02873556       0.03063100 </v>
   <v>      -0.02397299       0.03677976      -0.13046832 </v>
   <v>      -0.01261905       0.01668281       0.03076111 </v>
   <v>      -0.01301189      -0.00898396      -0.01430190 </v>
   <v>       0.01100043       0.01648751       0.02224371 </v>
   <v>       0.00277988       0.02099803      -0.00941313 </v>
   <v>      -0.02393103       0.02011457      -0.03131256 </v>
   <v>      -0.02077348       0.00267090       0.00723581 </v>
   <v>      -0.00343023      -0.00884884      -0.01145315 </v>
   <v>      -0.02445803       0.01468143       0.00090726 </v>
   <v>      -0.01783604       0.00875574      -0.03077500 </v>
   <v>       0.06440242      -0.00713395      -0.02916611 </v>
   <v>      -0.00725493       0.00116323       0.00859703 </v>
   <v>      -0.01165027      -0.00648505      -0.01983285 </v>
   <v>      -0.00067781      -0.02089020      -0.00135084 </v>
   <v>       0.01597149       0.01215343      -0.01749540 </v>
   <v>      -0.00183243       0.02064224      -0.03407600 </v>
   <v>       0.00531694      -0.00489697       0.04410264 </v>
   <v>      -0.00658686       0.01686246      -0.02661057 </v>
   <v>       0.00418499      -0.02158758       0.02371796 </v>
   <v>       0.01674312       0.00908000       0.01760522 </v>
   <v>       0.02153521      -0.04606075       0.02469882 </v>
   <v>      -0.01433402       0.00594788       0.00835950 </v>
   <v>      -0.00434491       0.02113374       0.00337033 </v>
   <v>       0.01060368      -0.00243420      -0.00017850 </v>
   <v>       0.01327452       0.00132557      -0.00636473 </v>
   <v>      -0.02599419      -0.00386908       0.01250421 </v>
   <v>      -0.00057698      -0.02168012       0.00956940 </v>
   <v>      -0.00356225      -0.00753852       0.00823571 </v>
   <v>      -0.05969826      -0.06123958      -0.01341766 </v>
   <v>       0.01219384      -0.01954822       0.01092096 </v>
   <v>      -0.00100325      -0.00641262       0.00017726 </v>
   <v>       0.02077696      -0.00660110       0.00134553 </v>
   <v>      -0.02029699       0.00655924       0.00217344 </v>
   <v>       0.00677614       0.00981274      -0.03132745 </v>
   <v>       0.04533357      -0.01321773       0.01899702 </v>
   <v>      -0.05930261      -0.00010588      -0.06671908 </v>
   <v>       0.00292596       0.01238827       0.01444415 </v>
   <v>       0.03232401       0.00047459       0.01657817 </v>
   <v>       0.02581422      -0.00011618       0.01559989 </v>
   <v>       0.00096138       0.01890833       0.00453552 </v>
   <v>      -0.03003438      -0.02274521       0.00207947 </v>
   <v>       0.03360002      -0.00396755      -0.00263761 </v>
   <v>       0.01933058       0.02075567      -0.01460311 </v>
   <v>      -0.00735152      -0.02246161      -0.00556881 </v>
   <v>      -0.01089401      -0.00649077       0.02718145 </v>
   <v>       0.01905204       0.01347424       0.01312684 </v>
   <v>       0.00458851       0.01049212      -0.01035923 </v>
   <v>      -0.02058708       0.00917556       0.01675498 </v>
   <v>       0.01410944      -0.00597842      -0.01457294 </v>
   <v>      -0.00101603       0.03734675       0.00247319 </v>
   <v>      -0.01617441      -0.01017758      -0.00395947 </v>
   <v>       0.03648331       0.00350195      -0.02138227 </v>
   <v>      -0.00863421      -0.00601269      -0.00103174 </v>
   <v>      -0.02140410       0.03338014       0.00694120 </v>
   <v>       0.01073770      -0.00573744      -0.00948454 </v>
   <v>      -0.03698392       0.04095093       0.00188391 </v>
   <v>      -0.00306507      -0.00908415      -0.00985687 </v>
   <v>       0.01258848      -0.02644692      -0.00746052 </v>
   <v>       0.00601192      -0.00570972      -0.01000800 </v>
   <v>      -0.00950316       0.02503744       0.01925153 </v>
   <v>      -0.02122287      -0.02921810       0.02420757 </v>
   <v>      -0.00815294       0.00306463       0.05052798 </v>
   <v>       0.01540914       0.00068207       0.00674070 </v>
   <v>      -0.00895875      -0.00432686       0.01528060 </v>
   <v>       0.00460168      -0.01096870       0.00695875 </v>
   <v>       0.00703150      -0.00723865       0.00619727 </v>
   <v>      -0.00959404      -0.00394898      -0.00707933 </v>
   <v>      -0.00866879       0.02072296      -0.02283864 </v>
   <v>       0.07295980       0.03827382       0.00421232 </v>
   <v>       0.00997753      -0.03096894       0.03068217 </v>
   <v>      -0.01747160       0.01175023      -0.00232445 </v>
   <v>      -0.00570680      -0.00650088      -0.00351253 </v>
   <v>      -0.02240375      -0.00969633      -0.02261756 </v>
   <v>       0.02585719       0.00170909      -0.01221797 </v>
   <v>      -0.02063974       0.01460126       0.02566829 </v>
   <v>       0.00798950      -0.01983315      -0.00104407 </v>
   <v>       0.00871979      -0.02476381       0.01914545 </v>
   <v>       0.03751636      -0.02588040      -0.00796026 </v>
   <v>       0.00034068       0.00184099       0.01278997 </v>
   <v>       0.00265799       0.01535045      -0.00143517 </v>
   <v>       0.03300921      -0.00975001       0.00220191 </v>
   <v>       0.01174195      -0.01613997       0.01392875 </v>
   <v>       0.00718248       0.00128172      -0.02890798 </v>
   <v>       0.00145861       0.01341890      -0.00643444 </v>
   <v>      -0.01310531      -0.01211410      -0.01797853 </v>
   <v>       0.01229679      -0.01115545       0.01773417 </v>
   <v>       0.00844266       0.00593086       0.00061696 </v>
   <v>      -0.00610019      -0.01957315      -0.00373904 </v>
   <v>      -0.01390527       0.01566325       0.02796531 </v>
   <v>       0.01610635       0.01373657       0.01943922 </v>
   <v>       0.00186100      -0.01386719       0.03995476 </v>
   <v>       0.03280522       0.02896783      -0.06451369 </v>
   <v>      -0.00533605       0.00065216       0.00795198 </v>
   <v>       0.00255139       0.01154339      -0.02895125 </v>
   <v>       0.01422051      -0.02069598       0.00464525 </v>
   <v>      -0.02403279       0.00105227       0.00459041 </v>
   <v>      -0.00847311       0.00374844      -0.01420008 </v>
   <v>       0.00582552       0.02340951      -0.00514469 </v>
   <v>       0.02396992      -0.00467021      -0.01532807 </v>
   <v>      -0.01636722      -0.00049001       0.03163376 </v>
   <v>      -0.01252428       0.01734259      -0.01008509 </v>
   <v>       0.04111567      -0.02712561       0.02651846 </v>
   <v>      -0.00849769       0.00255225       0.01235931 </v>
   <v>      -0.01523158       0.00702743      -0.02753941 </v>
   <v>      -0.05147263      -0.01323672       0.00147747 </v>
   <v>       0.03314109       0.02989095       0.00489713 </v>
   <v>       0.02024302      -0.00154733       0.00015407 </v>
   <v>      -0.00106080       0.00823606      -0.01993210 </v>
   <v>       0.00056194      -0.00096246      -0.04383900 </v>
   <v>      -0.00803449      -0.00993464      -0.04425346 </v>
   <v>      -0.04809594      -0.01161813       0.07641360 </v>
   <v>      -0.03284031      -0.02097519      -0.00541746 </v>
   <v>      -0.00231247       0.01084997       0.01029309 </v>
   <v>      -0.00923246       0.01819814       0.01127346 </v>
   <v>      -0.00831504      -0.02224175       0.01677767 </v>
  </varray>
  <varray name="stress" >
   <v>      -0.05837181      -0.24156015      -0.17054521 </v>
   <v>      -0.24156034       0.16181355      -0.01173863 </v>
   <v>      -0.17054552      -0.01173878       0.22688784 </v>
  </varray>
  <energy>
   <i name="e_fr_energy">   -991.38472255 </i>
   <i name="e_wo_entrp">   -991.38472254 </i>
   <i name="e_0_energy">     -0.00000001 </i>
  </energy>
  <time name="totalsc"> 2016.09 2019.10</time>
 </calculation>
 <calculation>
  <scstep>
   <time name="dav">  562.90  562.96</time>
   <time name="total">  570.10  570.21</time>
   <energy>
    <i name="alphaZ">   5610.89851219 </i>
    <i name="ewald"> -63145.94717918 </i>
    <i name="hartreedc"> -18519.96817551 </i>
    <i name="XCdc">   3405.97632405 </i>
    <i name="pawpsdc"> 117135.44421432 </i>
    <i name="pawaedc">-116641.37435932 </i>
    <i name="eentropy">     -0.00000001 </i>
    <i name="bandstr">  -7153.31486300 </i>
    <i name="atom">  78316.90445604 </i>
    <i name="e_fr_energy">   -991.38107041 </i>
    <i name="e_wo_entrp">   -991.38107040 </i>
    <i name="e_0_energy">   -991.38107040 </i>
   </energy>
  </scstep>
  <scstep>
   <time name="diag">   64.88   64.88</time>
   <time name="diis">  106.13  106.14</time>
   <time name="orth">   33.40   33.40</time>
   <time name="total">  211.63  211.71</time>
   <energy>
    <i name="e_fr_energy">   -991.38845386 </i>
    <i name="e_wo_entrp">   -991.38845385 </i>
    <i name="e_0_energy">   -991.38845385 </i>
   </energy>
  </scstep>
  <scstep>
   <time name="diag">   64.86   64.91</time>
   <time name="diis">  108.76  108.78</time>
   <time name="orth">   33.38   33.38</time>
   <time name="total">  214.22  214.34</time>
   <energy>
    <i name="e_fr_energy">   -991.38914817 </i>
    <i name="e_wo_entrp">   -991.38914816 </i>
    <i name="e_0_energy">   -991.38914817 </i>
   </energy>
  </scstep>
  <scstep>
   <time name="diag">   64.80   64.83</time>
   <time name="diis">   92.41   92.43</time>
   <time name="orth">   33.40   33.40</time>
   <time name="total">  197.84  197.99</time>
   <energy>
    <i name="e_fr_energy">   -991.38890158 </i>
    <i name="e_wo_entrp">   -991.38890157 </i>
    <i name="e_0_energy">   -991.38890157 </i>
   </energy>
  </scstep>
  <scstep>
   <time name="diag">   64.89   64.89</time>
   <time name="diis">   88.97   88.97</time>
   <time name="orth">   33.36   33.36</time>
   <time name="total">  194.42  194.50</time>
   <energy>
    <i name="e_fr_energy">   -991.38882471 </i>
    <i name="e_wo_entrp">   -991.38882470 </i>
    <i name="e_0_energy">   -991.38882470 </i>
   </energy>
  </scstep>
  <scstep>
   <time name="diag">   64.82   64.82</time>
   <time name="diis">   65.65   65.68</time>
   <time name="orth">   33.43   33.42</time>
   <time name="total">  171.11  171.31</time>
   <energy>
    <i name="e_fr_energy">   -991.38882447 </i>
    <i name="e_wo_entrp">   -991.38882446 </i>
    <i name="e_0_energy">   -991.38882446 </i>
   </energy>
  </scstep>
  <scstep>
   <time name="diag">   64.75   64.80</time>
   <time name="diis">   64.61   64.62</time>
   <time name="orth">   33.34   33.34</time>
   <time name="total">  169.91  170.05</time>
   <energy>
    <i name="e_fr_energy">   -991.38882511 </i>
    <i name="e_wo_entrp">   -991.38882510 </i>
    <i name="e_0_energy">   -991.38882510 </i>
   </energy>
  </scstep>
  <scstep>
   <time name="diag">   64.88   64.88</time>
   <time name="diis">   62.87   62.87</time>
   <time name="orth">   33.35   33.35</time>
   <time name="total">  162.15  162.19</time>
   <energy>
    <i name="alphaZ">   5610.89851219 </i>
    <i name="ewald"> -63145.94717918 </i>
    <i name="hartreedc"> -18522.19461150 </i>
    <i name="XCdc">   3406.11015218 </i>
    <i name="pawpsdc"> 117090.91167547 </i>
    <i name="pawaedc">-116596.81995869 </i>
    <i name="eentropy">     -0.00000001 </i>
    <i name="bandstr">  -7151.25187089 </i>
    <i name="atom">  78316.90445604 </i>
    <i name="e_fr_energy">   -991.38882440 </i>
    <i name="e_wo_entrp">   -991.38882439 </i>
    <i name="e_0_energy">   -991.38882439 </i>
   </energy>
  </scstep>
  <structure>
   <crystal>
    <varray name="basis" >
     <v>      11.25057122       0.04345392       0.02716936 </v>
     <v>       0.04318940      11.25650264      -0.02873749 </v>
     <v>       0.03882674      -0.04060775      15.81495333 </v>
    </varray>
    <i name="volume">   2002.78387676 </i>
    <varray name="rec_basis" >
     <v>       0.08888622      -0.00034160      -0.00021910 </v>
     <v>      -0.00034368       0.08883944       0.00022896 </v>
     <v>      -0.00015333       0.00016202       0.06323209 </v>
    </varray>
   </crystal>
   <varray name="positions" >
    <v>       0.99376844       0.25364397       0.11993891 </v>
    <v>       0.99103661       0.25763105       0.63222191 </v>
    <v>       0.98864856       0.75113506       0.13073494 </v>
    <v>       0.97767706       0.75083728       0.62409239 </v>
    <v>       0.51346362       0.26106594       0.12015067 </v>
    <v>       0.52248726       0.25947315       0.63462122 </v>
    <v>       0.50422731       0.73291967       0.12564703 </v>
    <v>       0.49326195       0.74842326       0.62746315 </v>
    <v>       0.98819716       0.25908094       0.36697025 </v>
    <v>       0.00710814       0.24820578       0.87567131 </v>
    <v>       0.00803786       0.74551665       0.36899938 </v>
    <v>       0.98933115       0.75425491       0.87778416 </v>
    <v>       0.51949997       0.24652730       0.37029122 </v>
    <v>       0.50407716       0.26525791       0.87388191 </v>
    <v>       0.48677801       0.74440518       0.36529363 </v>
    <v>       0.50790582       0.74219582       0.88523933 </v>
    <v>       0.23993378       0.00103244       0.11756429 </v>
    <v>       0.26137916       0.01207303       0.63177268 </v>
    <v>       0.25535666       0.49044767       0.12707162 </v>
    <v>       0.23651567       0.50785362       0.62550395 </v>
    <v>       0.76135373       0.00668501       0.12023675 </v>
    <v>       0.75333356       0.01409568       0.62975474 </v>
    <v>       0.74801852       0.49729902       0.12484361 </v>
    <v>       0.75259621       0.49465723       0.63135629 </v>
    <v>       0.25080183       0.99419921       0.36991513 </v>
    <v>       0.25502609       0.01777082       0.86779559 </v>
    <v>       0.25046587       0.50902773       0.35841386 </v>
    <v>       0.25473579       0.48937777       0.88070866 </v>
    <v>       0.76045222       0.00442175       0.37362332 </v>
    <v>       0.76354766       0.00746126       0.87373620 </v>
    <v>       0.74376007       0.48691648       0.36539942 </v>
    <v>       0.74647027       0.49764837       0.87990251 </v>
    <v>       0.25806687       0.24751672       0.99740178 </v>
    <v>       0.27348586       0.24419312       0.51246499 </v>
    <v>       0.75206572       0.24566449       0.99604670 </v>
    <v>       0.74817758       0.24985193       0.49893728 </v>
    <v>       0.74880073       0.75613236       0.00048619 </v>
    <v>       0.00632464       0.99750761       0.24902994 </v>
    <v>       0.00396316       0.50558994       0.75436519 </v>
    <v>       0.50028418       0.50716844       0.74893863 </v>
    <v>       0.00540701       0.99722306       0.99877233 </v>
    <v>       0.98949337       0.00103629       0.49777578 </v>
    <v>       0.98878918       0.49319124       0.99947878 </v>
    <v>       0.97143457       0.51535485       0.49622167 </v>
    <v>       0.50832142       0.99883328       0.97942764 </v>
    <v>       0.50732341       0.99111659       0.50366373 </v>
    <v>       0.49986158       0.49784793       0.00339612 </v>
    <v>       0.48033742       0.49002483       0.50019124 </v>
    <v>       0.25996181       0.76709500       0.99121053 </v>
    <v>       0.25679541       0.74627095       0.49332565 </v>
    <v>       0.74821661       0.76720435       0.51248721 </v>
    <v>       0.23829688       0.25748251       0.23724796 </v>
    <v>       0.25085603       0.25939246       0.74924323 </v>
    <v>       0.24807661       0.75133052       0.25214238 </v>
    <v>       0.24878356       0.73284901       0.76254660 </v>
    <v>       0.75456032       0.25111736       0.24641651 </v>
    <v>       0.75509981       0.25701765       0.75267288 </v>
    <v>       0.75436806       0.74480479       0.24427440 </v>
    <v>       0.75482230       0.74436199       0.75408477 </v>
    <v>       0.99851860       0.00933477       0.74989265 </v>
    <v>       0.99693948       0.50500895       0.24702838 </v>
    <v>       0.51781599       0.98099304       0.26418223 </v>
    <v>       0.50129491       0.02127257       0.74547684 </v>
    <v>       0.50631991       0.50067284       0.25188005 </v>
    <v>       0.14989527       0.11848374       0.25884440 </v>
    <v>       0.12846142       0.12293715       0.74523577 </v>
    <v>       0.12627538       0.63094590       0.24111655 </v>
    <v>       0.10756979       0.65711881       0.72724577 </v>
    <v>       0.60242222       0.11340808       0.22673258 </v>
    <v>       0.63210920       0.12694189       0.74400401 </v>
    <v>       0.62700310       0.62563338       0.25288398 </v>
    <v>       0.60539368       0.65286695       0.75387335 </v>
    <v>       0.36735857       0.34424808       0.27927169 </v>
    <v>       0.38656244       0.37585088       0.74153579 </v>
    <v>       0.31817414       0.87617651       0.73987758 </v>
    <v>       0.87289654       0.37966053       0.25172136 </v>
    <v>       0.88986186       0.37669415       0.75867541 </v>
    <v>       0.88435061       0.87334007       0.25615323 </v>
    <v>       0.87781111       0.87733511       0.74422963 </v>
    <v>       0.37711097       0.13225748       0.74334886 </v>
    <v>       0.37001892       0.62748752       0.24382886 </v>
    <v>       0.36329877       0.61983836       0.73165841 </v>
    <v>       0.88383302       0.12203264       0.25909929 </v>
    <v>       0.88041541       0.12750525       0.74322802 </v>
    <v>       0.87263976       0.62867600       0.27665641 </v>
    <v>       0.86463112       0.61753659       0.75196840 </v>
    <v>       0.12073958       0.37471285       0.23943832 </v>
    <v>       0.13659970       0.39683659       0.75110803 </v>
    <v>       0.13415226       0.87482656       0.22840928 </v>
    <v>       0.62132913       0.36800909       0.25376695 </v>
    <v>       0.63483605       0.39328201       0.75465403 </v>
    <v>       0.63922117       0.86667628       0.27903450 </v>
    <v>       0.37516815       0.37669120       0.99621539 </v>
    <v>       0.33681810       0.39269510       0.48323513 </v>
    <v>       0.37275671       0.88762188       0.99955579 </v>
    <v>       0.34921126       0.88324586       0.51073809 </v>
    <v>       0.87442201       0.37467016       0.99006149 </v>
    <v>       0.86992969       0.37492068       0.48943683 </v>
    <v>       0.86962202       0.88214718       0.99977169 </v>
    <v>       0.87073547       0.87509832       0.49011642 </v>
    <v>       0.13731822       0.11902479       0.99834742 </v>
    <v>       0.15322176       0.17307768       0.45542513 </v>
    <v>       0.11615304       0.66062979       0.50924680 </v>
    <v>       0.63220825       0.11733461       0.00271238 </v>
    <v>       0.64338266       0.10269326       0.50411072 </v>
    <v>       0.62004864       0.62836082       0.00061134 </v>
    <v>       0.12984689       0.37891863       0.00875437 </v>
    <v>       0.11853018       0.84452424       0.02335226 </v>
    <v>       0.62673320       0.37379523       0.99821222 </v>
    <v>       0.60953224       0.36033420       0.49383818 </v>
    <v>       0.61639907       0.87617406       0.02267340 </v>
    <v>       0.60551205       0.83767979       0.47817268 </v>
    <v>       0.39054185       0.12827817       0.98330926 </v>
    <v>       0.39638403       0.13517717       0.52437500 </v>
    <v>       0.34450478       0.63168735       0.02593834 </v>
    <v>       0.37528113       0.63125914       0.52314481 </v>
    <v>       0.88548322       0.12763514       0.98749970 </v>
    <v>       0.89036108       0.13299257       0.50835413 </v>
    <v>       0.87427279       0.63310525       0.98723712 </v>
    <v>       0.83095963       0.62172879       0.48857648 </v>
    <v>       0.99830910       0.01645281       0.12660388 </v>
    <v>       0.04713888       0.96628035       0.60852799 </v>
    <v>       0.98872613       0.52181958       0.12017297 </v>
    <v>       0.99778556       0.49306018       0.61633206 </v>
    <v>       0.38584872       0.89059428       0.22323382 </v>
    <v>       0.52408896       0.96636970       0.63172364 </v>
    <v>       0.49624026       0.48880564       0.12888596 </v>
    <v>       0.52513520       0.50473808       0.61811677 </v>
    <v>       0.02819715       0.97732747       0.38106475 </v>
    <v>       0.02827282       0.97664040       0.86922542 </v>
    <v>       0.03189743       0.49109681       0.38587644 </v>
    <v>       0.02538940       0.52275004       0.87698630 </v>
    <v>       0.47450274       0.02061597       0.37718619 </v>
    <v>       0.52382526       0.96476885       0.85849058 </v>
    <v>       0.50594345       0.52631027       0.38476291 </v>
    <v>       0.48668198       0.51283649       0.87413782 </v>
    <v>       0.24697783       0.25565655       0.87288051 </v>
    <v>       0.24467256       0.77145808       0.37066592 </v>
    <v>       0.22491107       0.72288360       0.87947101 </v>
    <v>       0.74550867       0.23352204       0.37383409 </v>
    <v>       0.74412453       0.24651162       0.87362055 </v>
    <v>       0.73360236       0.77519431       0.87422426 </v>
    <v>       0.28179146       0.23206952       0.12337839 </v>
    <v>       0.21988413       0.26961116       0.62125662 </v>
    <v>       0.76331946       0.24747700       0.12180403 </v>
    <v>       0.75212580       0.26478374       0.62418165 </v>
    <v>       0.75959637       0.74211690       0.12562760 </v>
    <v>       0.73107727       0.76342663       0.62979461 </v>
   </varray>
  </structure>
  <varray name="forces" >
   <v>      -0.00536080      -0.00723560      -0.01453924 </v>
   <v>       0.01608612       0.00924168       0.01599952 </v>
   <v>       0.00178843      -0.01602937      -0.00102850 </v>
   <v>      -0.00088345       0.00121327      -0.01657390 </v>
   <v>      -0.01840402      -0.00426598      -0.00691677 </v>
   <v>      -0.01462845      -0.01982968      -0.00176016 </v>
   <v>       0.03073675      -0.01453526      -0.00635500 </v>
   <v>       0.00891546      -0.00237934       0.01672325 </v>
   <v>      -0.01430375       0.01861913       0.00486789 </v>
   <v>      -0.00046082      -0.00329227      -0.00905736 </v>
   <v>      -0.01347604       0.00694363       0.00473887 </v>
   <v>       0.00928983       0.00270473       0.00742273 </v>
   <v>       0.01231478      -0.01770846      -0.02496309 </v>
   <v>       0.00553637      -0.00855975      -0.00575907 </v>
   <v>       0.01390660      -0.00073292       0.02341089 </v>
   <v>       0.00285615       0.00593349      -0.01146780 </v>
   <v>      -0.00997618      -0.00769969      -0.00288533 </v>
   <v>      -0.00125574       0.04061766       0.00146043 </v>
   <v>       0.00486984      -0.01232649       0.00501196 </v>
   <v>       0.00565358      -0.01674690       0.01665086 </v>
   <v>      -0.01344970       0.01481368       0.00304225 </v>
   <v>      -0.01008430       0.00117660       0.00532403 </v>
   <v>      -0.00449680      -0.00346715       0.01310485 </v>
   <v>       0.01383032      -0.00260822      -0.00415545 </v>
   <v>      -0.01569177      -0.00851549       0.03742276 </v>
   <v>      -0.01411691       0.01713805      -0.00297556 </v>
   <v>      -0.00843274       0.02153125       0.01002064 </v>
   <v>       0.00936348      -0.01366501       0.00265287 </v>
   <v>      -0.00124191       0.00067896      -0.01253108 </v>
   <v>      -0.02047816       0.00145427       0.00683742 </v>
   <v>       0.01495910      -0.00165942      -0.00720273 </v>
   <v>       0.00085147       0.00516520      -0.01148992 </v>
   <v>      -0.01659420       0.01487134      -0.03906132 </v>
   <v>       0.09031145      -0.00285376       0.22340959 </v>
   <v>      -0.00599015       0.01176347      -0.02704443 </v>
   <v>      -0.01292046      -0.00423253       0.03136253 </v>
   <v>       0.00022801      -0.01011424      -0.01430020 </v>
   <v>      -0.00878732      -0.00952560      -0.00458207 </v>
   <v>       0.01761242      -0.04549162      -0.01217011 </v>
   <v>      -0.00131352      -0.03793887       0.01361558 </v>
   <v>      -0.00048199       0.00626170      -0.01681936 </v>
   <v>      -0.01623110      -0.01146100       0.01887431 </v>
   <v>       0.00327789       0.00221714      -0.01259171 </v>
   <v>       0.01829067       0.00488562       0.02874024 </v>
   <v>      -0.00312353       0.00007046       0.00266492 </v>
   <v>      -0.01311035       0.00776687       0.00489075 </v>
   <v>      -0.00249874      -0.00533373      -0.01878154 </v>
   <v>       0.01844162      -0.00928874       0.02461609 </v>
   <v>       0.00155848      -0.00398283       0.01216272 </v>
   <v>      -0.00357119       0.00826990       0.02557340 </v>
   <v>      -0.00325228      -0.01139169       0.01467228 </v>
   <v>      -0.01208056       0.01796928      -0.01848330 </v>
   <v>      -0.00533370       0.00247075      -0.00672476 </v>
   <v>      -0.03697553       0.00480300       0.00211491 </v>
   <v>       0.02430684       0.01452126      -0.00704630 </v>
   <v>       0.00407434       0.00503866      -0.00415116 </v>
   <v>       0.00892693      -0.00584295      -0.00269878 </v>
   <v>       0.02632592       0.00960312       0.00777752 </v>
   <v>      -0.00094595       0.00081960      -0.00632232 </v>
   <v>      -0.01155399       0.01101297      -0.00297315 </v>
   <v>       0.00089464       0.01021850      -0.01713076 </v>
   <v>       0.00283443       0.00720527      -0.00293130 </v>
   <v>      -0.00699159       0.01545289      -0.01296215 </v>
   <v>       0.00745910      -0.00225191      -0.01353289 </v>
   <v>       0.02300271       0.00465259       0.00774094 </v>
   <v>      -0.02078718      -0.01199775       0.01124243 </v>
   <v>       0.01341816       0.01166032      -0.02200434 </v>
   <v>       0.01631642      -0.00794415       0.00307215 </v>
   <v>      -0.07305175      -0.02909569      -0.04054532 </v>
   <v>      -0.00946751      -0.00745097       0.00949243 </v>
   <v>       0.00791804      -0.02236822       0.01739159 </v>
   <v>       0.00225005      -0.01411643       0.01460512 </v>
   <v>      -0.00650469       0.01651908       0.00044090 </v>
   <v>       0.00805195       0.01328410       0.00534451 </v>
   <v>       0.02543317      -0.01400036       0.00035769 </v>
   <v>      -0.00372117       0.00544606      -0.00993093 </v>
   <v>       0.01020581       0.00128520      -0.00270944 </v>
   <v>      -0.00604221       0.00752662       0.02416725 </v>
   <v>       0.01141295      -0.00620233       0.00284817 </v>
   <v>       0.02120859      -0.01486908      -0.00167108 </v>
   <v>       0.01053903      -0.00714049       0.02249835 </v>
   <v>       0.00184458       0.00945129      -0.00928184 </v>
   <v>       0.00275962       0.03079274      -0.00220058 </v>
   <v>      -0.00672255      -0.01752282      -0.00237872 </v>
   <v>       0.02268301       0.00337456      -0.01857401 </v>
   <v>      -0.00571852      -0.00098406      -0.00260587 </v>
   <v>       0.02566120      -0.01880013       0.00955086 </v>
   <v>      -0.02313414       0.03029586      -0.00224598 </v>
   <v>       0.00272507       0.00619766       0.01584404 </v>
   <v>      -0.00820758       0.00217272      -0.00752846 </v>
   <v>      -0.01977035       0.00523160      -0.00600456 </v>
   <v>      -0.00991813      -0.00232219      -0.00714598 </v>
   <v>      -0.00726116       0.00780589       0.02028039 </v>
   <v>       0.01220973       0.05962521      -0.01615418 </v>
   <v>       0.00937213       0.01448969       0.04649848 </v>
   <v>       0.00743385      -0.00895778      -0.00064545 </v>
   <v>      -0.00561776      -0.00054820       0.02031447 </v>
   <v>       0.02368989       0.00335574      -0.00390177 </v>
   <v>       0.00370482      -0.00934186       0.00573335 </v>
   <v>      -0.00021647       0.00319781      -0.00917420 </v>
   <v>      -0.01330408       0.00345614      -0.01002925 </v>
   <v>      -0.05011136      -0.01698620      -0.09743857 </v>
   <v>       0.00740306      -0.03002479       0.02651773 </v>
   <v>      -0.02339492      -0.00320921       0.00015160 </v>
   <v>       0.00257699      -0.00410751      -0.01044689 </v>
   <v>      -0.00112753       0.00348071      -0.01227737 </v>
   <v>       0.00751267       0.00115401      -0.00244993 </v>
   <v>       0.00258591       0.00855838       0.00914288 </v>
   <v>      -0.00113342      -0.00965246       0.00713674 </v>
[...]
       <r>   -17.6898     0.0000    32.0000 </r>
       <r>   -17.5358     0.0000    32.0000 </r>
       <r>   -17.3819     0.0000    32.0000 </r>
       <r>   -17.2279     0.0000    32.0000 </r>
       <r>   -17.0740     0.0000    32.0000 </r>
       <r>   -16.9201     0.0000    32.0000 </r>
       <r>   -16.7661     0.0000    32.0000 </r>
       <r>   -16.6122     0.0000    32.0000 </r>
       <r>   -16.4583     0.0000    32.0000 </r>
       <r>   -16.3043     0.0000    32.0000 </r>
       <r>   -16.1504     0.0000    32.0000 </r>
       <r>   -15.9964     0.0000    32.0000 </r>
       <r>   -15.8425     0.0000    32.0000 </r>
       <r>   -15.6886     0.0000    32.0000 </r>
       <r>   -15.5346     0.0000    32.0000 </r>
       <r>   -15.3807     0.0000    32.0000 </r>
       <r>   -15.2267     0.1768    32.0272 </r>
       <r>   -15.0728    10.8159    33.6922 </r>
       <r>   -14.9189    27.1594    37.8731 </r>
       <r>   -14.7649    46.9258    45.0968 </r>
       <r>   -14.6110    42.6434    51.6612 </r>
       <r>   -14.4571    42.6269    58.2232 </r>
       <r>   -14.3031    39.6787    64.3312 </r>
       <r>   -14.1492    60.9461    73.7132 </r>
       <r>   -13.9952    79.4166    85.9384 </r>
       <r>   -13.8413    74.6771    97.4341 </r>
       <r>   -13.6874    66.1321   107.6144 </r>
       <r>   -13.5334    38.0053   113.4649 </r>
       <r>   -13.3795    16.3676   115.9845 </r>
       <r>   -13.2255     0.1010   116.0000 </r>
       <r>   -13.0716     0.0000   116.0000 </r>
       <r>   -12.9177     0.0000   116.0000 </r>
       <r>   -12.7637     3.3890   116.5217 </r>
       <r>   -12.6098    69.8520   127.2746 </r>
       <r>   -12.4559   139.9654   148.8206 </r>
       <r>   -12.3019   113.2790   166.2586 </r>
       <r>   -12.1480    97.1568   181.2148 </r>
       <r>   -11.9940    90.6249   195.1654 </r>
       <r>   -11.8401    72.6347   206.3467 </r>
       <r>   -11.6862    36.3109   211.9364 </r>
       <r>   -11.5322     0.4133   212.0000 </r>
       <r>   -11.3783     0.0000   212.0000 </r>
       <r>   -11.2243     0.0000   212.0000 </r>
       <r>   -11.0704     0.0000   212.0000 </r>
       <r>   -10.9165     0.0000   212.0000 </r>
       <r>   -10.7625     0.0000   212.0000 </r>
       <r>   -10.6086     0.0000   212.0000 </r>
       <r>   -10.4547     0.0000   212.0000 </r>
       <r>   -10.3007     0.0000   212.0000 </r>
       <r>   -10.1468     0.0000   212.0000 </r>
       <r>    -9.9928     0.0000   212.0000 </r>
       <r>    -9.8389     0.0000   212.0000 </r>
       <r>    -9.6850     0.0000   212.0000 </r>
       <r>    -9.5310     0.0000   212.0000 </r>
       <r>    -9.3771     0.0000   212.0000 </r>
       <r>    -9.2232     0.0000   212.0000 </r>
       <r>    -9.0692     0.0000   212.0000 </r>
       <r>    -8.9153     0.0000   212.0000 </r>
       <r>    -8.7613     0.0000   212.0000 </r>
       <r>    -8.6074     0.0000   212.0000 </r>
       <r>    -8.4535     0.0000   212.0000 </r>
       <r>    -8.2995     0.0000   212.0000 </r>
       <r>    -8.1456     0.0000   212.0000 </r>
       <r>    -7.9916     0.0000   212.0000 </r>
       <r>    -7.8377     0.0000   212.0000 </r>
       <r>    -7.6838     0.0000   212.0000 </r>
       <r>    -7.5298     0.0000   212.0000 </r>
       <r>    -7.3759     0.0000   212.0000 </r>
       <r>    -7.2220     0.0000   212.0000 </r>
       <r>    -7.0680     0.0000   212.0000 </r>
       <r>    -6.9141     0.0000   212.0000 </r>
       <r>    -6.7601     0.0000   212.0000 </r>
       <r>    -6.6062     0.0000   212.0000 </r>
       <r>    -6.4523     0.0000   212.0000 </r>
       <r>    -6.2983     0.0000   212.0000 </r>
       <r>    -6.1444     0.0000   212.0000 </r>
       <r>    -5.9904     0.0000   212.0000 </r>
       <r>    -5.8365     0.0000   212.0000 </r>
       <r>    -5.6826     0.0000   212.0000 </r>
       <r>    -5.5286     0.0000   212.0000 </r>
       <r>    -5.3747     0.0000   212.0000 </r>
       <r>    -5.2208     0.0000   212.0000 </r>
       <r>    -5.0668     0.0000   212.0000 </r>
       <r>    -4.9129     0.0000   212.0000 </r>
       <r>    -4.7589     0.0000   212.0000 </r>
       <r>    -4.6050     0.0000   212.0000 </r>
       <r>    -4.4511     0.0000   212.0000 </r>
       <r>    -4.2971     0.0000   212.0000 </r>
       <r>    -4.1432     0.0000   212.0000 </r>
       <r>    -3.9892     0.0000   212.0000 </r>
       <r>    -3.8353     0.0000   212.0000 </r>
       <r>    -3.6814     0.0000   212.0000 </r>
       <r>    -3.5274     0.0000   212.0000 </r>
       <r>    -3.3735     0.0000   212.0000 </r>
       <r>    -3.2196     0.0000   212.0000 </r>
       <r>    -3.0656     0.0000   212.0000 </r>
       <r>    -2.9117     0.0000   212.0000 </r>
       <r>    -2.7577     0.0000   212.0000 </r>
       <r>    -2.6038     0.0175   212.0027 </r>
       <r>    -2.4499     6.9654   213.0749 </r>
       <r>    -2.2959    13.7761   215.1956 </r>
       <r>    -2.1420    22.0971   218.5972 </r>
       <r>    -1.9880    22.2749   222.0262 </r>
       <r>    -1.8341    26.8644   226.1616 </r>
       <r>    -1.6802    21.9469   229.5401 </r>
       <r>    -1.5262    33.9321   234.7635 </r>
       <r>    -1.3723    35.1741   240.1782 </r>
       <r>    -1.2184    49.7391   247.8349 </r>
       <r>    -1.0644    65.6479   257.9407 </r>
       <r>    -0.9105    75.6363   269.5840 </r>
       <r>    -0.7565    82.6976   282.3144 </r>
       <r>    -0.6026    92.3252   296.5268 </r>
       <r>    -0.4487    91.4468   310.6039 </r>
       <r>    -0.2947    76.5034   322.3807 </r>
       <r>    -0.1408    60.4063   331.6796 </r>
       <r>     0.0132    56.7920   340.4221 </r>
       <r>     0.1671    55.3659   348.9450 </r>
       <r>     0.3210    62.3224   358.5388 </r>
       <r>     0.4750    59.0296   367.6257 </r>
       <r>     0.6289    60.8609   376.9946 </r>
       <r>     0.7828    55.6268   385.5577 </r>
       <r>     0.9368    55.4441   394.0926 </r>
       <r>     1.0907    55.7463   402.6742 </r>
       <r>     1.2447    60.3752   411.9682 </r>
       <r>     1.3986    72.1381   423.0730 </r>
       <r>     1.5525    67.5162   433.4664 </r>
       <r>     1.7065    71.5373   444.4787 </r>
       <r>     1.8604    49.1353   452.0425 </r>
       <r>     2.0144    33.1748   457.1494 </r>
       <r>     2.1683    27.0317   461.3106 </r>
       <r>     2.3222    20.5966   464.4812 </r>
       <r>     2.4762     3.3699   465.0000 </r>
       <r>     2.6301     0.0000   465.0000 </r>
       <r>     2.7840     0.0000   465.0000 </r>
       <r>     2.9380     0.0000   465.0000 </r>
       <r>     3.0919     0.0000   465.0000 </r>
       <r>     3.2459     0.0000   465.0000 </r>
       <r>     3.3998     0.0000   465.0000 </r>
       <r>     3.5537     0.0000   465.0000 </r>
       <r>     3.7077     0.0000   465.0000 </r>
       <r>     3.8616     0.0000   465.0000 </r>
       <r>     4.0156     0.0000   465.0000 </r>
       <r>     4.1695     0.0688   465.0106 </r>
       <r>     4.3234    12.4265   466.9235 </r>
       <r>     4.4774    51.6627   474.8764 </r>
       <r>     4.6313    71.0084   485.8073 </r>
       <r>     4.7852    69.9682   496.5781 </r>
       <r>     4.9392    70.3776   507.4119 </r>
       <r>     5.0931    74.6622   518.9053 </r>
       <r>     5.2471    81.0505   531.3821 </r>
       <r>     5.4010    80.6393   543.7956 </r>
       <r>     5.5549    72.1306   554.8992 </r>
       <r>     5.7089    52.1444   562.9263 </r>
       <r>     5.8628    60.5536   572.2478 </r>
       <r>     6.0168    77.7591   584.2179 </r>
       <r>     6.1707    56.9378   592.9828 </r>
       <r>     6.3246    35.2866   598.4148 </r>
       <r>     6.4786    28.6474   602.8247 </r>
       <r>     6.6325    17.7245   605.5532 </r>
       <r>     6.7864    21.4849   608.8605 </r>
       <r>     6.9404     8.2489   610.1304 </r>
       <r>     7.0943     7.3233   611.2577 </r>
       <r>     7.2483    10.9955   612.9503 </r>
       <r>     7.4022    15.5421   615.3429 </r>
       <r>     7.5561    15.9403   617.7967 </r>
       <r>     7.7101    14.0636   619.9616 </r>
       <r>     7.8640    20.1657   623.0659 </r>
       <r>     8.0180    21.9940   626.4516 </r>
       <r>     8.1719    24.2755   630.1885 </r>
       <r>     8.3258    24.4496   633.9523 </r>
       <r>     8.4798    27.9782   638.2592 </r>
       <r>     8.6337    27.7919   642.5374 </r>
       <r>     8.7876    26.4996   646.6167 </r>
       <r>     8.9416    30.1702   651.2611 </r>
       <r>     9.0955    35.5770   656.7378 </r>
       <r>     9.2495    35.4235   662.1908 </r>
       <r>     9.4034    40.8486   668.4790 </r>
       <r>     9.5573    46.4179   675.6245 </r>
       <r>     9.7113    50.0566   683.3301 </r>
       <r>     9.8652    51.7352   691.2941 </r>
       <r>    10.0192    53.1659   699.4784 </r>
       <r>    10.1731    52.5426   707.5667 </r>
       <r>    10.3270    51.6204   715.5131 </r>
       <r>    10.4810    53.1999   723.7026 </r>
       <r>    10.6349    50.3774   731.4576 </r>
       <r>    10.7888    56.1681   740.1041 </r>
       <r>    10.9428    54.5333   748.4988 </r>
       <r>    11.0967    54.1133   756.8289 </r>
       <r>    11.2507    52.7206   764.9447 </r>
       <r>    11.4046    19.8386   767.9986 </r>
       <r>    11.5585     0.0092   768.0000 </r>
       <r>    11.7125     0.0000   768.0000 </r>
       <r>    11.8664     0.0000   768.0000 </r>
       <r>    12.0204     0.0000   768.0000 </r>
       <r>    12.1743     0.0000   768.0000 </r>
       <r>    12.3282     0.0000   768.0000 </r>
       <r>    12.4822     0.0000   768.0000 </r>
       <r>    12.6361     0.0000   768.0000 </r>
       <r>    12.7900     0.0000   768.0000 </r>
       <r>    12.9440     0.0000   768.0000 </r>
       <r>    13.0979     0.0000   768.0000 </r>
       <r>    13.2519     0.0000   768.0000 </r>
       <r>    13.4058     0.0000   768.0000 </r>
      </set>
     </set>
    </array>
   </total>
  </dos>
 </calculation>
 <structure name="finalpos" >
  <crystal>
   <varray name="basis" >
    <v>      11.24896184       0.03042152       0.02231330 </v>
    <v>       0.03015028      11.25746631      -0.02865817 </v>
    <v>       0.03204741      -0.04052409      15.81254689 </v>
   </varray>
   <i name="volume">   2002.38318122 </i>
   <varray name="rec_basis" >
    <v>       0.08889810      -0.00023855      -0.00018078 </v>
    <v>      -0.00024069       0.08883116       0.00022814 </v>
    <v>      -0.00012588       0.00016133       0.06324159 </v>
   </varray>
  </crystal>
  <varray name="positions" >
   <v>       0.99400662       0.25360010       0.11912373 </v>
   <v>       0.99039290       0.25769303       0.63247200 </v>
   <v>       0.98837552       0.75151377       0.13094582 </v>
   <v>       0.97835173       0.75028228       0.62465183 </v>
   <v>       0.51189547       0.26103669       0.11974864 </v>
   <v>       0.52246356       0.25786798       0.63470336 </v>
   <v>       0.50562309       0.73224163       0.12585047 </v>
   <v>       0.49467983       0.74845850       0.62739289 </v>
   <v>       0.98818631       0.26069424       0.36669932 </v>
   <v>       0.00619379       0.24780604       0.87575161 </v>
   <v>       0.00867413       0.74639541       0.36858951 </v>
   <v>       0.99095120       0.75419435       0.87808772 </v>
   <v>       0.52022235       0.24476144       0.36844831 </v>
   <v>       0.50360456       0.26431188       0.87407394 </v>
   <v>       0.48651879       0.74204279       0.36730055 </v>
   <v>       0.50762450       0.74185908       0.88489587 </v>
   <v>       0.23845873       0.00155344       0.11822836 </v>
   <v>       0.26093065       0.01352897       0.63182441 </v>
   <v>       0.25593344       0.49093562       0.12812885 </v>
   <v>       0.23834428       0.50736857       0.62578532 </v>
   <v>       0.75918221       0.00734323       0.12035636 </v>
   <v>       0.75170345       0.01391411       0.62989738 </v>
   <v>       0.74781478       0.49787360       0.12487654 </v>
   <v>       0.75353853       0.49375495       0.63128130 </v>
   <v>       0.24865902       0.99452788       0.37137783 </v>
   <v>       0.25424720       0.01819244       0.86832452 </v>
   <v>       0.25047398       0.51048962       0.35955077 </v>
   <v>       0.25492841       0.48994771       0.88100194 </v>
   <v>       0.75958621       0.00363110       0.37292169 </v>
   <v>       0.76131868       0.00736702       0.87440125 </v>
   <v>       0.74601148       0.48754303       0.36487037 </v>
   <v>       0.74640729       0.49767450       0.87963795 </v>
   <v>       0.25718684       0.24836770       0.99748370 </v>
   <v>       0.27472712       0.24554627       0.51212053 </v>
   <v>       0.75125803       0.24618836       0.99601322 </v>
   <v>       0.74830836       0.24950980       0.49872094 </v>
   <v>       0.74894629       0.75633933       0.00007417 </v>
   <v>       0.00560990       0.99836060       0.24916742 </v>
   <v>       0.00460352       0.50540769       0.75396992 </v>
   <v>       0.50077981       0.50618608       0.74877045 </v>
   <v>       0.00425767       0.99750153       0.99874301 </v>
   <v>       0.98683683      -0.00004399       0.49850518 </v>
   <v>       0.98904081       0.49359912       0.99911435 </v>
   <v>       0.97336091       0.51642519       0.49658855 </v>
   <v>       0.50692403       0.99893813       0.98013284 </v>
   <v>       0.50652567       0.99093397       0.50321135 </v>
   <v>       0.49979888       0.49788555       0.00338383 </v>
   <v>       0.48271108       0.48962969       0.50026270 </v>
   <v>       0.26100797       0.76784013       0.99259221 </v>
   <v>       0.25668165       0.74631811       0.49458568 </v>
   <v>       0.74778688       0.76581485       0.51258588 </v>
   <v>       0.23819443       0.25819022       0.23806661 </v>
   <v>       0.25029636       0.25937275       0.74918573 </v>
   <v>       0.24972888       0.75291884       0.25245454 </v>
   <v>       0.25147905       0.73415826       0.76202074 </v>
   <v>       0.75678948       0.25366362       0.24595788 </v>
   <v>       0.75452317       0.25604356       0.75277697 </v>
   <v>       0.75450653       0.74518583       0.24427750 </v>
   <v>       0.75561803       0.74365025       0.75415260 </v>
   <v>       0.99750845       0.00910180       0.75020198 </v>
   <v>       0.99882049       0.50662687       0.24598160 </v>
   <v>       0.51381509       0.97764776       0.26367320 </v>
   <v>       0.49899737       0.01962186       0.74555436 </v>
   <v>       0.50663897       0.49993978       0.25241075 </v>
   <v>       0.15004795       0.11829995       0.25858799 </v>
   <v>       0.12782636       0.12260541       0.74611962 </v>
   <v>       0.12924458       0.63102455       0.23910580 </v>
   <v>       0.10944493       0.65796202       0.72804238 </v>
   <v>       0.59300496       0.10971152       0.22284180 </v>
   <v>       0.63115185       0.12525417       0.74533794 </v>
   <v>       0.63013651       0.62332135       0.25389644 </v>
   <v>       0.60652777       0.65128235       0.75452769 </v>
   <v>       0.36780062       0.34677047       0.27888087 </v>
   <v>       0.38571366       0.37608913       0.73998591 </v>
   <v>       0.32296402       0.87695511       0.73858280 </v>
   <v>       0.87333420       0.38146217       0.25055356 </v>
   <v>       0.89010588       0.37632462       0.75857245 </v>
   <v>       0.88217598       0.87498359       0.25741192 </v>
   <v>       0.87805139       0.87663775       0.74373610 </v>
   <v>       0.37686347       0.13275252       0.74326178 </v>
   <v>       0.37201050       0.62669565       0.24605798 </v>
   <v>       0.36487803       0.62045013       0.73066963 </v>
   <v>       0.88316762       0.12333060       0.25853570 </v>
   <v>       0.87932277       0.12677033       0.74356366 </v>
   <v>       0.87558484       0.63055032       0.27452695 </v>
   <v>       0.86566303       0.61727961       0.75213741 </v>
   <v>       0.12059486       0.37482719       0.24071664 </v>
   <v>       0.13694841       0.39696192       0.75075385 </v>
   <v>       0.13173650       0.87503325       0.23052300 </v>
   <v>       0.62165830       0.36639674       0.25295076 </v>
   <v>       0.63429940       0.39193305       0.75465352 </v>
   <v>       0.63678783       0.86506936       0.27827042 </v>
   <v>       0.37487438       0.37708535       0.99701688 </v>
   <v>       0.33717768       0.39521879       0.48499256 </v>
   <v>       0.37326670       0.88835854       0.00455677 </v>
   <v>       0.34844232       0.88402652       0.51154659 </v>
   <v>       0.87418638       0.37494733       0.99083949 </v>
   <v>       0.87123233       0.37484040       0.49001502 </v>
   <v>       0.86993857       0.88202019       0.00004873 </v>
   <v>       0.86992361       0.87419414       0.49037776 </v>
   <v>       0.13599154       0.11968034       0.99817843 </v>
   <v>       0.15707552       0.17930469       0.44977470 </v>
   <v>       0.11712916       0.65730232       0.51120480 </v>
   <v>       0.63084748       0.11806782       0.00157277 </v>
   <v>       0.64364820       0.10177179       0.50277438 </v>
   <v>       0.62018936       0.62836980      -0.00035183 </v>
   <v>       0.12973366       0.37913111       0.00828912 </v>
   <v>       0.11868259       0.84429789       0.02346234 </v>
   <v>       0.62643081       0.37393454       0.99804321 </v>
   <v>       0.60957608       0.35840310       0.49409321 </v>
   <v>       0.61734346       0.87650232       0.02103102 </v>
   <v>       0.60566021       0.83748646       0.47869883 </v>
   <v>       0.38907738       0.12860736       0.98365375 </v>
   <v>       0.39664248       0.13560466       0.52350530 </v>
   <v>       0.34466816       0.63157958       0.02621739 </v>
   <v>       0.37978510       0.63220985       0.51994300 </v>
   <v>       0.88443112       0.12770349       0.98772921 </v>
   <v>       0.89038668       0.13332167       0.50852964 </v>
   <v>       0.87454069       0.63333777       0.98731281 </v>
   <v>       0.83223174       0.62153337       0.48834623 </v>
   <v>       0.99758103       0.01590780       0.12678935 </v>
   <v>       0.04685003       0.96675960       0.60865323 </v>
   <v>       0.99063984       0.52227952       0.11956157 </v>
   <v>       0.99772711       0.49338905       0.61730229 </v>
   <v>       0.38164967       0.88598215       0.22253193 </v>
   <v>       0.52464027       0.96719388       0.63130104 </v>
   <v>       0.49781402       0.49037982       0.12902445 </v>
   <v>       0.52644144       0.50406240       0.61802927 </v>
   <v>       0.02653274       0.97916655       0.38206625 </v>
   <v>       0.02778050       0.97640222       0.86950213 </v>
   <v>       0.03114451       0.49390071       0.38523932 </v>
   <v>       0.02661549       0.52340600       0.87699743 </v>
   <v>       0.47256733       0.01828507       0.37683225 </v>
   <v>       0.51995990       0.96437810       0.85933567 </v>
   <v>       0.51052263       0.52411264       0.38502632 </v>
   <v>       0.48580883       0.51181636       0.87381599 </v>
   <v>       0.24724932       0.25645241       0.87289002 </v>
   <v>       0.24271426       0.77022268       0.37138349 </v>
   <v>       0.23014271       0.72740336       0.87928655 </v>
   <v>       0.74587637       0.23372609       0.37312548 </v>
   <v>       0.74462325       0.24713809       0.87372680 </v>
   <v>       0.73401743       0.77575787       0.87387455 </v>
   <v>       0.27956716       0.23317483       0.12382755 </v>
   <v>       0.21807653       0.26665509       0.62043758 </v>
   <v>       0.76198637       0.24617345       0.12187210 </v>
   <v>       0.75155530       0.26326366       0.62418927 </v>
   <v>       0.75825992       0.74285213       0.12549929 </v>
   <v>       0.73092516       0.76090788       0.62973135 </v>
  </varray>
 </structure>
</modeling>
