       N       E                     dE             d eps       ncg     rms          rms(c)
DAV:   1    -0.994101455558E+03   -0.99410E+03   -0.31564E-02 13112   0.426E-01    0.741E-03
RMM:   2    -0.994101455988E+03   -0.43037E-06   -0.50982E-06  6547   0.479E-03    0.114E-02
RMM:   3    -0.994101456044E+03   -0.56170E-07   -0.11596E-06  4232   0.282E-03    0.458E-03
RMM:   4    -0.994101456145E+03   -0.10050E-06   -0.20571E-07  2043   0.186E-03    0.317E-03
RMM:   5    -0.994101456266E+03   -0.12106E-06   -0.14647E-07  1938   0.180E-03    0.125E-03
RMM:   6    -0.994101456299E+03   -0.33411E-07   -0.55194E-08  1633   0.174E-03    0.127E-03
RMM:   7    -0.994101456297E+03    0.23865E-08   -0.19831E-09  1402   0.170E-03    0.922E-04
RMM:   8    -0.994101456293E+03    0.38854E-08   -0.38527E-10  1365   0.170E-03
   1 F= -.99410146E+03 E0= -.99410146E+03  d E =-.994101E+03  mag=   120.0000
       N       E                     dE             d eps       ncg     rms          rms(c)
DAV:   1    -0.994100575043E+03    0.88125E-03   -0.54177E-01 12416   0.877E-01    0.458E-01
RMM:   2    -0.994102506266E+03   -0.19312E-02   -0.18154E-02 12608   0.194E-01    0.318E-01
RMM:   3    -0.994102664975E+03   -0.15871E-03   -0.11489E-03 12293   0.551E-02    0.189E-01
RMM:   4    -0.994102523063E+03    0.14191E-03   -0.19726E-04  8220   0.205E-02    0.124E-01
RMM:   5    -0.994102456494E+03    0.66569E-04   -0.21516E-04  7879   0.172E-02    0.543E-02
RMM:   6    -0.994102458554E+03   -0.20608E-05   -0.35930E-05  7401   0.109E-02    0.425E-02
RMM:   7    -0.994102460774E+03   -0.22195E-05   -0.14680E-05  7212   0.553E-03    0.211E-02
RMM:   8    -0.994102462472E+03   -0.16978E-05   -0.65554E-06  6811   0.455E-03
   2 F= -.99410246E+03 E0= -.99410246E+03  d E =-.100618E-02  mag=   120.0000
       N       E                     dE             d eps       ncg     rms          rms(c)
DAV:   1    -0.994102525029E+03   -0.64255E-04   -0.33921E-02 12784   0.219E-01    0.117E-01
RMM:   2    -0.994102643275E+03   -0.11825E-03   -0.11271E-03 12149   0.492E-02    0.831E-02
RMM:   3    -0.994102651938E+03   -0.86629E-05   -0.55636E-05  6826   0.150E-02    0.515E-02
RMM:   4    -0.994102645346E+03    0.65916E-05   -0.17346E-05  6618   0.678E-03    0.319E-02
RMM:   5    -0.994102638744E+03    0.66029E-05   -0.15800E-05  6516   0.485E-03    0.160E-02
RMM:   6    -0.994102638377E+03    0.36627E-06   -0.34369E-06  5146   0.344E-03    0.138E-02
RMM:   7    -0.994102638103E+03    0.27468E-06   -0.11009E-07  2298   0.181E-03    0.540E-03
RMM:   8    -0.994102637802E+03    0.30101E-06   -0.55238E-08  1963   0.185E-03
   3 F= -.99410264E+03 E0= -.99410264E+03  d E =-.118151E-02  mag=   120.0000
       N       E                     dE             d eps       ncg     rms          rms(c)
DAV:   1    -0.994101909516E+03    0.72859E-03   -0.47871E-01 12448   0.821E-01    0.320E-01
RMM:   2    -0.994103640299E+03   -0.17308E-02   -0.13179E-02 12559   0.162E-01    0.201E-01
RMM:   3    -0.994103783981E+03   -0.14368E-03   -0.70117E-04 10448   0.459E-02    0.108E-01
RMM:   4    -0.994103737702E+03    0.46279E-04   -0.11273E-04  7476   0.160E-02    0.630E-02
RMM:   5    -0.994103722981E+03    0.14721E-04   -0.78765E-05  7295   0.115E-02    0.243E-02
RMM:   6    -0.994103725016E+03   -0.20347E-05   -0.15555E-05  7062   0.694E-03    0.152E-02
RMM:   7    -0.994103725473E+03   -0.45642E-06   -0.66594E-06  6187   0.370E-03    0.913E-03
RMM:   8    -0.994103725536E+03   -0.63679E-07   -0.30030E-06  5148   0.332E-03
   4 F= -.99410373E+03 E0= -.99410373E+03  d E =-.108773E-02  mag=   120.0000
       N       E                     dE             d eps       ncg     rms          rms(c)
DAV:   1    -0.994103398647E+03    0.32683E-03   -0.11808E-01 12456   0.408E-01    0.159E-01
RMM:   2    -0.994103827857E+03   -0.42921E-03   -0.32724E-03 12376   0.804E-02    0.996E-02
RMM:   3    -0.994103860459E+03   -0.32602E-04   -0.14918E-04  8069   0.242E-02    0.549E-02
RMM:   4    -0.994103852279E+03    0.81799E-05   -0.41890E-05  7167   0.106E-02    0.320E-02
RMM:   5    -0.994103849129E+03    0.31505E-05   -0.25417E-05  7010   0.640E-03    0.179E-02
RMM:   6    -0.994103849695E+03   -0.56651E-06   -0.67181E-06  6082   0.465E-03    0.121E-02
RMM:   7    -0.994103849903E+03   -0.20731E-06   -0.24407E-06  4146   0.251E-03    0.439E-03
RMM:   8    -0.994103849927E+03   -0.23836E-07   -0.10885E-06  3488   0.245E-03
   5 F= -.99410385E+03 E0= -.99410385E+03  d E =-.121212E-02  mag=   120.0000
       N       E                     dE             d eps       ncg     rms          rms(c)
DAV:   1    -0.994103302883E+03    0.54702E-03   -0.46467E-01 12688   0.799E-01    0.290E-01
RMM:   2    -0.994104768683E+03   -0.14658E-02   -0.12312E-02 12542   0.153E-01    0.172E-01
RMM:   3    -0.994104875630E+03   -0.10695E-03   -0.68812E-04 10441   0.446E-02    0.101E-01
RMM:   4    -0.994104841541E+03    0.34090E-04   -0.10748E-04  7391   0.153E-02    0.632E-02
RMM:   5    -0.994104827242E+03    0.14299E-04   -0.58398E-05  7225   0.105E-02    0.382E-02
RMM:   6    -0.994104827420E+03   -0.17858E-06   -0.22412E-05  7147   0.737E-03    0.195E-02
RMM:   7    -0.994104827645E+03   -0.22525E-06   -0.99723E-06  6906   0.505E-03    0.139E-02
RMM:   8    -0.994104826927E+03    0.71872E-06   -0.49416E-06  5465   0.357E-03
   6 F= -.99410483E+03 E0= -.99410483E+03  d E =-.977000E-03  mag=   120.0000
       N       E                     dE             d eps       ncg     rms          rms(c)
DAV:   1    -0.994103598704E+03    0.12289E-02   -0.47448E-01 12400   0.807E-01    0.293E-01
RMM:   2    -0.994105101291E+03   -0.15026E-02   -0.12597E-02 12563   0.154E-01    0.173E-01
RMM:   3    -0.994105210231E+03   -0.10894E-03   -0.70296E-04 10510   0.451E-02    0.101E-01
RMM:   4    -0.994105175276E+03    0.34955E-04   -0.10747E-04  7428   0.152E-02    0.638E-02
RMM:   5    -0.994105160425E+03    0.14851E-04   -0.57052E-05  7241   0.103E-02    0.378E-02
RMM:   6    -0.994105160530E+03   -0.10488E-06   -0.21423E-05  7158   0.710E-03    0.193E-02
RMM:   7    -0.994105160742E+03   -0.21256E-06   -0.90805E-06  6982   0.490E-03    0.141E-02
RMM:   8    -0.994105160158E+03    0.58439E-06   -0.44544E-06  5534   0.341E-03
   7 F= -.99410516E+03 E0= -.99410516E+03  d E =-.131023E-02  mag=   120.0000
       N       E                     dE             d eps       ncg     rms          rms(c)
DAV:   1    -0.994104440786E+03    0.71996E-03   -0.45778E-01 12576   0.780E-01    0.252E-01
RMM:   2    -0.994105917477E+03   -0.14767E-02   -0.11427E-02 12563   0.144E-01    0.146E-01
RMM:   3    -0.994106023786E+03   -0.10631E-03   -0.59759E-04 10097   0.409E-02    0.748E-02
RMM:   4    -0.994105997059E+03    0.26727E-04   -0.82851E-05  7279   0.135E-02    0.461E-02
RMM:   5    -0.994105986677E+03    0.10382E-04   -0.54874E-05  7187   0.965E-03    0.216E-02
RMM:   6    -0.994105988885E+03   -0.22077E-05   -0.14932E-05  6919   0.598E-03    0.934E-03
RMM:   7    -0.994105989643E+03   -0.75888E-06   -0.63687E-06  6110   0.387E-03    0.800E-03
RMM:   8    -0.994105990150E+03   -0.50657E-06   -0.30005E-06  4638   0.298E-03
   8 F= -.99410599E+03 E0= -.99410599E+03  d E =-.829992E-03  mag=   120.0000
       N       E                     dE             d eps       ncg     rms          rms(c)
DAV:   1    -0.994101179138E+03    0.48105E-02   -0.16182E+00 12544   0.147E+00    0.474E-01
RMM:   2    -0.994106386992E+03   -0.52079E-02   -0.40310E-02 12581   0.271E-01    0.275E-01
RMM:   3    -0.994106787069E+03   -0.40008E-03   -0.23228E-03 12815   0.767E-02    0.140E-01
RMM:   4    -0.994106677263E+03    0.10981E-03   -0.27707E-04  8871   0.215E-02    0.850E-02
RMM:   5    -0.994106636468E+03    0.40795E-04   -0.19066E-04  7723   0.166E-02    0.334E-02
RMM:   6    -0.994106640852E+03   -0.43841E-05   -0.35437E-05  7245   0.108E-02    0.366E-02
RMM:   7    -0.994106642757E+03   -0.19044E-05   -0.15809E-05  7148   0.568E-03    0.135E-02
RMM:   8    -0.994106643915E+03   -0.11585E-05   -0.85262E-06  6997   0.528E-03
   9 F= -.99410664E+03 E0= -.99410664E+03  d E =-.148376E-02  mag=   120.0000
       N       E                     dE             d eps       ncg     rms          rms(c)
DAV:   1    -0.994106111091E+03    0.53167E-03   -0.40191E-01 12432   0.727E-01    0.234E-01
RMM:   2    -0.994107369276E+03   -0.12582E-02   -0.99226E-03 12604   0.134E-01    0.135E-01
RMM:   3    -0.994107457456E+03   -0.88180E-04   -0.50557E-04  9801   0.376E-02    0.684E-02
RMM:   4    -0.994107432856E+03    0.24601E-04   -0.75373E-05  7262   0.129E-02    0.421E-02
RMM:   5    -0.994107422600E+03    0.10256E-04   -0.50844E-05  7201   0.930E-03    0.202E-02
RMM:   6    -0.994107424361E+03   -0.17610E-05   -0.13992E-05  6910   0.571E-03    0.931E-03
RMM:   7    -0.994107424854E+03   -0.49215E-06   -0.58537E-06  5776   0.375E-03    0.670E-03
RMM:   8    -0.994107425070E+03   -0.21662E-06   -0.29150E-06  4546   0.290E-03
  10 F= -.99410743E+03 E0= -.99410743E+03  d E =-.781155E-03  mag=   120.0000
       N       E                     dE             d eps       ncg     rms          rms(c)
DAV:   1    -0.994102478040E+03    0.49468E-02   -0.17438E+00 12352   0.151E+00    0.487E-01
RMM:   2    -0.994107912575E+03   -0.54345E-02   -0.42790E-02 12603   0.279E-01    0.281E-01
RMM:   3    -0.994108322097E+03   -0.40952E-03   -0.24238E-03 12822   0.780E-02    0.142E-01
RMM:   4    -0.994108196948E+03    0.12515E-03   -0.29800E-04  9027   0.220E-02    0.860E-02
RMM:   5    -0.994108147124E+03    0.49824E-04   -0.20588E-04  7841   0.170E-02    0.346E-02
RMM:   6    -0.994108150853E+03   -0.37291E-05   -0.33994E-05  7234   0.105E-02    0.315E-02
RMM:   7    -0.994108152250E+03   -0.13964E-05   -0.14885E-05  7113   0.553E-03    0.140E-02
RMM:   8    -0.994108152552E+03   -0.30207E-06   -0.81350E-06  6918   0.506E-03
  11 F= -.99410815E+03 E0= -.99410815E+03  d E =-.150864E-02  mag=   120.0000
       N       E                     dE             d eps       ncg     rms          rms(c)
DAV:   1    -0.994107626648E+03    0.52560E-03   -0.35434E-01 12416   0.680E-01    0.219E-01
RMM:   2    -0.994108728692E+03   -0.11020E-02   -0.88661E-03 12617   0.127E-01    0.128E-01
RMM:   3    -0.994108797308E+03   -0.68616E-04   -0.43107E-04  9654   0.349E-02    0.677E-02
RMM:   4    -0.994108773839E+03    0.23469E-04   -0.70653E-05  7254   0.127E-02    0.420E-02
RMM:   5    -0.994108764810E+03    0.90288E-05   -0.47140E-05  7186   0.890E-03    0.221E-02
RMM:   6    -0.994108766394E+03   -0.15838E-05   -0.13531E-05  6769   0.553E-03    0.917E-03
RMM:   7    -0.994108766834E+03   -0.43990E-06   -0.57555E-06  5651   0.370E-03    0.801E-03
RMM:   8    -0.994108767033E+03   -0.19898E-06   -0.29180E-06  4474   0.284E-03
  12 F= -.99410877E+03 E0= -.99410877E+03  d E =-.614481E-03  mag=   120.0000
       N       E                     dE             d eps       ncg     rms          rms(c)
DAV:   1    -0.994106694835E+03    0.20720E-02   -0.75975E-01 12288   0.995E-01    0.320E-01
RMM:   2    -0.994109045446E+03   -0.23506E-02   -0.18865E-02 12608   0.185E-01    0.187E-01
RMM:   3    -0.994109205627E+03   -0.16018E-03   -0.10299E-03 11042   0.512E-02    0.988E-02
RMM:   4    -0.994109147052E+03    0.58576E-04   -0.13034E-04  7568   0.162E-02    0.599E-02
RMM:   5    -0.994109127094E+03    0.19957E-04   -0.88021E-05  7308   0.116E-02    0.283E-02
RMM:   6    -0.994109129546E+03   -0.24514E-05   -0.20015E-05  7101   0.735E-03    0.169E-02
RMM:   7    -0.994109130281E+03   -0.73506E-06   -0.87647E-06  6713   0.416E-03    0.108E-02
RMM:   8    -0.994109130483E+03   -0.20166E-06   -0.44123E-06  5679   0.369E-03
  13 F= -.99410913E+03 E0= -.99410913E+03  d E =-.977931E-03  mag=   120.0000
       N       E                     dE             d eps       ncg     rms          rms(c)
DAV:   1    -0.994108577596E+03    0.55268E-03   -0.36764E-01 12624   0.688E-01    0.196E-01
RMM:   2    -0.994109624409E+03   -0.10468E-02   -0.90023E-03 12549   0.127E-01    0.114E-01
RMM:   3    -0.994109677036E+03   -0.52627E-04   -0.45201E-04  9611   0.355E-02    0.627E-02
RMM:   4    -0.994109658408E+03    0.18628E-04   -0.68037E-05  7253   0.125E-02    0.393E-02
RMM:   5    -0.994109650576E+03    0.78322E-05   -0.42886E-05  7115   0.845E-03    0.209E-02
RMM:   6    -0.994109652364E+03   -0.17881E-05   -0.12586E-05  6587   0.530E-03    0.769E-03
RMM:   7    -0.994109652888E+03   -0.52423E-06   -0.52441E-06  5535   0.364E-03    0.755E-03
RMM:   8    -0.994109653183E+03   -0.29471E-06   -0.25375E-06  4307   0.276E-03
  14 F= -.99410965E+03 E0= -.99410965E+03  d E =-.522701E-03  mag=   120.0000
       N       E                     dE             d eps       ncg     rms          rms(c)
DAV:   1    -0.994105022651E+03    0.46302E-02   -0.17712E+00 12552   0.151E+00    0.430E-01
RMM:   2    -0.994110044675E+03   -0.50220E-02   -0.43174E-02 12564   0.277E-01    0.251E-01
RMM:   3    -0.994110335069E+03   -0.29039E-03   -0.24838E-03 12845   0.777E-02    0.137E-01
RMM:   4    -0.994110222202E+03    0.11287E-03   -0.28362E-04  8807   0.212E-02    0.832E-02
RMM:   5    -0.994110179027E+03    0.43175E-04   -0.18643E-04  7794   0.160E-02    0.287E-02
RMM:   6    -0.994110183439E+03   -0.44121E-05   -0.33240E-05  7251   0.101E-02    0.293E-02
RMM:   7    -0.994110185070E+03   -0.16310E-05   -0.14661E-05  7140   0.554E-03    0.129E-02
RMM:   8    -0.994110185798E+03   -0.72815E-06   -0.81257E-06  6858   0.501E-03
  15 F= -.99411019E+03 E0= -.99411019E+03  d E =-.105532E-02  mag=   120.0000
       N       E                     dE             d eps       ncg     rms          rms(c)
DAV:   1    -0.994109103288E+03    0.10818E-02   -0.56831E-01 12688   0.851E-01    0.257E-01
RMM:   2    -0.994110754508E+03   -0.16512E-02   -0.13832E-02 12445   0.158E-01    0.156E-01
RMM:   3    -0.994110868224E+03   -0.11372E-03   -0.82582E-04 10583   0.464E-02    0.877E-02
RMM:   4    -0.994110837027E+03    0.31198E-04   -0.97431E-05  7394   0.143E-02    0.555E-02
RMM:   5    -0.994110818159E+03    0.18867E-04   -0.69319E-05  7262   0.104E-02    0.258E-02
RMM:   6    -0.994110820136E+03   -0.19767E-05   -0.17783E-05  7116   0.663E-03    0.146E-02
RMM:   7    -0.994110820600E+03   -0.46425E-06   -0.71160E-06  6560   0.410E-03    0.889E-03
RMM:   8    -0.994110820521E+03    0.79206E-07   -0.32436E-06  5098   0.315E-03
  16 F= -.99411082E+03 E0= -.99411082E+03  d E =-.634723E-03  mag=   120.0000
       N       E                     dE             d eps       ncg     rms          rms(c)
DAV:   1    -0.994109356060E+03    0.14645E-02   -0.57843E-01 12680   0.858E-01    0.259E-01
RMM:   2    -0.994111035185E+03   -0.16791E-02   -0.14046E-02 12473   0.159E-01    0.156E-01
RMM:   3    -0.994111149944E+03   -0.11476E-03   -0.82674E-04 10590   0.466E-02    0.882E-02
RMM:   4    -0.994111118686E+03    0.31257E-04   -0.97620E-05  7408   0.143E-02    0.559E-02
RMM:   5    -0.994111099513E+03    0.19173E-04   -0.69383E-05  7268   0.104E-02    0.261E-02
RMM:   6    -0.994111101411E+03   -0.18976E-05   -0.17643E-05  7113   0.662E-03    0.150E-02
RMM:   7    -0.994111101852E+03   -0.44118E-06   -0.69574E-06  6554   0.407E-03    0.903E-03
RMM:   8    -0.994111101752E+03    0.10023E-06   -0.31483E-06  5070   0.312E-03
  17 F= -.99411110E+03 E0= -.99411110E+03  d E =-.915954E-03  mag=   120.0000
       N       E                     dE             d eps       ncg     rms          rms(c)
DAV:   1    -0.994110130117E+03    0.97173E-03   -0.47196E-01 12672   0.766E-01    0.246E-01
RMM:   2    -0.994111579414E+03   -0.14493E-02   -0.11091E-02 12415   0.139E-01    0.143E-01
RMM:   3    -0.994111694303E+03   -0.11489E-03   -0.62745E-04 10007   0.415E-02    0.730E-02
RMM:   4    -0.994111669375E+03    0.24929E-04   -0.88732E-05  7353   0.136E-02    0.444E-02
RMM:   5    -0.994111658390E+03    0.10984E-04   -0.51223E-05  7197   0.929E-03    0.208E-02
RMM:   6    -0.994111659769E+03   -0.13787E-05   -0.13539E-05  6790   0.570E-03    0.101E-02
RMM:   7    -0.994111660158E+03   -0.38881E-06   -0.54363E-06  5653   0.362E-03    0.691E-03
RMM:   8    -0.994111660148E+03    0.95024E-08   -0.25714E-06  4512   0.285E-03
  18 F= -.99411166E+03 E0= -.99411166E+03  d E =-.558396E-03  mag=   120.0000
       N       E                     dE             d eps       ncg     rms          rms(c)
DAV:   1    -0.994109704579E+03    0.19556E-02   -0.67905E-01 12608   0.918E-01    0.295E-01
RMM:   2    -0.994111785862E+03   -0.20813E-02   -0.15918E-02 12430   0.166E-01    0.172E-01
RMM:   3    -0.994111955909E+03   -0.17005E-03   -0.94274E-04 10708   0.499E-02    0.874E-02
RMM:   4    -0.994111916898E+03    0.39011E-04   -0.12055E-04  7494   0.155E-02    0.529E-02
RMM:   5    -0.994111901136E+03    0.15762E-04   -0.69657E-05  7268   0.106E-02    0.237E-02
RMM:   6    -0.994111902940E+03   -0.18040E-05   -0.16837E-05  7081   0.666E-03    0.147E-02
RMM:   7    -0.994111903504E+03   -0.56421E-06   -0.69970E-06  6263   0.394E-03    0.821E-03
RMM:   8    -0.994111903486E+03    0.18204E-07   -0.33677E-06  5202   0.327E-03
  19 F= -.99411190E+03 E0= -.99411190E+03  d E =-.801734E-03  mag=   120.0000
       N       E                     dE             d eps       ncg     rms          rms(c)
DAV:   1    -0.994111117671E+03    0.78583E-03   -0.42622E-01 12720   0.722E-01    0.214E-01
RMM:   2    -0.994112301053E+03   -0.11834E-02   -0.99567E-03 12430   0.131E-01    0.124E-01
RMM:   3    -0.994112376375E+03   -0.75323E-04   -0.56551E-04  9736   0.392E-02    0.678E-02
RMM:   4    -0.994112355210E+03    0.21166E-04   -0.80392E-05  7314   0.133E-02    0.424E-02
RMM:   5    -0.994112346662E+03    0.85480E-05   -0.43152E-05  7146   0.867E-03    0.248E-02
RMM:   6    -0.994112348598E+03   -0.19362E-05   -0.13828E-05  6656   0.564E-03    0.103E-02
RMM:   7    -0.994112349432E+03   -0.83426E-06   -0.55392E-06  5733   0.381E-03    0.840E-03
RMM:   8    -0.994112350041E+03   -0.60865E-06   -0.25339E-06  4476   0.280E-03
  20 F= -.99411235E+03 E0= -.99411235E+03  d E =-.446555E-03  mag=   120.0000
       N       E                     dE             d eps       ncg     rms          rms(c)
DAV:   1    -0.994108156644E+03    0.41928E-02   -0.15794E+00 12544   0.139E+00    0.413E-01
RMM:   2    -0.994112533184E+03   -0.43765E-02   -0.36810E-02 12462   0.251E-01    0.239E-01
RMM:   3    -0.994112837647E+03   -0.30446E-03   -0.23011E-03 12482   0.755E-02    0.129E-01
RMM:   4    -0.994112743444E+03    0.94204E-04   -0.26625E-04  8439   0.208E-02    0.783E-02
RMM:   5    -0.994112707446E+03    0.35998E-04   -0.14022E-04  7579   0.145E-02    0.323E-02
RMM:   6    -0.994112712193E+03   -0.47470E-05   -0.31238E-05  7240   0.927E-03    0.260E-02
RMM:   7    -0.994112714027E+03   -0.18340E-05   -0.12666E-05  7068   0.540E-03    0.127E-02
RMM:   8    -0.994112715400E+03   -0.13736E-05   -0.67701E-06  6562   0.447E-03
  21 F= -.99411272E+03 E0= -.99411272E+03  d E =-.811914E-03  mag=   120.0000
       N       E                     dE             d eps       ncg     rms          rms(c)
DAV:   1    -0.994111659115E+03    0.10549E-02   -0.60658E-01 12608   0.855E-01    0.232E-01
RMM:   2    -0.994113227005E+03   -0.15679E-02   -0.14171E-02 12416   0.155E-01    0.139E-01
RMM:   3    -0.994113313009E+03   -0.86003E-04   -0.84422E-04 10399   0.469E-02    0.789E-02
RMM:   4    -0.994113280333E+03    0.32675E-04   -0.10609E-04  7438   0.147E-02    0.492E-02
RMM:   5    -0.994113264952E+03    0.15381E-04   -0.63273E-05  7257   0.100E-02    0.222E-02
RMM:   6    -0.994113266734E+03   -0.17821E-05   -0.15686E-05  6931   0.620E-03    0.109E-02
RMM:   7    -0.994113267178E+03   -0.44444E-06   -0.63282E-06  5994   0.383E-03    0.732E-03
RMM:   8    -0.994113267074E+03    0.10456E-06   -0.28918E-06  4864   0.303E-03
  22 F= -.99411327E+03 E0= -.99411327E+03  d E =-.551673E-03  mag=   120.0000
       N       E                     dE             d eps       ncg     rms          rms(c)
DAV:   1    -0.994108003053E+03    0.52641E-02   -0.21353E+00 12416   0.160E+00    0.434E-01
RMM:   2    -0.994113511421E+03   -0.55084E-02   -0.49724E-02 12425   0.291E-01    0.260E-01
RMM:   3    -0.994113829264E+03   -0.31784E-03   -0.30985E-03 12791   0.877E-02    0.147E-01
RMM:   4    -0.994113703988E+03    0.12528E-03   -0.36867E-04  9022   0.238E-02    0.902E-02
RMM:   5    -0.994113647459E+03    0.56530E-04   -0.21488E-04  8049   0.170E-02    0.328E-02
RMM:   6    -0.994113651036E+03   -0.35769E-05   -0.35050E-05  7270   0.103E-02    0.301E-02
RMM:   7    -0.994113652497E+03   -0.14613E-05   -0.14579E-05  7104   0.563E-03    0.135E-02
RMM:   8    -0.994113652206E+03    0.29142E-06   -0.77691E-06  6852   0.490E-03
  23 F= -.99411365E+03 E0= -.99411365E+03  d E =-.936805E-03  mag=   120.0000
       N       E                     dE             d eps       ncg     rms          rms(c)
DAV:   1    -0.994112192313E+03    0.14602E-02   -0.73021E-01 12512   0.934E-01    0.257E-01
RMM:   2    -0.994114108806E+03   -0.19165E-02   -0.16830E-02 12399   0.167E-01    0.149E-01
RMM:   3    -0.994114227940E+03   -0.11913E-03   -0.10212E-03 10744   0.515E-02    0.793E-02
RMM:   4    -0.994114188371E+03    0.39570E-04   -0.12088E-04  7487   0.155E-02    0.489E-02
RMM:   5    -0.994114171232E+03    0.17139E-04   -0.70065E-05  7271   0.105E-02    0.225E-02
RMM:   6    -0.994114172924E+03   -0.16921E-05   -0.17607E-05  7007   0.656E-03    0.111E-02
RMM:   7    -0.994114173561E+03   -0.63727E-06   -0.73437E-06  6229   0.403E-03    0.777E-03
RMM:   8    -0.994114173596E+03   -0.34357E-07   -0.33156E-06  5103   0.319E-03
  24 F= -.99411417E+03 E0= -.99411417E+03  d E =-.521390E-03  mag=   120.0000
       N       E                     dE             d eps       ncg     rms          rms(c)
DAV:   1    -0.994111054439E+03    0.31191E-02   -0.12928E+00 12528   0.124E+00    0.342E-01
RMM:   2    -0.994114436245E+03   -0.33818E-02   -0.29668E-02 12411   0.222E-01    0.198E-01
RMM:   3    -0.994114650892E+03   -0.21465E-03   -0.18385E-03 11863   0.682E-02    0.105E-01
RMM:   4    -0.994114577789E+03    0.73103E-04   -0.20746E-04  7978   0.191E-02    0.642E-02
RMM:   5    -0.994114546610E+03    0.31178E-04   -0.11892E-04  7484   0.132E-02    0.253E-02
RMM:   6    -0.994114549159E+03   -0.25487E-05   -0.25187E-05  7185   0.810E-03    0.170E-02
RMM:   7    -0.994114550170E+03   -0.10110E-05   -0.10478E-05  6860   0.469E-03    0.998E-03
RMM:   8    -0.994114550185E+03   -0.14581E-07   -0.52026E-06  6056   0.389E-03
  25 F= -.99411455E+03 E0= -.99411455E+03  d E =-.897979E-03  mag=   120.0000
       N       E                     dE             d eps       ncg     rms          rms(c)
DAV:   1    -0.994100100833E+03    0.14449E-01   -0.51708E+00 12488   0.248E+00    0.684E-01
RMM:   2    -0.994113638641E+03   -0.13538E-01   -0.11863E-01 12405   0.443E-01    0.395E-01
RMM:   3    -0.994114515296E+03   -0.87666E-03   -0.74242E-03 13086   0.137E-01    0.208E-01
RMM:   4    -0.994114232120E+03    0.28318E-03   -0.96144E-04 11393   0.370E-02    0.127E-01
RMM:   5    -0.994114104279E+03    0.12784E-03   -0.50139E-04  9587   0.234E-02    0.461E-02
RMM:   6    -0.994114108203E+03   -0.39240E-05   -0.59807E-05  7404   0.129E-02    0.339E-02
RMM:   7    -0.994114111195E+03   -0.29922E-05   -0.24533E-05  7254   0.712E-03    0.192E-02
RMM:   8    -0.994114111354E+03   -0.15814E-06   -0.13198E-05  7122   0.628E-03
  26 F= -.99411411E+03 E0= -.99411411E+03  d E =-.459148E-03  mag=   120.0000
       N       E                     dE             d eps       ncg     rms          rms(c)
DAV:   1    -0.994105799187E+03    0.83120E-02   -0.32636E+00 12544   0.197E+00    0.546E-01
RMM:   2    -0.994114303836E+03   -0.85046E-02   -0.74744E-02 12419   0.352E-01    0.316E-01
RMM:   3    -0.994114848152E+03   -0.54432E-03   -0.45684E-03 12886   0.108E-01    0.166E-01
RMM:   4    -0.994114669765E+03    0.17839E-03   -0.57001E-04  9951   0.292E-02    0.101E-01
RMM:   5    -0.994114586956E+03    0.82809E-04   -0.29866E-04  8575   0.196E-02    0.370E-02
RMM:   6    -0.994114592385E+03   -0.54288E-05   -0.43205E-05  7275   0.113E-02    0.318E-02
RMM:   7    -0.994114594821E+03   -0.24367E-05   -0.15887E-05  7087   0.623E-03    0.150E-02
RMM:   8    -0.994114596497E+03   -0.16761E-05   -0.80675E-06  6608   0.491E-03
  27 F= -.99411460E+03 E0= -.99411460E+03  d E =-.944292E-03  mag=   120.0000
       N       E                     dE             d eps       ncg     rms          rms(c)
DAV:   1    -0.994112532806E+03    0.20620E-02   -0.10407E+00 12544   0.111E+00    0.299E-01
RMM:   2    -0.994115228923E+03   -0.26961E-02   -0.23514E-02 12405   0.197E-01    0.172E-01
RMM:   3    -0.994115396046E+03   -0.16712E-03   -0.13880E-03 11109   0.602E-02    0.900E-02
RMM:   4    -0.994115341586E+03    0.54461E-04   -0.15870E-04  7654   0.176E-02    0.543E-02
RMM:   5    -0.994115320858E+03    0.20727E-04   -0.89209E-05  7311   0.117E-02    0.227E-02
RMM:   6    -0.994115323444E+03   -0.25857E-05   -0.17935E-05  6875   0.703E-03    0.147E-02
RMM:   7    -0.994115324260E+03   -0.81549E-06   -0.66002E-06  5852   0.388E-03    0.779E-03
RMM:   8    -0.994115324632E+03   -0.37279E-06   -0.27301E-06  4945   0.304E-03
  28 F= -.99411532E+03 E0= -.99411532E+03  d E =-.728135E-03  mag=   120.0000
       N       E                     dE             d eps       ncg     rms          rms(c)
DAV:   1    -0.994106094480E+03    0.92298E-02   -0.36536E+00 12512   0.208E+00    0.560E-01
RMM:   2    -0.994115631215E+03   -0.95367E-02   -0.83292E-02 12423   0.370E-01    0.322E-01
RMM:   3    -0.994116238899E+03   -0.60768E-03   -0.51416E-03 12970   0.113E-01    0.168E-01
RMM:   4    -0.994116046916E+03    0.19198E-03   -0.65427E-04 10303   0.304E-02    0.101E-01
RMM:   5    -0.994115967434E+03    0.79482E-04   -0.32699E-04  8752   0.196E-02    0.350E-02
RMM:   6    -0.994115972752E+03   -0.53185E-05   -0.43225E-05  7318   0.111E-02    0.269E-02
RMM:   7    -0.994115975009E+03   -0.22562E-05   -0.17582E-05  7166   0.620E-03    0.149E-02
RMM:   8    -0.994115976081E+03   -0.10726E-05   -0.94457E-06  6886   0.526E-03
  29 F= -.99411598E+03 E0= -.99411598E+03  d E =-.137958E-02  mag=   120.0000
       N       E                     dE             d eps       ncg     rms          rms(c)
DAV:   1    -0.994114663971E+03    0.13110E-02   -0.73249E-01 12768   0.940E-01    0.261E-01
RMM:   2    -0.994116615061E+03   -0.19511E-02   -0.17156E-02 12427   0.171E-01    0.163E-01
RMM:   3    -0.994116731324E+03   -0.11626E-03   -0.10108E-03 10669   0.504E-02    0.930E-02
RMM:   4    -0.994116695131E+03    0.36192E-04   -0.12006E-04  7494   0.155E-02    0.586E-02
RMM:   5    -0.994116675851E+03    0.19280E-04   -0.84077E-05  7296   0.110E-02    0.233E-02
RMM:   6    -0.994116678910E+03   -0.30589E-05   -0.17994E-05  6990   0.677E-03    0.144E-02
RMM:   7    -0.994116679698E+03   -0.78809E-06   -0.73508E-06  6141   0.397E-03    0.767E-03
RMM:   8    -0.994116679970E+03   -0.27155E-06   -0.34938E-06  5287   0.335E-03
  30 F= -.99411668E+03 E0= -.99411668E+03  d E =-.703889E-03  mag=   120.0000
