<?xml version="1.0" encoding="ISO-8859-1"?>
<modeling>
 <generator>
  <i name="program" type="string">vasp </i>
  <i name="version" type="string">5.4.1  </i>
  <i name="subversion" type="string">05Feb16 (build Jan 25 2017 20:16:33) complex                          parallel </i>
  <i name="platform" type="string">BWXE6 </i>
  <i name="date" type="string">2019 08 07 </i>
  <i name="time" type="string">18:17:50 </i>
 </generator>
 <incar>
  <i type="string" name="SYSTEM"> STF</i>
  <i type="string" name="PREC">normal</i>
  <i type="string" name="ALGO"> Fast</i>
  <i type="int" name="ISPIN">     2</i>
  <i type="int" name="NELM">    40</i>
  <i type="int" name="NELMIN">     8</i>
  <i type="int" name="IBRION">     2</i>
  <i name="EDIFF">      0.00010000</i>
  <i name="EDIFFG">     -0.03000000</i>
  <i type="int" name="NSW">    30</i>
  <i type="int" name="ISIF">     3</i>
  <i name="ENCUT">    520.00000000</i>
  <i type="int" name="NBANDS">   768</i>
  <v name="MAGMOM">      0.60000000      0.60000000      0.60000000      0.60000000      0.60000000      0.60000000      0.60000000      0.60000000      0.60000000      0.60000000      0.60000000      0.60000000      0.60000000      0.60000000      0.60000000      0.60000000      0.60000000      0.60000000      0.60000000      0.60000000
      0.60000000      0.60000000      0.60000000      0.60000000      0.60000000      0.60000000      0.60000000      0.60000000      0.60000000      0.60000000      0.60000000      0.60000000      0.60000000      0.60000000      0.60000000      0.60000000      0.60000000      0.60000000      0.60000000      0.60000000
      5.00000000      5.00000000      5.00000000      5.00000000      5.00000000      5.00000000      5.00000000      5.00000000      5.00000000      5.00000000      5.00000000      5.00000000      5.00000000      5.00000000      5.00000000      5.00000000      5.00000000      5.00000000      5.00000000      5.00000000
      5.00000000      5.00000000      5.00000000      5.00000000      0.60000000      0.60000000      0.60000000      0.60000000      0.60000000      0.60000000      0.60000000      0.60000000      0.60000000      0.60000000      0.60000000      0.60000000      0.60000000      0.60000000      0.60000000      0.60000000
      0.60000000      0.60000000      0.60000000      0.60000000      0.60000000      0.60000000      0.60000000      0.60000000      0.60000000      0.60000000      0.60000000      0.60000000      0.60000000      0.60000000      0.60000000      0.60000000      0.60000000      0.60000000      0.60000000      0.60000000
      0.60000000      0.60000000      0.60000000      0.60000000      0.60000000      0.60000000      0.60000000      0.60000000      0.60000000      0.60000000      0.60000000      0.60000000      0.60000000      0.60000000      0.60000000      0.60000000      0.60000000      0.60000000      0.60000000      0.60000000
      0.60000000      0.60000000      0.60000000      0.60000000      0.60000000      0.60000000      0.60000000      0.60000000      0.60000000      0.60000000      0.60000000      0.60000000      0.60000000      0.60000000      0.60000000      0.60000000      0.60000000      0.60000000      0.60000000      0.60000000
      0.60000000      0.60000000      0.60000000      0.60000000      0.60000000      0.60000000      0.60000000      0.60000000</v>
  <i type="string" name="LREAL"> Auto</i>
  <i type="int" name="ISMEAR">     0</i>
  <i name="SIGMA">      0.05000000</i>
  <i type="int" name="LMAXMIX">     4</i>
  <v type="int" name="KPOINT_BSE">    -1     0     0     0</v>
  <i type="int" name="NELM">    40</i>
  <i type="logical" name="LDAU"> T  </i>
  <v type="int" name="LDAUTYPE">     2</v>
  <v type="int" name="LDAUL">     0     2     2     0</v>
  <v name="LDAUU">      0.00000000      3.00000000      5.00000000      0.00000000</v>
  <v name="LDAUJ">      0.00000000      0.00000000      0.00000000      0.00000000</v>
  <i type="int" name="LDAUPRINT">     1</i>
 </incar>
 <kpoints>
  <generation param="Monkhorst-Pack">
   <v type="int" name="divisions">       2        2        2 </v>
   <v name="usershift">      0.00000000       0.00000000       0.00000000 </v>
   <v name="genvec1">      0.50000000      -0.00000000       0.00000000 </v>
   <v name="genvec2">      0.00000000       0.50000000       0.00000000 </v>
   <v name="genvec3">      0.00000000       0.00000000       0.50000000 </v>
   <v name="shift">      0.50000000       0.50000000       0.50000000 </v>
  </generation>
  <varray name="kpointlist" >
   <v>       0.25000000       0.25000000       0.25000000 </v>
   <v>      -0.25000000       0.25000000       0.25000000 </v>
   <v>       0.25000000      -0.25000000       0.25000000 </v>
   <v>      -0.25000000      -0.25000000       0.25000000 </v>
  </varray>
  <varray name="weights" >
   <v>       0.25000000 </v>
   <v>       0.25000000 </v>
   <v>       0.25000000 </v>
   <v>       0.25000000 </v>
  </varray>
 </kpoints>
 <parameters>
  <separator name="general" >
   <i type="string" name="SYSTEM">STF</i>
   <i type="logical" name="LCOMPAT"> F  </i>
  </separator>
  <separator name="electronic" >
   <i type="string" name="PREC">normal</i>
   <i name="ENMAX">    520.00000000</i>
   <i name="ENAUG">    605.39200000</i>
   <i name="EDIFF">      0.00010000</i>
   <i type="int" name="IALGO">    68</i>
   <i type="int" name="IWAVPR">    11</i>
   <i type="int" name="NBANDS">   768</i>
   <i name="NELECT">   1048.00000000</i>
   <i type="int" name="TURBO">     0</i>
   <i type="int" name="IRESTART">     0</i>
   <i type="int" name="NREBOOT">     0</i>
   <i type="int" name="NMIN">     0</i>
   <i name="EREF">      0.00000000</i>
   <separator name="electronic smearing" >
    <i type="int" name="ISMEAR">     0</i>
    <i name="SIGMA">      0.05000000</i>
    <i name="KSPACING">      0.50000000</i>
    <i type="logical" name="KGAMMA"> T  </i>
   </separator>
   <separator name="electronic projectors" >
    <i type="logical" name="LREAL"> T  </i>
    <v name="ROPT">     -0.00050000     -0.00050000     -0.00050000     -0.00050000</v>
    <i type="int" name="LMAXPAW">  -100</i>
    <i type="int" name="LMAXMIX">     4</i>
    <i type="logical" name="NLSPLINE"> F  </i>
   </separator>
   <separator name="electronic startup" >
    <i type="int" name="ISTART">     1</i>
    <i type="int" name="ICHARG">     0</i>
    <i type="int" name="INIWAV">     1</i>
   </separator>
   <separator name="electronic spin" >
    <i type="int" name="ISPIN">     2</i>
    <i type="logical" name="LNONCOLLINEAR"> F  </i>
    <v name="MAGMOM">      0.60000000      0.60000000      0.60000000      0.60000000      0.60000000      0.60000000      0.60000000      0.60000000      0.60000000      0.60000000      0.60000000      0.60000000      0.60000000      0.60000000      0.60000000      0.60000000      0.60000000      0.60000000      0.60000000      0.60000000
      0.60000000      0.60000000      0.60000000      0.60000000      0.60000000      0.60000000      0.60000000      0.60000000      0.60000000      0.60000000      0.60000000      0.60000000      0.60000000      0.60000000      0.60000000      0.60000000      0.60000000      0.60000000      0.60000000      0.60000000
      5.00000000      5.00000000      5.00000000      5.00000000      5.00000000      5.00000000      5.00000000      5.00000000      5.00000000      5.00000000      5.00000000      5.00000000      5.00000000      5.00000000      5.00000000      5.00000000      5.00000000      5.00000000      5.00000000      5.00000000
      5.00000000      5.00000000      5.00000000      5.00000000      0.60000000      0.60000000      0.60000000      0.60000000      0.60000000      0.60000000      0.60000000      0.60000000      0.60000000      0.60000000      0.60000000      0.60000000      0.60000000      0.60000000      0.60000000      0.60000000
      0.60000000      0.60000000      0.60000000      0.60000000      0.60000000      0.60000000      0.60000000      0.60000000      0.60000000      0.60000000      0.60000000      0.60000000      0.60000000      0.60000000      0.60000000      0.60000000      0.60000000      0.60000000      0.60000000      0.60000000
      0.60000000      0.60000000      0.60000000      0.60000000      0.60000000      0.60000000      0.60000000      0.60000000      0.60000000      0.60000000      0.60000000      0.60000000      0.60000000      0.60000000      0.60000000      0.60000000      0.60000000      0.60000000      0.60000000      0.60000000
      0.60000000      0.60000000      0.60000000      0.60000000      0.60000000      0.60000000      0.60000000      0.60000000      0.60000000      0.60000000      0.60000000      0.60000000      0.60000000      0.60000000      0.60000000      0.60000000      0.60000000      0.60000000      0.60000000      0.60000000
      0.60000000      0.60000000      0.60000000      0.60000000      0.60000000      0.60000000      0.60000000      0.60000000</v>
    <i name="NUPDOWN">     -1.00000000</i>
    <i type="logical" name="LSORBIT"> F  </i>
    <v name="SAXIS">      0.00000000      0.00000000      1.00000000</v>
    <i type="logical" name="LSPIRAL"> F  </i>
    <v name="QSPIRAL">      0.00000000      0.00000000      0.00000000</v>
    <i type="logical" name="LZEROZ"> F  </i>
   </separator>
   <separator name="electronic exchange-correlation" >
    <i type="logical" name="LASPH"> F  </i>
    <i type="logical" name="LMETAGGA"> F  </i>
   </separator>
   <separator name="electronic convergence" >
    <i type="int" name="NELM">    40</i>
    <i type="int" name="NELMDL">     0</i>
    <i type="int" name="NELMIN">     8</i>
    <i name="ENINI">    520.00000000</i>
    <separator name="electronic convergence detail" >
     <i type="logical" name="LDIAG"> T  </i>
     <i type="logical" name="LSUBROT"> F  </i>
     <i name="WEIMIN">      0.00100000</i>
     <i name="EBREAK">      0.00000003</i>
     <i name="DEPER">      0.30000000</i>
     <i type="int" name="NRMM">     4</i>
     <i name="TIME">      0.40000000</i>
    </separator>
   </separator>
   <separator name="electronic mixer" >
    <i name="AMIX">      0.40000000</i>
    <i name="BMIX">      1.00000000</i>
    <i name="AMIN">      0.10000000</i>
    <i name="AMIX_MAG">      1.60000000</i>
    <i name="BMIX_MAG">      1.00000000</i>
    <separator name="electronic mixer details" >
     <i type="int" name="IMIX">     4</i>
     <i type="logical" name="MIXFIRST"> F  </i>
     <i type="int" name="MAXMIX">   -45</i>
     <i name="WC">    100.00000000</i>
     <i type="int" name="INIMIX">     1</i>
     <i type="int" name="MIXPRE">     1</i>
     <i type="int" name="MREMOVE">     5</i>
    </separator>
   </separator>
   <separator name="electronic dipolcorrection" >
    <i type="logical" name="LDIPOL"> F  </i>
    <i type="logical" name="LMONO"> F  </i>
    <i type="int" name="IDIPOL">     0</i>
    <i name="EPSILON">      1.00000000</i>
    <v name="DIPOL">   -100.00000000   -100.00000000   -100.00000000</v>
    <i name="EFIELD">      0.00000000</i>
   </separator>
  </separator>
  <separator name="grids" >
   <i type="int" name="NGX">    64</i>
   <i type="int" name="NGY">    64</i>
   <i type="int" name="NGZ">    90</i>
   <i type="int" name="NGXF">   128</i>
   <i type="int" name="NGYF">   128</i>
   <i type="int" name="NGZF">   180</i>
   <i type="logical" name="ADDGRID"> F  </i>
  </separator>
  <separator name="ionic" >
   <i type="int" name="NSW">    30</i>
   <i type="int" name="IBRION">     2</i>
   <i type="int" name="ISIF">     3</i>
   <i name="PSTRESS">      0.00000000</i>
   <i name="EDIFFG">     -0.03000000</i>
   <i type="int" name="NFREE">     1</i>
   <i name="POTIM">      0.50000000</i>
   <i name="SMASS">     -3.00000000</i>
   <i name="SCALEE">      1.00000000</i>
  </separator>
  <separator name="ionic md" >
   <i name="TEBEG">      0.00010000</i>
   <i name="TEEND">      0.00010000</i>
   <i type="int" name="NBLOCK">     1</i>
   <i type="int" name="KBLOCK">    30</i>
   <i type="int" name="NPACO">   256</i>
   <i name="APACO">     16.00000000</i>
  </separator>
  <separator name="symmetry" >
   <i type="int" name="ISYM">     2</i>
   <i name="SYMPREC">      0.00001000</i>
  </separator>
  <separator name="dos" >
   <i type="logical" name="LORBIT"> F  </i>
   <v name="RWIGS">     -1.00000000     -1.00000000     -1.00000000     -1.00000000</v>
   <i type="int" name="NEDOS">   301</i>
   <i name="EMIN">     10.00000000</i>
   <i name="EMAX">    -10.00000000</i>
   <i name="EFERMI">      0.00000000</i>
  </separator>
  <separator name="writing" >
   <i type="int" name="NWRITE">     2</i>
   <i type="logical" name="LWAVE"> T  </i>
   <i type="logical" name="LCHARG"> T  </i>
   <i type="logical" name="LPARD"> F  </i>
   <i type="logical" name="LVTOT"> F  </i>
   <i type="logical" name="LVHAR"> F  </i>
   <i type="logical" name="LELF"> F  </i>
   <i type="logical" name="LOPTICS"> F  </i>
   <v name="STM">      0.00000000      0.00000000      0.00000000      0.00000000      0.00000000      0.00000000      0.00000000</v>
  </separator>
  <separator name="performance" >
   <i type="int" name="NPAR">     2</i>
   <i type="int" name="NSIM">     4</i>
   <i type="int" name="NBLK">    -1</i>
   <i type="logical" name="LPLANE"> T  </i>
   <i type="logical" name="LSCALAPACK"> T  </i>
   <i type="logical" name="LSCAAWARE"> F  </i>
   <i type="logical" name="LSCALU"> F  </i>
   <i type="logical" name="LASYNC"> F  </i>
   <i type="logical" name="LORBITALREAL"> F  </i>
  </separator>
  <separator name="miscellaneous" >
   <i type="int" name="IDIOT">     3</i>
   <i type="logical" name="LMUSIC"> F  </i>
   <v name="POMASS">     87.62000000     47.88000000     55.84700000     16.00000000</v>
   <v name="DARWINR">      0.00000000      0.00000000      0.00000000      0.00000000</v>
   <v name="DARWINV">      1.00000000      1.00000000      1.00000000      1.00000000</v>
   <i type="logical" name="LCORR"> T  </i>
  </separator>
  <i type="logical" name="GGA_COMPAT"> T  </i>
  <i type="logical" name="LBERRY"> F  </i>
  <i type="int" name="ICORELEVEL">     0</i>
  <i type="logical" name="LDAU"> T  </i>
  <v type="int" name="LDAUTYPE">     2</v>
  <v type="int" name="LDAUL">     0</v>
  <v name="LDAUU">      0.00000000</v>
  <v name="LDAUJ">      0.00000000</v>
  <i type="int" name="LDAUPRINT">     1</i>
  <i type="int" name="I_CONSTRAINED_M">     0</i>
  <separator name="electronic exchange-correlation" >
   <i type="string" name="GGA">--</i>
   <i type="int" name="VOSKOWN">     0</i>
   <i type="logical" name="LHFCALC"> F  </i>
   <i type="string" name="PRECFOCK"></i>
   <i type="logical" name="LSYMGRAD"> F  </i>
   <i type="logical" name="LHFONE"> F  </i>
   <i type="logical" name="LRHFCALC"> F  </i>
   <i type="logical" name="LTHOMAS"> F  </i>
   <i type="logical" name="LMODELHF"> F  </i>
   <i name="ENCUT4O">     -1.00000000</i>
   <i type="int" name="EXXOEP">     0</i>
   <i type="int" name="FOURORBIT">     0</i>
   <i name="AEXX">      0.00000000</i>
   <i name="HFALPHA">      0.00000000</i>
   <i name="MCALPHA">      0.00000000</i>
   <i name="ALDAX">      1.00000000</i>
   <i name="AGGAX">      1.00000000</i>
   <i name="ALDAC">      1.00000000</i>
   <i name="AGGAC">      1.00000000</i>
   <i type="int" name="NKREDX">     1</i>
   <i type="int" name="NKREDY">     1</i>
   <i type="int" name="NKREDZ">     1</i>
   <i type="logical" name="SHIFTRED"> F  </i>
   <i type="logical" name="ODDONLY"> F  </i>
   <i type="logical" name="EVENONLY"> F  </i>
   <i type="int" name="LMAXFOCK">     0</i>
   <i type="int" name="NMAXFOCKAE">     0</i>
   <i type="logical" name="LFOCKAEDFT"> F  </i>
   <i name="HFSCREEN">      0.00000000</i>
   <i name="HFSCREENC">      0.00000000</i>
   <i type="int" name="NBANDSGWLOW">     0</i>
  </separator>
  <separator name="vdW DFT" >
   <i type="logical" name="LUSE_VDW"> F  </i>
   <i name="Zab_VDW">     -0.84910000</i>
   <i name="PARAM1">      0.12340000</i>
   <i name="PARAM2">      1.00000000</i>
   <i name="PARAM3">      0.00000000</i>
  </separator>
  <separator name="model GW" >
   <i type="int" name="MODEL_GW">     0</i>
   <i name="MODEL_EPS0">      8.18141934</i>
   <i name="MODEL_ALPHA">      1.00000000</i>
  </separator>
  <separator name="linear response parameters" >
   <i type="logical" name="LEPSILON"> F  </i>
   <i type="logical" name="LRPA"> F  </i>
   <i type="logical" name="LNABLA"> F  </i>
   <i type="logical" name="LVEL"> F  </i>
   <i type="int" name="KINTER">     0</i>
   <i name="CSHIFT">      0.10000000</i>
   <i name="OMEGAMAX">     -1.00000000</i>
   <i name="DEG_THRESHOLD">      0.00200000</i>
  </separator>
  <separator name="orbital magnetization" >
   <i type="logical" name="NUCIND"> F  </i>
   <v name="MAGPOS">      0.00000000      0.00000000      0.00000000</v>
   <i type="logical" name="LNICSALL"> T  </i>
   <i type="logical" name="ORBITALMAG"> F  </i>
   <i type="logical" name="LMAGBLOCH"> F  </i>
   <i type="logical" name="LCHIMAG"> F  </i>
   <i type="logical" name="LGAUGE"> T  </i>
   <i type="int" name="MAGATOM">     0</i>
   <v name="MAGDIPOL">      0.00000000      0.00000000      0.00000000</v>
   <v name="AVECCONST">      0.00000000      0.00000000      0.00000000</v>
  </separator>
  <separator name="response functions" >
   <i type="logical" name="LADDER"> F  </i>
   <i type="logical" name="LFXC"> F  </i>
   <i type="logical" name="LHARTREE"> T  </i>
   <i type="int" name="IBSE">     0</i>
   <v type="int" name="KPOINT">    -1     0     0     0</v>
   <i type="logical" name="LTCTE"> F  </i>
   <i type="logical" name="LTETE"> F  </i>
   <i type="logical" name="LTRIPLET"> F  </i>
   <i type="logical" name="LFXCEPS"> F  </i>
   <i type="logical" name="LFXHEG"> F  </i>
   <i type="int" name="NATURALO">     0</i>
   <i type="logical" name="L2ORDER"> F  </i>
   <i type="logical" name="LUSEW"> F  </i>
   <i name="ENCUTGW">     -2.00000000</i>
   <i name="ENCUTGWSOFT">     -2.00000000</i>
   <i name="ENCUTLF">     -1.00000000</i>
   <i type="int" name="LMAXMP2">    -1</i>
   <i name="SCISSOR">      0.00000000</i>
   <i type="int" name="NOMEGA">     0</i>
   <i type="int" name="NOMEGAR">     0</i>
   <i type="int" name="NBANDSGW">    -1</i>
   <i type="int" name="NBANDSO">    -1</i>
   <i type="int" name="NBANDSV">    -1</i>
   <i type="int" name="NELM">    40</i>
   <i type="int" name="NELMHF">     1</i>
   <i type="int" name="DIM">     3</i>
   <i type="int" name="ANTIRES">     0</i>
   <i name="OMEGAMAX">    -30.00000000</i>
   <i name="OMEGAMIN">    -30.00000000</i>
   <i name="OMEGATL">   -200.00000000</i>
   <i type="int" name="OMEGAGRID">     0</i>
   <i name="CSHIFT">     -0.10000000</i>
   <i type="logical" name="SELFENERGY"> F  </i>
   <i type="logical" name="LSPECTRAL"> F  </i>
   <i type="logical" name="LSPECTRALGW"> F  </i>
   <i type="logical" name="LSINGLES"> F  </i>
   <i type="logical" name="LFERMIGW"> F  </i>
   <i type="logical" name="ODDONLYGW"> F  </i>
   <i type="logical" name="EVENONLYGW"> F  </i>
   <i type="int" name="NKREDLFX">     1</i>
   <i type="int" name="NKREDLFY">     1</i>
   <i type="int" name="NKREDLFZ">     1</i>
   <i type="int" name="MAXMEM">  1800</i>
   <i type="int" name="TELESCOPE">     0</i>
   <i type="int" name="TAUPAR">     1</i>
   <i type="int" name="OMEGAPAR">    -1</i>
   <i name="LAMBDA">      1.00000000</i>
  </separator>
  <separator name="External order field" >
   <i name="OFIELD_KAPPA">      0.00000000</i>
   <v name="OFIELD_K">      0.00000000      0.00000000      0.00000000</v>
   <i name="OFIELD_Q6_NEAR">      0.00000000</i>
   <i name="OFIELD_Q6_FAR">      0.00000000</i>
   <i name="OFIELD_A">      0.00000000</i>
  </separator>
 </parameters>
 <atominfo>
  <atoms>     148 </atoms>
  <types>       4 </types>
  <array name="atoms" >
   <dimension dim="1">ion</dimension>
   <field type="string">element</field>
   <field type="int">atomtype</field>
   <set>
    <rc><c>Sr</c><c>   1</c></rc>
    <rc><c>Sr</c><c>   1</c></rc>
    <rc><c>Sr</c><c>   1</c></rc>
    <rc><c>Sr</c><c>   1</c></rc>
    <rc><c>Sr</c><c>   1</c></rc>
    <rc><c>Sr</c><c>   1</c></rc>
    <rc><c>Sr</c><c>   1</c></rc>
    <rc><c>Sr</c><c>   1</c></rc>
    <rc><c>Sr</c><c>   1</c></rc>
    <rc><c>Sr</c><c>   1</c></rc>
    <rc><c>Sr</c><c>   1</c></rc>
    <rc><c>Sr</c><c>   1</c></rc>
    <rc><c>Sr</c><c>   1</c></rc>
    <rc><c>Sr</c><c>   1</c></rc>
    <rc><c>Sr</c><c>   1</c></rc>
    <rc><c>Sr</c><c>   1</c></rc>
    <rc><c>Sr</c><c>   1</c></rc>
    <rc><c>Sr</c><c>   1</c></rc>
    <rc><c>Sr</c><c>   1</c></rc>
    <rc><c>Sr</c><c>   1</c></rc>
    <rc><c>Sr</c><c>   1</c></rc>
    <rc><c>Sr</c><c>   1</c></rc>
    <rc><c>Sr</c><c>   1</c></rc>
    <rc><c>Sr</c><c>   1</c></rc>
    <rc><c>Sr</c><c>   1</c></rc>
    <rc><c>Sr</c><c>   1</c></rc>
    <rc><c>Sr</c><c>   1</c></rc>
    <rc><c>Sr</c><c>   1</c></rc>
    <rc><c>Sr</c><c>   1</c></rc>
    <rc><c>Sr</c><c>   1</c></rc>
    <rc><c>Sr</c><c>   1</c></rc>
    <rc><c>Sr</c><c>   1</c></rc>
    <rc><c>Ti</c><c>   2</c></rc>
    <rc><c>Ti</c><c>   2</c></rc>
    <rc><c>Ti</c><c>   2</c></rc>
    <rc><c>Ti</c><c>   2</c></rc>
    <rc><c>Ti</c><c>   2</c></rc>
    <rc><c>Ti</c><c>   2</c></rc>
    <rc><c>Ti</c><c>   2</c></rc>
    <rc><c>Ti</c><c>   2</c></rc>
    <rc><c>Fe</c><c>   3</c></rc>
    <rc><c>Fe</c><c>   3</c></rc>
    <rc><c>Fe</c><c>   3</c></rc>
    <rc><c>Fe</c><c>   3</c></rc>
    <rc><c>Fe</c><c>   3</c></rc>
    <rc><c>Fe</c><c>   3</c></rc>
    <rc><c>Fe</c><c>   3</c></rc>
    <rc><c>Fe</c><c>   3</c></rc>
    <rc><c>Fe</c><c>   3</c></rc>
    <rc><c>Fe</c><c>   3</c></rc>
    <rc><c>Fe</c><c>   3</c></rc>
    <rc><c>Fe</c><c>   3</c></rc>
    <rc><c>Fe</c><c>   3</c></rc>
    <rc><c>Fe</c><c>   3</c></rc>
    <rc><c>Fe</c><c>   3</c></rc>
    <rc><c>Fe</c><c>   3</c></rc>
    <rc><c>Fe</c><c>   3</c></rc>
    <rc><c>Fe</c><c>   3</c></rc>
    <rc><c>Fe</c><c>   3</c></rc>
    <rc><c>Fe</c><c>   3</c></rc>
    <rc><c>Fe</c><c>   3</c></rc>
    <rc><c>Fe</c><c>   3</c></rc>
    <rc><c>Fe</c><c>   3</c></rc>
    <rc><c>Fe</c><c>   3</c></rc>
    <rc><c>O </c><c>   4</c></rc>
    <rc><c>O </c><c>   4</c></rc>
    <rc><c>O </c><c>   4</c></rc>
    <rc><c>O </c><c>   4</c></rc>
    <rc><c>O </c><c>   4</c></rc>
    <rc><c>O </c><c>   4</c></rc>
    <rc><c>O </c><c>   4</c></rc>
    <rc><c>O </c><c>   4</c></rc>
    <rc><c>O </c><c>   4</c></rc>
    <rc><c>O </c><c>   4</c></rc>
    <rc><c>O </c><c>   4</c></rc>
    <rc><c>O </c><c>   4</c></rc>
    <rc><c>O </c><c>   4</c></rc>
    <rc><c>O </c><c>   4</c></rc>
    <rc><c>O </c><c>   4</c></rc>
    <rc><c>O </c><c>   4</c></rc>
    <rc><c>O </c><c>   4</c></rc>
    <rc><c>O </c><c>   4</c></rc>
    <rc><c>O </c><c>   4</c></rc>
    <rc><c>O </c><c>   4</c></rc>
    <rc><c>O </c><c>   4</c></rc>
    <rc><c>O </c><c>   4</c></rc>
    <rc><c>O </c><c>   4</c></rc>
    <rc><c>O </c><c>   4</c></rc>
    <rc><c>O </c><c>   4</c></rc>
    <rc><c>O </c><c>   4</c></rc>
    <rc><c>O </c><c>   4</c></rc>
    <rc><c>O </c><c>   4</c></rc>
    <rc><c>O </c><c>   4</c></rc>
    <rc><c>O </c><c>   4</c></rc>
    <rc><c>O </c><c>   4</c></rc>
    <rc><c>O </c><c>   4</c></rc>
    <rc><c>O </c><c>   4</c></rc>
    <rc><c>O </c><c>   4</c></rc>
    <rc><c>O </c><c>   4</c></rc>
    <rc><c>O </c><c>   4</c></rc>
    <rc><c>O </c><c>   4</c></rc>
    <rc><c>O </c><c>   4</c></rc>
    <rc><c>O </c><c>   4</c></rc>
    <rc><c>O </c><c>   4</c></rc>
    <rc><c>O </c><c>   4</c></rc>
    <rc><c>O </c><c>   4</c></rc>
    <rc><c>O </c><c>   4</c></rc>
    <rc><c>O </c><c>   4</c></rc>
    <rc><c>O </c><c>   4</c></rc>
    <rc><c>O </c><c>   4</c></rc>
    <rc><c>O </c><c>   4</c></rc>
    <rc><c>O </c><c>   4</c></rc>
    <rc><c>O </c><c>   4</c></rc>
    <rc><c>O </c><c>   4</c></rc>
    <rc><c>O </c><c>   4</c></rc>
    <rc><c>O </c><c>   4</c></rc>
    <rc><c>O </c><c>   4</c></rc>
    <rc><c>O </c><c>   4</c></rc>
    <rc><c>O </c><c>   4</c></rc>
    <rc><c>O </c><c>   4</c></rc>
    <rc><c>O </c><c>   4</c></rc>
    <rc><c>O </c><c>   4</c></rc>
    <rc><c>O </c><c>   4</c></rc>
    <rc><c>O </c><c>   4</c></rc>
    <rc><c>O </c><c>   4</c></rc>
    <rc><c>O </c><c>   4</c></rc>
    <rc><c>O </c><c>   4</c></rc>
    <rc><c>O </c><c>   4</c></rc>
    <rc><c>O </c><c>   4</c></rc>
    <rc><c>O </c><c>   4</c></rc>
    <rc><c>O </c><c>   4</c></rc>
    <rc><c>O </c><c>   4</c></rc>
    <rc><c>O </c><c>   4</c></rc>
    <rc><c>O </c><c>   4</c></rc>
    <rc><c>O </c><c>   4</c></rc>
    <rc><c>O </c><c>   4</c></rc>
    <rc><c>O </c><c>   4</c></rc>
    <rc><c>O </c><c>   4</c></rc>
    <rc><c>O </c><c>   4</c></rc>
    <rc><c>O </c><c>   4</c></rc>
    <rc><c>O </c><c>   4</c></rc>
    <rc><c>O </c><c>   4</c></rc>
    <rc><c>O </c><c>   4</c></rc>
    <rc><c>O </c><c>   4</c></rc>
    <rc><c>O </c><c>   4</c></rc>
    <rc><c>O </c><c>   4</c></rc>
    <rc><c>O </c><c>   4</c></rc>
    <rc><c>O </c><c>   4</c></rc>
   </set>
  </array>
  <array name="atomtypes" >
   <dimension dim="1">type</dimension>
   <field type="int">atomspertype</field>
   <field type="string">element</field>
   <field>mass</field>
   <field>valence</field>
   <field type="string">pseudopotential</field>
   <set>
    <rc><c>  32</c><c>Sr</c><c>     87.62000000</c><c>     10.00000000</c><c>  PAW_PBE Sr_sv 07Sep2000               </c></rc>
    <rc><c>   8</c><c>Ti</c><c>     47.88000000</c><c>      4.00000000</c><c>  PAW_PBE Ti 08Apr2002                  </c></rc>
    <rc><c>  24</c><c>Fe</c><c>     55.84700000</c><c>      8.00000000</c><c>  PAW_PBE Fe 06Sep2000                  </c></rc>
    <rc><c>  84</c><c>O </c><c>     16.00000000</c><c>      6.00000000</c><c>  PAW_PBE O 08Apr2002                   </c></rc>
   </set>
  </array>
 </atominfo>
 <structure name="initialpos" >
  <crystal>
   <varray name="basis" >
    <v>      11.21102893       0.00120422      -0.00271870 </v>
    <v>       0.00141869      11.38134728      -0.00341938 </v>
    <v>      -0.00377725      -0.00455806      15.81612316 </v>
   </varray>
   <i name="volume">   2018.08343635 </i>
   <varray name="rec_basis" >
    <v>       0.08919789      -0.00001111       0.00002130 </v>
    <v>      -0.00000943       0.08786307       0.00002532 </v>
    <v>       0.00001533       0.00001899       0.06322663 </v>
   </varray>
  </crystal>
  <varray name="positions" >
   <v>       0.98866428       0.23768547       0.11162248 </v>
   <v>       0.00049034       0.24902533       0.61603726 </v>
   <v>       0.99567090       0.75234229       0.10655361 </v>
   <v>       0.01442954       0.73668854       0.62244362 </v>
   <v>       0.50782336       0.23558738       0.11971867 </v>
   <v>       0.49628611       0.24859363       0.60847178 </v>
   <v>       0.49580923       0.75257435       0.11446555 </v>
   <v>       0.48550419       0.73611055       0.61612066 </v>
   <v>       0.99278895       0.23910915       0.38658007 </v>
   <v>       0.99157872       0.25326565       0.88626971 </v>
   <v>       0.99178770       0.74754869       0.39181398 </v>
   <v>       0.00710637       0.73425049       0.87794472 </v>
   <v>       0.50494796       0.23708979       0.38012753 </v>
   <v>       0.49843526       0.25186840       0.89363770 </v>
   <v>       0.51042631       0.74571006       0.38357595 </v>
   <v>       0.48989224       0.73320424       0.88451622 </v>
   <v>       0.23800855       0.00515204       0.10863028 </v>
   <v>       0.25025870       0.99144519       0.61594495 </v>
   <v>       0.24347259       0.51246594       0.11023566 </v>
   <v>       0.25323383       0.51731756       0.62258446 </v>
   <v>       0.75561502       0.01242599       0.11700216 </v>
   <v>       0.74467562       0.01458418       0.61126997 </v>
   <v>       0.75283711       0.49738902       0.11526420 </v>
   <v>       0.74136418       0.50091185       0.60967957 </v>
   <v>       0.24108279       0.00639189       0.39035231 </v>
   <v>       0.25384271       0.99978435       0.88383961 </v>
   <v>       0.24374298       0.50880739       0.39044325 </v>
   <v>       0.25504027       0.51249435       0.87849524 </v>
   <v>       0.75242452       0.01374940       0.37983340 </v>
   <v>       0.74235477       0.01705102       0.89035311 </v>
   <v>       0.74987619       0.49412003       0.38428306 </v>
   <v>       0.73889500       0.50071353       0.89306064 </v>
   <v>       0.24583962       0.75240504       0.99818435 </v>
   <v>       0.24340657       0.24985613       0.00133943 </v>
   <v>       0.99515274       0.50038469       0.50404237 </v>
   <v>       0.74324714       0.74982706       0.99686266 </v>
   <v>       0.49539236       0.99892755       0.49731935 </v>
   <v>       0.99466452       0.99812968       0.50368246 </v>
   <v>       0.49506312       0.49829556       0.49691624 </v>
   <v>       0.75785201       0.24232227       0.25000376 </v>
   <v>       0.74374188       0.74773816       0.51841043 </v>
   <v>       0.99351950       0.50119827       0.99286823 </v>
   <v>       0.49464333       0.00214898       0.00689058 </v>
   <v>       0.02285551       0.48703621       0.74996384 </v>
   <v>       0.49541202       0.49909094       0.00540582 </v>
   <v>       0.25123261       0.28722540       0.24764160 </v>
   <v>       0.74525457       0.25232125       0.00194358 </v>
   <v>       0.24469349       0.24658513       0.50380042 </v>
   <v>       0.99345748       0.00140674       0.99338849 </v>
   <v>       0.24669355       0.75017294       0.49838529 </v>
   <v>       0.74646473       0.25037819       0.49965635 </v>
   <v>       0.99576762       0.98096794       0.24791599 </v>
   <v>       0.26924289       0.27424175       0.75167538 </v>
   <v>       0.25592599       0.79943587       0.25041082 </v>
   <v>       0.25846253       0.74543952       0.74932664 </v>
   <v>       0.52165339       0.98482674       0.25035774 </v>
   <v>       0.75575339       0.30032271       0.74986672 </v>
   <v>       0.76812483       0.77512738       0.24270382 </v>
   <v>       0.75235186       0.78928342       0.75250926 </v>
   <v>       0.01081228       0.96387119       0.74974818 </v>
   <v>       0.00915840       0.47096278       0.25289768 </v>
   <v>       0.50982760       0.97105539       0.74793678 </v>
   <v>       0.51127207       0.46202671       0.25066290 </v>
   <v>       0.49630774       0.48070819       0.75220377 </v>
   <v>       0.99858681       0.99895821       0.12356787 </v>
   <v>       0.98797018       0.02111754       0.63811967 </v>
   <v>       0.98179494       0.53707477       0.14704291 </v>
   <v>       0.98597022       0.50786514       0.62942978 </v>
   <v>       0.47953024       0.00816367       0.13409355 </v>
   <v>       0.49078862       0.01826408       0.63085314 </v>
   <v>       0.48562208       0.53262373       0.14599904 </v>
   <v>       0.49844938       0.49589768       0.62075815 </v>
   <v>       0.99632298       0.99701973       0.37902474 </v>
   <v>       0.98425170       0.03212202       0.85524996 </v>
   <v>       0.99070105       0.51592899       0.37011314 </v>
   <v>       0.98169058       0.50692309       0.86731905 </v>
   <v>       0.48943023       0.00729055       0.37086590 </v>
   <v>       0.48215983       0.03629721       0.85426322 </v>
   <v>       0.48912049       0.51736069       0.36254295 </v>
   <v>       0.49740201       0.49704526       0.87749576 </v>
   <v>       0.22057111       0.22368538       0.35431569 </v>
   <v>       0.24875085       0.23425651       0.86792682 </v>
   <v>       0.22372116       0.73543441       0.35916272 </v>
   <v>       0.25461933       0.74474856       0.87604639 </v>
   <v>       0.75597976       0.24710163       0.37486549 </v>
   <v>       0.73078778       0.24356723       0.86132057 </v>
   <v>       0.73720086       0.69951423       0.34156347 </v>
   <v>       0.72428549       0.72876331       0.86165461 </v>
   <v>       0.22405512       0.23142957       0.13578314 </v>
   <v>       0.24696363       0.21627844       0.64077382 </v>
   <v>       0.23290082       0.74602814       0.13555194 </v>
   <v>       0.25416053       0.74824342       0.62396548 </v>
   <v>       0.75513321       0.24417565       0.12746703 </v>
   <v>       0.72767715       0.23881017       0.63925619 </v>
   <v>       0.74804516       0.73794690       0.12637511 </v>
   <v>       0.72075036       0.72480690       0.64354896 </v>
   <v>       0.17839577       0.43966428       0.24970664 </v>
   <v>       0.41568433       0.32292968       0.24926672 </v>
   <v>       0.67004520       0.40327876       0.24913061 </v>
   <v>       0.92116717       0.33198966       0.25005540 </v>
   <v>       0.17193552       0.94754834       0.25057798 </v>
   <v>       0.42172094       0.83197868       0.25308518 </v>
   <v>       0.67144901       0.90895930       0.24999308 </v>
   <v>       0.93222494       0.82315718       0.25032662 </v>
   <v>       0.12271694       0.11953478       0.50409491 </v>
   <v>       0.37369415       0.12868305       0.49564376 </v>
   <v>       0.62401280       0.11971612       0.49711960 </v>
   <v>       0.87449243       0.12819750       0.50427504 </v>
   <v>       0.11754367       0.37145333       0.50240849 </v>
   <v>       0.36543387       0.37484120       0.49472468 </v>
   <v>       0.61699765       0.37221554       0.49197636 </v>
   <v>       0.86952362       0.37759320       0.50383862 </v>
   <v>       0.12336771       0.61934384       0.50275508 </v>
   <v>       0.37477863       0.62726970       0.49477212 </v>
   <v>       0.62387188       0.62023567       0.49739778 </v>
   <v>       0.87222980       0.63048926       0.50474175 </v>
   <v>       0.11639206       0.87306850       0.50694609 </v>
   <v>       0.36970296       0.87797467       0.49581586 </v>
   <v>       0.61834857       0.87108288       0.50103557 </v>
   <v>       0.86433837       0.87598303       0.50797445 </v>
   <v>       0.17097630       0.40544799       0.74803646 </v>
   <v>       0.43269801       0.32140535       0.74944112 </v>
   <v>       0.67179614       0.44890656       0.74987847 </v>
   <v>       0.92093939       0.33433982       0.74778099 </v>
   <v>       0.17023527       0.90949418       0.75135461 </v>
   <v>       0.42323364       0.83255767       0.75061791 </v>
   <v>       0.68023531       0.94066175       0.75025238 </v>
   <v>       0.91596841       0.82337350       0.74948764 </v>
   <v>       0.12323196       0.12325007       0.99444807 </v>
   <v>       0.37064164       0.13113939       0.00444113 </v>
   <v>       0.62202213       0.12056324       0.00332806 </v>
   <v>       0.87255917       0.12954300       0.99621626 </v>
   <v>       0.11764816       0.37349176       0.00132079 </v>
   <v>       0.36384509       0.37610238       0.00941487 </v>
   <v>       0.61756204       0.37432341       0.01169825 </v>
   <v>       0.86947407       0.37958289       0.00154832 </v>
   <v>       0.12349237       0.62267715       0.99842211 </v>
   <v>       0.37200395       0.63062703       0.00483594 </v>
   <v>       0.62271067       0.62334470       0.00381266 </v>
   <v>       0.87166071       0.63195022       0.99423196 </v>
   <v>       0.11774190       0.87324089       0.99027868 </v>
   <v>       0.36733412       0.87870399       0.00104796 </v>
   <v>       0.61558987       0.87223655       0.99658376 </v>
   <v>       0.86401422       0.87646636       0.98944034 </v>
   <v>       0.61376259       0.14409282       0.25195868 </v>
   <v>       0.86807050       0.10057436       0.25170612 </v>
   <v>       0.11256562       0.64087713       0.74975342 </v>
   <v>       0.37291145       0.59991736       0.74859211 </v>
  </varray>
 </structure>
 <calculation>
  <scstep>
   <time name="dav">  300.69  300.69</time>
   <time name="total">  304.49  304.57</time>
   <energy>
    <i name="alphaZ">   5568.36098644 </i>
    <i name="ewald"> -62560.34678290 </i>
    <i name="hartreedc"> -19001.58796019 </i>
    <i name="XCdc">   3409.38460176 </i>
    <i name="pawpsdc"> 120274.05483330 </i>
    <i name="pawaedc">-119780.08063758 </i>
    <i name="eentropy">     -0.00000000 </i>
    <i name="bandstr">  -7220.79095243 </i>
    <i name="atom">  78316.90445604 </i>
    <i name="e_fr_energy">   -994.10145556 </i>
    <i name="e_wo_entrp">   -994.10145556 </i>
    <i name="e_0_energy">   -994.10145556 </i>
   </energy>
  </scstep>
  <scstep>
   <time name="diag">   33.75   33.75</time>
   <time name="diis">   30.46   30.48</time>
   <time name="orth">   19.17   19.17</time>
   <time name="total">   87.18   87.24</time>
   <energy>
    <i name="e_fr_energy">   -994.10145599 </i>
    <i name="e_wo_entrp">   -994.10145599 </i>
    <i name="e_0_energy">   -994.10145599 </i>
   </energy>
  </scstep>
  <scstep>
   <time name="diag">   33.77   33.77</time>
   <time name="diis">   26.39   26.39</time>
   <time name="orth">   19.17   19.17</time>
   <time name="total">   83.14   83.17</time>
   <energy>
    <i name="e_fr_energy">   -994.10145604 </i>
    <i name="e_wo_entrp">   -994.10145604 </i>
    <i name="e_0_energy">   -994.10145604 </i>
   </energy>
  </scstep>
  <scstep>
   <time name="diag">   33.73   33.76</time>
   <time name="diis">   22.98   22.99</time>
   <time name="orth">   19.20   19.20</time>
   <time name="total">   79.69   79.87</time>
   <energy>
    <i name="e_fr_energy">   -994.10145614 </i>
    <i name="e_wo_entrp">   -994.10145614 </i>
    <i name="e_0_energy">   -994.10145614 </i>
   </energy>
  </scstep>
  <scstep>
   <time name="diag">   33.74   33.74</time>
   <time name="diis">   22.71   22.71</time>
   <time name="orth">   19.16   19.16</time>
   <time name="total">   79.41   79.54</time>
   <energy>
    <i name="e_fr_energy">   -994.10145627 </i>
    <i name="e_wo_entrp">   -994.10145627 </i>
    <i name="e_0_energy">   -994.10145627 </i>
   </energy>
  </scstep>
  <scstep>
   <time name="diag">   33.75   33.77</time>
   <time name="diis">   22.29   22.30</time>
   <time name="orth">   19.15   19.14</time>
   <time name="total">   78.99   79.03</time>
   <energy>
    <i name="e_fr_energy">   -994.10145630 </i>
    <i name="e_wo_entrp">   -994.10145630 </i>
    <i name="e_0_energy">   -994.10145630 </i>
   </energy>
  </scstep>
  <scstep>
   <time name="diag">   33.71   33.71</time>
   <time name="diis">   21.88   21.89</time>
   <time name="orth">   19.09   19.09</time>
   <time name="total">   78.48   78.67</time>
   <energy>
    <i name="e_fr_energy">   -994.10145630 </i>
    <i name="e_wo_entrp">   -994.10145630 </i>
    <i name="e_0_energy">   -994.10145630 </i>
   </energy>
  </scstep>
  <scstep>
   <time name="diag">   33.70   33.70</time>
   <time name="diis">   21.89   21.89</time>
   <time name="orth">   19.08   19.08</time>
   <time name="total">   75.25   75.25</time>
   <energy>
    <i name="alphaZ">   5568.36098644 </i>
    <i name="ewald"> -62560.34678290 </i>
    <i name="hartreedc"> -19001.58322902 </i>
    <i name="XCdc">   3409.38478422 </i>
    <i name="pawpsdc"> 120272.68655090 </i>
    <i name="pawaedc">-119778.71329376 </i>
    <i name="eentropy">     -0.00000000 </i>
    <i name="bandstr">  -7220.79492822 </i>
    <i name="atom">  78316.90445604 </i>
    <i name="e_fr_energy">   -994.10145629 </i>
    <i name="e_wo_entrp">   -994.10145629 </i>
    <i name="e_0_energy">   -994.10145629 </i>
   </energy>
  </scstep>
  <structure>
   <crystal>
    <varray name="basis" >
     <v>      11.21102893       0.00120422      -0.00271870 </v>
     <v>       0.00141869      11.38134728      -0.00341938 </v>
     <v>      -0.00377725      -0.00455806      15.81612316 </v>
    </varray>
    <i name="volume">   2018.08343635 </i>
    <varray name="rec_basis" >
     <v>       0.08919789      -0.00001111       0.00002130 </v>
     <v>      -0.00000943       0.08786307       0.00002532 </v>
     <v>       0.00001533       0.00001899       0.06322663 </v>
    </varray>
   </crystal>
   <varray name="positions" >
    <v>       0.98866428       0.23768547       0.11162248 </v>
    <v>       0.00049034       0.24902533       0.61603726 </v>
    <v>       0.99567090       0.75234229       0.10655361 </v>
    <v>       0.01442954       0.73668854       0.62244362 </v>
    <v>       0.50782336       0.23558738       0.11971867 </v>
    <v>       0.49628611       0.24859363       0.60847178 </v>
    <v>       0.49580923       0.75257435       0.11446555 </v>
    <v>       0.48550419       0.73611055       0.61612066 </v>
    <v>       0.99278895       0.23910915       0.38658007 </v>
    <v>       0.99157872       0.25326565       0.88626971 </v>
    <v>       0.99178770       0.74754869       0.39181398 </v>
    <v>       0.00710637       0.73425049       0.87794472 </v>
    <v>       0.50494796       0.23708979       0.38012753 </v>
    <v>       0.49843526       0.25186840       0.89363770 </v>
    <v>       0.51042631       0.74571006       0.38357595 </v>
    <v>       0.48989224       0.73320424       0.88451622 </v>
    <v>       0.23800855       0.00515204       0.10863028 </v>
    <v>       0.25025870       0.99144519       0.61594495 </v>
    <v>       0.24347259       0.51246594       0.11023566 </v>
    <v>       0.25323383       0.51731756       0.62258446 </v>
    <v>       0.75561502       0.01242599       0.11700216 </v>
    <v>       0.74467562       0.01458418       0.61126997 </v>
    <v>       0.75283711       0.49738902       0.11526420 </v>
    <v>       0.74136418       0.50091185       0.60967957 </v>
    <v>       0.24108279       0.00639189       0.39035231 </v>
    <v>       0.25384271       0.99978435       0.88383961 </v>
    <v>       0.24374298       0.50880739       0.39044325 </v>
    <v>       0.25504027       0.51249435       0.87849524 </v>
    <v>       0.75242452       0.01374940       0.37983340 </v>
    <v>       0.74235477       0.01705102       0.89035311 </v>
    <v>       0.74987619       0.49412003       0.38428306 </v>
    <v>       0.73889500       0.50071353       0.89306064 </v>
    <v>       0.24583962       0.75240504       0.99818435 </v>
    <v>       0.24340657       0.24985613       0.00133943 </v>
    <v>       0.99515274       0.50038469       0.50404237 </v>
    <v>       0.74324714       0.74982706       0.99686266 </v>
    <v>       0.49539236       0.99892755       0.49731935 </v>
    <v>       0.99466452       0.99812968       0.50368246 </v>
    <v>       0.49506312       0.49829556       0.49691624 </v>
    <v>       0.75785201       0.24232227       0.25000376 </v>
    <v>       0.74374188       0.74773816       0.51841043 </v>
    <v>       0.99351950       0.50119827       0.99286823 </v>
    <v>       0.49464333       0.00214898       0.00689058 </v>
    <v>       0.02285551       0.48703621       0.74996384 </v>
    <v>       0.49541202       0.49909094       0.00540582 </v>
    <v>       0.25123261       0.28722540       0.24764160 </v>
    <v>       0.74525457       0.25232125       0.00194358 </v>
    <v>       0.24469349       0.24658513       0.50380042 </v>
    <v>       0.99345748       0.00140674       0.99338849 </v>
    <v>       0.24669355       0.75017294       0.49838529 </v>
    <v>       0.74646473       0.25037819       0.49965635 </v>
    <v>       0.99576762       0.98096794       0.24791599 </v>
    <v>       0.26924289       0.27424175       0.75167538 </v>
    <v>       0.25592599       0.79943587       0.25041082 </v>
    <v>       0.25846253       0.74543952       0.74932664 </v>
    <v>       0.52165339       0.98482674       0.25035774 </v>
    <v>       0.75575339       0.30032271       0.74986672 </v>
    <v>       0.76812483       0.77512738       0.24270382 </v>
    <v>       0.75235186       0.78928342       0.75250926 </v>
    <v>       0.01081228       0.96387119       0.74974818 </v>
    <v>       0.00915840       0.47096278       0.25289768 </v>
    <v>       0.50982760       0.97105539       0.74793678 </v>
    <v>       0.51127207       0.46202671       0.25066290 </v>
    <v>       0.49630774       0.48070819       0.75220377 </v>
    <v>       0.99858681       0.99895821       0.12356787 </v>
    <v>       0.98797018       0.02111754       0.63811967 </v>
    <v>       0.98179494       0.53707477       0.14704291 </v>
    <v>       0.98597022       0.50786514       0.62942978 </v>
    <v>       0.47953024       0.00816367       0.13409355 </v>
    <v>       0.49078862       0.01826408       0.63085314 </v>
    <v>       0.48562208       0.53262373       0.14599904 </v>
    <v>       0.49844938       0.49589768       0.62075815 </v>
    <v>       0.99632298       0.99701973       0.37902474 </v>
    <v>       0.98425170       0.03212202       0.85524996 </v>
    <v>       0.99070105       0.51592899       0.37011314 </v>
    <v>       0.98169058       0.50692309       0.86731905 </v>
    <v>       0.48943023       0.00729055       0.37086590 </v>
    <v>       0.48215983       0.03629721       0.85426322 </v>
    <v>       0.48912049       0.51736069       0.36254295 </v>
    <v>       0.49740201       0.49704526       0.87749576 </v>
    <v>       0.22057111       0.22368538       0.35431569 </v>
    <v>       0.24875085       0.23425651       0.86792682 </v>
    <v>       0.22372116       0.73543441       0.35916272 </v>
    <v>       0.25461933       0.74474856       0.87604639 </v>
    <v>       0.75597976       0.24710163       0.37486549 </v>
    <v>       0.73078778       0.24356723       0.86132057 </v>
    <v>       0.73720086       0.69951423       0.34156347 </v>
    <v>       0.72428549       0.72876331       0.86165461 </v>
    <v>       0.22405512       0.23142957       0.13578314 </v>
    <v>       0.24696363       0.21627844       0.64077382 </v>
    <v>       0.23290082       0.74602814       0.13555194 </v>
    <v>       0.25416053       0.74824342       0.62396548 </v>
    <v>       0.75513321       0.24417565       0.12746703 </v>
    <v>       0.72767715       0.23881017       0.63925619 </v>
    <v>       0.74804516       0.73794690       0.12637511 </v>
    <v>       0.72075036       0.72480690       0.64354896 </v>
    <v>       0.17839577       0.43966428       0.24970664 </v>
    <v>       0.41568433       0.32292968       0.24926672 </v>
    <v>       0.67004520       0.40327876       0.24913061 </v>
    <v>       0.92116717       0.33198966       0.25005540 </v>
    <v>       0.17193552       0.94754834       0.25057798 </v>
    <v>       0.42172094       0.83197868       0.25308518 </v>
    <v>       0.67144901       0.90895930       0.24999308 </v>
    <v>       0.93222494       0.82315718       0.25032662 </v>
    <v>       0.12271694       0.11953478       0.50409491 </v>
    <v>       0.37369415       0.12868305       0.49564376 </v>
    <v>       0.62401280       0.11971612       0.49711960 </v>
    <v>       0.87449243       0.12819750       0.50427504 </v>
    <v>       0.11754367       0.37145333       0.50240849 </v>
    <v>       0.36543387       0.37484120       0.49472468 </v>
    <v>       0.61699765       0.37221554       0.49197636 </v>
    <v>       0.86952362       0.37759320       0.50383862 </v>
    <v>       0.12336771       0.61934384       0.50275508 </v>
    <v>       0.37477863       0.62726970       0.49477212 </v>
    <v>       0.62387188       0.62023567       0.49739778 </v>
    <v>       0.87222980       0.63048926       0.50474175 </v>
    <v>       0.11639206       0.87306850       0.50694609 </v>
    <v>       0.36970296       0.87797467       0.49581586 </v>
    <v>       0.61834857       0.87108288       0.50103557 </v>
    <v>       0.86433837       0.87598303       0.50797445 </v>
    <v>       0.17097630       0.40544799       0.74803646 </v>
    <v>       0.43269801       0.32140535       0.74944112 </v>
    <v>       0.67179614       0.44890656       0.74987847 </v>
    <v>       0.92093939       0.33433982       0.74778099 </v>
    <v>       0.17023527       0.90949418       0.75135461 </v>
    <v>       0.42323364       0.83255767       0.75061791 </v>
    <v>       0.68023531       0.94066175       0.75025238 </v>
    <v>       0.91596841       0.82337350       0.74948764 </v>
    <v>       0.12323196       0.12325007       0.99444807 </v>
    <v>       0.37064164       0.13113939       0.00444113 </v>
    <v>       0.62202213       0.12056324       0.00332806 </v>
    <v>       0.87255917       0.12954300       0.99621626 </v>
    <v>       0.11764816       0.37349176       0.00132079 </v>
    <v>       0.36384509       0.37610238       0.00941487 </v>
    <v>       0.61756204       0.37432341       0.01169825 </v>
    <v>       0.86947407       0.37958289       0.00154832 </v>
    <v>       0.12349237       0.62267715       0.99842211 </v>
    <v>       0.37200395       0.63062703       0.00483594 </v>
    <v>       0.62271067       0.62334470       0.00381266 </v>
    <v>       0.87166071       0.63195022       0.99423196 </v>
    <v>       0.11774190       0.87324089       0.99027868 </v>
    <v>       0.36733412       0.87870399       0.00104796 </v>
    <v>       0.61558987       0.87223655       0.99658376 </v>
    <v>       0.86401422       0.87646636       0.98944034 </v>
    <v>       0.61376259       0.14409282       0.25195868 </v>
    <v>       0.86807050       0.10057436       0.25170612 </v>
    <v>       0.11256562       0.64087713       0.74975342 </v>
    <v>       0.37291145       0.59991736       0.74859211 </v>
   </varray>
  </structure>
  <varray name="forces" >
   <v>       0.00239268       0.00044148       0.00740168 </v>
   <v>      -0.00281020       0.00926591      -0.01996326 </v>
   <v>       0.00522605       0.00177432      -0.02122443 </v>
   <v>      -0.00470590       0.01639542      -0.01554346 </v>
   <v>      -0.00821671       0.00746294      -0.00814353 </v>
   <v>       0.00598212      -0.00005924      -0.01115195 </v>
   <v>       0.00189885       0.00068148      -0.00300545 </v>
   <v>       0.00929745      -0.00110197      -0.01194897 </v>
   <v>      -0.01408739      -0.00676812       0.01657480 </v>
   <v>      -0.00107320       0.00978939      -0.00323971 </v>
   <v>       0.01546978      -0.00207910       0.01022698 </v>
   <v>      -0.00082423       0.01281089       0.01546398 </v>
   <v>       0.00065400       0.01530890       0.01932520 </v>
   <v>      -0.00017825       0.00185740       0.00437106 </v>
   <v>       0.00302109      -0.00376141       0.00466586 </v>
   <v>       0.00630007       0.00389669      -0.00123519 </v>
   <v>       0.00394190      -0.00579039      -0.00456442 </v>
   <v>       0.00577976      -0.00311788      -0.01309823 </v>
   <v>      -0.00278219      -0.00749776       0.00658272 </v>
   <v>      -0.00432480      -0.01249434      -0.00138270 </v>
   <v>      -0.01313114      -0.00409674       0.00666707 </v>
   <v>      -0.00275407      -0.00203071      -0.01103572 </v>
   <v>      -0.00039957       0.01405909      -0.00735461 </v>
   <v>       0.00492680       0.00175397      -0.01178249 </v>
   <v>       0.00285001      -0.00317259       0.01512891 </v>
   <v>      -0.01601533       0.00069505       0.01292015 </v>
   <v>       0.00697786      -0.01836498      -0.00972700 </v>
   <v>      -0.01680445       0.00028055      -0.00277499 </v>
   <v>       0.00152514       0.01190503       0.01362370 </v>
   <v>      -0.00753592      -0.00404727      -0.02002446 </v>
   <v>       0.00220235      -0.01890707       0.01709782 </v>
   <v>       0.00297399      -0.00394697       0.00359093 </v>
   <v>      -0.03173194      -0.00038900      -0.01136102 </v>
   <v>       0.01852662      -0.03593426      -0.00640909 </v>
   <v>      -0.02279841      -0.04917779      -0.00623157 </v>
   <v>       0.00754326      -0.02023765       0.00309783 </v>
   <v>       0.01837575       0.00947204       0.00200124 </v>
   <v>      -0.00058809       0.02915886      -0.00935378 </v>
   <v>       0.03055266      -0.03559077      -0.00940953 </v>
   <v>       0.02947829       0.00796630       0.11345336 </v>
   <v>      -0.00094836      -0.00160404      -0.00100605 </v>
   <v>       0.01467455       0.02060198      -0.01590363 </v>
   <v>       0.00774322       0.01381371       0.00677851 </v>
   <v>       0.01025778      -0.02587739       0.00232372 </v>
   <v>       0.01195284       0.00171283       0.00157765 </v>
   <v>      -0.01526888       0.01657854       0.00759648 </v>
   <v>      -0.00399060      -0.00693771      -0.00585746 </v>
   <v>      -0.00245439       0.00385049      -0.00174613 </v>
   <v>       0.01386984      -0.00764333       0.00452662 </v>
   <v>       0.01556464       0.02092110       0.02557839 </v>
   <v>       0.01079574       0.00741100      -0.01815736 </v>
   <v>       0.00572162      -0.00377012      -0.00000435 </v>
   <v>      -0.00372631       0.02481804       0.00150109 </v>
   <v>       0.01989178       0.00197043      -0.00254707 </v>
   <v>       0.00020334       0.01118132       0.00951208 </v>
   <v>       0.01179972      -0.00009600       0.00345915 </v>
   <v>      -0.00479149      -0.00773318       0.00185352 </v>
   <v>      -0.01658851       0.01701363      -0.00565867 </v>
   <v>      -0.00628875      -0.00658939       0.00234840 </v>
   <v>       0.00642933       0.00969370       0.03229349 </v>
   <v>       0.00326865      -0.02083868      -0.00768102 </v>
   <v>      -0.00235438      -0.00953975       0.00558409 </v>
   <v>      -0.01646185       0.00406599      -0.01959381 </v>
   <v>      -0.00965889      -0.01719014      -0.00414088 </v>
   <v>      -0.00799566      -0.00448985       0.00249230 </v>
   <v>       0.00958258      -0.00172198       0.02080024 </v>
   <v>      -0.01202118       0.01933020       0.00816879 </v>
   <v>       0.01026575       0.00426864       0.00365303 </v>
   <v>       0.01666465      -0.00508521      -0.02111064 </v>
   <v>       0.00299049       0.00285468       0.01837766 </v>
   <v>       0.00091879      -0.00732852       0.01280284 </v>
   <v>      -0.00635819       0.00739960       0.00570869 </v>
   <v>      -0.00542415      -0.00674047      -0.01606192 </v>
   <v>       0.00890351      -0.01535094      -0.03657331 </v>
   <v>       0.00553642       0.01544789       0.00371618 </v>
   <v>       0.01408795       0.00064002      -0.00029600 </v>
   <v>       0.00051869      -0.01172521      -0.01910443 </v>
   <v>      -0.00455584       0.00579200      -0.02555347 </v>
   <v>      -0.00190982      -0.00146585       0.01100633 </v>
   <v>       0.00745048       0.00061808       0.00398360 </v>
   <v>       0.00854235      -0.01328035       0.00522196 </v>
   <v>      -0.00985426      -0.00301750       0.00020951 </v>
   <v>       0.01861178       0.00398613      -0.00173931 </v>
   <v>      -0.00490521       0.00542016      -0.02069550 </v>
   <v>      -0.00224377      -0.00027477      -0.01007398 </v>
   <v>       0.01383643       0.01250878       0.00377602 </v>
   <v>      -0.03135480      -0.02755232      -0.03328391 </v>
   <v>       0.01234810      -0.00207233      -0.01401519 </v>
   <v>       0.00905371      -0.00814449      -0.00934562 </v>
   <v>      -0.00115745      -0.00886915      -0.00155485 </v>
   <v>       0.00568049       0.01070120       0.01078606 </v>
   <v>      -0.00301117      -0.00261761      -0.02063432 </v>
   <v>      -0.00864088       0.00289250      -0.00379068 </v>
   <v>       0.01477237      -0.00237549       0.01437102 </v>
   <v>       0.00584954       0.00668678       0.00054441 </v>
   <v>       0.00838644      -0.00403794       0.02265051 </v>
   <v>      -0.00766736      -0.01566228      -0.00282387 </v>
   <v>       0.00079233       0.00468658      -0.00311259 </v>
   <v>       0.00651243      -0.00550491      -0.01322969 </v>
   <v>      -0.01184025       0.00071559      -0.00584857 </v>
   <v>      -0.01955399       0.00036341       0.00223425 </v>
   <v>      -0.01223952       0.01073922       0.00511622 </v>
   <v>       0.00850397      -0.01016415       0.01022405 </v>
   <v>      -0.02167857      -0.00763760       0.00841436 </v>
   <v>       0.01413942       0.01237977      -0.00508495 </v>
   <v>      -0.01973266       0.00428885       0.01049436 </v>
   <v>      -0.00972789      -0.00157818       0.00402095 </v>
   <v>       0.00603247      -0.01685692      -0.00448749 </v>
   <v>       0.00406519      -0.00262920      -0.01178712 </v>
   <v>       0.00415781       0.00326852       0.00660451 </v>
   <v>      -0.01425869       0.00733588       0.00722220 </v>
   <v>       0.01982222       0.02326815       0.00166094 </v>
   <v>       0.01044436       0.01704558      -0.00892480 </v>
   <v>      -0.01881450       0.00802924       0.00667797 </v>
   <v>       0.00694387       0.01077396       0.00049600 </v>
   <v>      -0.00479253      -0.00377696      -0.01596495 </v>
   <v>       0.01608775      -0.02327783      -0.00271333 </v>
   <v>      -0.01181357      -0.01063432      -0.00278379 </v>
   <v>       0.01178959      -0.01054156       0.00521896 </v>
   <v>      -0.00214812      -0.02129518       0.00556671 </v>
   <v>      -0.01232211       0.00943227      -0.00936783 </v>
   <v>      -0.01339741       0.01050451      -0.00073540 </v>
   <v>      -0.01500314      -0.00345907       0.00031478 </v>
   <v>       0.01303937       0.02051004      -0.00203147 </v>
   <v>      -0.01115086       0.00544413      -0.00300183 </v>
   <v>      -0.00638054       0.00434631       0.00363231 </v>
   <v>      -0.00731128      -0.01575952       0.00879418 </v>
   <v>      -0.00835078       0.00595537       0.00035975 </v>
   <v>       0.00003131       0.02046999       0.00637404 </v>
   <v>      -0.01653649       0.01477847      -0.00611904 </v>
   <v>       0.00924079       0.01191433      -0.00674738 </v>
   <v>      -0.00702842       0.01312632       0.00784964 </v>
   <v>      -0.00546193      -0.00836184       0.01038627 </v>
   <v>       0.00386068       0.00526259      -0.01133679 </v>
   <v>      -0.00596627      -0.00501944      -0.01136934 </v>
   <v>      -0.01185398      -0.00708687       0.01353447 </v>
   <v>       0.00093762       0.01085038       0.01247504 </v>
   <v>      -0.00410433      -0.00156964       0.00506264 </v>
   <v>      -0.00943289       0.00490253      -0.00328795 </v>
   <v>      -0.00559458       0.00205708       0.00950170 </v>
   <v>       0.00929563      -0.01074548       0.00957293 </v>
   <v>       0.01279072      -0.00242545      -0.00838513 </v>
   <v>      -0.01287773       0.01284800      -0.01017811 </v>
   <v>      -0.01051958      -0.01009867       0.00075736 </v>
   <v>      -0.00907427      -0.00576779      -0.00845963 </v>
   <v>       0.01509001       0.00521793      -0.00052741 </v>
   <v>      -0.01295387      -0.00253772       0.00367372 </v>
   <v>       0.00666711       0.00725617       0.00276763 </v>
  </varray>
  <varray name="stress" >
   <v>       0.09978472      -0.07473960       0.00799600 </v>
   <v>      -0.07473927      -0.27093276       0.02762355 </v>
   <v>       0.00799631       0.02762340      -0.36168619 </v>
  </varray>
  <energy>
   <i name="e_fr_energy">   -994.10145629 </i>
   <i name="e_wo_entrp">   -994.10145629 </i>
   <i name="e_0_energy">     -0.00000000 </i>
  </energy>
  <time name="totalsc"> 1020.64 1023.08</time>
 </calculation>
 <calculation>
  <scstep>
   <time name="dav">  288.15  288.17</time>
   <time name="total">  291.97  292.04</time>
   <energy>
    <i name="alphaZ">   5569.57942324 </i>
    <i name="ewald"> -62563.15898815 </i>
    <i name="hartreedc"> -19004.50089172 </i>
    <i name="XCdc">   3409.70202113 </i>
    <i name="pawpsdc"> 120272.68116335 </i>
    <i name="pawaedc">-119778.70785126 </i>
    <i name="eentropy">     -0.00000000 </i>
    <i name="bandstr">  -7216.59990767 </i>
    <i name="atom">  78316.90445604 </i>
    <i name="e_fr_energy">   -994.10057504 </i>
    <i name="e_wo_entrp">   -994.10057504 </i>
    <i name="e_0_energy">   -994.10057504 </i>
   </energy>
  </scstep>
  <scstep>
   <time name="diag">   33.68   33.68</time>
   <time name="diis">   53.18   53.19</time>
   <time name="orth">   19.17   19.17</time>
   <time name="total">  109.82  109.83</time>
   <energy>
    <i name="e_fr_energy">   -994.10250627 </i>
    <i name="e_wo_entrp">   -994.10250627 </i>
    <i name="e_0_energy">   -994.10250627 </i>
   </energy>
  </scstep>
  <scstep>
   <time name="diag">   33.67   33.68</time>
   <time name="diis">   52.06   52.06</time>
   <time name="orth">   19.21   19.20</time>
   <time name="total">  108.72  108.89</time>
   <energy>
    <i name="e_fr_energy">   -994.10266498 </i>
    <i name="e_wo_entrp">   -994.10266498 </i>
    <i name="e_0_energy">   -994.10266498 </i>
   </energy>
  </scstep>
  <scstep>
   <time name="diag">   33.67   33.67</time>
   <time name="diis">   36.05   36.09</time>
   <time name="orth">   19.32   19.32</time>
   <time name="total">   92.84   93.05</time>
   <energy>
    <i name="e_fr_energy">   -994.10252306 </i>
    <i name="e_wo_entrp">   -994.10252306 </i>
    <i name="e_0_energy">   -994.10252306 </i>
   </energy>
  </scstep>
  <scstep>
   <time name="diag">   33.65   33.71</time>
   <time name="diis">   34.75   34.77</time>
   <time name="orth">   19.18   19.18</time>
   <time name="total">   91.39   91.47</time>
   <energy>
    <i name="e_fr_energy">   -994.10245649 </i>
    <i name="e_wo_entrp">   -994.10245649 </i>
    <i name="e_0_energy">   -994.10245649 </i>
   </energy>
  </scstep>
  <scstep>
   <time name="diag">   33.72   33.72</time>
   <time name="diis">   32.97   32.97</time>
   <time name="orth">   19.16   19.16</time>
   <time name="total">   89.63   89.74</time>
   <energy>
    <i name="e_fr_energy">   -994.10245855 </i>
    <i name="e_wo_entrp">   -994.10245855 </i>
    <i name="e_0_energy">   -994.10245855 </i>
   </energy>
  </scstep>
  <scstep>
   <time name="diag">   33.72   33.73</time>
   <time name="diis">   32.25   32.26</time>
   <time name="orth">   19.17   19.17</time>
   <time name="total">   88.96   89.01</time>
   <energy>
    <i name="e_fr_energy">   -994.10246077 </i>
    <i name="e_wo_entrp">   -994.10246077 </i>
    <i name="e_0_energy">   -994.10246077 </i>
   </energy>
  </scstep>
  <scstep>
   <time name="diag">   33.72   33.74</time>
   <time name="diis">   31.55   31.56</time>
   <time name="orth">   19.20   19.20</time>
   <time name="total">   85.05   85.15</time>
   <energy>
    <i name="alphaZ">   5569.57942324 </i>
    <i name="ewald"> -62563.15898815 </i>
    <i name="hartreedc"> -19001.22240101 </i>
    <i name="XCdc">   3409.47755104 </i>
    <i name="pawpsdc"> 120311.85894367 </i>
    <i name="pawaedc">-119817.94500993 </i>
    <i name="eentropy">     -0.00000000 </i>
    <i name="bandstr">  -7219.59643738 </i>
    <i name="atom">  78316.90445604 </i>
    <i name="e_fr_energy">   -994.10246247 </i>
    <i name="e_wo_entrp">   -994.10246247 </i>
    <i name="e_0_energy">   -994.10246247 </i>
   </energy>
  </scstep>
  <structure>
   <crystal>
    <varray name="basis" >
     <v>      11.21148819       0.00086003      -0.00268148 </v>
     <v>       0.00106949      11.38008114      -0.00328978 </v>
     <v>      -0.00372534      -0.00437806      15.81377439 </v>
    </varray>
    <i name="volume">   2017.64194752 </i>
    <varray name="rec_basis" >
     <v>       0.08919423      -0.00000838       0.00002101 </v>
     <v>      -0.00000673       0.08787284       0.00002433 </v>
     <v>       0.00001512       0.00001828       0.06323602 </v>
    </varray>
   </crystal>
   <varray name="positions" >
    <v>       0.98867458       0.23768735       0.11164506 </v>
    <v>       0.00047822       0.24906458       0.61597638 </v>
    <v>       0.99569336       0.75234978       0.10648887 </v>
    <v>       0.01440927       0.73675802       0.62239622 </v>
    <v>       0.50778799       0.23561900       0.11969383 </v>
    <v>       0.49631184       0.24859336       0.60843777 </v>
    <v>       0.49581740       0.75257724       0.11445638 </v>
    <v>       0.48554418       0.73610586       0.61608422 </v>
    <v>       0.99272835       0.23908048       0.38663061 </v>
    <v>       0.99157410       0.25330715       0.88625983 </v>
    <v>       0.99185428       0.74753988       0.39184519 </v>
    <v>       0.00710283       0.73430482       0.87799190 </v>
    <v>       0.50495079       0.23715470       0.38018649 </v>
    <v>       0.49843450       0.25187628       0.89365104 </v>
    <v>       0.51043931       0.74569412       0.38359018 </v>
    <v>       0.48991935       0.73322075       0.88451246 </v>
    <v>       0.23802551       0.00512749       0.10861635 </v>
    <v>       0.25028356       0.99143196       0.61590500 </v>
    <v>       0.24346063       0.51243417       0.11025573 </v>
    <v>       0.25321523       0.51726460       0.62258022 </v>
    <v>       0.75555852       0.01240864       0.11702248 </v>
    <v>       0.74466376       0.01457556       0.61123630 </v>
    <v>       0.75283537       0.49744860       0.11524178 </v>
    <v>       0.74138536       0.50091927       0.60964364 </v>
    <v>       0.24109507       0.00637846       0.39039846 </v>
    <v>       0.25377380       0.99978732       0.88387901 </v>
    <v>       0.24377301       0.50872953       0.39041357 </v>
    <v>       0.25496796       0.51249554       0.87848676 </v>
    <v>       0.75243109       0.01379988       0.37987497 </v>
    <v>       0.74232233       0.01703385       0.89029202 </v>
    <v>       0.74988569       0.49403991       0.38433520 </v>
    <v>       0.73890781       0.50069680       0.89307159 </v>
    <v>       0.24570306       0.75240340       0.99814968 </v>
    <v>       0.24348631       0.24970379       0.00131986 </v>
    <v>       0.99505465       0.50017624       0.50402330 </v>
    <v>       0.74327962       0.74974127       0.99687210 </v>
    <v>       0.49547143       0.99896770       0.49732547 </v>
    <v>       0.99466196       0.99825327       0.50365395 </v>
    <v>       0.49519460       0.49814468       0.49688752 </v>
    <v>       0.75797897       0.24235616       0.25034985 </v>
    <v>       0.74373780       0.74773136       0.51840736 </v>
    <v>       0.99358262       0.50128557       0.99281975 </v>
    <v>       0.49467665       0.00220754       0.00691127 </v>
    <v>       0.02289967       0.48692652       0.74997092 </v>
    <v>       0.49546345       0.49909820       0.00541064 </v>
    <v>       0.25116691       0.28729569       0.24766477 </v>
    <v>       0.74523740       0.25229184       0.00192571 </v>
    <v>       0.24468293       0.24660145       0.50379509 </v>
    <v>       0.99351717       0.00137435       0.99340230 </v>
    <v>       0.24676055       0.75026164       0.49846334 </v>
    <v>       0.74651117       0.25040957       0.49960099 </v>
    <v>       0.99579225       0.98095196       0.24791598 </v>
    <v>       0.26922684       0.27434695       0.75167998 </v>
    <v>       0.25601159       0.79944421       0.25040306 </v>
    <v>       0.25846341       0.74548692       0.74935566 </v>
    <v>       0.52170417       0.98482633       0.25036830 </v>
    <v>       0.75573277       0.30028994       0.74987236 </v>
    <v>       0.76805344       0.77519949       0.24268656 </v>
    <v>       0.75232480       0.78925549       0.75251642 </v>
    <v>       0.01083998       0.96391231       0.74984669 </v>
    <v>       0.00917247       0.47087444       0.25287423 </v>
    <v>       0.50981748       0.97101496       0.74795380 </v>
    <v>       0.51120121       0.46204393       0.25060312 </v>
    <v>       0.49626619       0.48063532       0.75219112 </v>
    <v>       0.99855240       0.99893919       0.12357546 </v>
    <v>       0.98801143       0.02111026       0.63818312 </v>
    <v>       0.98174321       0.53715672       0.14706783 </v>
    <v>       0.98601440       0.50788323       0.62944094 </v>
    <v>       0.47960193       0.00814208       0.13402917 </v>
    <v>       0.49080150       0.01827620       0.63090920 </v>
    <v>       0.48562605       0.53259269       0.14603809 </v>
    <v>       0.49842202       0.49592905       0.62077557 </v>
    <v>       0.99629963       0.99699114       0.37897573 </v>
    <v>       0.98428999       0.03205690       0.85513840 </v>
    <v>       0.99072487       0.51599447       0.37012449 </v>
    <v>       0.98175120       0.50692579       0.86731816 </v>
    <v>       0.48943245       0.00724083       0.37080761 </v>
    <v>       0.48214020       0.03632173       0.85418527 </v>
    <v>       0.48911229       0.51735449       0.36257652 </v>
    <v>       0.49743408       0.49704788       0.87750791 </v>
    <v>       0.22060788       0.22362909       0.35433162 </v>
    <v>       0.24870845       0.23424372       0.86792745 </v>
    <v>       0.22380124       0.73545129       0.35915743 </v>
    <v>       0.25459820       0.74477152       0.87598326 </v>
    <v>       0.75597010       0.24710045       0.37483476 </v>
    <v>       0.73084731       0.24362025       0.86133211 </v>
    <v>       0.73706591       0.69939741       0.34146190 </v>
    <v>       0.72433861       0.72875450       0.86161187 </v>
    <v>       0.22409407       0.23139503       0.13575463 </v>
    <v>       0.24695865       0.21624085       0.64076907 </v>
    <v>       0.23292527       0.74607351       0.13558486 </v>
    <v>       0.25414756       0.74823230       0.62390254 </v>
    <v>       0.75509602       0.24418791       0.12745546 </v>
    <v>       0.72774074       0.23880012       0.63930004 </v>
    <v>       0.74807033       0.73797524       0.12637678 </v>
    <v>       0.72078647       0.72478981       0.64361805 </v>
    <v>       0.17836279       0.43959789       0.24969801 </v>
    <v>       0.41568774       0.32294954       0.24925723 </v>
    <v>       0.67007321       0.40325541       0.24909025 </v>
    <v>       0.92111621       0.33199269       0.25003756 </v>
    <v>       0.17185138       0.94754989       0.25058478 </v>
    <v>       0.42166827       0.83202421       0.25310079 </v>
    <v>       0.67148562       0.90891622       0.25002426 </v>
    <v>       0.93213167       0.82312482       0.25035226 </v>
    <v>       0.12277777       0.11958724       0.50407942 </v>
    <v>       0.37360925       0.12870125       0.49567576 </v>
    <v>       0.62397094       0.11970944       0.49713186 </v>
    <v>       0.87451840       0.12812604       0.50426134 </v>
    <v>       0.11756115       0.37144217       0.50237254 </v>
    <v>       0.36545177       0.37485506       0.49474483 </v>
    <v>       0.61693629       0.37224665       0.49199838 </v>
    <v>       0.86960891       0.37769182       0.50384372 </v>
    <v>       0.12341264       0.61941608       0.50272788 </v>
    <v>       0.37469767       0.62730375       0.49479249 </v>
    <v>       0.62390176       0.62028134       0.49739931 </v>
    <v>       0.87220916       0.63047324       0.50469305 </v>
    <v>       0.11646130       0.87296983       0.50693780 </v>
    <v>       0.36965212       0.87792960       0.49580735 </v>
    <v>       0.61839931       0.87103820       0.50105148 </v>
    <v>       0.86432914       0.87589277       0.50799141 </v>
    <v>       0.17092326       0.40548796       0.74800789 </v>
    <v>       0.43264035       0.32144988       0.74943888 </v>
    <v>       0.67173158       0.44889190       0.74987942 </v>
    <v>       0.92099549       0.33442675       0.74777482 </v>
    <v>       0.17018728       0.90951726       0.75134545 </v>
    <v>       0.42320619       0.83257610       0.75062899 </v>
    <v>       0.68020387       0.94059497       0.75027918 </v>
    <v>       0.91593247       0.82339875       0.74948873 </v>
    <v>       0.12323209       0.12333685       0.99446753 </v>
    <v>       0.37057047       0.13120203       0.00442247 </v>
    <v>       0.62206188       0.12061373       0.00330750 </v>
    <v>       0.87252893       0.12959865       0.99624021 </v>
    <v>       0.11762467       0.37345633       0.00135246 </v>
    <v>       0.36386169       0.37612467       0.00938029 </v>
    <v>       0.61753636       0.37430212       0.01166356 </v>
    <v>       0.86942308       0.37955288       0.00158959 </v>
    <v>       0.12349641       0.62272315       0.99846017 </v>
    <v>       0.37198630       0.63062039       0.00485138 </v>
    <v>       0.62267007       0.62336548       0.00380263 </v>
    <v>       0.87163664       0.63195895       0.99426094 </v>
    <v>       0.11778192       0.87319535       0.99030788 </v>
    <v>       0.36738915       0.87869369       0.00102239 </v>
    <v>       0.61553444       0.87229100       0.99655272 </v>
    <v>       0.86396895       0.87642356       0.98944263 </v>
    <v>       0.61372353       0.14406836       0.25193287 </v>
    <v>       0.86813543       0.10059647       0.25170453 </v>
    <v>       0.11250988       0.64086638       0.74976461 </v>
    <v>       0.37294013       0.59994812       0.74860056 </v>
   </varray>
  </structure>
  <varray name="forces" >
   <v>      -0.00974723       0.00196057      -0.00001071 </v>
   <v>       0.00259838       0.00376440      -0.00066055 </v>
   <v>      -0.00272250       0.00561671       0.00248139 </v>
   <v>      -0.00084774       0.01161286      -0.01434941 </v>
   <v>       0.00634181       0.01068750      -0.00204511 </v>
   <v>      -0.00301647      -0.00156536       0.00585536 </v>
   <v>      -0.00222473       0.00561511      -0.00735940 </v>
   <v>       0.00134243      -0.00742026      -0.00812521 </v>
   <v>       0.01209667      -0.00724858       0.00500467 </v>
   <v>      -0.00229487       0.00972226       0.00364641 </v>
   <v>       0.02034791      -0.00773151       0.01056495 </v>
   <v>      -0.00961181       0.00923245      -0.00672751 </v>
   <v>      -0.01509968       0.00801333      -0.00043316 </v>
   <v>       0.00076034       0.00578336       0.00255540 </v>
   <v>      -0.00317337      -0.00769351       0.00409122 </v>
   <v>       0.00321254       0.00279185       0.00178916 </v>
   <v>       0.00615639      -0.00950753       0.00538804 </v>
   <v>       0.00382113      -0.00658575      -0.00477882 </v>
   <v>       0.00288672      -0.00671376      -0.00215529 </v>
   <v>      -0.00346165       0.00210074      -0.01052462 </v>
   <v>      -0.01077890       0.00850133       0.00574972 </v>
   <v>       0.00035158      -0.01412359       0.00695473 </v>
   <v>       0.00128500      -0.00116637      -0.00209486 </v>
   <v>       0.00378134       0.01288278       0.00710374 </v>
   <v>       0.00450102      -0.01239143       0.00588012 </v>
   <v>      -0.00412408      -0.00063269      -0.00129725 </v>
   <v>       0.00862346       0.00193310       0.00435070 </v>
   <v>      -0.00857451       0.00088084       0.00126312 </v>
   <v>      -0.00156296      -0.01679054       0.00299833 </v>
   <v>      -0.00638884      -0.00407925      -0.00638941 </v>
   <v>       0.00181302       0.01271514      -0.00164014 </v>
   <v>      -0.00105565      -0.00609044      -0.00130725 </v>
   <v>       0.02322326      -0.00032807      -0.00361874 </v>
   <v>      -0.00306265       0.02042641      -0.00289294 </v>
   <v>       0.04200947       0.04342481       0.00627248 </v>
   <v>      -0.01224769       0.01057091      -0.00408096 </v>
   <v>      -0.02299476      -0.02710437       0.00195443 </v>
   <v>       0.02435392      -0.03269882       0.00428358 </v>
   <v>      -0.03023350       0.03708367      -0.00352703 </v>
   <v>       0.00080168      -0.00324059      -0.13815514 </v>
   <v>       0.00888547      -0.00936738       0.00388597 </v>
   <v>       0.00475783      -0.01594974      -0.00874853 </v>
   <v>       0.01381430      -0.00115076       0.00218792 </v>
   <v>      -0.00942867       0.00301894      -0.00462019 </v>
   <v>      -0.00028254      -0.00474358      -0.00668738 </v>
   <v>       0.00066615      -0.00775112      -0.00839718 </v>
   <v>       0.00182683       0.00216850       0.02262743 </v>
   <v>       0.00506076       0.00692305       0.00137601 </v>
   <v>      -0.01049616       0.00791640       0.01249707 </v>
   <v>       0.00483896      -0.01113690       0.00934946 </v>
   <v>       0.00031833      -0.00000623       0.01644767 </v>
   <v>       0.00508995      -0.01565172      -0.00107582 </v>
   <v>      -0.00423997       0.00621268      -0.00099314 </v>
   <v>      -0.00150899       0.00047021       0.01047345 </v>
   <v>      -0.00427273       0.00246448      -0.00813235 </v>
   <v>       0.00829550       0.00433992      -0.00802087 </v>
   <v>       0.00644732       0.00736887       0.01347804 </v>
   <v>      -0.00101039      -0.00604800      -0.00258569 </v>
   <v>       0.00674840      -0.00494397       0.00259289 </v>
   <v>       0.00229119      -0.01324184      -0.02112743 </v>
   <v>       0.00084554       0.00887400       0.00058268 </v>
   <v>       0.00135421      -0.00865524       0.00170918 </v>
   <v>       0.00803672      -0.00235843       0.01219039 </v>
   <v>      -0.00670063       0.00620754       0.00203665 </v>
   <v>      -0.00360210      -0.00609853      -0.00579048 </v>
   <v>       0.00707238       0.00903934      -0.00207460 </v>
   <v>      -0.00744624       0.01203568       0.01346713 </v>
   <v>       0.00456984      -0.00623554      -0.01035310 </v>
   <v>       0.01459008      -0.00483006      -0.01023479 </v>
   <v>       0.00541113       0.00542861      -0.00588484 </v>
   <v>      -0.00398246       0.00600616      -0.00649253 </v>
   <v>       0.00103289      -0.00011196      -0.00396745 </v>
   <v>      -0.00628575       0.00482462       0.00436969 </v>
   <v>      -0.00226534       0.00688929       0.02460287 </v>
   <v>       0.00180731      -0.00021302      -0.00513655 </v>
   <v>       0.01316661       0.00216097       0.01093260 </v>
   <v>       0.00430683      -0.00103277       0.01437833 </v>
   <v>      -0.00728337       0.01506240      -0.00529966 </v>
   <v>       0.00227116      -0.01096872       0.00722200 </v>
   <v>       0.00717022       0.00007422      -0.00007546 </v>
   <v>       0.00454261      -0.00311625       0.00806916 </v>
   <v>      -0.00936389      -0.00302179      -0.00642608 </v>
   <v>       0.01915424       0.00372534      -0.01253337 </v>
   <v>      -0.01048637       0.00462517      -0.00024234 </v>
   <v>      -0.00110403       0.00582333       0.05149733 </v>
   <v>       0.01300918       0.00949909      -0.00186376 </v>
   <v>      -0.03533967      -0.03416740      -0.02652587 </v>
   <v>       0.00724649      -0.00928634       0.00710063 </v>
   <v>       0.01193299      -0.00652197       0.00599417 </v>
   <v>      -0.00198078      -0.00181459       0.00136192 </v>
   <v>       0.00372360       0.00593896      -0.00249247 </v>
   <v>      -0.00170579      -0.00059699       0.01357630 </v>
   <v>      -0.00564506      -0.00082789       0.04595637 </v>
   <v>       0.01304495      -0.00690728      -0.01405115 </v>
   <v>       0.00161746       0.00467272      -0.01113029 </v>
   <v>       0.00422710      -0.01248842       0.00173466 </v>
   <v>      -0.00834552      -0.00817228      -0.00091275 </v>
   <v>      -0.01064740       0.00010611       0.00269527 </v>
   <v>      -0.00441182      -0.00185454       0.00485937 </v>
   <v>      -0.01014330      -0.00455341       0.01146349 </v>
   <v>      -0.01341203       0.00177841       0.00251937 </v>
   <v>       0.00745494       0.01429475       0.00057251 </v>
   <v>      -0.00882456       0.01660739       0.01263095 </v>
   <v>      -0.00959897       0.00435596       0.00584526 </v>
   <v>      -0.01070634       0.00409586      -0.00698604 </v>
   <v>       0.00102883      -0.00628929       0.00630306 </v>
   <v>       0.01061042       0.02033473      -0.00173320 </v>
   <v>      -0.01614494       0.01337027      -0.01142269 </v>
   <v>       0.00070465      -0.00900209      -0.01081726 </v>
[...]
       <r>   -17.6733     0.0000    32.0000 </r>
       <r>   -17.5194     0.0000    32.0000 </r>
       <r>   -17.3655     0.0000    32.0000 </r>
       <r>   -17.2116     0.0000    32.0000 </r>
       <r>   -17.0577     0.0000    32.0000 </r>
       <r>   -16.9039     0.0000    32.0000 </r>
       <r>   -16.7500     0.0000    32.0000 </r>
       <r>   -16.5961     0.0000    32.0000 </r>
       <r>   -16.4422     0.0000    32.0000 </r>
       <r>   -16.2883     0.0000    32.0000 </r>
       <r>   -16.1344     0.0000    32.0000 </r>
       <r>   -15.9805     0.0000    32.0000 </r>
       <r>   -15.8267     0.0000    32.0000 </r>
       <r>   -15.6728     0.0000    32.0000 </r>
       <r>   -15.5189     0.0000    32.0000 </r>
       <r>   -15.3650     0.0238    32.0037 </r>
       <r>   -15.2111     7.1039    33.0968 </r>
       <r>   -15.0572    25.4835    37.0184 </r>
       <r>   -14.9033    43.0118    43.6373 </r>
       <r>   -14.7495    44.6895    50.5143 </r>
       <r>   -14.5956    38.4666    56.4337 </r>
       <r>   -14.4417    32.3013    61.4044 </r>
       <r>   -14.2878    58.9074    70.4694 </r>
       <r>   -14.1339    76.7415    82.2788 </r>
       <r>   -13.9800    75.3292    93.8708 </r>
       <r>   -13.8261    63.1621   103.5906 </r>
       <r>   -13.6723    51.0728   111.4499 </r>
       <r>   -13.5184    23.1449   115.0116 </r>
       <r>   -13.3645     6.4228   115.9999 </r>
       <r>   -13.2106     0.0004   116.0000 </r>
       <r>   -13.0567     0.0000   116.0000 </r>
       <r>   -12.9028     0.0000   116.0000 </r>
       <r>   -12.7490     2.0690   116.3184 </r>
       <r>   -12.5951    60.9819   125.7026 </r>
       <r>   -12.4412   127.4087   145.3089 </r>
       <r>   -12.2873   123.7135   164.3466 </r>
       <r>   -12.1334   108.1889   180.9953 </r>
       <r>   -11.9795    89.0641   194.7009 </r>
       <r>   -11.8256    65.6439   204.8025 </r>
       <r>   -11.6718    40.2832   211.0015 </r>
       <r>   -11.5179     6.4883   212.0000 </r>
       <r>   -11.3640     0.0000   212.0000 </r>
       <r>   -11.2101     0.0000   212.0000 </r>
       <r>   -11.0562     0.0000   212.0000 </r>
       <r>   -10.9023     0.0000   212.0000 </r>
       <r>   -10.7484     0.0000   212.0000 </r>
       <r>   -10.5946     0.0000   212.0000 </r>
       <r>   -10.4407     0.0000   212.0000 </r>
       <r>   -10.2868     0.0000   212.0000 </r>
       <r>   -10.1329     0.0000   212.0000 </r>
       <r>    -9.9790     0.0000   212.0000 </r>
       <r>    -9.8251     0.0000   212.0000 </r>
       <r>    -9.6712     0.0000   212.0000 </r>
       <r>    -9.5174     0.0000   212.0000 </r>
       <r>    -9.3635     0.0000   212.0000 </r>
       <r>    -9.2096     0.0000   212.0000 </r>
       <r>    -9.0557     0.0000   212.0000 </r>
       <r>    -8.9018     0.0000   212.0000 </r>
       <r>    -8.7479     0.0000   212.0000 </r>
       <r>    -8.5941     0.0000   212.0000 </r>
       <r>    -8.4402     0.0000   212.0000 </r>
       <r>    -8.2863     0.0000   212.0000 </r>
       <r>    -8.1324     0.0000   212.0000 </r>
       <r>    -7.9785     0.0000   212.0000 </r>
       <r>    -7.8246     0.0000   212.0000 </r>
       <r>    -7.6707     0.0000   212.0000 </r>
       <r>    -7.5169     0.0000   212.0000 </r>
       <r>    -7.3630     0.0000   212.0000 </r>
       <r>    -7.2091     0.0000   212.0000 </r>
       <r>    -7.0552     0.0000   212.0000 </r>
       <r>    -6.9013     0.0000   212.0000 </r>
       <r>    -6.7474     0.0000   212.0000 </r>
       <r>    -6.5935     0.0000   212.0000 </r>
       <r>    -6.4397     0.0000   212.0000 </r>
       <r>    -6.2858     0.0000   212.0000 </r>
       <r>    -6.1319     0.0000   212.0000 </r>
       <r>    -5.9780     0.0000   212.0000 </r>
       <r>    -5.8241     0.0000   212.0000 </r>
       <r>    -5.6702     0.0000   212.0000 </r>
       <r>    -5.5163     0.0000   212.0000 </r>
       <r>    -5.3625     0.0000   212.0000 </r>
       <r>    -5.2086     0.0000   212.0000 </r>
       <r>    -5.0547     0.0000   212.0000 </r>
       <r>    -4.9008     0.0000   212.0000 </r>
       <r>    -4.7469     0.0000   212.0000 </r>
       <r>    -4.5930     0.0000   212.0000 </r>
       <r>    -4.4391     0.0000   212.0000 </r>
       <r>    -4.2853     0.0000   212.0000 </r>
       <r>    -4.1314     0.0000   212.0000 </r>
       <r>    -3.9775     0.0000   212.0000 </r>
       <r>    -3.8236     0.0000   212.0000 </r>
       <r>    -3.6697     0.0000   212.0000 </r>
       <r>    -3.5158     0.0000   212.0000 </r>
       <r>    -3.3620     0.0000   212.0000 </r>
       <r>    -3.2081     0.0000   212.0000 </r>
       <r>    -3.0542     0.0000   212.0000 </r>
       <r>    -2.9003     0.0000   212.0000 </r>
       <r>    -2.7464     0.0224   212.0035 </r>
       <r>    -2.5925     7.2212   213.1147 </r>
       <r>    -2.4386     6.2138   214.0709 </r>
       <r>    -2.2848    16.3736   216.5905 </r>
       <r>    -2.1309    20.7564   219.7846 </r>
       <r>    -1.9770    19.9261   222.8510 </r>
       <r>    -1.8231    26.1622   226.8770 </r>
       <r>    -1.6692    31.1779   231.6748 </r>
       <r>    -1.5153    31.7583   236.5619 </r>
       <r>    -1.3614    43.8986   243.3172 </r>
       <r>    -1.2076    60.8781   252.6855 </r>
       <r>    -1.0537    72.9709   263.9146 </r>
       <r>    -0.8998    74.0927   275.3164 </r>
       <r>    -0.7459    86.0558   288.5591 </r>
       <r>    -0.5920    93.5946   302.9619 </r>
       <r>    -0.4381    80.3485   315.3264 </r>
       <r>    -0.2842    62.0769   324.8791 </r>
       <r>    -0.1304    58.7098   333.9137 </r>
       <r>     0.0235    62.7272   343.5664 </r>
       <r>     0.1774    66.6957   353.8299 </r>
       <r>     0.3313    64.2088   363.7107 </r>
       <r>     0.4852    60.0043   372.9445 </r>
       <r>     0.6391    57.5525   381.8010 </r>
       <r>     0.7929    57.7858   390.6933 </r>
       <r>     0.9468    56.7181   399.4214 </r>
       <r>     1.1007    62.8909   409.0994 </r>
       <r>     1.2546    68.5724   419.6517 </r>
       <r>     1.4085    75.3895   431.2530 </r>
       <r>     1.5624    77.1820   443.1302 </r>
       <r>     1.7163    67.4943   453.5166 </r>
       <r>     1.8701    30.4432   458.2013 </r>
       <r>     2.0240    14.5046   460.4334 </r>
       <r>     2.1779    21.5460   463.7490 </r>
       <r>     2.3318     1.6313   464.0000 </r>
       <r>     2.4857     0.0000   464.0000 </r>
       <r>     2.6396     0.0000   464.0000 </r>
       <r>     2.7935     0.0000   464.0000 </r>
       <r>     2.9473     0.0000   464.0000 </r>
       <r>     3.1012     0.0000   464.0000 </r>
       <r>     3.2551     0.0000   464.0000 </r>
       <r>     3.4090     0.0000   464.0000 </r>
       <r>     3.5629     0.0000   464.0000 </r>
       <r>     3.7168     0.0000   464.0000 </r>
       <r>     3.8707     0.0000   464.0000 </r>
       <r>     4.0245     0.0000   464.0000 </r>
       <r>     4.1784     3.8927   464.5990 </r>
       <r>     4.3323    43.9333   471.3597 </r>
       <r>     4.4862    75.5031   482.9785 </r>
       <r>     4.6401    70.9395   493.8951 </r>
       <r>     4.7940    72.6321   505.0721 </r>
       <r>     4.9478    74.3755   516.5174 </r>
       <r>     5.1017    76.7512   528.3282 </r>
       <r>     5.2556    81.3796   540.8513 </r>
       <r>     5.4095    77.4835   552.7749 </r>
       <r>     5.5634    84.1744   565.7281 </r>
       <r>     5.7173    90.1933   579.6075 </r>
       <r>     5.8712    83.5702   592.4677 </r>
       <r>     6.0250    54.8893   600.9144 </r>
       <r>     6.1789    24.6553   604.7085 </r>
       <r>     6.3328     9.2697   606.1350 </r>
       <r>     6.4867     6.3696   607.1151 </r>
       <r>     6.6406     5.7765   608.0041 </r>
       <r>     6.7945     6.5861   609.0176 </r>
       <r>     6.9484     8.9540   610.3954 </r>
       <r>     7.1022    16.8901   612.9946 </r>
       <r>     7.2561    13.0583   615.0041 </r>
       <r>     7.4100    14.5931   617.2497 </r>
       <r>     7.5639    21.4451   620.5498 </r>
       <r>     7.7178    18.9838   623.4711 </r>
       <r>     7.8717    22.6850   626.9620 </r>
       <r>     8.0256    17.0014   629.5783 </r>
       <r>     8.1794    20.8723   632.7902 </r>
       <r>     8.3333    26.2813   636.8345 </r>
       <r>     8.4872    20.2090   639.9444 </r>
       <r>     8.6411    17.3544   642.6150 </r>
       <r>     8.7950    25.6014   646.5547 </r>
       <r>     8.9489    31.1137   651.3426 </r>
       <r>     9.1028    37.8305   657.1642 </r>
       <r>     9.2566    42.2826   663.6708 </r>
       <r>     9.4105    45.4090   670.6586 </r>
       <r>     9.5644    50.6254   678.4491 </r>
       <r>     9.7183    42.9826   685.0635 </r>
       <r>     9.8722    45.0033   691.9889 </r>
       <r>    10.0261    50.0509   699.6910 </r>
       <r>    10.1799    51.5948   707.6306 </r>
       <r>    10.3338    51.9028   715.6177 </r>
       <r>    10.4877    54.3927   723.9879 </r>
       <r>    10.6416    47.8451   731.3506 </r>
       <r>    10.7955    48.8846   738.8732 </r>
       <r>    10.9494    56.1429   747.5128 </r>
       <r>    11.1033    54.4734   755.8954 </r>
       <r>    11.2571    56.2773   764.5557 </r>
       <r>    11.4110    22.3672   767.9977 </r>
       <r>    11.5649     0.0152   768.0000 </r>
       <r>    11.7188     0.0000   768.0000 </r>
       <r>    11.8727     0.0000   768.0000 </r>
       <r>    12.0266     0.0000   768.0000 </r>
       <r>    12.1805     0.0000   768.0000 </r>
       <r>    12.3343     0.0000   768.0000 </r>
       <r>    12.4882     0.0000   768.0000 </r>
       <r>    12.6421     0.0000   768.0000 </r>
       <r>    12.7960     0.0000   768.0000 </r>
       <r>    12.9499     0.0000   768.0000 </r>
       <r>    13.1038     0.0000   768.0000 </r>
       <r>    13.2577     0.0000   768.0000 </r>
       <r>    13.4115     0.0000   768.0000 </r>
      </set>
     </set>
    </array>
   </total>
  </dos>
 </calculation>
 <structure name="finalpos" >
  <crystal>
   <varray name="basis" >
    <v>      11.20967689       0.00317122      -0.00153901 </v>
    <v>       0.00341468      11.38244255      -0.00361840 </v>
    <v>      -0.00211171      -0.00483383      15.82221186 </v>
   </varray>
   <i name="volume">   2018.81103692 </i>
   <varray name="rec_basis" >
    <v>       0.08920865      -0.00002676       0.00001190 </v>
    <v>      -0.00002485       0.08785462       0.00002684 </v>
    <v>       0.00000867       0.00002009       0.06320230 </v>
   </varray>
  </crystal>
  <varray name="positions" >
   <v>       0.98836297       0.23725910       0.11225299 </v>
   <v>       0.00098144       0.24947636       0.61585552 </v>
   <v>       0.99512563       0.75323615       0.10650867 </v>
   <v>       0.01449277       0.73712388       0.62200823 </v>
   <v>       0.50797621       0.23592077       0.11961232 </v>
   <v>       0.49672686       0.24801490       0.60894977 </v>
   <v>       0.49565698       0.75329115       0.11384014 </v>
   <v>       0.48546747       0.73574224       0.61643632 </v>
   <v>       0.99290696       0.23841327       0.38649648 </v>
   <v>       0.99192551       0.25427935       0.88664675 </v>
   <v>       0.99457702       0.74761519       0.39207509 </v>
   <v>       0.00669624       0.73478267       0.87815154 </v>
   <v>       0.50465787       0.23753651       0.38059669 </v>
   <v>       0.49848032       0.25275967       0.89355089 </v>
   <v>       0.51124521       0.74438022       0.38302213 </v>
   <v>       0.48954307       0.73288471       0.88414662 </v>
   <v>       0.23799920       0.00452563       0.10868111 </v>
   <v>       0.25063864       0.99142492       0.61587595 </v>
   <v>       0.24404873       0.51286075       0.11059833 </v>
   <v>       0.25317050       0.51695073       0.62199091 </v>
   <v>       0.75470770       0.01217675       0.11703638 </v>
   <v>       0.74546794       0.01440958       0.61179225 </v>
   <v>       0.75222515       0.49913518       0.11556600 </v>
   <v>       0.74195621       0.50023504       0.60974216 </v>
   <v>       0.24207544       0.00601714       0.39035891 </v>
   <v>       0.25354580       0.00049922       0.88372943 </v>
   <v>       0.24468342       0.50787502       0.39032262 </v>
   <v>       0.25392064       0.51261889       0.87850488 </v>
   <v>       0.75275361       0.01457796       0.38042012 </v>
   <v>       0.74281317       0.01829530       0.88962987 </v>
   <v>       0.75003041       0.49224277       0.38417755 </v>
   <v>       0.73881414       0.50035363       0.89325270 </v>
   <v>       0.24551790       0.75270591       0.99804164 </v>
   <v>       0.24331251       0.24991184       0.00178340 </v>
   <v>       0.99549404       0.50016261       0.50330760 </v>
   <v>       0.74309128       0.75070001       0.99554353 </v>
   <v>       0.49605880       0.99849299       0.49746486 </v>
   <v>       0.99537884       0.99803743       0.50378821 </v>
   <v>       0.49563128       0.49795743       0.49729589 </v>
   <v>       0.75763117       0.24238287       0.25017116 </v>
   <v>       0.74401608       0.74731301       0.52026054 </v>
   <v>       0.99363473       0.50158990       0.99298093 </v>
   <v>       0.49493556       0.00253740       0.00660478 </v>
   <v>       0.02302702       0.48768827       0.74963639 </v>
   <v>       0.49530235       0.49952440       0.00484875 </v>
   <v>       0.25133806       0.28683944       0.24771838 </v>
   <v>       0.74535028       0.25261836       0.00228576 </v>
   <v>       0.24510377       0.24630029       0.50388223 </v>
   <v>       0.99328762       0.00164088       0.99352550 </v>
   <v>       0.24773723       0.74993106       0.49863818 </v>
   <v>       0.74688662       0.25006490       0.49990763 </v>
   <v>       0.99499860       0.97987614       0.24822965 </v>
   <v>       0.26863626       0.27467606       0.75181410 </v>
   <v>       0.25676335       0.79959934       0.25028778 </v>
   <v>       0.25791567       0.74557253       0.74933049 </v>
   <v>       0.52258390       0.98510635       0.25060095 </v>
   <v>       0.75648048       0.30045662       0.75010903 </v>
   <v>       0.76681394       0.77497389       0.24110321 </v>
   <v>       0.75274604       0.78888124       0.75284258 </v>
   <v>       0.01119876       0.96449300       0.74971072 </v>
   <v>       0.00849160       0.47115481       0.25325365 </v>
   <v>       0.50912874       0.97092350       0.74767249 </v>
   <v>       0.51109939       0.46219504       0.25103835 </v>
   <v>       0.49595534       0.48091500       0.75194802 </v>
   <v>       0.99734749       0.99706646       0.12380848 </v>
   <v>       0.98901310       0.02157844       0.63796042 </v>
   <v>       0.97920795       0.54000037       0.14906673 </v>
   <v>       0.98636923       0.50851955       0.62880565 </v>
   <v>       0.48264974       0.00706604       0.13331808 </v>
   <v>       0.49119152       0.01777654       0.63069893 </v>
   <v>       0.48483899       0.53392365       0.14704090 </v>
   <v>       0.49880879       0.49686158       0.62130252 </v>
   <v>       0.99596768       0.99624414       0.37922840 </v>
   <v>       0.98451202       0.03326169       0.85478789 </v>
   <v>       0.99100496       0.51565010       0.37049383 </v>
   <v>       0.98422315       0.50624681       0.86795183 </v>
   <v>       0.48980180       0.00706008       0.37123763 </v>
   <v>       0.48007414       0.03948780       0.85221057 </v>
   <v>       0.48818578       0.51432043       0.36396124 </v>
   <v>       0.49771913       0.49732779       0.87743975 </v>
   <v>       0.22162916       0.22327630       0.35458453 </v>
   <v>       0.24695769       0.23569062       0.86834794 </v>
   <v>       0.22537819       0.73473997       0.35879139 </v>
   <v>       0.25337179       0.74442115       0.87599571 </v>
   <v>       0.75543056       0.24732407       0.37517181 </v>
   <v>       0.73228860       0.24445197       0.86178092 </v>
   <v>       0.72777424       0.69057823       0.33367756 </v>
   <v>       0.72518804       0.72708663       0.86126372 </v>
   <v>       0.22473564       0.23022138       0.13612784 </v>
   <v>       0.24623487       0.21574757       0.64121256 </v>
   <v>       0.23382974       0.74726301       0.13533135 </v>
   <v>       0.25379406       0.74789993       0.62390062 </v>
   <v>       0.75446034       0.24329858       0.12762015 </v>
   <v>       0.72893226       0.23765247       0.63996527 </v>
   <v>       0.74727826       0.74285563       0.12420185 </v>
   <v>       0.72127319       0.72325650       0.64433254 </v>
   <v>       0.17755242       0.43881130       0.24960829 </v>
   <v>       0.41560579       0.32302350       0.24913872 </v>
   <v>       0.66929401       0.40228882       0.24869548 </v>
   <v>       0.92000299       0.33240201       0.25030069 </v>
   <v>       0.17122916       0.94700420       0.25078319 </v>
   <v>       0.42222259       0.83310708       0.25294476 </v>
   <v>       0.67275043       0.91026172       0.25154986 </v>
   <v>       0.93103584       0.82215439       0.25161568 </v>
   <v>       0.12288882       0.11976409       0.50365282 </v>
   <v>       0.37374744       0.12813254       0.49617937 </v>
   <v>       0.62423732       0.11967656       0.49757779 </v>
   <v>       0.87459630       0.12743940       0.50409787 </v>
   <v>       0.11832002       0.37156844       0.50183932 </v>
   <v>       0.36613901       0.37410452       0.49614157 </v>
   <v>       0.61773968       0.37181200       0.49355677 </v>
   <v>       0.87057470       0.37674918       0.50407587 </v>
   <v>       0.12360207       0.61968619       0.50213158 </v>
   <v>       0.37493038       0.62661525       0.49521970 </v>
   <v>       0.62430093       0.62030077       0.49749928 </v>
   <v>       0.87161298       0.63020036       0.50320156 </v>
   <v>       0.11775011       0.87328131       0.50641605 </v>
   <v>       0.37061762       0.87739950       0.49603945 </v>
   <v>       0.61972719       0.87065275       0.50120274 </v>
   <v>       0.86557888       0.87470230       0.50895043 </v>
   <v>       0.17114060       0.40643420       0.74735508 </v>
   <v>       0.43193920       0.32191805       0.74947694 </v>
   <v>       0.67146553       0.44817851       0.74992838 </v>
   <v>       0.92146191       0.33576585       0.74767635 </v>
   <v>       0.17031568       0.90969334       0.75121916 </v>
   <v>       0.42213798       0.83265473       0.75085989 </v>
   <v>       0.67919183       0.93920371       0.75052134 </v>
   <v>       0.91587331       0.82443821       0.74929015 </v>
   <v>       0.12290448       0.12349601       0.99516672 </v>
   <v>       0.37053771       0.13128867       0.00443048 </v>
   <v>       0.62198241       0.12113860       0.00224390 </v>
   <v>       0.87266481       0.12976822       0.99662518 </v>
   <v>       0.11747102       0.37376031       0.00335205 </v>
   <v>       0.36381606       0.37633401       0.00944263 </v>
   <v>       0.61749565       0.37484263       0.01177194 </v>
   <v>       0.86941739       0.38010959       0.00244984 </v>
   <v>       0.12312504       0.62324174       0.99948299 </v>
   <v>       0.37171526       0.63070659       0.00463198 </v>
   <v>       0.62231297       0.62392472       0.00381198 </v>
   <v>       0.87131026       0.63206882       0.99432117 </v>
   <v>       0.11760851       0.87358889       0.99028703 </v>
   <v>       0.36729415       0.87903719       0.00033924 </v>
   <v>       0.61496468       0.87292185       0.99349077 </v>
   <v>       0.86400169       0.87689122       0.98759681 </v>
   <v>       0.61311402       0.14422916       0.25228931 </v>
   <v>       0.86860844       0.10103353       0.25196568 </v>
   <v>       0.11105007       0.64180717       0.74965382 </v>
   <v>       0.37233017       0.60009363       0.74882602 </v>
  </varray>
 </structure>
</modeling>
