<?xml version="1.0" encoding="ISO-8859-1"?>
<modeling>
 <generator>
  <i name="program" type="string">vasp </i>
  <i name="version" type="string">5.4.1  </i>
  <i name="subversion" type="string">05Feb16 (build Jan 25 2017 20:16:33) complex                          parallel </i>
  <i name="platform" type="string">BWXE6 </i>
  <i name="date" type="string">2019 06 20 </i>
  <i name="time" type="string">10:54:58 </i>
 </generator>
 <incar>
  <i type="string" name="SYSTEM"> STF</i>
  <i type="string" name="PREC">normal</i>
  <i type="string" name="ALGO"> Fast</i>
  <i type="int" name="ISPIN">     2</i>
  <i type="int" name="NELM">    40</i>
  <i type="int" name="NELMIN">     8</i>
  <i type="int" name="IBRION">     2</i>
  <i name="EDIFF">      0.00010000</i>
  <i name="EDIFFG">     -0.03000000</i>
  <i type="int" name="NSW">    30</i>
  <i type="int" name="ISIF">     3</i>
  <i name="ENCUT">    520.00000000</i>
  <i type="int" name="NBANDS">   768</i>
  <v name="MAGMOM">      0.60000000      0.60000000      0.60000000      0.60000000      0.60000000      0.60000000      0.60000000      0.60000000      0.60000000      0.60000000      0.60000000      0.60000000      0.60000000      0.60000000      0.60000000      0.60000000      0.60000000      0.60000000      0.60000000      0.60000000
      0.60000000      0.60000000      0.60000000      0.60000000      0.60000000      0.60000000      0.60000000      0.60000000      0.60000000      0.60000000      0.60000000      0.60000000      0.60000000      0.60000000      0.60000000      0.60000000      0.60000000      0.60000000      0.60000000      0.60000000
      0.60000000      0.60000000      0.60000000      0.60000000      0.60000000      0.60000000      0.60000000      0.60000000      0.60000000      0.60000000      0.60000000      0.60000000      0.60000000      0.60000000      0.60000000      0.60000000      0.60000000      0.60000000      0.60000000      0.60000000
      5.00000000      5.00000000      5.00000000      5.00000000      0.60000000      0.60000000      0.60000000      0.60000000      0.60000000      0.60000000      0.60000000      0.60000000      0.60000000      0.60000000      0.60000000      0.60000000      0.60000000      0.60000000      0.60000000      0.60000000
      0.60000000      0.60000000      0.60000000      0.60000000      0.60000000      0.60000000      0.60000000      0.60000000      0.60000000      0.60000000      0.60000000      0.60000000      0.60000000      0.60000000      0.60000000      0.60000000      0.60000000      0.60000000      0.60000000      0.60000000
      0.60000000      0.60000000      0.60000000      0.60000000      0.60000000      0.60000000      0.60000000      0.60000000      0.60000000      0.60000000      0.60000000      0.60000000      0.60000000      0.60000000      0.60000000      0.60000000      0.60000000      0.60000000      0.60000000      0.60000000
      0.60000000      0.60000000      0.60000000      0.60000000      0.60000000      0.60000000      0.60000000      0.60000000      0.60000000      0.60000000      0.60000000      0.60000000      0.60000000      0.60000000      0.60000000      0.60000000      0.60000000      0.60000000      0.60000000      0.60000000
      0.60000000      0.60000000      0.60000000      0.60000000      0.60000000      0.60000000      0.60000000      0.60000000      0.60000000      0.60000000      0.60000000      0.60000000      0.60000000      0.60000000      0.60000000      0.60000000      0.60000000      0.60000000</v>
  <i type="string" name="LREAL"> Auto</i>
  <i type="int" name="ISMEAR">     0</i>
  <i name="SIGMA">      0.05000000</i>
  <i type="int" name="LMAXMIX">     4</i>
  <v type="int" name="KPOINT_BSE">    -1     0     0     0</v>
  <i type="int" name="NELM">    40</i>
  <i type="logical" name="LDAU"> T  </i>
  <v type="int" name="LDAUTYPE">     2</v>
  <v type="int" name="LDAUL">     0     2     2     0</v>
  <v name="LDAUU">      0.00000000      3.00000000      5.00000000      0.00000000</v>
  <v name="LDAUJ">      0.00000000      0.00000000      0.00000000      0.00000000</v>
  <i type="int" name="LDAUPRINT">     1</i>
 </incar>
 <kpoints>
  <generation param="Monkhorst-Pack">
   <v type="int" name="divisions">       2        2        2 </v>
   <v name="usershift">      0.00000000       0.00000000       0.00000000 </v>
   <v name="genvec1">      0.50000000      -0.00000000      -0.00000000 </v>
   <v name="genvec2">      0.00000000       0.50000000       0.00000000 </v>
   <v name="genvec3">      0.00000000       0.00000000       0.50000000 </v>
   <v name="shift">      0.50000000       0.50000000       0.50000000 </v>
  </generation>
  <varray name="kpointlist" >
   <v>       0.25000000       0.25000000       0.25000000 </v>
   <v>      -0.25000000       0.25000000       0.25000000 </v>
   <v>       0.25000000      -0.25000000       0.25000000 </v>
   <v>      -0.25000000      -0.25000000       0.25000000 </v>
  </varray>
  <varray name="weights" >
   <v>       0.25000000 </v>
   <v>       0.25000000 </v>
   <v>       0.25000000 </v>
   <v>       0.25000000 </v>
  </varray>
 </kpoints>
 <parameters>
  <separator name="general" >
   <i type="string" name="SYSTEM">STF</i>
   <i type="logical" name="LCOMPAT"> F  </i>
  </separator>
  <separator name="electronic" >
   <i type="string" name="PREC">normal</i>
   <i name="ENMAX">    520.00000000</i>
   <i name="ENAUG">    605.39200000</i>
   <i name="EDIFF">      0.00010000</i>
   <i type="int" name="IALGO">    68</i>
   <i type="int" name="IWAVPR">    11</i>
   <i type="int" name="NBANDS">   768</i>
   <i name="NELECT">   1028.00000000</i>
   <i type="int" name="TURBO">     0</i>
   <i type="int" name="IRESTART">     0</i>
   <i type="int" name="NREBOOT">     0</i>
   <i type="int" name="NMIN">     0</i>
   <i name="EREF">      0.00000000</i>
   <separator name="electronic smearing" >
    <i type="int" name="ISMEAR">     0</i>
    <i name="SIGMA">      0.05000000</i>
    <i name="KSPACING">      0.50000000</i>
    <i type="logical" name="KGAMMA"> T  </i>
   </separator>
   <separator name="electronic projectors" >
    <i type="logical" name="LREAL"> T  </i>
    <v name="ROPT">     -0.00050000     -0.00050000     -0.00050000     -0.00050000</v>
    <i type="int" name="LMAXPAW">  -100</i>
    <i type="int" name="LMAXMIX">     4</i>
    <i type="logical" name="NLSPLINE"> F  </i>
   </separator>
   <separator name="electronic startup" >
    <i type="int" name="ISTART">     1</i>
    <i type="int" name="ICHARG">     0</i>
    <i type="int" name="INIWAV">     1</i>
   </separator>
   <separator name="electronic spin" >
    <i type="int" name="ISPIN">     2</i>
    <i type="logical" name="LNONCOLLINEAR"> F  </i>
    <v name="MAGMOM">      0.60000000      0.60000000      0.60000000      0.60000000      0.60000000      0.60000000      0.60000000      0.60000000      0.60000000      0.60000000      0.60000000      0.60000000      0.60000000      0.60000000      0.60000000      0.60000000      0.60000000      0.60000000      0.60000000      0.60000000
      0.60000000      0.60000000      0.60000000      0.60000000      0.60000000      0.60000000      0.60000000      0.60000000      0.60000000      0.60000000      0.60000000      0.60000000      0.60000000      0.60000000      0.60000000      0.60000000      0.60000000      0.60000000      0.60000000      0.60000000
      0.60000000      0.60000000      0.60000000      0.60000000      0.60000000      0.60000000      0.60000000      0.60000000      0.60000000      0.60000000      0.60000000      0.60000000      0.60000000      0.60000000      0.60000000      0.60000000      0.60000000      0.60000000      0.60000000      0.60000000
      5.00000000      5.00000000      5.00000000      5.00000000      0.60000000      0.60000000      0.60000000      0.60000000      0.60000000      0.60000000      0.60000000      0.60000000      0.60000000      0.60000000      0.60000000      0.60000000      0.60000000      0.60000000      0.60000000      0.60000000
      0.60000000      0.60000000      0.60000000      0.60000000      0.60000000      0.60000000      0.60000000      0.60000000      0.60000000      0.60000000      0.60000000      0.60000000      0.60000000      0.60000000      0.60000000      0.60000000      0.60000000      0.60000000      0.60000000      0.60000000
      0.60000000      0.60000000      0.60000000      0.60000000      0.60000000      0.60000000      0.60000000      0.60000000      0.60000000      0.60000000      0.60000000      0.60000000      0.60000000      0.60000000      0.60000000      0.60000000      0.60000000      0.60000000      0.60000000      0.60000000
      0.60000000      0.60000000      0.60000000      0.60000000      0.60000000      0.60000000      0.60000000      0.60000000      0.60000000      0.60000000      0.60000000      0.60000000      0.60000000      0.60000000      0.60000000      0.60000000      0.60000000      0.60000000      0.60000000      0.60000000
      0.60000000      0.60000000      0.60000000      0.60000000      0.60000000      0.60000000      0.60000000      0.60000000      0.60000000      0.60000000      0.60000000      0.60000000      0.60000000      0.60000000      0.60000000      0.60000000      0.60000000      0.60000000</v>
    <i name="NUPDOWN">     -1.00000000</i>
    <i type="logical" name="LSORBIT"> F  </i>
    <v name="SAXIS">      0.00000000      0.00000000      1.00000000</v>
    <i type="logical" name="LSPIRAL"> F  </i>
    <v name="QSPIRAL">      0.00000000      0.00000000      0.00000000</v>
    <i type="logical" name="LZEROZ"> F  </i>
   </separator>
   <separator name="electronic exchange-correlation" >
    <i type="logical" name="LASPH"> F  </i>
    <i type="logical" name="LMETAGGA"> F  </i>
   </separator>
   <separator name="electronic convergence" >
    <i type="int" name="NELM">    40</i>
    <i type="int" name="NELMDL">     0</i>
    <i type="int" name="NELMIN">     8</i>
    <i name="ENINI">    520.00000000</i>
    <separator name="electronic convergence detail" >
     <i type="logical" name="LDIAG"> T  </i>
     <i type="logical" name="LSUBROT"> F  </i>
     <i name="WEIMIN">      0.00100000</i>
     <i name="EBREAK">      0.00000003</i>
     <i name="DEPER">      0.30000000</i>
     <i type="int" name="NRMM">     4</i>
     <i name="TIME">      0.40000000</i>
    </separator>
   </separator>
   <separator name="electronic mixer" >
    <i name="AMIX">      0.40000000</i>
    <i name="BMIX">      1.00000000</i>
    <i name="AMIN">      0.10000000</i>
    <i name="AMIX_MAG">      1.60000000</i>
    <i name="BMIX_MAG">      1.00000000</i>
    <separator name="electronic mixer details" >
     <i type="int" name="IMIX">     4</i>
     <i type="logical" name="MIXFIRST"> F  </i>
     <i type="int" name="MAXMIX">   -45</i>
     <i name="WC">    100.00000000</i>
     <i type="int" name="INIMIX">     1</i>
     <i type="int" name="MIXPRE">     1</i>
     <i type="int" name="MREMOVE">     5</i>
    </separator>
   </separator>
   <separator name="electronic dipolcorrection" >
    <i type="logical" name="LDIPOL"> F  </i>
    <i type="logical" name="LMONO"> F  </i>
    <i type="int" name="IDIPOL">     0</i>
    <i name="EPSILON">      1.00000000</i>
    <v name="DIPOL">   -100.00000000   -100.00000000   -100.00000000</v>
    <i name="EFIELD">      0.00000000</i>
   </separator>
  </separator>
  <separator name="grids" >
   <i type="int" name="NGX">    64</i>
   <i type="int" name="NGY">    64</i>
   <i type="int" name="NGZ">    90</i>
   <i type="int" name="NGXF">   128</i>
   <i type="int" name="NGYF">   128</i>
   <i type="int" name="NGZF">   180</i>
   <i type="logical" name="ADDGRID"> F  </i>
  </separator>
  <separator name="ionic" >
   <i type="int" name="NSW">    30</i>
   <i type="int" name="IBRION">     2</i>
   <i type="int" name="ISIF">     3</i>
   <i name="PSTRESS">      0.00000000</i>
   <i name="EDIFFG">     -0.03000000</i>
   <i type="int" name="NFREE">     1</i>
   <i name="POTIM">      0.50000000</i>
   <i name="SMASS">     -3.00000000</i>
   <i name="SCALEE">      1.00000000</i>
  </separator>
  <separator name="ionic md" >
   <i name="TEBEG">      0.00010000</i>
   <i name="TEEND">      0.00010000</i>
   <i type="int" name="NBLOCK">     1</i>
   <i type="int" name="KBLOCK">    30</i>
   <i type="int" name="NPACO">   256</i>
   <i name="APACO">     16.00000000</i>
  </separator>
  <separator name="symmetry" >
   <i type="int" name="ISYM">     2</i>
   <i name="SYMPREC">      0.00001000</i>
  </separator>
  <separator name="dos" >
   <i type="logical" name="LORBIT"> F  </i>
   <v name="RWIGS">     -1.00000000     -1.00000000     -1.00000000     -1.00000000</v>
   <i type="int" name="NEDOS">   301</i>
   <i name="EMIN">     10.00000000</i>
   <i name="EMAX">    -10.00000000</i>
   <i name="EFERMI">      0.00000000</i>
  </separator>
  <separator name="writing" >
   <i type="int" name="NWRITE">     2</i>
   <i type="logical" name="LWAVE"> T  </i>
   <i type="logical" name="LCHARG"> T  </i>
   <i type="logical" name="LPARD"> F  </i>
   <i type="logical" name="LVTOT"> F  </i>
   <i type="logical" name="LVHAR"> F  </i>
   <i type="logical" name="LELF"> F  </i>
   <i type="logical" name="LOPTICS"> F  </i>
   <v name="STM">      0.00000000      0.00000000      0.00000000      0.00000000      0.00000000      0.00000000      0.00000000</v>
  </separator>
  <separator name="performance" >
   <i type="int" name="NPAR">     2</i>
   <i type="int" name="NSIM">     4</i>
   <i type="int" name="NBLK">    -1</i>
   <i type="logical" name="LPLANE"> T  </i>
   <i type="logical" name="LSCALAPACK"> T  </i>
   <i type="logical" name="LSCAAWARE"> F  </i>
   <i type="logical" name="LSCALU"> F  </i>
   <i type="logical" name="LASYNC"> F  </i>
   <i type="logical" name="LORBITALREAL"> F  </i>
  </separator>
  <separator name="miscellaneous" >
   <i type="int" name="IDIOT">     3</i>
   <i type="logical" name="LMUSIC"> F  </i>
   <v name="POMASS">     87.62000000     47.88000000     55.84700000     16.00000000</v>
   <v name="DARWINR">      0.00000000      0.00000000      0.00000000      0.00000000</v>
   <v name="DARWINV">      1.00000000      1.00000000      1.00000000      1.00000000</v>
   <i type="logical" name="LCORR"> T  </i>
  </separator>
  <i type="logical" name="GGA_COMPAT"> T  </i>
  <i type="logical" name="LBERRY"> F  </i>
  <i type="int" name="ICORELEVEL">     0</i>
  <i type="logical" name="LDAU"> T  </i>
  <v type="int" name="LDAUTYPE">     2</v>
  <v type="int" name="LDAUL">     0</v>
  <v name="LDAUU">      0.00000000</v>
  <v name="LDAUJ">      0.00000000</v>
  <i type="int" name="LDAUPRINT">     1</i>
  <i type="int" name="I_CONSTRAINED_M">     0</i>
  <separator name="electronic exchange-correlation" >
   <i type="string" name="GGA">--</i>
   <i type="int" name="VOSKOWN">     0</i>
   <i type="logical" name="LHFCALC"> F  </i>
   <i type="string" name="PRECFOCK"></i>
   <i type="logical" name="LSYMGRAD"> F  </i>
   <i type="logical" name="LHFONE"> F  </i>
   <i type="logical" name="LRHFCALC"> F  </i>
   <i type="logical" name="LTHOMAS"> F  </i>
   <i type="logical" name="LMODELHF"> F  </i>
   <i name="ENCUT4O">     -1.00000000</i>
   <i type="int" name="EXXOEP">     0</i>
   <i type="int" name="FOURORBIT">     0</i>
   <i name="AEXX">      0.00000000</i>
   <i name="HFALPHA">      0.00000000</i>
   <i name="MCALPHA">      0.00000000</i>
   <i name="ALDAX">      1.00000000</i>
   <i name="AGGAX">      1.00000000</i>
   <i name="ALDAC">      1.00000000</i>
   <i name="AGGAC">      1.00000000</i>
   <i type="int" name="NKREDX">     1</i>
   <i type="int" name="NKREDY">     1</i>
   <i type="int" name="NKREDZ">     1</i>
   <i type="logical" name="SHIFTRED"> F  </i>
   <i type="logical" name="ODDONLY"> F  </i>
   <i type="logical" name="EVENONLY"> F  </i>
   <i type="int" name="LMAXFOCK">     0</i>
   <i type="int" name="NMAXFOCKAE">     0</i>
   <i type="logical" name="LFOCKAEDFT"> F  </i>
   <i name="HFSCREEN">      0.00000000</i>
   <i name="HFSCREENC">      0.00000000</i>
   <i type="int" name="NBANDSGWLOW">     0</i>
  </separator>
  <separator name="vdW DFT" >
   <i type="logical" name="LUSE_VDW"> F  </i>
   <i name="Zab_VDW">     -0.84910000</i>
   <i name="PARAM1">      0.12340000</i>
   <i name="PARAM2">      1.00000000</i>
   <i name="PARAM3">      0.00000000</i>
  </separator>
  <separator name="model GW" >
   <i type="int" name="MODEL_GW">     0</i>
   <i name="MODEL_EPS0">      7.61826671</i>
   <i name="MODEL_ALPHA">      1.00000000</i>
  </separator>
  <separator name="linear response parameters" >
   <i type="logical" name="LEPSILON"> F  </i>
   <i type="logical" name="LRPA"> F  </i>
   <i type="logical" name="LNABLA"> F  </i>
   <i type="logical" name="LVEL"> F  </i>
   <i type="int" name="KINTER">     0</i>
   <i name="CSHIFT">      0.10000000</i>
   <i name="OMEGAMAX">     -1.00000000</i>
   <i name="DEG_THRESHOLD">      0.00200000</i>
  </separator>
  <separator name="orbital magnetization" >
   <i type="logical" name="NUCIND"> F  </i>
   <v name="MAGPOS">      0.00000000      0.00000000      0.00000000</v>
   <i type="logical" name="LNICSALL"> T  </i>
   <i type="logical" name="ORBITALMAG"> F  </i>
   <i type="logical" name="LMAGBLOCH"> F  </i>
   <i type="logical" name="LCHIMAG"> F  </i>
   <i type="logical" name="LGAUGE"> T  </i>
   <i type="int" name="MAGATOM">     0</i>
   <v name="MAGDIPOL">      0.00000000      0.00000000      0.00000000</v>
   <v name="AVECCONST">      0.00000000      0.00000000      0.00000000</v>
  </separator>
  <separator name="response functions" >
   <i type="logical" name="LADDER"> F  </i>
   <i type="logical" name="LFXC"> F  </i>
   <i type="logical" name="LHARTREE"> T  </i>
   <i type="int" name="IBSE">     0</i>
   <v type="int" name="KPOINT">    -1     0     0     0</v>
   <i type="logical" name="LTCTE"> F  </i>
   <i type="logical" name="LTETE"> F  </i>
   <i type="logical" name="LTRIPLET"> F  </i>
   <i type="logical" name="LFXCEPS"> F  </i>
   <i type="logical" name="LFXHEG"> F  </i>
   <i type="int" name="NATURALO">     0</i>
   <i type="logical" name="L2ORDER"> F  </i>
   <i type="logical" name="LUSEW"> F  </i>
   <i name="ENCUTGW">     -2.00000000</i>
   <i name="ENCUTGWSOFT">     -2.00000000</i>
   <i name="ENCUTLF">     -1.00000000</i>
   <i type="int" name="LMAXMP2">    -1</i>
   <i name="SCISSOR">      0.00000000</i>
   <i type="int" name="NOMEGA">     0</i>
   <i type="int" name="NOMEGAR">     0</i>
   <i type="int" name="NBANDSGW">    -1</i>
   <i type="int" name="NBANDSO">    -1</i>
   <i type="int" name="NBANDSV">    -1</i>
   <i type="int" name="NELM">    40</i>
   <i type="int" name="NELMHF">     1</i>
   <i type="int" name="DIM">     3</i>
   <i type="int" name="ANTIRES">     0</i>
   <i name="OMEGAMAX">    -30.00000000</i>
   <i name="OMEGAMIN">    -30.00000000</i>
   <i name="OMEGATL">   -200.00000000</i>
   <i type="int" name="OMEGAGRID">     0</i>
   <i name="CSHIFT">     -0.10000000</i>
   <i type="logical" name="SELFENERGY"> F  </i>
   <i type="logical" name="LSPECTRAL"> F  </i>
   <i type="logical" name="LSPECTRALGW"> F  </i>
   <i type="logical" name="LSINGLES"> F  </i>
   <i type="logical" name="LFERMIGW"> F  </i>
   <i type="logical" name="ODDONLYGW"> F  </i>
   <i type="logical" name="EVENONLYGW"> F  </i>
   <i type="int" name="NKREDLFX">     1</i>
   <i type="int" name="NKREDLFY">     1</i>
   <i type="int" name="NKREDLFZ">     1</i>
   <i type="int" name="MAXMEM">  1800</i>
   <i type="int" name="TELESCOPE">     0</i>
   <i type="int" name="TAUPAR">     1</i>
   <i type="int" name="OMEGAPAR">    -1</i>
   <i name="LAMBDA">      1.00000000</i>
  </separator>
  <separator name="External order field" >
   <i name="OFIELD_KAPPA">      0.00000000</i>
   <v name="OFIELD_K">      0.00000000      0.00000000      0.00000000</v>
   <i name="OFIELD_Q6_NEAR">      0.00000000</i>
   <i name="OFIELD_Q6_FAR">      0.00000000</i>
   <i name="OFIELD_A">      0.00000000</i>
  </separator>
 </parameters>
 <atominfo>
  <atoms>     158 </atoms>
  <types>       4 </types>
  <array name="atoms" >
   <dimension dim="1">ion</dimension>
   <field type="string">element</field>
   <field type="int">atomtype</field>
   <set>
    <rc><c>Sr</c><c>   1</c></rc>
    <rc><c>Sr</c><c>   1</c></rc>
    <rc><c>Sr</c><c>   1</c></rc>
    <rc><c>Sr</c><c>   1</c></rc>
    <rc><c>Sr</c><c>   1</c></rc>
    <rc><c>Sr</c><c>   1</c></rc>
    <rc><c>Sr</c><c>   1</c></rc>
    <rc><c>Sr</c><c>   1</c></rc>
    <rc><c>Sr</c><c>   1</c></rc>
    <rc><c>Sr</c><c>   1</c></rc>
    <rc><c>Sr</c><c>   1</c></rc>
    <rc><c>Sr</c><c>   1</c></rc>
    <rc><c>Sr</c><c>   1</c></rc>
    <rc><c>Sr</c><c>   1</c></rc>
    <rc><c>Sr</c><c>   1</c></rc>
    <rc><c>Sr</c><c>   1</c></rc>
    <rc><c>Sr</c><c>   1</c></rc>
    <rc><c>Sr</c><c>   1</c></rc>
    <rc><c>Sr</c><c>   1</c></rc>
    <rc><c>Sr</c><c>   1</c></rc>
    <rc><c>Sr</c><c>   1</c></rc>
    <rc><c>Sr</c><c>   1</c></rc>
    <rc><c>Sr</c><c>   1</c></rc>
    <rc><c>Sr</c><c>   1</c></rc>
    <rc><c>Sr</c><c>   1</c></rc>
    <rc><c>Sr</c><c>   1</c></rc>
    <rc><c>Sr</c><c>   1</c></rc>
    <rc><c>Sr</c><c>   1</c></rc>
    <rc><c>Sr</c><c>   1</c></rc>
    <rc><c>Sr</c><c>   1</c></rc>
    <rc><c>Sr</c><c>   1</c></rc>
    <rc><c>Sr</c><c>   1</c></rc>
    <rc><c>Ti</c><c>   2</c></rc>
    <rc><c>Ti</c><c>   2</c></rc>
    <rc><c>Ti</c><c>   2</c></rc>
    <rc><c>Ti</c><c>   2</c></rc>
    <rc><c>Ti</c><c>   2</c></rc>
    <rc><c>Ti</c><c>   2</c></rc>
    <rc><c>Ti</c><c>   2</c></rc>
    <rc><c>Ti</c><c>   2</c></rc>
    <rc><c>Ti</c><c>   2</c></rc>
    <rc><c>Ti</c><c>   2</c></rc>
    <rc><c>Ti</c><c>   2</c></rc>
    <rc><c>Ti</c><c>   2</c></rc>
    <rc><c>Ti</c><c>   2</c></rc>
    <rc><c>Ti</c><c>   2</c></rc>
    <rc><c>Ti</c><c>   2</c></rc>
    <rc><c>Ti</c><c>   2</c></rc>
    <rc><c>Ti</c><c>   2</c></rc>
    <rc><c>Ti</c><c>   2</c></rc>
    <rc><c>Ti</c><c>   2</c></rc>
    <rc><c>Ti</c><c>   2</c></rc>
    <rc><c>Ti</c><c>   2</c></rc>
    <rc><c>Ti</c><c>   2</c></rc>
    <rc><c>Ti</c><c>   2</c></rc>
    <rc><c>Ti</c><c>   2</c></rc>
    <rc><c>Ti</c><c>   2</c></rc>
    <rc><c>Ti</c><c>   2</c></rc>
    <rc><c>Ti</c><c>   2</c></rc>
    <rc><c>Ti</c><c>   2</c></rc>
    <rc><c>Fe</c><c>   3</c></rc>
    <rc><c>Fe</c><c>   3</c></rc>
    <rc><c>Fe</c><c>   3</c></rc>
    <rc><c>Fe</c><c>   3</c></rc>
    <rc><c>O </c><c>   4</c></rc>
    <rc><c>O </c><c>   4</c></rc>
    <rc><c>O </c><c>   4</c></rc>
    <rc><c>O </c><c>   4</c></rc>
    <rc><c>O </c><c>   4</c></rc>
    <rc><c>O </c><c>   4</c></rc>
    <rc><c>O </c><c>   4</c></rc>
    <rc><c>O </c><c>   4</c></rc>
    <rc><c>O </c><c>   4</c></rc>
    <rc><c>O </c><c>   4</c></rc>
    <rc><c>O </c><c>   4</c></rc>
    <rc><c>O </c><c>   4</c></rc>
    <rc><c>O </c><c>   4</c></rc>
    <rc><c>O </c><c>   4</c></rc>
    <rc><c>O </c><c>   4</c></rc>
    <rc><c>O </c><c>   4</c></rc>
    <rc><c>O </c><c>   4</c></rc>
    <rc><c>O </c><c>   4</c></rc>
    <rc><c>O </c><c>   4</c></rc>
    <rc><c>O </c><c>   4</c></rc>
    <rc><c>O </c><c>   4</c></rc>
    <rc><c>O </c><c>   4</c></rc>
    <rc><c>O </c><c>   4</c></rc>
    <rc><c>O </c><c>   4</c></rc>
    <rc><c>O </c><c>   4</c></rc>
    <rc><c>O </c><c>   4</c></rc>
    <rc><c>O </c><c>   4</c></rc>
    <rc><c>O </c><c>   4</c></rc>
    <rc><c>O </c><c>   4</c></rc>
    <rc><c>O </c><c>   4</c></rc>
    <rc><c>O </c><c>   4</c></rc>
    <rc><c>O </c><c>   4</c></rc>
    <rc><c>O </c><c>   4</c></rc>
    <rc><c>O </c><c>   4</c></rc>
    <rc><c>O </c><c>   4</c></rc>
    <rc><c>O </c><c>   4</c></rc>
    <rc><c>O </c><c>   4</c></rc>
    <rc><c>O </c><c>   4</c></rc>
    <rc><c>O </c><c>   4</c></rc>
    <rc><c>O </c><c>   4</c></rc>
    <rc><c>O </c><c>   4</c></rc>
    <rc><c>O </c><c>   4</c></rc>
    <rc><c>O </c><c>   4</c></rc>
    <rc><c>O </c><c>   4</c></rc>
    <rc><c>O </c><c>   4</c></rc>
    <rc><c>O </c><c>   4</c></rc>
    <rc><c>O </c><c>   4</c></rc>
    <rc><c>O </c><c>   4</c></rc>
    <rc><c>O </c><c>   4</c></rc>
    <rc><c>O </c><c>   4</c></rc>
    <rc><c>O </c><c>   4</c></rc>
    <rc><c>O </c><c>   4</c></rc>
    <rc><c>O </c><c>   4</c></rc>
    <rc><c>O </c><c>   4</c></rc>
    <rc><c>O </c><c>   4</c></rc>
    <rc><c>O </c><c>   4</c></rc>
    <rc><c>O </c><c>   4</c></rc>
    <rc><c>O </c><c>   4</c></rc>
    <rc><c>O </c><c>   4</c></rc>
    <rc><c>O </c><c>   4</c></rc>
    <rc><c>O </c><c>   4</c></rc>
    <rc><c>O </c><c>   4</c></rc>
    <rc><c>O </c><c>   4</c></rc>
    <rc><c>O </c><c>   4</c></rc>
    <rc><c>O </c><c>   4</c></rc>
    <rc><c>O </c><c>   4</c></rc>
    <rc><c>O </c><c>   4</c></rc>
    <rc><c>O </c><c>   4</c></rc>
    <rc><c>O </c><c>   4</c></rc>
    <rc><c>O </c><c>   4</c></rc>
    <rc><c>O </c><c>   4</c></rc>
    <rc><c>O </c><c>   4</c></rc>
    <rc><c>O </c><c>   4</c></rc>
    <rc><c>O </c><c>   4</c></rc>
    <rc><c>O </c><c>   4</c></rc>
    <rc><c>O </c><c>   4</c></rc>
    <rc><c>O </c><c>   4</c></rc>
    <rc><c>O </c><c>   4</c></rc>
    <rc><c>O </c><c>   4</c></rc>
    <rc><c>O </c><c>   4</c></rc>
    <rc><c>O </c><c>   4</c></rc>
    <rc><c>O </c><c>   4</c></rc>
    <rc><c>O </c><c>   4</c></rc>
    <rc><c>O </c><c>   4</c></rc>
    <rc><c>O </c><c>   4</c></rc>
    <rc><c>O </c><c>   4</c></rc>
    <rc><c>O </c><c>   4</c></rc>
    <rc><c>O </c><c>   4</c></rc>
    <rc><c>O </c><c>   4</c></rc>
    <rc><c>O </c><c>   4</c></rc>
    <rc><c>O </c><c>   4</c></rc>
    <rc><c>O </c><c>   4</c></rc>
    <rc><c>O </c><c>   4</c></rc>
    <rc><c>O </c><c>   4</c></rc>
   </set>
  </array>
  <array name="atomtypes" >
   <dimension dim="1">type</dimension>
   <field type="int">atomspertype</field>
   <field type="string">element</field>
   <field>mass</field>
   <field>valence</field>
   <field type="string">pseudopotential</field>
   <set>
    <rc><c>  32</c><c>Sr</c><c>     87.62000000</c><c>     10.00000000</c><c>  PAW_PBE Sr_sv 07Sep2000               </c></rc>
    <rc><c>  28</c><c>Ti</c><c>     47.88000000</c><c>      4.00000000</c><c>  PAW_PBE Ti 08Apr2002                  </c></rc>
    <rc><c>   4</c><c>Fe</c><c>     55.84700000</c><c>      8.00000000</c><c>  PAW_PBE Fe 06Sep2000                  </c></rc>
    <rc><c>  94</c><c>O </c><c>     16.00000000</c><c>      6.00000000</c><c>  PAW_PBE O 08Apr2002                   </c></rc>
   </set>
  </array>
 </atominfo>
 <structure name="initialpos" >
  <crystal>
   <varray name="basis" >
    <v>      11.20828478       0.00433400      -0.00321900 </v>
    <v>       0.00433150      11.21117086      -0.00400072 </v>
    <v>      -0.00458891      -0.00571057      15.96511450 </v>
   </varray>
   <i name="volume">   2006.14356742 </i>
   <varray name="rec_basis" >
    <v>       0.08921974      -0.00003446       0.00002563 </v>
    <v>      -0.00003448       0.08919677       0.00003189 </v>
    <v>       0.00001798       0.00002234       0.06263658 </v>
   </varray>
  </crystal>
  <varray name="positions" >
   <v>       0.00464229       0.24925606       0.12340811 </v>
   <v>       0.00542457       0.25063043       0.62351983 </v>
   <v>       0.99153473       0.75067364       0.12250488 </v>
   <v>       0.99997585       0.75131837       0.62555004 </v>
   <v>       0.49783698       0.25797096       0.11980202 </v>
   <v>       0.49467291       0.25055486       0.62431895 </v>
   <v>       0.50787452       0.74118328       0.12039428 </v>
   <v>       0.49957686       0.74948237       0.62610109 </v>
   <v>       0.00448173       0.24913220       0.37482959 </v>
   <v>       0.00962232       0.24973436       0.87686836 </v>
   <v>       0.99160344       0.75059814       0.37552559 </v>
   <v>       0.00120260       0.75063422       0.87678203 </v>
   <v>       0.49567121       0.25658571       0.37524017 </v>
   <v>       0.49071424       0.25291354       0.87715465 </v>
   <v>       0.50821826       0.74306981       0.37693479 </v>
   <v>       0.49822478       0.74823926       0.87714725 </v>
   <v>       0.24667574       0.00478914       0.12077110 </v>
   <v>       0.24997780       0.00144280       0.62703956 </v>
   <v>       0.25570528       0.49338474       0.12344290 </v>
   <v>       0.24897860       0.50073297       0.62502281 </v>
   <v>       0.75101827       0.99316382       0.12448219 </v>
   <v>       0.74927490       0.99486748       0.62328544 </v>
   <v>       0.74834286       0.50319214       0.12405713 </v>
   <v>       0.74941898       0.50490620       0.62418800 </v>
   <v>       0.24653228       0.00480228       0.37774194 </v>
   <v>       0.24982217       0.99938002       0.87529900 </v>
   <v>       0.25262582       0.49349930       0.37383029 </v>
   <v>       0.25188896       0.50204676       0.87830931 </v>
   <v>       0.75208041       0.99242742       0.37342946 </v>
   <v>       0.74832187       0.99161996       0.87751796 </v>
   <v>       0.74940388       0.50398944       0.37309617 </v>
   <v>       0.74764492       0.50710148       0.87819185 </v>
   <v>       0.99815775       0.00136088       0.99888748 </v>
   <v>       0.99929292       0.00063945       0.50021558 </v>
   <v>       0.99874972       0.49858863       0.00002576 </v>
   <v>       0.99953171       0.49971781       0.49948407 </v>
   <v>       0.50040977       0.00011724       0.00003042 </v>
   <v>       0.49935378       0.99958902       0.49963893 </v>
   <v>       0.50048027       0.49939018       0.50046656 </v>
   <v>       0.25148087       0.25124808       0.00135134 </v>
   <v>       0.25016888       0.25010712       0.49903757 </v>
   <v>       0.25227869       0.75036310       0.00245613 </v>
   <v>       0.25097753       0.75109754       0.50029271 </v>
   <v>       0.74980705       0.24926811       0.49436672 </v>
   <v>       0.74875789       0.74847990       0.00076052 </v>
   <v>       0.75007265       0.74980549       0.49956901 </v>
   <v>       0.25015596       0.25089895       0.74999122 </v>
   <v>       0.23702231       0.74276586       0.24993757 </v>
   <v>       0.24913371       0.74968153       0.74977976 </v>
   <v>       0.75418072       0.25192569       0.24987985 </v>
   <v>       0.75014536       0.24968689       0.74037416 </v>
   <v>       0.74991093       0.74976013       0.75006623 </v>
   <v>       0.99945791       0.00153791       0.24966767 </v>
   <v>       0.99968240       0.00021681       0.75112410 </v>
   <v>       0.99700114       0.49494574       0.24939435 </v>
   <v>       0.00026318       0.50085459       0.75167057 </v>
   <v>       0.50670523       0.01371436       0.24978187 </v>
   <v>       0.50083559       0.00033830       0.75155998 </v>
   <v>       0.50230545       0.49884396       0.24796949 </v>
   <v>       0.49975979       0.50038916       0.75206424 </v>
   <v>       0.50229091       0.49829568       0.99782542 </v>
   <v>       0.75031583       0.24971829       0.00953456 </v>
   <v>       0.24850316       0.24901129       0.24944119 </v>
   <v>       0.74988713       0.74751192       0.24951628 </v>
   <v>       0.10371019       0.14176684       0.24991690 </v>
   <v>       0.11031853       0.13939768       0.74877217 </v>
   <v>       0.10674391       0.64313161       0.24844808 </v>
   <v>       0.10909237       0.64047798       0.74700257 </v>
   <v>       0.60607774       0.14506471       0.25120364 </v>
   <v>       0.61572688       0.14311674       0.76323333 </v>
   <v>       0.61211950       0.63457345       0.25037912 </v>
   <v>       0.61101567       0.63940854       0.74911130 </v>
   <v>       0.39092684       0.36136082       0.24999386 </v>
   <v>       0.38981925       0.36056920       0.74880672 </v>
   <v>       0.38932948       0.86136127       0.74768469 </v>
   <v>       0.89382298       0.35450292       0.25181223 </v>
   <v>       0.88642693       0.35787484       0.76089459 </v>
   <v>       0.89006962       0.86227945       0.24996393 </v>
   <v>       0.88910559       0.86118610       0.74968806 </v>
   <v>       0.35434171       0.09504345       0.25016526 </v>
   <v>       0.36217562       0.11139061       0.74991552 </v>
   <v>       0.36528216       0.62175951       0.24999858 </v>
   <v>       0.35965892       0.61089259       0.74666393 </v>
   <v>       0.85325983       0.10677774       0.25176070 </v>
   <v>       0.85811106       0.11446788       0.76220745 </v>
   <v>       0.86214575       0.60678338       0.24992381 </v>
   <v>       0.86029872       0.60940339       0.75000132 </v>
   <v>       0.14052521       0.39511119       0.24921677 </v>
   <v>       0.13899877       0.38946412       0.74991882 </v>
   <v>       0.14607501       0.89406416       0.24940266 </v>
   <v>       0.13957668       0.89004984       0.74660239 </v>
   <v>       0.64324065       0.38910498       0.25181180 </v>
   <v>       0.64315290       0.38581177       0.75965488 </v>
   <v>       0.62211211       0.88310207       0.25042250 </v>
   <v>       0.63978797       0.89020121       0.74877371 </v>
   <v>       0.36341384       0.38493027       0.99889793 </v>
   <v>       0.36014332       0.39021809       0.50144399 </v>
   <v>       0.36051629       0.88949155       0.99584351 </v>
   <v>       0.36048539       0.89151164       0.50764001 </v>
   <v>       0.86456396       0.38515604       0.98935561 </v>
   <v>       0.85839939       0.39025757       0.50039617 </v>
   <v>       0.86193581       0.88789999       0.99950040 </v>
   <v>       0.85984619       0.89051867       0.50040325 </v>
   <v>       0.13530516       0.11380478       0.99832577 </v>
   <v>       0.13905589       0.11045267       0.50239307 </v>
   <v>       0.13865343       0.61477919       0.00944888 </v>
   <v>       0.14120196       0.61116580       0.49576435 </v>
   <v>       0.63804095       0.10991260       0.99801216 </v>
   <v>       0.64109210       0.10776851       0.49394576 </v>
   <v>       0.63879847       0.61343087       0.00051869 </v>
   <v>       0.64043774       0.60950453       0.49948188 </v>
   <v>       0.11422762       0.36411408       0.99986595 </v>
   <v>       0.11006778       0.36054540       0.50049408 </v>
   <v>       0.11135302       0.86263076       0.00453348 </v>
   <v>       0.10971366       0.86051338       0.49976261 </v>
   <v>       0.61879832       0.35726880       0.98610407 </v>
   <v>       0.60961198       0.35727217       0.50012566 </v>
   <v>       0.61097904       0.86124907       0.99923102 </v>
   <v>       0.60950922       0.85975783       0.50180477 </v>
   <v>       0.38778637       0.13684393       0.00024453 </v>
   <v>       0.39111565       0.14036175       0.49933259 </v>
   <v>       0.38605755       0.63943869       0.00160109 </v>
   <v>       0.39088793       0.64038340       0.50115601 </v>
   <v>       0.88352823       0.13819161       0.98676575 </v>
   <v>       0.89020953       0.14177375       0.49967756 </v>
   <v>       0.88832648       0.63774313       0.99844811 </v>
   <v>       0.89086505       0.64011719       0.50169689 </v>
   <v>       0.99381902       0.00649990       0.12378894 </v>
   <v>       0.99320790       0.00423223       0.62605374 </v>
   <v>       0.99263885       0.49459384       0.12438069 </v>
   <v>       0.99814615       0.49579578       0.62566470 </v>
   <v>       0.49333536       0.99208557       0.12686966 </v>
   <v>       0.50782063       0.00973941       0.62617226 </v>
   <v>       0.50385934       0.49442651       0.12479858 </v>
   <v>       0.50628311       0.49625045       0.62555746 </v>
   <v>       0.99955349       0.00040895       0.37594973 </v>
   <v>       0.00700154       0.99292415       0.87413331 </v>
   <v>       0.99897126       0.49957765       0.37527600 </v>
   <v>       0.00962096       0.50779832       0.87513952 </v>
   <v>       0.48865015       0.98760993       0.37301981 </v>
   <v>       0.49813877       0.99654946       0.87467418 </v>
   <v>       0.49900393       0.49883406       0.37628839 </v>
   <v>       0.49477237       0.50617096       0.87259966 </v>
   <v>       0.24997775       0.24996314       0.37667869 </v>
   <v>       0.24984779       0.24920873       0.87406457 </v>
   <v>       0.26414714       0.76404225       0.37148295 </v>
   <v>       0.24629100       0.74823081       0.87475540 </v>
   <v>       0.75108417       0.25134971       0.37438755 </v>
   <v>       0.75093824       0.75068478       0.37710621 </v>
   <v>       0.74967626       0.75066139       0.87407420 </v>
   <v>       0.25025704       0.24914622       0.12371417 </v>
   <v>       0.25049255       0.24971523       0.62506785 </v>
   <v>       0.26756705       0.76644112       0.13096598 </v>
   <v>       0.24752727       0.74791593       0.62370783 </v>
   <v>       0.75194012       0.25164355       0.12768222 </v>
   <v>       0.74873647       0.24613902       0.62480535 </v>
   <v>       0.75113375       0.75119315       0.12351281 </v>
   <v>       0.75051845       0.74946728       0.62511266 </v>
  </varray>
 </structure>
 <calculation>
  <scstep>
   <time name="dav">  591.88  591.90</time>
   <time name="total">  599.08  599.20</time>
   <energy>
    <i name="alphaZ">   5630.84210632 </i>
    <i name="ewald"> -61024.56508128 </i>
    <i name="hartreedc"> -15468.52754602 </i>
    <i name="XCdc">   2852.20904490 </i>
    <i name="pawpsdc"> 111833.20420575 </i>
    <i name="pawaedc">-110581.22987950 </i>
    <i name="eentropy">     -0.00000000 </i>
    <i name="bandstr">  -7044.36596608 </i>
    <i name="atom">  72650.08363186 </i>
    <i name="e_fr_energy">  -1152.34948405 </i>
    <i name="e_wo_entrp">  -1152.34948405 </i>
    <i name="e_0_energy">  -1152.34948405 </i>
   </energy>
  </scstep>
  <scstep>
   <time name="diag">   64.87   64.87</time>
   <time name="diis">   62.25   62.25</time>
   <time name="orth">   33.33   33.33</time>
   <time name="total">  167.62  167.65</time>
   <energy>
    <i name="e_fr_energy">  -1152.34948449 </i>
    <i name="e_wo_entrp">  -1152.34948449 </i>
    <i name="e_0_energy">  -1152.34948449 </i>
   </energy>
  </scstep>
  <scstep>
   <time name="diag">   64.76   64.76</time>
   <time name="diis">   57.72   57.72</time>
   <time name="orth">   33.33   33.33</time>
   <time name="total">  162.98  163.25</time>
   <energy>
    <i name="e_fr_energy">  -1152.34948489 </i>
    <i name="e_wo_entrp">  -1152.34948489 </i>
    <i name="e_0_energy">  -1152.34948489 </i>
   </energy>
  </scstep>
  <scstep>
   <time name="diag">   64.75   64.75</time>
   <time name="diis">   50.62   50.63</time>
   <time name="orth">   33.34   33.34</time>
   <time name="total">  155.89  156.00</time>
   <energy>
    <i name="e_fr_energy">  -1152.34948518 </i>
    <i name="e_wo_entrp">  -1152.34948518 </i>
    <i name="e_0_energy">  -1152.34948518 </i>
   </energy>
  </scstep>
  <scstep>
   <time name="diag">   64.76   64.76</time>
   <time name="diis">   49.77   49.78</time>
   <time name="orth">   33.36   33.36</time>
   <time name="total">  155.07  155.12</time>
   <energy>
    <i name="e_fr_energy">  -1152.34948521 </i>
    <i name="e_wo_entrp">  -1152.34948521 </i>
    <i name="e_0_energy">  -1152.34948521 </i>
   </energy>
  </scstep>
  <scstep>
   <time name="diag">   64.77   64.77</time>
   <time name="diis">   45.43   45.44</time>
   <time name="orth">   33.31   33.32</time>
   <time name="total">  150.69  150.93</time>
   <energy>
    <i name="e_fr_energy">  -1152.34948515 </i>
    <i name="e_wo_entrp">  -1152.34948515 </i>
    <i name="e_0_energy">  -1152.34948515 </i>
   </energy>
  </scstep>
  <scstep>
   <time name="diag">   64.74   64.74</time>
   <time name="diis">   45.17   45.17</time>
   <time name="orth">   33.39   33.39</time>
   <time name="total">  150.48  150.54</time>
   <energy>
    <i name="e_fr_energy">  -1152.34948513 </i>
    <i name="e_wo_entrp">  -1152.34948513 </i>
    <i name="e_0_energy">  -1152.34948513 </i>
   </energy>
  </scstep>
  <scstep>
   <time name="diag">   64.74   64.74</time>
   <time name="diis">   43.71   43.72</time>
   <time name="orth">   33.42   33.42</time>
   <time name="total">  142.92  142.99</time>
   <energy>
    <i name="alphaZ">   5630.84210632 </i>
    <i name="ewald"> -61024.56508128 </i>
    <i name="hartreedc"> -15468.53422224 </i>
    <i name="XCdc">   2852.20973645 </i>
    <i name="pawpsdc"> 111831.92358093 </i>
    <i name="pawaedc">-110579.96024108 </i>
    <i name="eentropy">     -0.00000000 </i>
    <i name="bandstr">  -7044.34899609 </i>
    <i name="atom">  72650.08363186 </i>
    <i name="e_fr_energy">  -1152.34948514 </i>
    <i name="e_wo_entrp">  -1152.34948514 </i>
    <i name="e_0_energy">  -1152.34948514 </i>
   </energy>
  </scstep>
  <structure>
   <crystal>
    <varray name="basis" >
     <v>      11.20828478       0.00433400      -0.00321900 </v>
     <v>       0.00433150      11.21117086      -0.00400072 </v>
     <v>      -0.00458891      -0.00571057      15.96511450 </v>
    </varray>
    <i name="volume">   2006.14356742 </i>
    <varray name="rec_basis" >
     <v>       0.08921974      -0.00003446       0.00002563 </v>
     <v>      -0.00003448       0.08919677       0.00003189 </v>
     <v>       0.00001798       0.00002234       0.06263658 </v>
    </varray>
   </crystal>
   <varray name="positions" >
    <v>       0.00464229       0.24925606       0.12340811 </v>
    <v>       0.00542457       0.25063043       0.62351983 </v>
    <v>       0.99153473       0.75067364       0.12250488 </v>
    <v>       0.99997585       0.75131837       0.62555004 </v>
    <v>       0.49783698       0.25797096       0.11980202 </v>
    <v>       0.49467291       0.25055486       0.62431895 </v>
    <v>       0.50787452       0.74118328       0.12039428 </v>
    <v>       0.49957686       0.74948237       0.62610109 </v>
    <v>       0.00448173       0.24913220       0.37482959 </v>
    <v>       0.00962232       0.24973436       0.87686836 </v>
    <v>       0.99160344       0.75059814       0.37552559 </v>
    <v>       0.00120260       0.75063422       0.87678203 </v>
    <v>       0.49567121       0.25658571       0.37524017 </v>
    <v>       0.49071424       0.25291354       0.87715465 </v>
    <v>       0.50821826       0.74306981       0.37693479 </v>
    <v>       0.49822478       0.74823926       0.87714725 </v>
    <v>       0.24667574       0.00478914       0.12077110 </v>
    <v>       0.24997780       0.00144280       0.62703956 </v>
    <v>       0.25570528       0.49338474       0.12344290 </v>
    <v>       0.24897860       0.50073297       0.62502281 </v>
    <v>       0.75101827       0.99316382       0.12448219 </v>
    <v>       0.74927490       0.99486748       0.62328544 </v>
    <v>       0.74834286       0.50319214       0.12405713 </v>
    <v>       0.74941898       0.50490620       0.62418800 </v>
    <v>       0.24653228       0.00480228       0.37774194 </v>
    <v>       0.24982217       0.99938002       0.87529900 </v>
    <v>       0.25262582       0.49349930       0.37383029 </v>
    <v>       0.25188896       0.50204676       0.87830931 </v>
    <v>       0.75208041       0.99242742       0.37342946 </v>
    <v>       0.74832187       0.99161996       0.87751796 </v>
    <v>       0.74940388       0.50398944       0.37309617 </v>
    <v>       0.74764492       0.50710148       0.87819185 </v>
    <v>       0.99815775       0.00136088       0.99888748 </v>
    <v>       0.99929292       0.00063945       0.50021558 </v>
    <v>       0.99874972       0.49858863       0.00002576 </v>
    <v>       0.99953171       0.49971781       0.49948407 </v>
    <v>       0.50040977       0.00011724       0.00003042 </v>
    <v>       0.49935378       0.99958902       0.49963893 </v>
    <v>       0.50048027       0.49939018       0.50046656 </v>
    <v>       0.25148087       0.25124808       0.00135134 </v>
    <v>       0.25016888       0.25010712       0.49903757 </v>
    <v>       0.25227869       0.75036310       0.00245613 </v>
    <v>       0.25097753       0.75109754       0.50029271 </v>
    <v>       0.74980705       0.24926811       0.49436672 </v>
    <v>       0.74875789       0.74847990       0.00076052 </v>
    <v>       0.75007265       0.74980549       0.49956901 </v>
    <v>       0.25015596       0.25089895       0.74999122 </v>
    <v>       0.23702231       0.74276586       0.24993757 </v>
    <v>       0.24913371       0.74968153       0.74977976 </v>
    <v>       0.75418072       0.25192569       0.24987985 </v>
    <v>       0.75014536       0.24968689       0.74037416 </v>
    <v>       0.74991093       0.74976013       0.75006623 </v>
    <v>       0.99945791       0.00153791       0.24966767 </v>
    <v>       0.99968240       0.00021681       0.75112410 </v>
    <v>       0.99700114       0.49494574       0.24939435 </v>
    <v>       0.00026318       0.50085459       0.75167057 </v>
    <v>       0.50670523       0.01371436       0.24978187 </v>
    <v>       0.50083559       0.00033830       0.75155998 </v>
    <v>       0.50230545       0.49884396       0.24796949 </v>
    <v>       0.49975979       0.50038916       0.75206424 </v>
    <v>       0.50229091       0.49829568       0.99782542 </v>
    <v>       0.75031583       0.24971829       0.00953456 </v>
    <v>       0.24850316       0.24901129       0.24944119 </v>
    <v>       0.74988713       0.74751192       0.24951628 </v>
    <v>       0.10371019       0.14176684       0.24991690 </v>
    <v>       0.11031853       0.13939768       0.74877217 </v>
    <v>       0.10674391       0.64313161       0.24844808 </v>
    <v>       0.10909237       0.64047798       0.74700257 </v>
    <v>       0.60607774       0.14506471       0.25120364 </v>
    <v>       0.61572688       0.14311674       0.76323333 </v>
    <v>       0.61211950       0.63457345       0.25037912 </v>
    <v>       0.61101567       0.63940854       0.74911130 </v>
    <v>       0.39092684       0.36136082       0.24999386 </v>
    <v>       0.38981925       0.36056920       0.74880672 </v>
    <v>       0.38932948       0.86136127       0.74768469 </v>
    <v>       0.89382298       0.35450292       0.25181223 </v>
    <v>       0.88642693       0.35787484       0.76089459 </v>
    <v>       0.89006962       0.86227945       0.24996393 </v>
    <v>       0.88910559       0.86118610       0.74968806 </v>
    <v>       0.35434171       0.09504345       0.25016526 </v>
    <v>       0.36217562       0.11139061       0.74991552 </v>
    <v>       0.36528216       0.62175951       0.24999858 </v>
    <v>       0.35965892       0.61089259       0.74666393 </v>
    <v>       0.85325983       0.10677774       0.25176070 </v>
    <v>       0.85811106       0.11446788       0.76220745 </v>
    <v>       0.86214575       0.60678338       0.24992381 </v>
    <v>       0.86029872       0.60940339       0.75000132 </v>
    <v>       0.14052521       0.39511119       0.24921677 </v>
    <v>       0.13899877       0.38946412       0.74991882 </v>
    <v>       0.14607501       0.89406416       0.24940266 </v>
    <v>       0.13957668       0.89004984       0.74660239 </v>
    <v>       0.64324065       0.38910498       0.25181180 </v>
    <v>       0.64315290       0.38581177       0.75965488 </v>
    <v>       0.62211211       0.88310207       0.25042250 </v>
    <v>       0.63978797       0.89020121       0.74877371 </v>
    <v>       0.36341384       0.38493027       0.99889793 </v>
    <v>       0.36014332       0.39021809       0.50144399 </v>
    <v>       0.36051629       0.88949155       0.99584351 </v>
    <v>       0.36048539       0.89151164       0.50764001 </v>
    <v>       0.86456396       0.38515604       0.98935561 </v>
    <v>       0.85839939       0.39025757       0.50039617 </v>
    <v>       0.86193581       0.88789999       0.99950040 </v>
    <v>       0.85984619       0.89051867       0.50040325 </v>
    <v>       0.13530516       0.11380478       0.99832577 </v>
    <v>       0.13905589       0.11045267       0.50239307 </v>
    <v>       0.13865343       0.61477919       0.00944888 </v>
    <v>       0.14120196       0.61116580       0.49576435 </v>
    <v>       0.63804095       0.10991260       0.99801216 </v>
    <v>       0.64109210       0.10776851       0.49394576 </v>
    <v>       0.63879847       0.61343087       0.00051869 </v>
    <v>       0.64043774       0.60950453       0.49948188 </v>
    <v>       0.11422762       0.36411408       0.99986595 </v>
    <v>       0.11006778       0.36054540       0.50049408 </v>
    <v>       0.11135302       0.86263076       0.00453348 </v>
    <v>       0.10971366       0.86051338       0.49976261 </v>
    <v>       0.61879832       0.35726880       0.98610407 </v>
    <v>       0.60961198       0.35727217       0.50012566 </v>
    <v>       0.61097904       0.86124907       0.99923102 </v>
    <v>       0.60950922       0.85975783       0.50180477 </v>
    <v>       0.38778637       0.13684393       0.00024453 </v>
    <v>       0.39111565       0.14036175       0.49933259 </v>
    <v>       0.38605755       0.63943869       0.00160109 </v>
    <v>       0.39088793       0.64038340       0.50115601 </v>
    <v>       0.88352823       0.13819161       0.98676575 </v>
    <v>       0.89020953       0.14177375       0.49967756 </v>
    <v>       0.88832648       0.63774313       0.99844811 </v>
    <v>       0.89086505       0.64011719       0.50169689 </v>
    <v>       0.99381902       0.00649990       0.12378894 </v>
    <v>       0.99320790       0.00423223       0.62605374 </v>
    <v>       0.99263885       0.49459384       0.12438069 </v>
    <v>       0.99814615       0.49579578       0.62566470 </v>
    <v>       0.49333536       0.99208557       0.12686966 </v>
    <v>       0.50782063       0.00973941       0.62617226 </v>
    <v>       0.50385934       0.49442651       0.12479858 </v>
    <v>       0.50628311       0.49625045       0.62555746 </v>
    <v>       0.99955349       0.00040895       0.37594973 </v>
    <v>       0.00700154       0.99292415       0.87413331 </v>
    <v>       0.99897126       0.49957765       0.37527600 </v>
    <v>       0.00962096       0.50779832       0.87513952 </v>
    <v>       0.48865015       0.98760993       0.37301981 </v>
    <v>       0.49813877       0.99654946       0.87467418 </v>
    <v>       0.49900393       0.49883406       0.37628839 </v>
    <v>       0.49477237       0.50617096       0.87259966 </v>
    <v>       0.24997775       0.24996314       0.37667869 </v>
    <v>       0.24984779       0.24920873       0.87406457 </v>
    <v>       0.26414714       0.76404225       0.37148295 </v>
    <v>       0.24629100       0.74823081       0.87475540 </v>
    <v>       0.75108417       0.25134971       0.37438755 </v>
    <v>       0.75093824       0.75068478       0.37710621 </v>
    <v>       0.74967626       0.75066139       0.87407420 </v>
    <v>       0.25025704       0.24914622       0.12371417 </v>
    <v>       0.25049255       0.24971523       0.62506785 </v>
    <v>       0.26756705       0.76644112       0.13096598 </v>
    <v>       0.24752727       0.74791593       0.62370783 </v>
    <v>       0.75194012       0.25164355       0.12768222 </v>
    <v>       0.74873647       0.24613902       0.62480535 </v>
    <v>       0.75113375       0.75119315       0.12351281 </v>
    <v>       0.75051845       0.74946728       0.62511266 </v>
   </varray>
  </structure>
  <varray name="forces" >
   <v>      -0.00727983      -0.00304242       0.00293400 </v>
   <v>      -0.01047503       0.00549508       0.00262578 </v>
   <v>      -0.00263869      -0.00897139       0.00214449 </v>
   <v>       0.01565606      -0.00825722      -0.00617758 </v>
   <v>       0.00733091      -0.00235932      -0.00971309 </v>
   <v>       0.00540542      -0.00967228       0.00096093 </v>
   <v>       0.00141477      -0.00666645       0.01545198 </v>
   <v>      -0.01669164       0.01062450      -0.01202901 </v>
   <v>      -0.00400076       0.00022367      -0.00256125 </v>
   <v>      -0.01311504       0.00534754       0.00189808 </v>
   <v>       0.00480404      -0.00685453      -0.00111449 </v>
   <v>       0.01718358      -0.00076582      -0.00013981 </v>
   <v>       0.00611747      -0.01000230       0.01131312 </v>
   <v>       0.00649375      -0.00914995       0.00445435 </v>
   <v>      -0.00716986       0.00445986      -0.00421090 </v>
   <v>      -0.01726374       0.01350359       0.00183333 </v>
   <v>      -0.00293222      -0.00247674      -0.00538249 </v>
   <v>       0.01102856      -0.01180774      -0.00697568 </v>
   <v>      -0.00003592      -0.00064337      -0.00802118 </v>
   <v>      -0.00550771       0.01730978      -0.00695617 </v>
   <v>      -0.00228616       0.00947977      -0.00459571 </v>
   <v>      -0.00432061       0.01428635      -0.00681473 </v>
   <v>       0.00422268      -0.01331736      -0.00245112 </v>
   <v>       0.00575177      -0.00590798      -0.00592770 </v>
   <v>       0.00011867      -0.01324500       0.00481458 </v>
   <v>       0.00841451      -0.00419829       0.00092976 </v>
   <v>      -0.00949382       0.00321301      -0.00158724 </v>
   <v>      -0.00332240       0.01490457       0.00595638 </v>
   <v>      -0.00265376       0.00772955      -0.00036060 </v>
   <v>      -0.00559752       0.01933925       0.00275543 </v>
   <v>       0.01433145      -0.00867971       0.00257780 </v>
   <v>       0.00339528      -0.01081157      -0.00150948 </v>
   <v>      -0.01775474       0.01806204      -0.00702353 </v>
   <v>      -0.00408239      -0.00150784       0.00568139 </v>
   <v>       0.00141684      -0.02238556      -0.01466330 </v>
   <v>       0.00288358       0.01202722       0.01509876 </v>
   <v>       0.00693840       0.01994521      -0.00838400 </v>
   <v>       0.01287707      -0.00857825       0.01885569 </v>
   <v>      -0.00915772       0.00163801       0.02363617 </v>
   <v>      -0.00286560       0.00301927      -0.00686296 </v>
   <v>      -0.00728710       0.01380942       0.01319578 </v>
   <v>       0.00478884      -0.01274180      -0.00034294 </v>
   <v>       0.00535526      -0.01163216      -0.01131637 </v>
   <v>       0.00456105      -0.00768043       0.00996504 </v>
   <v>       0.00680378      -0.00527277       0.00906284 </v>
   <v>       0.00573686      -0.00447934       0.02288449 </v>
   <v>      -0.00672741      -0.01047650       0.01120111 </v>
   <v>       0.00248258       0.00550563      -0.00456245 </v>
   <v>      -0.01032069       0.00235935       0.01475943 </v>
   <v>       0.00440922       0.02165541      -0.02308347 </v>
   <v>       0.01459438       0.00428554      -0.03304404 </v>
   <v>       0.00578813       0.00510573      -0.01631993 </v>
   <v>       0.00160172      -0.00017861      -0.01130360 </v>
   <v>      -0.00777779       0.00197904       0.01057258 </v>
   <v>       0.00377220       0.01419909      -0.00539432 </v>
   <v>      -0.00256221       0.00074232       0.01031185 </v>
   <v>      -0.00451636      -0.01736810      -0.02234697 </v>
   <v>      -0.00589873       0.00661445       0.00491207 </v>
   <v>      -0.00037359       0.01548867      -0.01774660 </v>
   <v>       0.00383269       0.00408627       0.00571543 </v>
   <v>      -0.00200791      -0.01059472       0.00029827 </v>
   <v>       0.00498010      -0.01224215      -0.01376469 </v>
   <v>       0.01668852      -0.01378827      -0.00304300 </v>
   <v>      -0.02482407       0.00628056       0.00099167 </v>
   <v>       0.01695836      -0.00347304       0.01106453 </v>
   <v>       0.01635653       0.00514061       0.00089534 </v>
   <v>      -0.01161787      -0.02251222      -0.01229416 </v>
   <v>       0.00919430       0.01221666      -0.00215595 </v>
   <v>      -0.01086028       0.01000138      -0.00911025 </v>
   <v>       0.00911513       0.00303362       0.01167561 </v>
   <v>       0.01813470      -0.01597915       0.00474930 </v>
   <v>       0.00124216      -0.00192671      -0.00405691 </v>
   <v>      -0.01568591      -0.00872153       0.00093166 </v>
   <v>      -0.01235227       0.00542683      -0.00515156 </v>
   <v>      -0.00277774      -0.00094626       0.00748146 </v>
   <v>      -0.00328615      -0.02057231      -0.00095014 </v>
   <v>      -0.01103099       0.00105092      -0.00209710 </v>
   <v>      -0.02035829       0.01512679       0.00279458 </v>
   <v>      -0.00621771       0.00795019       0.00114717 </v>
   <v>       0.00647954       0.00248799       0.00650021 </v>
   <v>       0.01391892       0.01190092      -0.00059774 </v>
   <v>      -0.01613059      -0.00190244       0.00812426 </v>
   <v>       0.00475730       0.00211640       0.01610118 </v>
   <v>       0.01934695      -0.01447228      -0.00155977 </v>
   <v>       0.01980992       0.00564888       0.00386112 </v>
   <v>       0.01213192       0.00090927       0.00277010 </v>
   <v>      -0.02161441       0.02527029       0.00166417 </v>
   <v>      -0.00169957      -0.00853605      -0.00578198 </v>
   <v>       0.00226981      -0.00988190      -0.00782772 </v>
   <v>      -0.00478316      -0.01741008       0.00437494 </v>
   <v>       0.00322703       0.00070472       0.00401728 </v>
   <v>      -0.01380220       0.00877079       0.00535361 </v>
   <v>      -0.01152138       0.00843564      -0.00950543 </v>
   <v>      -0.00949533      -0.01572027      -0.01108960 </v>
   <v>       0.01061716      -0.02064726      -0.00577332 </v>
   <v>       0.01608141       0.00289393       0.00629723 </v>
   <v>       0.00071863      -0.00553191      -0.00426626 </v>
   <v>      -0.00261234      -0.00682531       0.00530846 </v>
   <v>      -0.01320462       0.00353328      -0.02057928 </v>
   <v>       0.01386318       0.00341390      -0.01173591 </v>
   <v>      -0.01287201      -0.00631856       0.00285875 </v>
   <v>      -0.00837330      -0.02747766      -0.00462960 </v>
   <v>       0.00291285      -0.00352297       0.00136599 </v>
   <v>       0.00061357       0.01721129       0.00578736 </v>
   <v>       0.01043629       0.01171248      -0.00353233 </v>
   <v>      -0.00209138       0.01568142       0.00154115 </v>
   <v>       0.00840644       0.00602980      -0.00549225 </v>
   <v>      -0.01921335      -0.01020962       0.00904172 </v>
   <v>      -0.00510595       0.00166339      -0.00519699 </v>
   <v>      -0.00732384       0.01233462      -0.00025388 </v>
   <v>      -0.00776752       0.00519230      -0.00753625 </v>
   <v>       0.02658560       0.00214719      -0.00292178 </v>
   <v>       0.00394892      -0.00389373      -0.00016748 </v>
   <v>       0.01182296       0.00030205       0.00499231 </v>
   <v>      -0.00652751       0.00255072       0.00039794 </v>
   <v>      -0.01835787       0.02648789      -0.01064967 </v>
   <v>      -0.00406938       0.00236972       0.00568514 </v>
   <v>       0.01652633      -0.02360139       0.01112067 </v>
   <v>       0.00706740      -0.00511883       0.00408041 </v>
   <v>      -0.02289293      -0.00029921      -0.00723608 </v>
   <v>      -0.01037987       0.01038294       0.00185175 </v>
   <v>       0.00345932      -0.01160131      -0.00174886 </v>
   <v>       0.01203895      -0.00988570      -0.01699156 </v>
   <v>      -0.01008807      -0.00424049      -0.00205918 </v>
   <v>      -0.00336571       0.00077426       0.00225146 </v>
   <v>      -0.01662652       0.00865772       0.00173317 </v>
   <v>      -0.00029237       0.00575985      -0.00527662 </v>
   <v>      -0.00267183      -0.00385507      -0.00165022 </v>
   <v>       0.01387160      -0.00955746       0.01234452 </v>
   <v>      -0.00264350      -0.00160811       0.01613560 </v>
   <v>       0.00116655       0.01963804       0.01213288 </v>
   <v>      -0.02058320      -0.00976883      -0.00344097 </v>
   <v>      -0.00004011       0.00523683       0.01326139 </v>
   <v>      -0.00029224      -0.00809139      -0.00369261 </v>
   <v>      -0.01109936       0.01537170       0.01889405 </v>
   <v>      -0.00267748       0.00055888       0.01025783 </v>
   <v>       0.00358972      -0.00970144      -0.00588625 </v>
   <v>       0.00424110      -0.00332091      -0.01060022 </v>
   <v>      -0.00275523       0.00212811      -0.00138873 </v>
   <v>       0.00191936       0.00390721       0.00980619 </v>
   <v>       0.00833092      -0.00186569      -0.00110594 </v>
   <v>       0.01009164      -0.01358774       0.01035694 </v>
   <v>       0.00600817      -0.00487490       0.00378146 </v>
   <v>      -0.00157602       0.00517635       0.00302474 </v>
   <v>      -0.00067196       0.00495481      -0.01174971 </v>
   <v>       0.00891569       0.00379316      -0.02494667 </v>
   <v>      -0.00600649       0.00471827      -0.01308242 </v>
   <v>      -0.00182037       0.00282281      -0.00866307 </v>
   <v>       0.00421363       0.00002195      -0.01004798 </v>
   <v>      -0.00647678       0.00124704       0.00075906 </v>
   <v>      -0.00136263       0.00173635       0.00577108 </v>
   <v>       0.00209259       0.00267928      -0.00533797 </v>
   <v>       0.01574063       0.01234120       0.01595571 </v>
   <v>       0.00318387      -0.00220841       0.00082022 </v>
   <v>       0.01322737      -0.00229774       0.05695469 </v>
   <v>      -0.00245781      -0.00068026      -0.00943717 </v>
   <v>       0.00786709      -0.00163716      -0.00539516 </v>
   <v>       0.00479275      -0.00430313       0.00451216 </v>
  </varray>
  <varray name="stress" >
   <v>       0.11464350       0.09668178       0.01286068 </v>
   <v>       0.09668228       0.07169063       0.00340378 </v>
   <v>       0.01286011       0.00340351      -0.07644681 </v>
  </varray>
  <energy>
   <i name="e_fr_energy">  -1152.34948514 </i>
   <i name="e_wo_entrp">  -1152.34948514 </i>
   <i name="e_0_energy">     -0.00000000 </i>
  </energy>
  <time name="totalsc"> 1951.73 1954.71</time>
 </calculation>
 <calculation>
  <scstep>
   <time name="dav">  567.66  567.69</time>
   <time name="total">  574.82  574.91</time>
   <energy>
    <i name="alphaZ">   5630.60556626 </i>
    <i name="ewald"> -61024.36226282 </i>
    <i name="hartreedc"> -15467.72064404 </i>
    <i name="XCdc">   2852.15089206 </i>
    <i name="pawpsdc"> 111831.92114086 </i>
    <i name="pawaedc">-110579.95796360 </i>
    <i name="eentropy">     -0.00000000 </i>
    <i name="bandstr">  -7045.06999602 </i>
    <i name="atom">  72650.08363186 </i>
    <i name="e_fr_energy">  -1152.34963544 </i>
    <i name="e_wo_entrp">  -1152.34963544 </i>
    <i name="e_0_energy">  -1152.34963544 </i>
   </energy>
  </scstep>
  <scstep>
   <time name="diag">   65.05   65.05</time>
   <time name="diis">  104.41  104.42</time>
   <time name="orth">   33.38   33.38</time>
   <time name="total">  210.04  210.08</time>
   <energy>
    <i name="e_fr_energy">  -1152.35066144 </i>
    <i name="e_wo_entrp">  -1152.35066144 </i>
    <i name="e_0_energy">  -1152.35066144 </i>
   </energy>
  </scstep>
  <scstep>
   <time name="diag">   65.05   65.05</time>
   <time name="diis">   93.59   93.60</time>
   <time name="orth">   33.33   33.34</time>
   <time name="total">  199.19  199.25</time>
   <energy>
    <i name="e_fr_energy">  -1152.35066101 </i>
    <i name="e_wo_entrp">  -1152.35066101 </i>
    <i name="e_0_energy">  -1152.35066101 </i>
   </energy>
  </scstep>
  <scstep>
   <time name="diag">   64.96   64.96</time>
   <time name="diis">   66.24   66.25</time>
   <time name="orth">   33.38   33.38</time>
   <time name="total">  171.78  171.87</time>
   <energy>
    <i name="e_fr_energy">  -1152.35058801 </i>
    <i name="e_wo_entrp">  -1152.35058801 </i>
    <i name="e_0_energy">  -1152.35058801 </i>
   </energy>
  </scstep>
  <scstep>
   <time name="diag">   65.03   65.03</time>
   <time name="diis">   64.05   64.05</time>
   <time name="orth">   33.38   33.38</time>
   <time name="total">  169.66  169.74</time>
   <energy>
    <i name="e_fr_energy">  -1152.35056662 </i>
    <i name="e_wo_entrp">  -1152.35056662 </i>
    <i name="e_0_energy">  -1152.35056662 </i>
   </energy>
  </scstep>
  <scstep>
   <time name="diag">   65.07   65.07</time>
   <time name="diis">   62.88   62.88</time>
   <time name="orth">   33.36   33.36</time>
   <time name="total">  168.52  168.65</time>
   <energy>
    <i name="e_fr_energy">  -1152.35056839 </i>
    <i name="e_wo_entrp">  -1152.35056839 </i>
    <i name="e_0_energy">  -1152.35056839 </i>
   </energy>
  </scstep>
  <scstep>
   <time name="diag">   64.82   64.82</time>
   <time name="diis">   60.72   60.72</time>
   <time name="orth">   33.37   33.37</time>
   <time name="total">  166.07  166.14</time>
   <energy>
    <i name="e_fr_energy">  -1152.35056868 </i>
    <i name="e_wo_entrp">  -1152.35056868 </i>
    <i name="e_0_energy">  -1152.35056868 </i>
   </energy>
  </scstep>
  <scstep>
   <time name="diag">   64.84   64.84</time>
   <time name="diis">   58.07   58.07</time>
   <time name="orth">   33.33   33.33</time>
   <time name="total">  157.29  157.38</time>
   <energy>
    <i name="alphaZ">   5630.60556626 </i>
    <i name="ewald"> -61024.36226282 </i>
    <i name="hartreedc"> -15468.30730312 </i>
    <i name="XCdc">   2852.18934709 </i>
    <i name="pawpsdc"> 111813.79291885 </i>
    <i name="pawaedc">-110561.83115652 </i>
    <i name="eentropy">     -0.00000000 </i>
    <i name="bandstr">  -7044.52131034 </i>
    <i name="atom">  72650.08363186 </i>
    <i name="e_fr_energy">  -1152.35056875 </i>
    <i name="e_wo_entrp">  -1152.35056875 </i>
    <i name="e_0_energy">  -1152.35056875 </i>
   </energy>
  </scstep>
  <structure>
   <crystal>
    <varray name="basis" >
     <v>      11.20877619       0.00474841      -0.00316379 </v>
     <v>       0.00474608      11.21147830      -0.00398599 </v>
     <v>      -0.00451082      -0.00569012      15.96464786 </v>
    </varray>
    <i name="volume">   2006.22784492 </i>
    <varray name="rec_basis" >
     <v>       0.08921583      -0.00003776       0.00002519 </v>
     <v>      -0.00003778       0.08919433       0.00003178 </v>
     <v>       0.00001767       0.00002226       0.06263841 </v>
    </varray>
   </crystal>
   <varray name="positions" >
    <v>       0.00461096       0.24924299       0.12341696 </v>
    <v>       0.00537948       0.25065410       0.62352776 </v>
    <v>       0.99152339       0.75063504       0.12251135 </v>
    <v>       0.00004324       0.75128281       0.62553138 </v>
    <v>       0.49786853       0.25796078       0.11977267 </v>
    <v>       0.49469620       0.25051323       0.62432185 </v>
    <v>       0.50788064       0.74115461       0.12044097 </v>
    <v>       0.49950499       0.74952810       0.62606474 </v>
    <v>       0.00446451       0.24913316       0.37482185 </v>
    <v>       0.00956586       0.24975740       0.87687409 </v>
    <v>       0.99162413       0.75056864       0.37552222 </v>
    <v>       0.00127657       0.75063090       0.87678162 </v>
    <v>       0.49569757       0.25654267       0.37527435 </v>
    <v>       0.49074221       0.25287416       0.87716810 </v>
    <v>       0.50818738       0.74308900       0.37692206 </v>
    <v>       0.49815045       0.74829740       0.87715279 </v>
    <v>       0.24666312       0.00477848       0.12075483 </v>
    <v>       0.25002528       0.00139196       0.62701848 </v>
    <v>       0.25570512       0.49338196       0.12341866 </v>
    <v>       0.24895485       0.50080746       0.62500181 </v>
    <v>       0.75100841       0.99320461       0.12446831 </v>
    <v>       0.74925627       0.99492895       0.62326486 </v>
    <v>       0.74836105       0.50313482       0.12404972 </v>
    <v>       0.74944374       0.50488076       0.62417008 </v>
    <v>       0.24653282       0.00474530       0.37775647 </v>
    <v>       0.24985839       0.99936194       0.87530182 </v>
    <v>       0.25258495       0.49351314       0.37382549 </v>
    <v>       0.25187465       0.50211091       0.87832732 </v>
    <v>       0.75206897       0.99246069       0.37342838 </v>
    <v>       0.74829775       0.99170319       0.87752631 </v>
    <v>       0.74946558       0.50395207       0.37310396 </v>
    <v>       0.74765955       0.50705495       0.87818728 </v>
    <v>       0.99808129       0.00143862       0.99886626 </v>
    <v>       0.99927536       0.00063298       0.50023274 </v>
    <v>       0.99875583       0.49849228      -0.00001857 </v>
    <v>       0.99954412       0.49976958       0.49952971 </v>
    <v>       0.50043959       0.00020304       0.00000512 </v>
    <v>       0.49940924       0.99955211       0.49969591 </v>
    <v>       0.50044088       0.49939728       0.50053798 </v>
    <v>       0.25146853       0.25126107       0.00133060 </v>
    <v>       0.25013751       0.25016657       0.49907745 </v>
    <v>       0.25229932       0.75030826       0.00245508 </v>
    <v>       0.25100058       0.75104746       0.50025851 </v>
    <v>       0.74982671       0.24923507       0.49439683 </v>
    <v>       0.74878720       0.74845722       0.00078790 </v>
    <v>       0.75009738       0.74978624       0.49963816 </v>
    <v>       0.25012703       0.25085390       0.75002505 </v>
    <v>       0.23703298       0.74278954       0.24992379 </v>
    <v>       0.24908930       0.74969172       0.74982435 </v>
    <v>       0.75419963       0.25201883       0.24981013 </v>
    <v>       0.75020813       0.24970525       0.74027432 </v>
    <v>       0.74993582       0.74978206       0.75001693 </v>
    <v>       0.99946480       0.00153713       0.24963351 </v>
    <v>       0.99964894       0.00022535       0.75115604 </v>
    <v>       0.99701735       0.49500682       0.24937807 </v>
    <v>       0.00025216       0.50085781       0.75170173 </v>
    <v>       0.50668579       0.01363960       0.24971432 </v>
    <v>       0.50081020       0.00036678       0.75157482 </v>
    <v>       0.50230380       0.49891058       0.24791588 </v>
    <v>       0.49977628       0.50040674       0.75208152 </v>
    <v>       0.50228229       0.49825009       0.99782631 </v>
    <v>       0.75033727       0.24966558       0.00949296 </v>
    <v>       0.24857501       0.24895193       0.24943200 </v>
    <v>       0.74978027       0.74753899       0.24951926 </v>
    <v>       0.10378320       0.14175188       0.24995035 </v>
    <v>       0.11038893       0.13941977       0.74877490 </v>
    <v>       0.10669392       0.64303474       0.24841089 </v>
    <v>       0.10913193       0.64053053       0.74699608 </v>
    <v>       0.60603097       0.14510775       0.25117611 </v>
    <v>       0.61576612       0.14312979       0.76326862 </v>
    <v>       0.61219759       0.63450467       0.25039347 </v>
    <v>       0.61102101       0.63940024       0.74909904 </v>
    <v>       0.39085934       0.36132332       0.24999665 </v>
    <v>       0.38976607       0.36059257       0.74879115 </v>
    <v>       0.38931753       0.86135722       0.74770730 </v>
    <v>       0.89380887       0.35441440       0.25180933 </v>
    <v>       0.88637945       0.35787938       0.76088825 </v>
    <v>       0.88998197       0.86234458       0.24997237 </v>
    <v>       0.88907882       0.86122032       0.74969153 </v>
    <v>       0.35436961       0.09505416       0.25018491 </v>
    <v>       0.36223551       0.11144180       0.74991374 </v>
    <v>       0.36521274       0.62175136       0.25002311 </v>
    <v>       0.35967941       0.61090171       0.74671259 </v>
    <v>       0.85334313       0.10671543       0.25175598 </v>
    <v>       0.85819632       0.11449216       0.76221914 </v>
    <v>       0.86219797       0.60678728       0.24993220 </v>
    <v>       0.86020565       0.60951217       0.75000635 </v>
    <v>       0.14051790       0.39507445       0.24919929 </v>
    <v>       0.13900855       0.38942158       0.74989516 </v>
    <v>       0.14605446       0.89398926       0.24941586 </v>
    <v>       0.13959057       0.89005288       0.74661453 </v>
    <v>       0.64318124       0.38914275       0.25182797 </v>
    <v>       0.64310329       0.38584808       0.75962616 </v>
    <v>       0.62207125       0.88303443       0.25038897 </v>
    <v>       0.63983369       0.89011233       0.74875625 </v>
    <v>       0.36348306       0.38494271       0.99891698 </v>
    <v>       0.36014642       0.39019428       0.50143109 </v>
    <v>       0.36050506       0.88946220       0.99585954 </v>
    <v>       0.36042852       0.89152684       0.50757781 </v>
    <v>       0.86462361       0.38517069       0.98932016 </v>
    <v>       0.85834400       0.39023041       0.50040479 </v>
    <v>       0.86189981       0.88778176       0.99948638 </v>
    <v>       0.85985873       0.89050351       0.50040738 </v>
    <v>       0.13530778       0.11387885       0.99834328 </v>
    <v>       0.13910079       0.11050305       0.50238242 </v>
    <v>       0.13864440       0.61484667       0.00945355 </v>
    <v>       0.14123812       0.61119172       0.49574776 </v>
    <v>       0.63795828       0.10986872       0.99803946 </v>
    <v>       0.64107011       0.10777567       0.49393006 </v>
    <v>       0.63876693       0.61348396       0.00051793 </v>
    <v>       0.64040429       0.60952688       0.49945910 </v>
    <v>       0.11434204       0.36412327       0.99985715 </v>
    <v>       0.11008478       0.36052864       0.50049357 </v>
    <v>       0.11140392       0.86263205       0.00454858 </v>
    <v>       0.10968556       0.86052437       0.49976381 </v>
    <v>       0.61871925       0.35738279       0.98607191 </v>
    <v>       0.60959447       0.35728238       0.50014284 </v>
    <v>       0.61105023       0.86114750       0.99926461 </v>
    <v>       0.60953966       0.85973580       0.50181710 </v>
    <v>       0.38768783       0.13684267       0.00022264 </v>
    <v>       0.39107096       0.14040645       0.49933819 </v>
    <v>       0.38607246       0.63938876       0.00159580 </v>
    <v>       0.39093975       0.64034081       0.50110466 </v>
    <v>       0.88348481       0.13817338       0.98675951 </v>
    <v>       0.89019505       0.14177709       0.49968436 </v>
    <v>       0.88825490       0.63778042       0.99845334 </v>
    <v>       0.89086377       0.64014196       0.50168095 </v>
    <v>       0.99380753       0.00648331       0.12378395 </v>
    <v>       0.99326764       0.00419110       0.62609105 </v>
    <v>       0.99262750       0.49458695       0.12442944 </v>
    <v>       0.99815115       0.49588030       0.62570138 </v>
    <v>       0.49324677       0.99204356       0.12685923 </v>
    <v>       0.50782047       0.00976196       0.62621234 </v>
    <v>       0.50385809       0.49439169       0.12478741 </v>
    <v>       0.50623533       0.49631665       0.62561456 </v>
    <v>       0.99954198       0.00041137       0.37598073 </v>
    <v>       0.00701700       0.99288238       0.87411551 </v>
    <v>       0.99898950       0.49956333       0.37524397 </v>
    <v>       0.00960910       0.50780748       0.87513532 </v>
    <v>       0.48865841       0.98762675       0.37304945 </v>
    <v>       0.49817463       0.99654141       0.87467084 </v>
    <v>       0.49904740       0.49877559       0.37631968 </v>
    <v>       0.49479824       0.50614998       0.87261109 </v>
    <v>       0.24997097       0.24998542       0.37668783 </v>
    <v>       0.24984487       0.24923003       0.87402907 </v>
    <v>       0.26418547       0.76405852       0.37140758 </v>
    <v>       0.24626512       0.74825110       0.87471587 </v>
    <v>       0.75107632       0.25136185       0.37436138 </v>
    <v>       0.75095636       0.75068485       0.37707585 </v>
    <v>       0.74964838       0.75066677       0.87407649 </v>
    <v>       0.25025118       0.24915371       0.12373160 </v>
    <v>       0.25050155       0.24972675       0.62505173 </v>
    <v>       0.26763480       0.76649423       0.13101422 </v>
    <v>       0.24754098       0.74790642       0.62371031 </v>
    <v>       0.75199713       0.25163372       0.12785433 </v>
    <v>       0.74872588       0.24613608       0.62477683 </v>
    <v>       0.75116761       0.75118608       0.12349651 </v>
    <v>       0.75053909       0.74944876       0.62512629 </v>
   </varray>
  </structure>
  <varray name="forces" >
   <v>       0.00365372      -0.00263469       0.01841175 </v>
   <v>       0.00043749       0.00156855      -0.00167802 </v>
   <v>      -0.00591819      -0.00897214       0.00321578 </v>
   <v>       0.01541407       0.00251639      -0.00275622 </v>
   <v>      -0.00057591       0.00100285       0.00093405 </v>
   <v>      -0.00348165      -0.00535384      -0.00032432 </v>
   <v>       0.00509135      -0.00455204       0.00564906 </v>
   <v>      -0.01550307       0.00584019      -0.00524673 </v>
   <v>      -0.00013778      -0.00142959      -0.00655260 </v>
   <v>      -0.00440995       0.00203187      -0.00543272 </v>
   <v>      -0.00113424      -0.00179424      -0.00547039 </v>
   <v>       0.00886033       0.00431801       0.00256385 </v>
   <v>       0.00254527      -0.00609327       0.00717252 </v>
   <v>       0.00107570      -0.00113387      -0.00521638 </v>
   <v>       0.00121458      -0.00003654      -0.00037457 </v>
   <v>      -0.00238198       0.00589772       0.00109726 </v>
   <v>      -0.00201823      -0.00174155      -0.00215288 </v>
   <v>       0.00497083      -0.00473625      -0.01025411 </v>
   <v>      -0.00158722      -0.00517563       0.00138459 </v>
   <v>       0.00465435       0.00906052       0.00005714 </v>
   <v>       0.00041386      -0.00269240       0.00621992 </v>
   <v>      -0.00156300       0.00612252      -0.00607766 </v>
   <v>       0.00523811      -0.00344906       0.00116472 </v>
   <v>      -0.00199837      -0.00152941      -0.00649398 </v>
   <v>       0.00042298      -0.00127946       0.00638267 </v>
   <v>       0.00414404      -0.00464944       0.00079641 </v>
   <v>      -0.00548776      -0.00668075      -0.00880022 </v>
   <v>       0.00718612       0.01117646       0.00189413 </v>
   <v>       0.00080012       0.00691464      -0.00555212 </v>
   <v>      -0.00821976       0.00105940      -0.00445720 </v>
   <v>       0.00632589      -0.00826836       0.00122439 </v>
   <v>      -0.00672430       0.00329920      -0.00450686 </v>
   <v>       0.00161974      -0.02492999       0.00176497 </v>
   <v>       0.01288355       0.00239484      -0.00875727 </v>
   <v>      -0.00608927       0.02943603       0.02909052 </v>
   <v>       0.00137683      -0.00372417      -0.01248682 </v>
   <v>      -0.00917843      -0.02442677       0.00273643 </v>
   <v>      -0.00852577       0.01112212      -0.00522046 </v>
   <v>       0.00930971      -0.00747102      -0.01289363 </v>
   <v>       0.00789758       0.00520393       0.00656022 </v>
   <v>       0.01274629      -0.00736004      -0.00765180 </v>
   <v>       0.00973248       0.01136314       0.00552420 </v>
   <v>       0.00532146       0.00451549      -0.00581990 </v>
   <v>      -0.01484277       0.00448302      -0.02846780 </v>
   <v>      -0.00728882      -0.01192569      -0.01270995 </v>
   <v>      -0.00204017       0.00925284      -0.02432189 </v>
   <v>       0.00877582       0.00776367      -0.01144105 </v>
   <v>      -0.02076358      -0.01378843      -0.00591972 </v>
   <v>       0.00678140       0.00610044       0.00520362 </v>
   <v>       0.00152290      -0.00190442       0.06077284 </v>
   <v>      -0.00936689       0.00760049       0.00153368 </v>
   <v>      -0.01806218       0.00220406       0.04072356 </v>
   <v>      -0.00763881       0.00408723       0.00742715 </v>
   <v>       0.00291647      -0.00786027      -0.00530407 </v>
   <v>       0.01048430      -0.00068107       0.00215211 </v>
   <v>       0.00508084       0.00997331      -0.00416246 </v>
   <v>       0.00021021       0.01427794       0.01185540 </v>
   <v>      -0.00235559      -0.01036860      -0.00085134 </v>
[...]
       <r>   -15.7879     0.0000    32.0000 </r>
       <r>   -15.6361     0.0000    32.0000 </r>
       <r>   -15.4844     0.0000    32.0000 </r>
       <r>   -15.3326     0.0000    32.0000 </r>
       <r>   -15.1808     3.0936    32.4695 </r>
       <r>   -15.0291    22.5954    35.8986 </r>
       <r>   -14.8773    45.7677    42.8444 </r>
       <r>   -14.7256    49.8174    50.4048 </r>
       <r>   -14.5738    35.1790    55.7436 </r>
       <r>   -14.4220    33.1490    60.7744 </r>
       <r>   -14.2703    34.4840    66.0078 </r>
       <r>   -14.1185    90.3642    79.7216 </r>
       <r>   -13.9667   136.4906   100.4357 </r>
       <r>   -13.8150   110.4338   117.1954 </r>
       <r>   -13.6632    43.3557   123.7751 </r>
       <r>   -13.5115    12.7281   125.7068 </r>
       <r>   -13.3597     1.9322   126.0000 </r>
       <r>   -13.2079     0.0000   126.0000 </r>
       <r>   -13.0562     0.0000   126.0000 </r>
       <r>   -12.9044     0.0000   126.0000 </r>
       <r>   -12.7526     0.0182   126.0028 </r>
       <r>   -12.6009    18.5423   128.8168 </r>
       <r>   -12.4491   109.6934   145.4641 </r>
       <r>   -12.2974   169.1313   171.1318 </r>
       <r>   -12.1456   136.8196   191.8958 </r>
       <r>   -11.9938   124.4503   210.7826 </r>
       <r>   -11.8421    64.3380   220.5467 </r>
       <r>   -11.6903     9.5717   221.9993 </r>
       <r>   -11.5385     0.0045   222.0000 </r>
       <r>   -11.3868     0.0000   222.0000 </r>
       <r>   -11.2350     0.0000   222.0000 </r>
       <r>   -11.0833     0.0000   222.0000 </r>
       <r>   -10.9315     0.0000   222.0000 </r>
       <r>   -10.7797     0.0000   222.0000 </r>
       <r>   -10.6280     0.0000   222.0000 </r>
       <r>   -10.4762     0.0000   222.0000 </r>
       <r>   -10.3245     0.0000   222.0000 </r>
       <r>   -10.1727     0.0000   222.0000 </r>
       <r>   -10.0209     0.0000   222.0000 </r>
       <r>    -9.8692     0.0000   222.0000 </r>
       <r>    -9.7174     0.0000   222.0000 </r>
       <r>    -9.5656     0.0000   222.0000 </r>
       <r>    -9.4139     0.0000   222.0000 </r>
       <r>    -9.2621     0.0000   222.0000 </r>
       <r>    -9.1104     0.0000   222.0000 </r>
       <r>    -8.9586     0.0000   222.0000 </r>
       <r>    -8.8068     0.0000   222.0000 </r>
       <r>    -8.6551     0.0000   222.0000 </r>
       <r>    -8.5033     0.0000   222.0000 </r>
       <r>    -8.3515     0.0000   222.0000 </r>
       <r>    -8.1998     0.0000   222.0000 </r>
       <r>    -8.0480     0.0000   222.0000 </r>
       <r>    -7.8963     0.0000   222.0000 </r>
       <r>    -7.7445     0.0000   222.0000 </r>
       <r>    -7.5927     0.0000   222.0000 </r>
       <r>    -7.4410     0.0000   222.0000 </r>
       <r>    -7.2892     0.0000   222.0000 </r>
       <r>    -7.1374     0.0000   222.0000 </r>
       <r>    -6.9857     0.0000   222.0000 </r>
       <r>    -6.8339     0.0000   222.0000 </r>
       <r>    -6.6822     0.0000   222.0000 </r>
       <r>    -6.5304     0.0000   222.0000 </r>
       <r>    -6.3786     0.0000   222.0000 </r>
       <r>    -6.2269     0.0000   222.0000 </r>
       <r>    -6.0751     0.0000   222.0000 </r>
       <r>    -5.9234     0.0000   222.0000 </r>
       <r>    -5.7716     0.0000   222.0000 </r>
       <r>    -5.6198     0.0000   222.0000 </r>
       <r>    -5.4681     0.0000   222.0000 </r>
       <r>    -5.3163     0.0000   222.0000 </r>
       <r>    -5.1645     0.0000   222.0000 </r>
       <r>    -5.0128     0.0000   222.0000 </r>
       <r>    -4.8610     0.0000   222.0000 </r>
       <r>    -4.7093     0.0000   222.0000 </r>
       <r>    -4.5575     0.0000   222.0000 </r>
       <r>    -4.4057     0.0000   222.0000 </r>
       <r>    -4.2540     0.0000   222.0000 </r>
       <r>    -4.1022     0.0000   222.0000 </r>
       <r>    -3.9504     0.0000   222.0000 </r>
       <r>    -3.7987     0.0000   222.0000 </r>
       <r>    -3.6469     0.0000   222.0000 </r>
       <r>    -3.4952     0.0000   222.0000 </r>
       <r>    -3.3434     0.0000   222.0000 </r>
       <r>    -3.1916     0.0000   222.0000 </r>
       <r>    -3.0399     0.0000   222.0000 </r>
       <r>    -2.8881     0.0000   222.0000 </r>
       <r>    -2.7364     0.0000   222.0000 </r>
       <r>    -2.5846     0.0000   222.0000 </r>
       <r>    -2.4328     0.0001   222.0000 </r>
       <r>    -2.2811     3.6033   222.5469 </r>
       <r>    -2.1293    15.6932   224.9285 </r>
       <r>    -1.9775    34.4050   230.1499 </r>
       <r>    -1.8258    41.2754   236.4139 </r>
       <r>    -1.6740    63.3804   246.0326 </r>
       <r>    -1.5223    54.8240   254.3528 </r>
       <r>    -1.3705    54.9294   262.6890 </r>
       <r>    -1.2187    69.8769   273.2937 </r>
       <r>    -1.0670    73.8893   284.5073 </r>
       <r>    -0.9152    77.8418   296.3207 </r>
       <r>    -0.7634    73.7185   307.5084 </r>
       <r>    -0.6117    97.4051   322.2908 </r>
       <r>    -0.4599   123.3106   341.0047 </r>
       <r>    -0.3082    89.0997   354.5266 </r>
       <r>    -0.1564    49.9987   362.1145 </r>
       <r>    -0.0046    46.3288   369.1455 </r>
       <r>     0.1471    45.2360   376.0106 </r>
       <r>     0.2989    48.1188   383.3132 </r>
       <r>     0.4507    51.2953   391.0979 </r>
       <r>     0.6024    55.8141   399.5683 </r>
       <r>     0.7542    47.4988   406.7768 </r>
       <r>     0.9059    45.2071   413.6376 </r>
       <r>     1.0577    62.3045   423.0930 </r>
       <r>     1.2095    79.1192   435.1003 </r>
       <r>     1.3612    84.5651   447.9341 </r>
       <r>     1.5130   103.1541   463.5890 </r>
       <r>     1.6647    79.8095   475.7010 </r>
       <r>     1.8165    69.2973   486.2177 </r>
       <r>     1.9683    58.1250   495.0389 </r>
       <r>     2.1200    34.7411   500.3113 </r>
       <r>     2.2718    22.0089   503.6514 </r>
       <r>     2.4236     2.2971   504.0000 </r>
       <r>     2.5753     0.0000   504.0000 </r>
       <r>     2.7271     0.0000   504.0000 </r>
       <r>     2.8788     0.0000   504.0000 </r>
       <r>     3.0306     0.0000   504.0000 </r>
       <r>     3.1824     0.0000   504.0000 </r>
       <r>     3.3341     0.0000   504.0000 </r>
       <r>     3.4859     0.0000   504.0000 </r>
       <r>     3.6377     0.0000   504.0000 </r>
       <r>     3.7894     0.0000   504.0000 </r>
       <r>     3.9412     0.0000   504.0000 </r>
       <r>     4.0929     0.0000   504.0000 </r>
       <r>     4.2447     0.0000   504.0000 </r>
       <r>     4.3965     0.0034   504.0005 </r>
       <r>     4.5482     7.3305   505.1130 </r>
       <r>     4.7000    25.5529   508.9910 </r>
       <r>     4.8518    43.0592   515.5257 </r>
       <r>     5.0035    19.6229   518.5038 </r>
       <r>     5.1553    38.2526   524.3090 </r>
       <r>     5.3070    42.8366   530.8100 </r>
       <r>     5.4588    72.3256   541.7863 </r>
       <r>     5.6106    61.3629   551.0989 </r>
       <r>     5.7623    66.7674   561.2316 </r>
       <r>     5.9141    99.9501   576.4003 </r>
       <r>     6.0658    90.4642   590.1293 </r>
       <r>     6.2176    77.1602   601.8393 </r>
       <r>     6.3694    54.3473   610.0871 </r>
       <r>     6.5211    40.8467   616.2861 </r>
       <r>     6.6729    21.6822   619.5767 </r>
       <r>     6.8247    21.6249   622.8585 </r>
       <r>     6.9764    25.4766   626.7249 </r>
       <r>     7.1282    17.5086   629.3820 </r>
       <r>     7.2799    17.2637   632.0020 </r>
       <r>     7.4317    14.6106   634.2193 </r>
       <r>     7.5835    11.4563   635.9580 </r>
       <r>     7.7352    11.7642   637.7433 </r>
       <r>     7.8870    17.7256   640.4334 </r>
       <r>     8.0388    30.2491   645.0241 </r>
       <r>     8.1905    20.3748   648.1162 </r>
       <r>     8.3423    24.8349   651.8852 </r>
       <r>     8.4940    28.2119   656.1667 </r>
       <r>     8.6458    23.4103   659.7195 </r>
       <r>     8.7976    24.4049   663.4232 </r>
       <r>     8.9493    27.4367   667.5871 </r>
       <r>     9.1011    38.3211   673.4028 </r>
       <r>     9.2529    39.4333   679.3873 </r>
       <r>     9.4046    38.9996   685.3059 </r>
       <r>     9.5564    43.4304   691.8970 </r>
       <r>     9.7081    41.1923   698.1484 </r>
       <r>     9.8599    56.3438   706.6993 </r>
       <r>    10.0117    69.0047   717.1716 </r>
       <r>    10.1634    73.5290   728.3305 </r>
       <r>    10.3152    69.6637   738.9028 </r>
       <r>    10.4669    55.3015   747.2955 </r>
       <r>    10.6187    59.1533   756.2727 </r>
       <r>    10.7705    56.8220   764.8961 </r>
       <r>    10.9222    20.4364   767.9976 </r>
       <r>    11.0740     0.0159   768.0000 </r>
       <r>    11.2258     0.0000   768.0000 </r>
       <r>    11.3775     0.0000   768.0000 </r>
       <r>    11.5293     0.0000   768.0000 </r>
       <r>    11.6810     0.0000   768.0000 </r>
       <r>    11.8328     0.0000   768.0000 </r>
       <r>    11.9846     0.0000   768.0000 </r>
       <r>    12.1363     0.0000   768.0000 </r>
       <r>    12.2881     0.0000   768.0000 </r>
       <r>    12.4399     0.0000   768.0000 </r>
       <r>    12.5916     0.0000   768.0000 </r>
       <r>    12.7434     0.0000   768.0000 </r>
       <r>    12.8951     0.0000   768.0000 </r>
      </set>
     </set>
    </array>
   </total>
  </dos>
 </calculation>
 <structure name="finalpos" >
  <crystal>
   <varray name="basis" >
    <v>      11.20881633       0.00493119      -0.00312674 </v>
    <v>       0.00492896      11.21135092      -0.00397639 </v>
    <v>      -0.00445820      -0.00567654      15.96448880 </v>
   </varray>
   <i name="volume">   2006.19222561 </i>
   <varray name="rec_basis" >
    <v>       0.08921551      -0.00003921       0.00002490 </v>
    <v>      -0.00003923       0.08919535       0.00003170 </v>
    <v>       0.00001746       0.00002221       0.06263904 </v>
   </varray>
  </crystal>
  <varray name="positions" >
   <v>       0.00460506       0.24922630       0.12346249 </v>
   <v>       0.00535372       0.25067319       0.62352910 </v>
   <v>       0.99149791       0.75058372       0.12252170 </v>
   <v>       0.00013179       0.75127106       0.62551478 </v>
   <v>       0.49788564       0.25795758       0.11975628 </v>
   <v>       0.49469939       0.25047105       0.62432334 </v>
   <v>       0.50790072       0.74112271       0.12048070 </v>
   <v>       0.49941282       0.74957420       0.62603125 </v>
   <v>       0.00445390       0.24912885       0.37480297 </v>
   <v>       0.00951809       0.24977690       0.87686580 </v>
   <v>       0.99163278       0.75054569       0.37550865 </v>
   <v>       0.00134834       0.75064278       0.87678694 </v>
   <v>       0.49572123       0.25649826       0.37531012 </v>
   <v>       0.49076223       0.25284672       0.87716474 </v>
   <v>       0.50817568       0.74310022       0.37691072 </v>
   <v>       0.49810044       0.74834972       0.87715853 </v>
   <v>       0.24664967       0.00476766       0.12074063 </v>
   <v>       0.25006857       0.00134777       0.62698368 </v>
   <v>       0.25569947       0.49336352       0.12340689 </v>
   <v>       0.24895660       0.50087929       0.62498994 </v>
   <v>       0.75100350       0.99321955       0.12447395 </v>
   <v>       0.74924064       0.99498458       0.62323921 </v>
   <v>       0.74838915       0.50308910       0.12404734 </v>
   <v>       0.74945260       0.50486048       0.62414482 </v>
   <v>       0.24653450       0.00470857       0.37777889 </v>
   <v>       0.24989196       0.99933349       0.87530688 </v>
   <v>       0.25254307       0.49349998       0.37380302 </v>
   <v>       0.25188855       0.50218330       0.87834276 </v>
   <v>       0.75206473       0.99250174       0.37341543 </v>
   <v>       0.74825725       0.99175631       0.87752170 </v>
   <v>       0.74952054       0.50389933       0.37311203 </v>
   <v>       0.74764725       0.50703689       0.87817481 </v>
   <v>       0.99804215       0.00140036       0.99885738 </v>
   <v>       0.99930825       0.00063695       0.50022196 </v>
   <v>       0.99873711       0.49853877       0.00002623 </v>
   <v>       0.99955633       0.49978725       0.49952699 </v>
   <v>       0.50042696       0.00017213      -0.00000281 </v>
   <v>       0.49942815       0.99955684       0.49971574 </v>
   <v>       0.50044727       0.49937376       0.50055049 </v>
   <v>       0.25148725       0.25128584       0.00133330 </v>
   <v>       0.25016416       0.25017474       0.49908207 </v>
   <v>       0.25234414       0.75031615       0.00246675 </v>
   <v>       0.25103130       0.75103316       0.50022544 </v>
   <v>       0.74978644       0.24923082       0.49434848 </v>
   <v>       0.74877982       0.74840414       0.00077341 </v>
   <v>       0.75010491       0.74980967       0.49961821 </v>
   <v>       0.25014030       0.25085482       0.75001783 </v>
   <v>       0.23697083       0.74275752       0.24990206 </v>
   <v>       0.24908716       0.74971888       0.74986252 </v>
   <v>       0.75419171       0.25210147       0.24991702 </v>
   <v>       0.75021370       0.24974110       0.74021953 </v>
   <v>       0.74988835       0.74980157       0.75008841 </v>
   <v>       0.99944355       0.00154963       0.24963080 </v>
   <v>       0.99963982       0.00020410       0.75116281 </v>
   <v>       0.99706155       0.49503967       0.24937348 </v>
   <v>       0.00026344       0.50089195       0.75170971 </v>
   <v>       0.50667483       0.01364308       0.24970472 </v>
   <v>       0.50078642       0.00034769       0.75158154 </v>
   <v>       0.50226237       0.49889791       0.24790868 </v>
   <v>       0.49976706       0.50042930       0.75210530 </v>
   <v>       0.50228400       0.49824520       0.99781255 </v>
   <v>       0.75030878       0.24965747       0.00951265 </v>
   <v>       0.24865968       0.24890394       0.24944968 </v>
   <v>       0.74971510       0.74757687       0.24952951 </v>
   <v>       0.10384782       0.14170088       0.24997398 </v>
   <v>       0.11044470       0.13942261       0.74878811 </v>
   <v>       0.10671431       0.64298439       0.24836916 </v>
   <v>       0.10912360       0.64053972       0.74699522 </v>
   <v>       0.60594349       0.14509255       0.25112431 </v>
   <v>       0.61584970       0.14314822       0.76330830 </v>
   <v>       0.61227377       0.63442359       0.25040013 </v>
   <v>       0.61102450       0.63939074       0.74907802 </v>
   <v>       0.39081600       0.36131434       0.24998719 </v>
   <v>       0.38970262       0.36061525       0.74877869 </v>
   <v>       0.38931804       0.86138859       0.74773465 </v>
   <v>       0.89382786       0.35436493       0.25180134 </v>
   <v>       0.88633817       0.35790819       0.76087802 </v>
   <v>       0.88988832       0.86242109       0.24997098 </v>
   <v>       0.88907082       0.86127973       0.74969233 </v>
   <v>       0.35440990       0.09503844       0.25019573 </v>
   <v>       0.36231582       0.11147594       0.74991945 </v>
   <v>       0.36516285       0.62172482       0.25004492 </v>
   <v>       0.35967069       0.61092858       0.74677342 </v>
   <v>       0.85342697       0.10667201       0.25174370 </v>
   <v>       0.85828622       0.11455003       0.76222796 </v>
   <v>       0.86223852       0.60680098       0.24993686 </v>
   <v>       0.86020282       0.60955676       0.75001012 </v>
   <v>       0.14048911       0.39503230       0.24917046 </v>
   <v>       0.13895421       0.38941493       0.74987706 </v>
   <v>       0.14601123       0.89390503       0.24942630 </v>
   <v>       0.13960019       0.89006521       0.74663511 </v>
   <v>       0.64312313       0.38918359       0.25183202 </v>
   <v>       0.64310173       0.38582878       0.75958423 </v>
   <v>       0.62199765       0.88295097       0.25034164 </v>
   <v>       0.63982928       0.89008015       0.74872293 </v>
   <v>       0.36353604       0.38491968       0.99893938 </v>
   <v>       0.36015674       0.39019920       0.50143005 </v>
   <v>       0.36052331       0.88944114       0.99586240 </v>
   <v>       0.36037347       0.89152833       0.50750825 </v>
   <v>       0.86466416       0.38512176       0.98928417 </v>
   <v>       0.85832782       0.39022984       0.50043520 </v>
   <v>       0.86193760       0.88775883       0.99945987 </v>
   <v>       0.85986083       0.89048511       0.50043011 </v>
   <v>       0.13525696       0.11395500       0.99835329 </v>
   <v>       0.13909825       0.11052751       0.50237880 </v>
   <v>       0.13860390       0.61489005       0.00944896 </v>
   <v>       0.14126189       0.61120937       0.49572854 </v>
   <v>       0.63791422       0.10989039       0.99807692 </v>
   <v>       0.64104457       0.10777355       0.49392783 </v>
   <v>       0.63871446       0.61349989       0.00052469 </v>
   <v>       0.64038764       0.60956323       0.49945060 </v>
   <v>       0.11443201       0.36418276       0.99983829 </v>
   <v>       0.11004184       0.36057341       0.50051308 </v>
   <v>       0.11143549       0.86267114       0.00456176 </v>
   <v>       0.10967629       0.86050363       0.49976088 </v>
   <v>       0.61873697       0.35741166       0.98604855 </v>
   <v>       0.60958998       0.35727857       0.50018335 </v>
   <v>       0.61104159       0.86113142       0.99930232 </v>
   <v>       0.60956484       0.85972272       0.50184738 </v>
   <v>       0.38761242       0.13682053       0.00018763 </v>
   <v>       0.39106360       0.14040635       0.49935639 </v>
   <v>       0.38606202       0.63934144       0.00159172 </v>
   <v>       0.39095433       0.64033717       0.50105073 </v>
   <v>       0.88339057       0.13817890       0.98674216 </v>
   <v>       0.89017369       0.14177383       0.49971040 </v>
   <v>       0.88825940       0.63772659       0.99845745 </v>
   <v>       0.89089355       0.64014525       0.50167383 </v>
   <v>       0.99379143       0.00647190       0.12373784 </v>
   <v>       0.99332993       0.00415260       0.62613657 </v>
   <v>       0.99260750       0.49456175       0.12440875 </v>
   <v>       0.99815311       0.49598482       0.62574007 </v>
   <v>       0.49313910       0.99199306       0.12682415 </v>
   <v>       0.50782461       0.00977273       0.62624990 </v>
   <v>       0.50385792       0.49435277       0.12477114 </v>
   <v>       0.50617691       0.49639098       0.62566359 </v>
   <v>       0.99953835       0.00039992       0.37601312 </v>
   <v>       0.00702575       0.99284856       0.87413281 </v>
   <v>       0.99900534       0.49954923       0.37526236 </v>
   <v>       0.00959459       0.50780837       0.87513125 </v>
   <v>       0.48868632       0.98763630       0.37307490 </v>
   <v>       0.49822166       0.99653644       0.87468836 </v>
   <v>       0.49908707       0.49871844       0.37634038 </v>
   <v>       0.49482365       0.50612379       0.87263271 </v>
   <v>       0.24995906       0.25000951       0.37669979 </v>
   <v>       0.24983652       0.24925443       0.87401650 </v>
   <v>       0.26423608       0.76407613       0.37134939 </v>
   <v>       0.24623085       0.74827126       0.87469581 </v>
   <v>       0.75106396       0.25136417       0.37436999 </v>
   <v>       0.75097504       0.75068758       0.37707174 </v>
   <v>       0.74961974       0.75067582       0.87406281 </v>
   <v>       0.25024587       0.24915580       0.12370885 </v>
   <v>       0.25050540       0.24974035       0.62505930 </v>
   <v>       0.26773331       0.76655717       0.13104591 </v>
   <v>       0.24756124       0.74788881       0.62369507 </v>
   <v>       0.75206136       0.25161388       0.12784157 </v>
   <v>       0.74872171       0.24612055       0.62472253 </v>
   <v>       0.75120721       0.75117477       0.12351544 </v>
   <v>       0.75057428       0.74942318       0.62510755 </v>
  </varray>
 </structure>
</modeling>
