       N       E                     dE             d eps       ncg     rms          rms(c)
DAV:   1    -0.111892553336E+04   -0.11189E+04   -0.84450E-02 13272   0.674E-01    0.473E-02
RMM:   2    -0.111892553117E+04    0.21870E-05   -0.62622E-05  7470   0.124E-02    0.669E-02
RMM:   3    -0.111892553153E+04   -0.35501E-06   -0.18929E-05  7032   0.799E-03    0.115E-02
RMM:   4    -0.111892553300E+04   -0.14758E-05   -0.98554E-06  5508   0.388E-03    0.644E-03
RMM:   5    -0.111892553416E+04   -0.11583E-05   -0.60813E-06  5201   0.422E-03    0.122E-02
RMM:   6    -0.111892553505E+04   -0.88594E-06   -0.42354E-06  4248   0.284E-03    0.245E-03
RMM:   7    -0.111892553534E+04   -0.29418E-06   -0.23412E-06  3519   0.289E-03    0.384E-03
RMM:   8    -0.111892553568E+04   -0.34100E-06   -0.17819E-06  3013   0.224E-03
   1 F= -.11189255E+04 E0= -.11189255E+04  d E =-.111893E+04  mag=    40.0000
       N       E                     dE             d eps       ncg     rms          rms(c)
DAV:   1    -0.111892629264E+04   -0.75730E-03   -0.16119E+00 12800   0.149E+00    0.505E-01
RMM:   2    -0.111892958853E+04   -0.32959E-02   -0.50921E-02 12304   0.299E-01    0.466E-01
RMM:   3    -0.111892932588E+04    0.26265E-03   -0.27444E-03 12816   0.899E-02    0.288E-01
RMM:   4    -0.111892889225E+04    0.43363E-03   -0.11593E-03 11484   0.390E-02    0.154E-01
RMM:   5    -0.111892879570E+04    0.96546E-04   -0.36772E-04 10363   0.248E-02    0.683E-02
RMM:   6    -0.111892879253E+04    0.31715E-05   -0.49990E-05  7373   0.103E-02    0.389E-02
RMM:   7    -0.111892879218E+04    0.34427E-06   -0.20970E-05  7221   0.681E-03    0.256E-02
RMM:   8    -0.111892879122E+04    0.95906E-06   -0.14014E-05  6891   0.541E-03
   2 F= -.11189288E+04 E0= -.11189288E+04  d E =-.325554E-02  mag=    40.0000
       N       E                     dE             d eps       ncg     rms          rms(c)
DAV:   1    -0.111892898259E+04   -0.19041E-03   -0.86756E-02 13280   0.345E-01    0.119E-01
RMM:   2    -0.111892916100E+04   -0.17841E-03   -0.27383E-03 12197   0.700E-02    0.110E-01
RMM:   3    -0.111892914306E+04    0.17945E-04   -0.10394E-04  7047   0.207E-02    0.676E-02
RMM:   4    -0.111892912158E+04    0.21475E-04   -0.57730E-05  6865   0.103E-02    0.351E-02
RMM:   5    -0.111892911812E+04    0.34618E-05   -0.24043E-05  6516   0.684E-03    0.297E-02
RMM:   6    -0.111892911874E+04   -0.62563E-06   -0.64959E-06  5684   0.415E-03    0.101E-02
RMM:   7    -0.111892911893E+04   -0.18411E-06   -0.18120E-06  3856   0.237E-03    0.615E-03
RMM:   8    -0.111892911917E+04   -0.24542E-06   -0.86814E-07  3417   0.211E-03
   3 F= -.11189291E+04 E0= -.11189291E+04  d E =-.358349E-02  mag=    40.0000
       N       E                     dE             d eps       ncg     rms          rms(c)
DAV:   1    -0.111892866139E+04    0.45753E-03   -0.15659E+00 12616   0.148E+00    0.403E-01
RMM:   2    -0.111893275409E+04   -0.40927E-02   -0.41014E-02 12347   0.264E-01    0.275E-01
RMM:   3    -0.111893285668E+04   -0.10259E-03   -0.21414E-03 12285   0.877E-02    0.170E-01
RMM:   4    -0.111893274476E+04    0.11192E-03   -0.59449E-04 11448   0.282E-02    0.864E-02
RMM:   5    -0.111893272623E+04    0.18532E-04   -0.14319E-04  7410   0.170E-02    0.437E-02
RMM:   6    -0.111893273120E+04   -0.49681E-05   -0.40154E-05  7143   0.105E-02    0.228E-02
RMM:   7    -0.111893273338E+04   -0.21839E-05   -0.21988E-05  6986   0.641E-03    0.122E-02
RMM:   8    -0.111893273460E+04   -0.12233E-05   -0.12669E-05  6677   0.580E-03
   4 F= -.11189327E+04 E0= -.11189327E+04  d E =-.361543E-02  mag=    40.0000
       N       E                     dE             d eps       ncg     rms          rms(c)
DAV:   1    -0.111893070343E+04    0.20299E-02   -0.11423E+00 12560   0.126E+00    0.344E-01
RMM:   2    -0.111893371859E+04   -0.30152E-02   -0.30217E-02 12369   0.227E-01    0.236E-01
RMM:   3    -0.111893379581E+04   -0.77214E-04   -0.16248E-03 12320   0.749E-02    0.147E-01
RMM:   4    -0.111893371481E+04    0.81000E-04   -0.44633E-04 10379   0.242E-02    0.759E-02
RMM:   5    -0.111893370119E+04    0.13615E-04   -0.11806E-04  7268   0.157E-02    0.387E-02
RMM:   6    -0.111893370541E+04   -0.42132E-05   -0.36616E-05  7130   0.996E-03    0.215E-02
RMM:   7    -0.111893370743E+04   -0.20210E-05   -0.20521E-05  6955   0.620E-03    0.110E-02
RMM:   8    -0.111893370863E+04   -0.12024E-05   -0.12201E-05  6673   0.565E-03
   5 F= -.11189337E+04 E0= -.11189337E+04  d E =-.458946E-02  mag=    40.0000
       N       E                     dE             d eps       ncg     rms          rms(c)
DAV:   1    -0.111893378513E+04   -0.77706E-04   -0.10233E+00 12512   0.119E+00    0.299E-01
RMM:   2    -0.111893629930E+04   -0.25142E-02   -0.26588E-02 12437   0.210E-01    0.216E-01
RMM:   3    -0.111893632003E+04   -0.20727E-04   -0.13689E-03 12066   0.696E-02    0.133E-01
RMM:   4    -0.111893625268E+04    0.67347E-04   -0.35634E-04  9142   0.220E-02    0.726E-02
RMM:   5    -0.111893623791E+04    0.14772E-04   -0.10973E-04  7227   0.151E-02    0.489E-02
RMM:   6    -0.111893624115E+04   -0.32443E-05   -0.36175E-05  7073   0.100E-02    0.199E-02
RMM:   7    -0.111893624277E+04   -0.16158E-05   -0.19796E-05  6812   0.608E-03    0.120E-02
RMM:   8    -0.111893624358E+04   -0.80727E-06   -0.11700E-05  6511   0.560E-03
   6 F= -.11189362E+04 E0= -.11189362E+04  d E =-.253495E-02  mag=    40.0000
       N       E                     dE             d eps       ncg     rms          rms(c)
DAV:   1    -0.111893309587E+04    0.31469E-02   -0.18691E+00 12416   0.160E+00    0.404E-01
RMM:   2    -0.111893767737E+04   -0.45815E-02   -0.48430E-02 12416   0.283E-01    0.293E-01
RMM:   3    -0.111893772104E+04   -0.43670E-04   -0.25001E-03 12359   0.945E-02    0.180E-01
RMM:   4    -0.111893760240E+04    0.11864E-03   -0.67804E-04 11989   0.297E-02    0.959E-02
RMM:   5    -0.111893757300E+04    0.29399E-04   -0.19899E-04  7868   0.189E-02    0.557E-02
RMM:   6    -0.111893757822E+04   -0.52263E-05   -0.55203E-05  7174   0.120E-02    0.253E-02
RMM:   7    -0.111893758081E+04   -0.25852E-05   -0.31155E-05  7023   0.745E-03    0.142E-02
RMM:   8    -0.111893758194E+04   -0.11323E-05   -0.18375E-05  6792   0.697E-03
   7 F= -.11189376E+04 E0= -.11189376E+04  d E =-.387331E-02  mag=    40.0000
       N       E                     dE             d eps       ncg     rms          rms(c)
DAV:   1    -0.111893692797E+04    0.65283E-03   -0.12924E+00 12432   0.132E+00    0.294E-01
RMM:   2    -0.111894000515E+04   -0.30772E-02   -0.32876E-02 12437   0.232E-01    0.205E-01
RMM:   3    -0.111894001199E+04   -0.68397E-05   -0.17084E-03 12131   0.778E-02    0.132E-01
RMM:   4    -0.111893993664E+04    0.75344E-04   -0.45815E-04 10476   0.245E-02    0.747E-02
RMM:   5    -0.111893992173E+04    0.14917E-04   -0.13049E-04  7452   0.165E-02    0.643E-02
RMM:   6    -0.111893992582E+04   -0.40900E-05   -0.41757E-05  7125   0.107E-02    0.214E-02
RMM:   7    -0.111893992900E+04   -0.31795E-05   -0.22907E-05  6935   0.640E-03    0.133E-02
RMM:   8    -0.111893993069E+04   -0.16982E-05   -0.13913E-05  6713   0.612E-03
   8 F= -.11189399E+04 E0= -.11189399E+04  d E =-.234876E-02  mag=    40.0000
       N       E                     dE             d eps       ncg     rms          rms(c)
DAV:   1    -0.111893639582E+04    0.35332E-02   -0.20106E+00 12384   0.165E+00    0.367E-01
RMM:   2    -0.111894117424E+04   -0.47784E-02   -0.51071E-02 12436   0.289E-01    0.257E-01
RMM:   3    -0.111894118854E+04   -0.14292E-04   -0.26435E-03 12294   0.968E-02    0.165E-01
RMM:   4    -0.111894107301E+04    0.11553E-03   -0.70868E-04 12167   0.303E-02    0.914E-02
RMM:   5    -0.111894104974E+04    0.23264E-04   -0.21743E-04  8415   0.197E-02    0.743E-02
RMM:   6    -0.111894105407E+04   -0.43289E-05   -0.56652E-05  7185   0.123E-02    0.250E-02
RMM:   7    -0.111894105828E+04   -0.42112E-05   -0.30935E-05  7086   0.720E-03    0.147E-02
RMM:   8    -0.111894106049E+04   -0.22108E-05   -0.18363E-05  6926   0.720E-03
   9 F= -.11189411E+04 E0= -.11189411E+04  d E =-.347855E-02  mag=    40.0000
       N       E                     dE             d eps       ncg     rms          rms(c)
DAV:   1    -0.111893993050E+04    0.11278E-02   -0.14867E+00 12504   0.141E+00    0.317E-01
RMM:   2    -0.111894333173E+04   -0.34012E-02   -0.37458E-02 12406   0.244E-01    0.236E-01
RMM:   3    -0.111894330836E+04    0.23372E-04   -0.19469E-03 12131   0.841E-02    0.144E-01
RMM:   4    -0.111894322649E+04    0.81866E-04   -0.50251E-04 10888   0.254E-02    0.910E-02
RMM:   5    -0.111894319679E+04    0.29698E-04   -0.13519E-04  7337   0.164E-02    0.510E-02
RMM:   6    -0.111894320210E+04   -0.53049E-05   -0.44754E-05  7117   0.103E-02    0.184E-02
RMM:   7    -0.111894320384E+04   -0.17385E-05   -0.25271E-05  6955   0.693E-03    0.145E-02
RMM:   8    -0.111894320431E+04   -0.47499E-06   -0.15407E-05  6706   0.607E-03
  10 F= -.11189432E+04 E0= -.11189432E+04  d E =-.214382E-02  mag=    40.0000
       N       E                     dE             d eps       ncg     rms          rms(c)
DAV:   1    -0.111894077011E+04    0.24337E-02   -0.14708E+00 12480   0.140E+00    0.314E-01
RMM:   2    -0.111894414320E+04   -0.33731E-02   -0.37119E-02 12430   0.243E-01    0.233E-01
RMM:   3    -0.111894412039E+04    0.22811E-04   -0.19194E-03 12147   0.830E-02    0.142E-01
RMM:   4    -0.111894404006E+04    0.80333E-04   -0.49670E-04 10866   0.252E-02    0.898E-02
RMM:   5    -0.111894401055E+04    0.29508E-04   -0.13363E-04  7347   0.164E-02    0.504E-02
RMM:   6    -0.111894401581E+04   -0.52614E-05   -0.44389E-05  7125   0.102E-02    0.188E-02
RMM:   7    -0.111894401751E+04   -0.17008E-05   -0.24955E-05  6965   0.696E-03    0.151E-02
RMM:   8    -0.111894401806E+04   -0.54833E-06   -0.15354E-05  6703   0.600E-03
  11 F= -.11189440E+04 E0= -.11189440E+04  d E =-.295757E-02  mag=    40.0000
       N       E                     dE             d eps       ncg     rms          rms(c)
DAV:   1    -0.111894155392E+04    0.24636E-02   -0.19858E+00 12680   0.162E+00    0.346E-01
RMM:   2    -0.111894632401E+04   -0.47701E-02   -0.49709E-02 12457   0.280E-01    0.252E-01
RMM:   3    -0.111894633822E+04   -0.14211E-04   -0.25070E-03 12234   0.941E-02    0.156E-01
RMM:   4    -0.111894623841E+04    0.99814E-04   -0.62278E-04 11880   0.281E-02    0.937E-02
RMM:   5    -0.111894621087E+04    0.27536E-04   -0.18906E-04  7718   0.181E-02    0.533E-02
RMM:   6    -0.111894621847E+04   -0.76052E-05   -0.52453E-05  7145   0.113E-02    0.210E-02
RMM:   7    -0.111894622195E+04   -0.34801E-05   -0.29649E-05  7057   0.729E-03    0.144E-02
RMM:   8    -0.111894622401E+04   -0.20545E-05   -0.17906E-05  6874   0.683E-03
  12 F= -.11189462E+04 E0= -.11189462E+04  d E =-.220595E-02  mag=    40.0000
       N       E                     dE             d eps       ncg     rms          rms(c)
DAV:   1    -0.111894255636E+04    0.36656E-02   -0.18631E+00 12688   0.157E+00    0.335E-01
RMM:   2    -0.111894704098E+04   -0.44846E-02   -0.46711E-02 12463   0.271E-01    0.244E-01
RMM:   3    -0.111894705529E+04   -0.14309E-04   -0.23572E-03 12237   0.910E-02    0.152E-01
RMM:   4    -0.111894696135E+04    0.93942E-04   -0.57634E-04 11619   0.272E-02    0.917E-02
RMM:   5    -0.111894693540E+04    0.25953E-04   -0.17588E-04  7591   0.178E-02    0.563E-02
RMM:   6    -0.111894694318E+04   -0.77824E-05   -0.52506E-05  7151   0.113E-02    0.215E-02
RMM:   7    -0.111894694666E+04   -0.34814E-05   -0.29552E-05  7072   0.738E-03    0.150E-02
RMM:   8    -0.111894694866E+04   -0.20007E-05   -0.17995E-05  6888   0.679E-03
  13 F= -.11189469E+04 E0= -.11189469E+04  d E =-.293060E-02  mag=    40.0000
       N       E                     dE             d eps       ncg     rms          rms(c)
DAV:   1    -0.111894304534E+04    0.39013E-02   -0.25956E+00 12392   0.185E+00    0.365E-01
RMM:   2    -0.111894903282E+04   -0.59875E-02   -0.63728E-02 12424   0.315E-01    0.249E-01
RMM:   3    -0.111894902887E+04    0.39565E-05   -0.32312E-03 12236   0.108E-01    0.158E-01
RMM:   4    -0.111894890540E+04    0.12346E-03   -0.84379E-04 12662   0.317E-02    0.874E-02
RMM:   5    -0.111894888345E+04    0.21955E-04   -0.22323E-04  8221   0.186E-02    0.373E-02
RMM:   6    -0.111894888864E+04   -0.51942E-05   -0.56200E-05  7168   0.109E-02    0.234E-02
RMM:   7    -0.111894889178E+04   -0.31392E-05   -0.33481E-05  7018   0.742E-03    0.134E-02
RMM:   8    -0.111894889277E+04   -0.99276E-06   -0.20814E-05  6801   0.704E-03
  14 F= -.11189489E+04 E0= -.11189489E+04  d E =-.194411E-02  mag=    40.0000
       N       E                     dE             d eps       ncg     rms          rms(c)
DAV:   1    -0.111894675123E+04    0.21405E-02   -0.11382E+00 12552   0.122E+00    0.241E-01
RMM:   2    -0.111894939779E+04   -0.26466E-02   -0.28157E-02 12488   0.209E-01    0.164E-01
RMM:   3    -0.111894938782E+04    0.99634E-05   -0.14082E-03 11815   0.700E-02    0.105E-01
RMM:   4    -0.111894933063E+04    0.57197E-04   -0.35105E-04  9363   0.212E-02    0.590E-02
RMM:   5    -0.111894932122E+04    0.94108E-05   -0.96913E-05  7204   0.140E-02    0.301E-02
RMM:   6    -0.111894932452E+04   -0.33076E-05   -0.32339E-05  7034   0.884E-03    0.175E-02
RMM:   7    -0.111894932634E+04   -0.18195E-05   -0.19459E-05  6749   0.592E-03    0.106E-02
RMM:   8    -0.111894932710E+04   -0.75196E-06   -0.12048E-05  6435   0.540E-03
  15 F= -.11189493E+04 E0= -.11189493E+04  d E =-.237843E-02  mag=    40.0000
       N       E                     dE             d eps       ncg     rms          rms(c)
DAV:   1    -0.111894585815E+04    0.34682E-02   -0.23113E+00 12352   0.174E+00    0.355E-01
RMM:   2    -0.111895123246E+04   -0.53743E-02   -0.56902E-02 12381   0.299E-01    0.249E-01
RMM:   3    -0.111895125024E+04   -0.17775E-04   -0.28460E-03 12141   0.101E-01    0.157E-01
RMM:   4    -0.111895113384E+04    0.11640E-03   -0.69803E-04 12282   0.297E-02    0.939E-02
RMM:   5    -0.111895110005E+04    0.33781E-04   -0.24371E-04  8293   0.190E-02    0.662E-02
RMM:   6    -0.111895110504E+04   -0.49842E-05   -0.58774E-05  7146   0.118E-02    0.253E-02
RMM:   7    -0.111895110783E+04   -0.27896E-05   -0.28950E-05  6962   0.732E-03    0.157E-02
RMM:   8    -0.111895110882E+04   -0.99328E-06   -0.17286E-05  6742   0.666E-03
  16 F= -.11189511E+04 E0= -.11189511E+04  d E =-.178173E-02  mag=    40.0000
       N       E                     dE             d eps       ncg     rms          rms(c)
DAV:   1    -0.111894995525E+04    0.11526E-02   -0.62503E-01 12592   0.904E-01    0.184E-01
RMM:   2    -0.111895142922E+04   -0.14740E-02   -0.15585E-02 12427   0.156E-01    0.130E-01
RMM:   3    -0.111895143106E+04   -0.18415E-05   -0.77191E-04 10943   0.518E-02    0.826E-02
RMM:   4    -0.111895139807E+04    0.32999E-04   -0.16759E-04  7547   0.157E-02    0.515E-02
RMM:   5    -0.111895138998E+04    0.80860E-05   -0.69082E-05  7125   0.114E-02    0.488E-02
RMM:   6    -0.111895139238E+04   -0.23977E-05   -0.26716E-05  6876   0.833E-03    0.174E-02
RMM:   7    -0.111895139375E+04   -0.13752E-05   -0.14090E-05  6562   0.507E-03    0.127E-02
RMM:   8    -0.111895139434E+04   -0.58595E-06   -0.81119E-06  5938   0.467E-03
  17 F= -.11189514E+04 E0= -.11189514E+04  d E =-.206724E-02  mag=    40.0000
       N       E                     dE             d eps       ncg     rms          rms(c)
DAV:   1    -0.111894796786E+04    0.34259E-02   -0.22533E+00 12456   0.172E+00    0.336E-01
RMM:   2    -0.111895319131E+04   -0.52235E-02   -0.55124E-02 12399   0.292E-01    0.228E-01
RMM:   3    -0.111895318674E+04    0.45781E-05   -0.27396E-03 12120   0.997E-02    0.144E-01
RMM:   4    -0.111895308390E+04    0.10284E-03   -0.68665E-04 12293   0.293E-02    0.894E-02
RMM:   5    -0.111895305735E+04    0.26552E-04   -0.16488E-04  7584   0.176E-02    0.660E-02
RMM:   6    -0.111895306543E+04   -0.80852E-05   -0.56629E-05  7163   0.111E-02    0.203E-02
RMM:   7    -0.111895306952E+04   -0.40865E-05   -0.28649E-05  7056   0.763E-03    0.171E-02
RMM:   8    -0.111895307168E+04   -0.21660E-05   -0.18282E-05  6768   0.646E-03
  18 F= -.11189531E+04 E0= -.11189531E+04  d E =-.167734E-02  mag=    40.0000
