<?xml version="1.0" encoding="ISO-8859-1"?>
<modeling>
 <generator>
  <i name="program" type="string">vasp </i>
  <i name="version" type="string">5.4.1  </i>
  <i name="subversion" type="string">05Feb16 (build Jan 25 2017 20:16:33) complex                          parallel </i>
  <i name="platform" type="string">BWXE6 </i>
  <i name="date" type="string">2019 06 26 </i>
  <i name="time" type="string">08:45:52 </i>
 </generator>
 <incar>
  <i type="string" name="SYSTEM"> STF</i>
  <i type="string" name="PREC">normal</i>
  <i type="string" name="ALGO"> Fast</i>
  <i type="int" name="ISPIN">     2</i>
  <i type="int" name="NELM">    40</i>
  <i type="int" name="NELMIN">     8</i>
  <i type="int" name="IBRION">     2</i>
  <i name="EDIFF">      0.00010000</i>
  <i name="EDIFFG">     -0.03000000</i>
  <i type="int" name="NSW">    30</i>
  <i type="int" name="ISIF">     3</i>
  <i name="ENCUT">    520.00000000</i>
  <i type="int" name="NBANDS">   768</i>
  <v name="MAGMOM">      0.60000000      0.60000000      0.60000000      0.60000000      0.60000000      0.60000000      0.60000000      0.60000000      0.60000000      0.60000000      0.60000000      0.60000000      0.60000000      0.60000000      0.60000000      0.60000000      0.60000000      0.60000000      0.60000000      0.60000000
      0.60000000      0.60000000      0.60000000      0.60000000      0.60000000      0.60000000      0.60000000      0.60000000      0.60000000      0.60000000      0.60000000      0.60000000      0.60000000      0.60000000      0.60000000      0.60000000      0.60000000      0.60000000      0.60000000      0.60000000
      0.60000000      0.60000000      0.60000000      0.60000000      0.60000000      0.60000000      0.60000000      0.60000000      5.00000000      5.00000000      5.00000000      5.00000000      5.00000000      5.00000000      5.00000000      5.00000000      5.00000000      5.00000000      5.00000000      5.00000000
      5.00000000      5.00000000      5.00000000      5.00000000      0.60000000      0.60000000      0.60000000      0.60000000      0.60000000      0.60000000      0.60000000      0.60000000      0.60000000      0.60000000      0.60000000      0.60000000      0.60000000      0.60000000      0.60000000      0.60000000
      0.60000000      0.60000000      0.60000000      0.60000000      0.60000000      0.60000000      0.60000000      0.60000000      0.60000000      0.60000000      0.60000000      0.60000000      0.60000000      0.60000000      0.60000000      0.60000000      0.60000000      0.60000000      0.60000000      0.60000000
      0.60000000      0.60000000      0.60000000      0.60000000      0.60000000      0.60000000      0.60000000      0.60000000      0.60000000      0.60000000      0.60000000      0.60000000      0.60000000      0.60000000      0.60000000      0.60000000      0.60000000      0.60000000      0.60000000      0.60000000
      0.60000000      0.60000000      0.60000000      0.60000000      0.60000000      0.60000000      0.60000000      0.60000000      0.60000000      0.60000000      0.60000000      0.60000000      0.60000000      0.60000000      0.60000000      0.60000000      0.60000000      0.60000000      0.60000000      0.60000000
      0.60000000      0.60000000      0.60000000      0.60000000      0.60000000      0.60000000      0.60000000      0.60000000      0.60000000      0.60000000      0.60000000      0.60000000</v>
  <i type="string" name="LREAL"> Auto</i>
  <i type="int" name="ISMEAR">     0</i>
  <i name="SIGMA">      0.05000000</i>
  <i type="int" name="LMAXMIX">     4</i>
  <v type="int" name="KPOINT_BSE">    -1     0     0     0</v>
  <i type="int" name="NELM">    40</i>
  <i type="logical" name="LDAU"> T  </i>
  <v type="int" name="LDAUTYPE">     2</v>
  <v type="int" name="LDAUL">     0     2     2     0</v>
  <v name="LDAUU">      0.00000000      3.00000000      5.00000000      0.00000000</v>
  <v name="LDAUJ">      0.00000000      0.00000000      0.00000000      0.00000000</v>
  <i type="int" name="LDAUPRINT">     1</i>
 </incar>
 <kpoints>
  <generation param="Monkhorst-Pack">
   <v type="int" name="divisions">       2        2        2 </v>
   <v name="usershift">      0.00000000       0.00000000       0.00000000 </v>
   <v name="genvec1">      0.50000000      -0.00000000       0.00000000 </v>
   <v name="genvec2">      0.00000000       0.50000000       0.00000000 </v>
   <v name="genvec3">      0.00000000      -0.00000000       0.50000000 </v>
   <v name="shift">      0.50000000       0.50000000       0.50000000 </v>
  </generation>
  <varray name="kpointlist" >
   <v>       0.25000000       0.25000000       0.25000000 </v>
   <v>      -0.25000000       0.25000000       0.25000000 </v>
   <v>       0.25000000      -0.25000000       0.25000000 </v>
   <v>      -0.25000000      -0.25000000       0.25000000 </v>
  </varray>
  <varray name="weights" >
   <v>       0.25000000 </v>
   <v>       0.25000000 </v>
   <v>       0.25000000 </v>
   <v>       0.25000000 </v>
  </varray>
 </kpoints>
 <parameters>
  <separator name="general" >
   <i type="string" name="SYSTEM">STF</i>
   <i type="logical" name="LCOMPAT"> F  </i>
  </separator>
  <separator name="electronic" >
   <i type="string" name="PREC">normal</i>
   <i name="ENMAX">    520.00000000</i>
   <i name="ENAUG">    605.39200000</i>
   <i name="EDIFF">      0.00010000</i>
   <i type="int" name="IALGO">    68</i>
   <i type="int" name="IWAVPR">    11</i>
   <i type="int" name="NBANDS">   768</i>
   <i name="NELECT">   1040.00000000</i>
   <i type="int" name="TURBO">     0</i>
   <i type="int" name="IRESTART">     0</i>
   <i type="int" name="NREBOOT">     0</i>
   <i type="int" name="NMIN">     0</i>
   <i name="EREF">      0.00000000</i>
   <separator name="electronic smearing" >
    <i type="int" name="ISMEAR">     0</i>
    <i name="SIGMA">      0.05000000</i>
    <i name="KSPACING">      0.50000000</i>
    <i type="logical" name="KGAMMA"> T  </i>
   </separator>
   <separator name="electronic projectors" >
    <i type="logical" name="LREAL"> T  </i>
    <v name="ROPT">     -0.00050000     -0.00050000     -0.00050000     -0.00050000</v>
    <i type="int" name="LMAXPAW">  -100</i>
    <i type="int" name="LMAXMIX">     4</i>
    <i type="logical" name="NLSPLINE"> F  </i>
   </separator>
   <separator name="electronic startup" >
    <i type="int" name="ISTART">     1</i>
    <i type="int" name="ICHARG">     0</i>
    <i type="int" name="INIWAV">     1</i>
   </separator>
   <separator name="electronic spin" >
    <i type="int" name="ISPIN">     2</i>
    <i type="logical" name="LNONCOLLINEAR"> F  </i>
    <v name="MAGMOM">      0.60000000      0.60000000      0.60000000      0.60000000      0.60000000      0.60000000      0.60000000      0.60000000      0.60000000      0.60000000      0.60000000      0.60000000      0.60000000      0.60000000      0.60000000      0.60000000      0.60000000      0.60000000      0.60000000      0.60000000
      0.60000000      0.60000000      0.60000000      0.60000000      0.60000000      0.60000000      0.60000000      0.60000000      0.60000000      0.60000000      0.60000000      0.60000000      0.60000000      0.60000000      0.60000000      0.60000000      0.60000000      0.60000000      0.60000000      0.60000000
      0.60000000      0.60000000      0.60000000      0.60000000      0.60000000      0.60000000      0.60000000      0.60000000      5.00000000      5.00000000      5.00000000      5.00000000      5.00000000      5.00000000      5.00000000      5.00000000      5.00000000      5.00000000      5.00000000      5.00000000
      5.00000000      5.00000000      5.00000000      5.00000000      0.60000000      0.60000000      0.60000000      0.60000000      0.60000000      0.60000000      0.60000000      0.60000000      0.60000000      0.60000000      0.60000000      0.60000000      0.60000000      0.60000000      0.60000000      0.60000000
      0.60000000      0.60000000      0.60000000      0.60000000      0.60000000      0.60000000      0.60000000      0.60000000      0.60000000      0.60000000      0.60000000      0.60000000      0.60000000      0.60000000      0.60000000      0.60000000      0.60000000      0.60000000      0.60000000      0.60000000
      0.60000000      0.60000000      0.60000000      0.60000000      0.60000000      0.60000000      0.60000000      0.60000000      0.60000000      0.60000000      0.60000000      0.60000000      0.60000000      0.60000000      0.60000000      0.60000000      0.60000000      0.60000000      0.60000000      0.60000000
      0.60000000      0.60000000      0.60000000      0.60000000      0.60000000      0.60000000      0.60000000      0.60000000      0.60000000      0.60000000      0.60000000      0.60000000      0.60000000      0.60000000      0.60000000      0.60000000      0.60000000      0.60000000      0.60000000      0.60000000
      0.60000000      0.60000000      0.60000000      0.60000000      0.60000000      0.60000000      0.60000000      0.60000000      0.60000000      0.60000000      0.60000000      0.60000000</v>
    <i name="NUPDOWN">     -1.00000000</i>
    <i type="logical" name="LSORBIT"> F  </i>
    <v name="SAXIS">      0.00000000      0.00000000      1.00000000</v>
    <i type="logical" name="LSPIRAL"> F  </i>
    <v name="QSPIRAL">      0.00000000      0.00000000      0.00000000</v>
    <i type="logical" name="LZEROZ"> F  </i>
   </separator>
   <separator name="electronic exchange-correlation" >
    <i type="logical" name="LASPH"> F  </i>
    <i type="logical" name="LMETAGGA"> F  </i>
   </separator>
   <separator name="electronic convergence" >
    <i type="int" name="NELM">    40</i>
    <i type="int" name="NELMDL">     0</i>
    <i type="int" name="NELMIN">     8</i>
    <i name="ENINI">    520.00000000</i>
    <separator name="electronic convergence detail" >
     <i type="logical" name="LDIAG"> T  </i>
     <i type="logical" name="LSUBROT"> F  </i>
     <i name="WEIMIN">      0.00100000</i>
     <i name="EBREAK">      0.00000003</i>
     <i name="DEPER">      0.30000000</i>
     <i type="int" name="NRMM">     4</i>
     <i name="TIME">      0.40000000</i>
    </separator>
   </separator>
   <separator name="electronic mixer" >
    <i name="AMIX">      0.40000000</i>
    <i name="BMIX">      1.00000000</i>
    <i name="AMIN">      0.10000000</i>
    <i name="AMIX_MAG">      1.60000000</i>
    <i name="BMIX_MAG">      1.00000000</i>
    <separator name="electronic mixer details" >
     <i type="int" name="IMIX">     4</i>
     <i type="logical" name="MIXFIRST"> F  </i>
     <i type="int" name="MAXMIX">   -45</i>
     <i name="WC">    100.00000000</i>
     <i type="int" name="INIMIX">     1</i>
     <i type="int" name="MIXPRE">     1</i>
     <i type="int" name="MREMOVE">     5</i>
    </separator>
   </separator>
   <separator name="electronic dipolcorrection" >
    <i type="logical" name="LDIPOL"> F  </i>
    <i type="logical" name="LMONO"> F  </i>
    <i type="int" name="IDIPOL">     0</i>
    <i name="EPSILON">      1.00000000</i>
    <v name="DIPOL">   -100.00000000   -100.00000000   -100.00000000</v>
    <i name="EFIELD">      0.00000000</i>
   </separator>
  </separator>
  <separator name="grids" >
   <i type="int" name="NGX">    64</i>
   <i type="int" name="NGY">    64</i>
   <i type="int" name="NGZ">    90</i>
   <i type="int" name="NGXF">   128</i>
   <i type="int" name="NGYF">   128</i>
   <i type="int" name="NGZF">   180</i>
   <i type="logical" name="ADDGRID"> F  </i>
  </separator>
  <separator name="ionic" >
   <i type="int" name="NSW">    30</i>
   <i type="int" name="IBRION">     2</i>
   <i type="int" name="ISIF">     3</i>
   <i name="PSTRESS">      0.00000000</i>
   <i name="EDIFFG">     -0.03000000</i>
   <i type="int" name="NFREE">     1</i>
   <i name="POTIM">      0.50000000</i>
   <i name="SMASS">     -3.00000000</i>
   <i name="SCALEE">      1.00000000</i>
  </separator>
  <separator name="ionic md" >
   <i name="TEBEG">      0.00010000</i>
   <i name="TEEND">      0.00010000</i>
   <i type="int" name="NBLOCK">     1</i>
   <i type="int" name="KBLOCK">    30</i>
   <i type="int" name="NPACO">   256</i>
   <i name="APACO">     16.00000000</i>
  </separator>
  <separator name="symmetry" >
   <i type="int" name="ISYM">     2</i>
   <i name="SYMPREC">      0.00001000</i>
  </separator>
  <separator name="dos" >
   <i type="logical" name="LORBIT"> F  </i>
   <v name="RWIGS">     -1.00000000     -1.00000000     -1.00000000     -1.00000000</v>
   <i type="int" name="NEDOS">   301</i>
   <i name="EMIN">     10.00000000</i>
   <i name="EMAX">    -10.00000000</i>
   <i name="EFERMI">      0.00000000</i>
  </separator>
  <separator name="writing" >
   <i type="int" name="NWRITE">     2</i>
   <i type="logical" name="LWAVE"> T  </i>
   <i type="logical" name="LCHARG"> T  </i>
   <i type="logical" name="LPARD"> F  </i>
   <i type="logical" name="LVTOT"> F  </i>
   <i type="logical" name="LVHAR"> F  </i>
   <i type="logical" name="LELF"> F  </i>
   <i type="logical" name="LOPTICS"> F  </i>
   <v name="STM">      0.00000000      0.00000000      0.00000000      0.00000000      0.00000000      0.00000000      0.00000000</v>
  </separator>
  <separator name="performance" >
   <i type="int" name="NPAR">     2</i>
   <i type="int" name="NSIM">     4</i>
   <i type="int" name="NBLK">    -1</i>
   <i type="logical" name="LPLANE"> T  </i>
   <i type="logical" name="LSCALAPACK"> T  </i>
   <i type="logical" name="LSCAAWARE"> F  </i>
   <i type="logical" name="LSCALU"> F  </i>
   <i type="logical" name="LASYNC"> F  </i>
   <i type="logical" name="LORBITALREAL"> F  </i>
  </separator>
  <separator name="miscellaneous" >
   <i type="int" name="IDIOT">     3</i>
   <i type="logical" name="LMUSIC"> F  </i>
   <v name="POMASS">     87.62000000     47.88000000     55.84700000     16.00000000</v>
   <v name="DARWINR">      0.00000000      0.00000000      0.00000000      0.00000000</v>
   <v name="DARWINV">      1.00000000      1.00000000      1.00000000      1.00000000</v>
   <i type="logical" name="LCORR"> T  </i>
  </separator>
  <i type="logical" name="GGA_COMPAT"> T  </i>
  <i type="logical" name="LBERRY"> F  </i>
  <i type="int" name="ICORELEVEL">     0</i>
  <i type="logical" name="LDAU"> T  </i>
  <v type="int" name="LDAUTYPE">     2</v>
  <v type="int" name="LDAUL">     0</v>
  <v name="LDAUU">      0.00000000</v>
  <v name="LDAUJ">      0.00000000</v>
  <i type="int" name="LDAUPRINT">     1</i>
  <i type="int" name="I_CONSTRAINED_M">     0</i>
  <separator name="electronic exchange-correlation" >
   <i type="string" name="GGA">--</i>
   <i type="int" name="VOSKOWN">     0</i>
   <i type="logical" name="LHFCALC"> F  </i>
   <i type="string" name="PRECFOCK"></i>
   <i type="logical" name="LSYMGRAD"> F  </i>
   <i type="logical" name="LHFONE"> F  </i>
   <i type="logical" name="LRHFCALC"> F  </i>
   <i type="logical" name="LTHOMAS"> F  </i>
   <i type="logical" name="LMODELHF"> F  </i>
   <i name="ENCUT4O">     -1.00000000</i>
   <i type="int" name="EXXOEP">     0</i>
   <i type="int" name="FOURORBIT">     0</i>
   <i name="AEXX">      0.00000000</i>
   <i name="HFALPHA">      0.00000000</i>
   <i name="MCALPHA">      0.00000000</i>
   <i name="ALDAX">      1.00000000</i>
   <i name="AGGAX">      1.00000000</i>
   <i name="ALDAC">      1.00000000</i>
   <i name="AGGAC">      1.00000000</i>
   <i type="int" name="NKREDX">     1</i>
   <i type="int" name="NKREDY">     1</i>
   <i type="int" name="NKREDZ">     1</i>
   <i type="logical" name="SHIFTRED"> F  </i>
   <i type="logical" name="ODDONLY"> F  </i>
   <i type="logical" name="EVENONLY"> F  </i>
   <i type="int" name="LMAXFOCK">     0</i>
   <i type="int" name="NMAXFOCKAE">     0</i>
   <i type="logical" name="LFOCKAEDFT"> F  </i>
   <i name="HFSCREEN">      0.00000000</i>
   <i name="HFSCREENC">      0.00000000</i>
   <i type="int" name="NBANDSGWLOW">     0</i>
  </separator>
  <separator name="vdW DFT" >
   <i type="logical" name="LUSE_VDW"> F  </i>
   <i name="Zab_VDW">     -0.84910000</i>
   <i name="PARAM1">      0.12340000</i>
   <i name="PARAM2">      1.00000000</i>
   <i name="PARAM3">      0.00000000</i>
  </separator>
  <separator name="model GW" >
   <i type="int" name="MODEL_GW">     0</i>
   <i name="MODEL_EPS0">      7.88867165</i>
   <i name="MODEL_ALPHA">      1.00000000</i>
  </separator>
  <separator name="linear response parameters" >
   <i type="logical" name="LEPSILON"> F  </i>
   <i type="logical" name="LRPA"> F  </i>
   <i type="logical" name="LNABLA"> F  </i>
   <i type="logical" name="LVEL"> F  </i>
   <i type="int" name="KINTER">     0</i>
   <i name="CSHIFT">      0.10000000</i>
   <i name="OMEGAMAX">     -1.00000000</i>
   <i name="DEG_THRESHOLD">      0.00200000</i>
  </separator>
  <separator name="orbital magnetization" >
   <i type="logical" name="NUCIND"> F  </i>
   <v name="MAGPOS">      0.00000000      0.00000000      0.00000000</v>
   <i type="logical" name="LNICSALL"> T  </i>
   <i type="logical" name="ORBITALMAG"> F  </i>
   <i type="logical" name="LMAGBLOCH"> F  </i>
   <i type="logical" name="LCHIMAG"> F  </i>
   <i type="logical" name="LGAUGE"> T  </i>
   <i type="int" name="MAGATOM">     0</i>
   <v name="MAGDIPOL">      0.00000000      0.00000000      0.00000000</v>
   <v name="AVECCONST">      0.00000000      0.00000000      0.00000000</v>
  </separator>
  <separator name="response functions" >
   <i type="logical" name="LADDER"> F  </i>
   <i type="logical" name="LFXC"> F  </i>
   <i type="logical" name="LHARTREE"> T  </i>
   <i type="int" name="IBSE">     0</i>
   <v type="int" name="KPOINT">    -1     0     0     0</v>
   <i type="logical" name="LTCTE"> F  </i>
   <i type="logical" name="LTETE"> F  </i>
   <i type="logical" name="LTRIPLET"> F  </i>
   <i type="logical" name="LFXCEPS"> F  </i>
   <i type="logical" name="LFXHEG"> F  </i>
   <i type="int" name="NATURALO">     0</i>
   <i type="logical" name="L2ORDER"> F  </i>
   <i type="logical" name="LUSEW"> F  </i>
   <i name="ENCUTGW">     -2.00000000</i>
   <i name="ENCUTGWSOFT">     -2.00000000</i>
   <i name="ENCUTLF">     -1.00000000</i>
   <i type="int" name="LMAXMP2">    -1</i>
   <i name="SCISSOR">      0.00000000</i>
   <i type="int" name="NOMEGA">     0</i>
   <i type="int" name="NOMEGAR">     0</i>
   <i type="int" name="NBANDSGW">    -1</i>
   <i type="int" name="NBANDSO">    -1</i>
   <i type="int" name="NBANDSV">    -1</i>
   <i type="int" name="NELM">    40</i>
   <i type="int" name="NELMHF">     1</i>
   <i type="int" name="DIM">     3</i>
   <i type="int" name="ANTIRES">     0</i>
   <i name="OMEGAMAX">    -30.00000000</i>
   <i name="OMEGAMIN">    -30.00000000</i>
   <i name="OMEGATL">   -200.00000000</i>
   <i type="int" name="OMEGAGRID">     0</i>
   <i name="CSHIFT">     -0.10000000</i>
   <i type="logical" name="SELFENERGY"> F  </i>
   <i type="logical" name="LSPECTRAL"> F  </i>
   <i type="logical" name="LSPECTRALGW"> F  </i>
   <i type="logical" name="LSINGLES"> F  </i>
   <i type="logical" name="LFERMIGW"> F  </i>
   <i type="logical" name="ODDONLYGW"> F  </i>
   <i type="logical" name="EVENONLYGW"> F  </i>
   <i type="int" name="NKREDLFX">     1</i>
   <i type="int" name="NKREDLFY">     1</i>
   <i type="int" name="NKREDLFZ">     1</i>
   <i type="int" name="MAXMEM">  1800</i>
   <i type="int" name="TELESCOPE">     0</i>
   <i type="int" name="TAUPAR">     1</i>
   <i type="int" name="OMEGAPAR">    -1</i>
   <i name="LAMBDA">      1.00000000</i>
  </separator>
  <separator name="External order field" >
   <i name="OFIELD_KAPPA">      0.00000000</i>
   <v name="OFIELD_K">      0.00000000      0.00000000      0.00000000</v>
   <i name="OFIELD_Q6_NEAR">      0.00000000</i>
   <i name="OFIELD_Q6_FAR">      0.00000000</i>
   <i name="OFIELD_A">      0.00000000</i>
  </separator>
 </parameters>
 <atominfo>
  <atoms>     152 </atoms>
  <types>       4 </types>
  <array name="atoms" >
   <dimension dim="1">ion</dimension>
   <field type="string">element</field>
   <field type="int">atomtype</field>
   <set>
    <rc><c>Sr</c><c>   1</c></rc>
    <rc><c>Sr</c><c>   1</c></rc>
    <rc><c>Sr</c><c>   1</c></rc>
    <rc><c>Sr</c><c>   1</c></rc>
    <rc><c>Sr</c><c>   1</c></rc>
    <rc><c>Sr</c><c>   1</c></rc>
    <rc><c>Sr</c><c>   1</c></rc>
    <rc><c>Sr</c><c>   1</c></rc>
    <rc><c>Sr</c><c>   1</c></rc>
    <rc><c>Sr</c><c>   1</c></rc>
    <rc><c>Sr</c><c>   1</c></rc>
    <rc><c>Sr</c><c>   1</c></rc>
    <rc><c>Sr</c><c>   1</c></rc>
    <rc><c>Sr</c><c>   1</c></rc>
    <rc><c>Sr</c><c>   1</c></rc>
    <rc><c>Sr</c><c>   1</c></rc>
    <rc><c>Sr</c><c>   1</c></rc>
    <rc><c>Sr</c><c>   1</c></rc>
    <rc><c>Sr</c><c>   1</c></rc>
    <rc><c>Sr</c><c>   1</c></rc>
    <rc><c>Sr</c><c>   1</c></rc>
    <rc><c>Sr</c><c>   1</c></rc>
    <rc><c>Sr</c><c>   1</c></rc>
    <rc><c>Sr</c><c>   1</c></rc>
    <rc><c>Sr</c><c>   1</c></rc>
    <rc><c>Sr</c><c>   1</c></rc>
    <rc><c>Sr</c><c>   1</c></rc>
    <rc><c>Sr</c><c>   1</c></rc>
    <rc><c>Sr</c><c>   1</c></rc>
    <rc><c>Sr</c><c>   1</c></rc>
    <rc><c>Sr</c><c>   1</c></rc>
    <rc><c>Sr</c><c>   1</c></rc>
    <rc><c>Ti</c><c>   2</c></rc>
    <rc><c>Ti</c><c>   2</c></rc>
    <rc><c>Ti</c><c>   2</c></rc>
    <rc><c>Ti</c><c>   2</c></rc>
    <rc><c>Ti</c><c>   2</c></rc>
    <rc><c>Ti</c><c>   2</c></rc>
    <rc><c>Ti</c><c>   2</c></rc>
    <rc><c>Ti</c><c>   2</c></rc>
    <rc><c>Ti</c><c>   2</c></rc>
    <rc><c>Ti</c><c>   2</c></rc>
    <rc><c>Ti</c><c>   2</c></rc>
    <rc><c>Ti</c><c>   2</c></rc>
    <rc><c>Ti</c><c>   2</c></rc>
    <rc><c>Ti</c><c>   2</c></rc>
    <rc><c>Ti</c><c>   2</c></rc>
    <rc><c>Ti</c><c>   2</c></rc>
    <rc><c>Fe</c><c>   3</c></rc>
    <rc><c>Fe</c><c>   3</c></rc>
    <rc><c>Fe</c><c>   3</c></rc>
    <rc><c>Fe</c><c>   3</c></rc>
    <rc><c>Fe</c><c>   3</c></rc>
    <rc><c>Fe</c><c>   3</c></rc>
    <rc><c>Fe</c><c>   3</c></rc>
    <rc><c>Fe</c><c>   3</c></rc>
    <rc><c>Fe</c><c>   3</c></rc>
    <rc><c>Fe</c><c>   3</c></rc>
    <rc><c>Fe</c><c>   3</c></rc>
    <rc><c>Fe</c><c>   3</c></rc>
    <rc><c>Fe</c><c>   3</c></rc>
    <rc><c>Fe</c><c>   3</c></rc>
    <rc><c>Fe</c><c>   3</c></rc>
    <rc><c>Fe</c><c>   3</c></rc>
    <rc><c>O </c><c>   4</c></rc>
    <rc><c>O </c><c>   4</c></rc>
    <rc><c>O </c><c>   4</c></rc>
    <rc><c>O </c><c>   4</c></rc>
    <rc><c>O </c><c>   4</c></rc>
    <rc><c>O </c><c>   4</c></rc>
    <rc><c>O </c><c>   4</c></rc>
    <rc><c>O </c><c>   4</c></rc>
    <rc><c>O </c><c>   4</c></rc>
    <rc><c>O </c><c>   4</c></rc>
    <rc><c>O </c><c>   4</c></rc>
    <rc><c>O </c><c>   4</c></rc>
    <rc><c>O </c><c>   4</c></rc>
    <rc><c>O </c><c>   4</c></rc>
    <rc><c>O </c><c>   4</c></rc>
    <rc><c>O </c><c>   4</c></rc>
    <rc><c>O </c><c>   4</c></rc>
    <rc><c>O </c><c>   4</c></rc>
    <rc><c>O </c><c>   4</c></rc>
    <rc><c>O </c><c>   4</c></rc>
    <rc><c>O </c><c>   4</c></rc>
    <rc><c>O </c><c>   4</c></rc>
    <rc><c>O </c><c>   4</c></rc>
    <rc><c>O </c><c>   4</c></rc>
    <rc><c>O </c><c>   4</c></rc>
    <rc><c>O </c><c>   4</c></rc>
    <rc><c>O </c><c>   4</c></rc>
    <rc><c>O </c><c>   4</c></rc>
    <rc><c>O </c><c>   4</c></rc>
    <rc><c>O </c><c>   4</c></rc>
    <rc><c>O </c><c>   4</c></rc>
    <rc><c>O </c><c>   4</c></rc>
    <rc><c>O </c><c>   4</c></rc>
    <rc><c>O </c><c>   4</c></rc>
    <rc><c>O </c><c>   4</c></rc>
    <rc><c>O </c><c>   4</c></rc>
    <rc><c>O </c><c>   4</c></rc>
    <rc><c>O </c><c>   4</c></rc>
    <rc><c>O </c><c>   4</c></rc>
    <rc><c>O </c><c>   4</c></rc>
    <rc><c>O </c><c>   4</c></rc>
    <rc><c>O </c><c>   4</c></rc>
    <rc><c>O </c><c>   4</c></rc>
    <rc><c>O </c><c>   4</c></rc>
    <rc><c>O </c><c>   4</c></rc>
    <rc><c>O </c><c>   4</c></rc>
    <rc><c>O </c><c>   4</c></rc>
    <rc><c>O </c><c>   4</c></rc>
    <rc><c>O </c><c>   4</c></rc>
    <rc><c>O </c><c>   4</c></rc>
    <rc><c>O </c><c>   4</c></rc>
    <rc><c>O </c><c>   4</c></rc>
    <rc><c>O </c><c>   4</c></rc>
    <rc><c>O </c><c>   4</c></rc>
    <rc><c>O </c><c>   4</c></rc>
    <rc><c>O </c><c>   4</c></rc>
    <rc><c>O </c><c>   4</c></rc>
    <rc><c>O </c><c>   4</c></rc>
    <rc><c>O </c><c>   4</c></rc>
    <rc><c>O </c><c>   4</c></rc>
    <rc><c>O </c><c>   4</c></rc>
    <rc><c>O </c><c>   4</c></rc>
    <rc><c>O </c><c>   4</c></rc>
    <rc><c>O </c><c>   4</c></rc>
    <rc><c>O </c><c>   4</c></rc>
    <rc><c>O </c><c>   4</c></rc>
    <rc><c>O </c><c>   4</c></rc>
    <rc><c>O </c><c>   4</c></rc>
    <rc><c>O </c><c>   4</c></rc>
    <rc><c>O </c><c>   4</c></rc>
    <rc><c>O </c><c>   4</c></rc>
    <rc><c>O </c><c>   4</c></rc>
    <rc><c>O </c><c>   4</c></rc>
    <rc><c>O </c><c>   4</c></rc>
    <rc><c>O </c><c>   4</c></rc>
    <rc><c>O </c><c>   4</c></rc>
    <rc><c>O </c><c>   4</c></rc>
    <rc><c>O </c><c>   4</c></rc>
    <rc><c>O </c><c>   4</c></rc>
    <rc><c>O </c><c>   4</c></rc>
    <rc><c>O </c><c>   4</c></rc>
    <rc><c>O </c><c>   4</c></rc>
    <rc><c>O </c><c>   4</c></rc>
    <rc><c>O </c><c>   4</c></rc>
    <rc><c>O </c><c>   4</c></rc>
    <rc><c>O </c><c>   4</c></rc>
    <rc><c>O </c><c>   4</c></rc>
    <rc><c>O </c><c>   4</c></rc>
   </set>
  </array>
  <array name="atomtypes" >
   <dimension dim="1">type</dimension>
   <field type="int">atomspertype</field>
   <field type="string">element</field>
   <field>mass</field>
   <field>valence</field>
   <field type="string">pseudopotential</field>
   <set>
    <rc><c>  32</c><c>Sr</c><c>     87.62000000</c><c>     10.00000000</c><c>  PAW_PBE Sr_sv 07Sep2000               </c></rc>
    <rc><c>  16</c><c>Ti</c><c>     47.88000000</c><c>      4.00000000</c><c>  PAW_PBE Ti 08Apr2002                  </c></rc>
    <rc><c>  16</c><c>Fe</c><c>     55.84700000</c><c>      8.00000000</c><c>  PAW_PBE Fe 06Sep2000                  </c></rc>
    <rc><c>  88</c><c>O </c><c>     16.00000000</c><c>      6.00000000</c><c>  PAW_PBE O 08Apr2002                   </c></rc>
   </set>
  </array>
 </atominfo>
 <structure name="initialpos" >
  <crystal>
   <varray name="basis" >
    <v>      11.23707599      -0.00018158      -0.03532385 </v>
    <v>      -0.00025657      11.26109847      -0.01508175 </v>
    <v>      -0.05063215      -0.02134547      15.79309714 </v>
   </varray>
   <i name="volume">   1998.46348388 </i>
   <varray name="rec_basis" >
    <v>       0.08899202       0.00000241       0.00028531 </v>
    <v>       0.00000181       0.08880144       0.00012003 </v>
    <v>       0.00019905       0.00008481       0.06331956 </v>
   </varray>
  </crystal>
  <varray name="positions" >
   <v>       0.99866806       0.26250254       0.12697584 </v>
   <v>       0.99805431       0.25606575       0.63029202 </v>
   <v>       0.00659393       0.73839228       0.12481369 </v>
   <v>       0.99097503       0.74234535       0.63088915 </v>
   <v>       0.49339662       0.24792750       0.13439676 </v>
   <v>       0.50012281       0.24194404       0.62681663 </v>
   <v>       0.49880802       0.75407841       0.13078296 </v>
   <v>       0.51628006       0.75072586       0.62565609 </v>
   <v>       0.99149476       0.25597708       0.36669130 </v>
   <v>       0.99806706       0.26041081       0.87499083 </v>
   <v>       0.99629111       0.74167964       0.36879360 </v>
   <v>       0.99644545       0.74092477       0.86994269 </v>
   <v>       0.50203836       0.23410901       0.37175727 </v>
   <v>       0.50099911       0.24808966       0.86830182 </v>
   <v>       0.50779300       0.76106982       0.37400559 </v>
   <v>       0.51129306       0.75060122       0.87147077 </v>
   <v>       0.24827085       0.99991177       0.12781874 </v>
   <v>       0.25167560       0.99665619       0.62480232 </v>
   <v>       0.23363019       0.49685255       0.12747555 </v>
   <v>       0.24549544       0.50237504       0.63169698 </v>
   <v>       0.74814435       0.00966031       0.12790628 </v>
   <v>       0.74708589       0.99284505       0.62948429 </v>
   <v>       0.77341838       0.49655442       0.12972126 </v>
   <v>       0.75925039       0.50604993       0.62827980 </v>
   <v>       0.25512101       0.99117624       0.36958140 </v>
   <v>       0.24245170       0.00608034       0.87291619 </v>
   <v>       0.23401776       0.49857803       0.37288133 </v>
   <v>       0.23125420       0.49712748       0.86817946 </v>
   <v>       0.74330464       0.00084619       0.37008606 </v>
   <v>       0.75238950       0.99682040       0.86520312 </v>
   <v>       0.76220391       0.50268051       0.36961467 </v>
   <v>       0.76690069       0.50196059       0.86806950 </v>
   <v>       0.00230800       0.99921377       0.99092576 </v>
   <v>       0.98786195       0.99368550       0.50117379 </v>
   <v>       0.00082238       0.50001164       0.50013562 </v>
   <v>       0.49984940       0.99940671       0.98870230 </v>
   <v>       0.49858493       0.99463735       0.50309556 </v>
   <v>       0.50839669       0.48888215       0.50372950 </v>
   <v>       0.25224506       0.25173970       0.00387844 </v>
   <v>       0.25677098       0.75459095       0.99969365 </v>
   <v>       0.75547149       0.24562595       0.49880490 </v>
   <v>       0.24260900       0.24368622       0.25162652 </v>
   <v>       0.24760805       0.24619303       0.74878216 </v>
   <v>       0.24843994       0.74775445       0.24861974 </v>
   <v>       0.75287715       0.25155363       0.74975287 </v>
   <v>       0.74995135       0.75095891       0.24487664 </v>
   <v>       0.49222718       0.50300669       0.26992544 </v>
   <v>       0.50445083       0.50150483       0.75076214 </v>
   <v>       0.99873269       0.50082438       0.99773362 </v>
   <v>       0.46143734       0.50242670       0.97891512 </v>
   <v>       0.25601689       0.26121454       0.49941148 </v>
   <v>       0.24132627       0.75930160       0.50163439 </v>
   <v>       0.75962301       0.24177189       0.00059168 </v>
   <v>       0.76640546       0.76677101       0.00506110 </v>
   <v>       0.74866658       0.74669688       0.49900745 </v>
   <v>       0.24509929       0.74306022       0.75068195 </v>
   <v>       0.74435382       0.25144051       0.24517174 </v>
   <v>       0.75249317       0.75060560       0.74940257 </v>
   <v>       0.99673226       0.00165386       0.25910920 </v>
   <v>       0.00392233       0.00095449       0.74542645 </v>
   <v>       0.99949124       0.49900527       0.25041344 </v>
   <v>       0.99922232       0.49961851       0.74947787 </v>
   <v>       0.49961431       0.99888067       0.25757746 </v>
   <v>       0.50692779       0.00848846       0.74766012 </v>
   <v>       0.11558240       0.12046797       0.23208396 </v>
   <v>       0.11734134       0.13554025       0.76693179 </v>
   <v>       0.12357638       0.62490623       0.25222295 </v>
   <v>       0.12285426       0.63013260       0.75361855 </v>
   <v>       0.61466276       0.12478604       0.23708788 </v>
   <v>       0.61903588       0.13068057       0.75064774 </v>
   <v>       0.61401565       0.62610708       0.25529835 </v>
   <v>       0.62431993       0.62444274       0.75066308 </v>
   <v>       0.37480517       0.36823559       0.25829718 </v>
   <v>       0.38182109       0.36796239       0.74551832 </v>
   <v>       0.38058903       0.86966740       0.24508954 </v>
   <v>       0.87216117       0.37463144       0.24812928 </v>
   <v>       0.87713677       0.37147820       0.75128902 </v>
   <v>       0.87875114       0.87268729       0.23452762 </v>
   <v>       0.88166401       0.87492743       0.74117302 </v>
   <v>       0.37013246       0.11582164       0.24196758 </v>
   <v>       0.36431880       0.11003461       0.75020587 </v>
   <v>       0.37454842       0.61066705       0.22646882 </v>
   <v>       0.37915051       0.62306615       0.76732334 </v>
   <v>       0.87145393       0.12116876       0.23558176 </v>
   <v>       0.86794065       0.12190672       0.75517011 </v>
   <v>       0.87078468       0.62509186       0.24938561 </v>
   <v>       0.87420996       0.62354974       0.75347935 </v>
   <v>       0.12473654       0.37230471       0.25302950 </v>
   <v>       0.13158764       0.37892605       0.75035064 </v>
   <v>       0.12701404       0.87550274       0.24878110 </v>
   <v>       0.14784403       0.88769980       0.74433485 </v>
   <v>       0.61447769       0.38410321       0.25704107 </v>
   <v>       0.62703669       0.37780706       0.73158988 </v>
   <v>       0.62622430       0.88121463       0.23583351 </v>
   <v>       0.61679342       0.87383725       0.75110756 </v>
   <v>       0.38578321       0.37351533       0.02526880 </v>
   <v>       0.35809474       0.39567992       0.50052953 </v>
   <v>       0.37957277       0.89018792       0.02734250 </v>
   <v>       0.37674358       0.86865443       0.49191624 </v>
   <v>       0.86213270       0.38382362       0.99821435 </v>
   <v>       0.85627720       0.38961913       0.49767537 </v>
   <v>       0.88268370       0.88734335       0.03094940 </v>
   <v>       0.86467713       0.88934112       0.50374258 </v>
   <v>       0.12835971       0.12016990       0.00151131 </v>
   <v>       0.14415792       0.62555357       0.98907270 </v>
   <v>       0.14451372       0.61240246       0.50357156 </v>
   <v>       0.62188943       0.12332918       0.99871193 </v>
   <v>       0.63314068       0.11402196       0.50660792 </v>
   <v>       0.62445304       0.61537627       0.49554538 </v>
   <v>       0.12595078       0.37241417       0.99774003 </v>
   <v>       0.10652592       0.35499903       0.49800513 </v>
   <v>       0.12410973       0.87867476       0.01071554 </v>
   <v>       0.12461140       0.88351832       0.49932393 </v>
   <v>       0.60737762       0.35921128       0.49975216 </v>
   <v>       0.62158224       0.87710812       0.00888394 </v>
   <v>       0.61912265       0.86832278       0.50144597 </v>
   <v>       0.38172944       0.12597702       0.01299661 </v>
   <v>       0.37403817       0.12526368       0.50016509 </v>
   <v>       0.40726143       0.65334873       0.00331600 </v>
   <v>       0.88593146       0.12722074       0.01256420 </v>
   <v>       0.89678626       0.14363467       0.49584484 </v>
   <v>       0.88055166       0.63420081       0.99683037 </v>
   <v>       0.88880403       0.63755529       0.49629890 </v>
   <v>       0.01820227       0.02536657       0.61930758 </v>
   <v>       0.00365576       0.50293324       0.12161214 </v>
   <v>       0.99797917       0.50092353       0.62473708 </v>
   <v>       0.48625603       0.98671594       0.62772352 </v>
   <v>       0.48151054       0.52139724       0.62075322 </v>
   <v>       0.00965745       0.01323378       0.37874446 </v>
   <v>       0.98932206       0.98272599       0.87647786 </v>
   <v>       0.99894835       0.50159500       0.37573764 </v>
   <v>       0.00057394       0.49787320       0.87541697 </v>
   <v>       0.50707351       0.00308568       0.37638905 </v>
   <v>       0.47973041       0.98327547       0.87189288 </v>
   <v>       0.46411409       0.53177164       0.38523419 </v>
   <v>       0.53902003       0.47841789       0.87673826 </v>
   <v>       0.23278638       0.22352092       0.37657292 </v>
   <v>       0.26820978       0.25631071       0.87996603 </v>
   <v>       0.26343010       0.73577063       0.37389375 </v>
   <v>       0.27319811       0.78097994       0.87701833 </v>
   <v>       0.74195766       0.23969656       0.37389002 </v>
   <v>       0.73670471       0.25883999       0.87641642 </v>
   <v>       0.75074972       0.76189752       0.36937274 </v>
   <v>       0.74915450       0.75956634       0.88225360 </v>
   <v>       0.24328726       0.25429568       0.12730842 </v>
   <v>       0.23623854       0.23435504       0.62319097 </v>
   <v>       0.24240845       0.74356564       0.12427512 </v>
   <v>       0.28083804       0.74572182       0.62582206 </v>
   <v>       0.72137598       0.27505634       0.11745933 </v>
   <v>       0.75735534       0.24360227       0.62311526 </v>
   <v>       0.72683679       0.71883923       0.11883368 </v>
   <v>       0.75051754       0.74365862       0.62402071 </v>
  </varray>
 </structure>
 <calculation>
  <scstep>
   <time name="dav">  604.34  604.33</time>
   <time name="total">  611.64  611.70</time>
   <energy>
    <i name="alphaZ">   5635.44822475 </i>
    <i name="ewald"> -61952.78421354 </i>
    <i name="hartreedc"> -17694.69544747 </i>
    <i name="XCdc">   3184.34958269 </i>
    <i name="pawpsdc"> 114214.60760846 </i>
    <i name="pawaedc">-113416.51388274 </i>
    <i name="eentropy">     -0.00116799 </i>
    <i name="bandstr">  -7074.92919863 </i>
    <i name="atom">  76050.17612637 </i>
    <i name="e_fr_energy">  -1054.34236811 </i>
    <i name="e_wo_entrp">  -1054.34120012 </i>
    <i name="e_0_energy">  -1054.34178412 </i>
   </energy>
  </scstep>
  <scstep>
   <time name="diag">   64.70   64.70</time>
   <time name="diis">   62.47   62.47</time>
   <time name="orth">   33.31   33.31</time>
   <time name="total">  167.75  167.79</time>
   <energy>
    <i name="e_fr_energy">  -1054.34236649 </i>
    <i name="e_wo_entrp">  -1054.34119033 </i>
    <i name="e_0_energy">  -1054.34177841 </i>
   </energy>
  </scstep>
  <scstep>
   <time name="diag">   64.63   64.65</time>
   <time name="diis">   60.32   60.32</time>
   <time name="orth">   33.32   33.32</time>
   <time name="total">  165.53  165.58</time>
   <energy>
    <i name="e_fr_energy">  -1054.34236684 </i>
    <i name="e_wo_entrp">  -1054.34119230 </i>
    <i name="e_0_energy">  -1054.34177957 </i>
   </energy>
  </scstep>
  <scstep>
   <time name="diag">   64.58   64.62</time>
   <time name="diis">   51.45   51.45</time>
   <time name="orth">   33.29   33.28</time>
   <time name="total">  156.58  156.66</time>
   <energy>
    <i name="e_fr_energy">  -1054.34236714 </i>
    <i name="e_wo_entrp">  -1054.34119452 </i>
    <i name="e_0_energy">  -1054.34178083 </i>
   </energy>
  </scstep>
  <scstep>
   <time name="diag">   64.67   64.68</time>
   <time name="diis">   50.74   50.76</time>
   <time name="orth">   33.31   33.30</time>
   <time name="total">  155.98  156.11</time>
   <energy>
    <i name="e_fr_energy">  -1054.34236725 </i>
    <i name="e_wo_entrp">  -1054.34119523 </i>
    <i name="e_0_energy">  -1054.34178124 </i>
   </energy>
  </scstep>
  <scstep>
   <time name="diag">   64.68   64.68</time>
   <time name="diis">   46.43   46.45</time>
   <time name="orth">   33.35   33.35</time>
   <time name="total">  151.73  151.82</time>
   <energy>
    <i name="e_fr_energy">  -1054.34236747 </i>
    <i name="e_wo_entrp">  -1054.34119517 </i>
    <i name="e_0_energy">  -1054.34178132 </i>
   </energy>
  </scstep>
  <scstep>
   <time name="diag">   64.72   64.75</time>
   <time name="diis">   45.68   45.68</time>
   <time name="orth">   33.11   33.11</time>
   <time name="total">  150.82  150.90</time>
   <energy>
    <i name="e_fr_energy">  -1054.34236760 </i>
    <i name="e_wo_entrp">  -1054.34119529 </i>
    <i name="e_0_energy">  -1054.34178145 </i>
   </energy>
  </scstep>
  <scstep>
   <time name="diag">   64.67   64.72</time>
   <time name="diis">   44.65   44.69</time>
   <time name="orth">   33.15   33.15</time>
   <time name="total">  143.54  143.75</time>
   <energy>
    <i name="alphaZ">   5635.44822475 </i>
    <i name="ewald"> -61952.78421354 </i>
    <i name="hartreedc"> -17694.68579125 </i>
    <i name="XCdc">   3184.34832014 </i>
    <i name="pawpsdc"> 114213.88593509 </i>
    <i name="pawaedc">-113415.78856510 </i>
    <i name="eentropy">     -0.00117211 </i>
    <i name="bandstr">  -7074.94123206 </i>
    <i name="atom">  76050.17612637 </i>
    <i name="e_fr_energy">  -1054.34236769 </i>
    <i name="e_wo_entrp">  -1054.34119558 </i>
    <i name="e_0_energy">  -1054.34178164 </i>
   </energy>
  </scstep>
  <structure>
   <crystal>
    <varray name="basis" >
     <v>      11.23707599      -0.00018158      -0.03532385 </v>
     <v>      -0.00025657      11.26109847      -0.01508175 </v>
     <v>      -0.05063215      -0.02134547      15.79309714 </v>
    </varray>
    <i name="volume">   1998.46348388 </i>
    <varray name="rec_basis" >
     <v>       0.08899202       0.00000241       0.00028531 </v>
     <v>       0.00000181       0.08880144       0.00012003 </v>
     <v>       0.00019905       0.00008481       0.06331956 </v>
    </varray>
   </crystal>
   <varray name="positions" >
    <v>       0.99866806       0.26250254       0.12697584 </v>
    <v>       0.99805431       0.25606575       0.63029202 </v>
    <v>       0.00659393       0.73839228       0.12481369 </v>
    <v>       0.99097503       0.74234535       0.63088915 </v>
    <v>       0.49339662       0.24792750       0.13439676 </v>
    <v>       0.50012281       0.24194404       0.62681663 </v>
    <v>       0.49880802       0.75407841       0.13078296 </v>
    <v>       0.51628006       0.75072586       0.62565609 </v>
    <v>       0.99149476       0.25597708       0.36669130 </v>
    <v>       0.99806706       0.26041081       0.87499083 </v>
    <v>       0.99629111       0.74167964       0.36879360 </v>
    <v>       0.99644545       0.74092477       0.86994269 </v>
    <v>       0.50203836       0.23410901       0.37175727 </v>
    <v>       0.50099911       0.24808966       0.86830182 </v>
    <v>       0.50779300       0.76106982       0.37400559 </v>
    <v>       0.51129306       0.75060122       0.87147077 </v>
    <v>       0.24827085       0.99991177       0.12781874 </v>
    <v>       0.25167560       0.99665619       0.62480232 </v>
    <v>       0.23363019       0.49685255       0.12747555 </v>
    <v>       0.24549544       0.50237504       0.63169698 </v>
    <v>       0.74814435       0.00966031       0.12790628 </v>
    <v>       0.74708589       0.99284505       0.62948429 </v>
    <v>       0.77341838       0.49655442       0.12972126 </v>
    <v>       0.75925039       0.50604993       0.62827980 </v>
    <v>       0.25512101       0.99117624       0.36958140 </v>
    <v>       0.24245170       0.00608034       0.87291619 </v>
    <v>       0.23401776       0.49857803       0.37288133 </v>
    <v>       0.23125420       0.49712748       0.86817946 </v>
    <v>       0.74330464       0.00084619       0.37008606 </v>
    <v>       0.75238950       0.99682040       0.86520312 </v>
    <v>       0.76220391       0.50268051       0.36961467 </v>
    <v>       0.76690069       0.50196059       0.86806950 </v>
    <v>       0.00230800       0.99921377       0.99092576 </v>
    <v>       0.98786195       0.99368550       0.50117379 </v>
    <v>       0.00082238       0.50001164       0.50013562 </v>
    <v>       0.49984940       0.99940671       0.98870230 </v>
    <v>       0.49858493       0.99463735       0.50309556 </v>
    <v>       0.50839669       0.48888215       0.50372950 </v>
    <v>       0.25224506       0.25173970       0.00387844 </v>
    <v>       0.25677098       0.75459095       0.99969365 </v>
    <v>       0.75547149       0.24562595       0.49880490 </v>
    <v>       0.24260900       0.24368622       0.25162652 </v>
    <v>       0.24760805       0.24619303       0.74878216 </v>
    <v>       0.24843994       0.74775445       0.24861974 </v>
    <v>       0.75287715       0.25155363       0.74975287 </v>
    <v>       0.74995135       0.75095891       0.24487664 </v>
    <v>       0.49222718       0.50300669       0.26992544 </v>
    <v>       0.50445083       0.50150483       0.75076214 </v>
    <v>       0.99873269       0.50082438       0.99773362 </v>
    <v>       0.46143734       0.50242670       0.97891512 </v>
    <v>       0.25601689       0.26121454       0.49941148 </v>
    <v>       0.24132627       0.75930160       0.50163439 </v>
    <v>       0.75962301       0.24177189       0.00059168 </v>
    <v>       0.76640546       0.76677101       0.00506110 </v>
    <v>       0.74866658       0.74669688       0.49900745 </v>
    <v>       0.24509929       0.74306022       0.75068195 </v>
    <v>       0.74435382       0.25144051       0.24517174 </v>
    <v>       0.75249317       0.75060560       0.74940257 </v>
    <v>       0.99673226       0.00165386       0.25910920 </v>
    <v>       0.00392233       0.00095449       0.74542645 </v>
    <v>       0.99949124       0.49900527       0.25041344 </v>
    <v>       0.99922232       0.49961851       0.74947787 </v>
    <v>       0.49961431       0.99888067       0.25757746 </v>
    <v>       0.50692779       0.00848846       0.74766012 </v>
    <v>       0.11558240       0.12046797       0.23208396 </v>
    <v>       0.11734134       0.13554025       0.76693179 </v>
    <v>       0.12357638       0.62490623       0.25222295 </v>
    <v>       0.12285426       0.63013260       0.75361855 </v>
    <v>       0.61466276       0.12478604       0.23708788 </v>
    <v>       0.61903588       0.13068057       0.75064774 </v>
    <v>       0.61401565       0.62610708       0.25529835 </v>
    <v>       0.62431993       0.62444274       0.75066308 </v>
    <v>       0.37480517       0.36823559       0.25829718 </v>
    <v>       0.38182109       0.36796239       0.74551832 </v>
    <v>       0.38058903       0.86966740       0.24508954 </v>
    <v>       0.87216117       0.37463144       0.24812928 </v>
    <v>       0.87713677       0.37147820       0.75128902 </v>
    <v>       0.87875114       0.87268729       0.23452762 </v>
    <v>       0.88166401       0.87492743       0.74117302 </v>
    <v>       0.37013246       0.11582164       0.24196758 </v>
    <v>       0.36431880       0.11003461       0.75020587 </v>
    <v>       0.37454842       0.61066705       0.22646882 </v>
    <v>       0.37915051       0.62306615       0.76732334 </v>
    <v>       0.87145393       0.12116876       0.23558176 </v>
    <v>       0.86794065       0.12190672       0.75517011 </v>
    <v>       0.87078468       0.62509186       0.24938561 </v>
    <v>       0.87420996       0.62354974       0.75347935 </v>
    <v>       0.12473654       0.37230471       0.25302950 </v>
    <v>       0.13158764       0.37892605       0.75035064 </v>
    <v>       0.12701404       0.87550274       0.24878110 </v>
    <v>       0.14784403       0.88769980       0.74433485 </v>
    <v>       0.61447769       0.38410321       0.25704107 </v>
    <v>       0.62703669       0.37780706       0.73158988 </v>
    <v>       0.62622430       0.88121463       0.23583351 </v>
    <v>       0.61679342       0.87383725       0.75110756 </v>
    <v>       0.38578321       0.37351533       0.02526880 </v>
    <v>       0.35809474       0.39567992       0.50052953 </v>
    <v>       0.37957277       0.89018792       0.02734250 </v>
    <v>       0.37674358       0.86865443       0.49191624 </v>
    <v>       0.86213270       0.38382362       0.99821435 </v>
    <v>       0.85627720       0.38961913       0.49767537 </v>
    <v>       0.88268370       0.88734335       0.03094940 </v>
    <v>       0.86467713       0.88934112       0.50374258 </v>
    <v>       0.12835971       0.12016990       0.00151131 </v>
    <v>       0.14415792       0.62555357       0.98907270 </v>
    <v>       0.14451372       0.61240246       0.50357156 </v>
    <v>       0.62188943       0.12332918       0.99871193 </v>
    <v>       0.63314068       0.11402196       0.50660792 </v>
    <v>       0.62445304       0.61537627       0.49554538 </v>
    <v>       0.12595078       0.37241417       0.99774003 </v>
    <v>       0.10652592       0.35499903       0.49800513 </v>
    <v>       0.12410973       0.87867476       0.01071554 </v>
    <v>       0.12461140       0.88351832       0.49932393 </v>
    <v>       0.60737762       0.35921128       0.49975216 </v>
    <v>       0.62158224       0.87710812       0.00888394 </v>
    <v>       0.61912265       0.86832278       0.50144597 </v>
    <v>       0.38172944       0.12597702       0.01299661 </v>
    <v>       0.37403817       0.12526368       0.50016509 </v>
    <v>       0.40726143       0.65334873       0.00331600 </v>
    <v>       0.88593146       0.12722074       0.01256420 </v>
    <v>       0.89678626       0.14363467       0.49584484 </v>
    <v>       0.88055166       0.63420081       0.99683037 </v>
    <v>       0.88880403       0.63755529       0.49629890 </v>
    <v>       0.01820227       0.02536657       0.61930758 </v>
    <v>       0.00365576       0.50293324       0.12161214 </v>
    <v>       0.99797917       0.50092353       0.62473708 </v>
    <v>       0.48625603       0.98671594       0.62772352 </v>
    <v>       0.48151054       0.52139724       0.62075322 </v>
    <v>       0.00965745       0.01323378       0.37874446 </v>
    <v>       0.98932206       0.98272599       0.87647786 </v>
    <v>       0.99894835       0.50159500       0.37573764 </v>
    <v>       0.00057394       0.49787320       0.87541697 </v>
    <v>       0.50707351       0.00308568       0.37638905 </v>
    <v>       0.47973041       0.98327547       0.87189288 </v>
    <v>       0.46411409       0.53177164       0.38523419 </v>
    <v>       0.53902003       0.47841789       0.87673826 </v>
    <v>       0.23278638       0.22352092       0.37657292 </v>
    <v>       0.26820978       0.25631071       0.87996603 </v>
    <v>       0.26343010       0.73577063       0.37389375 </v>
    <v>       0.27319811       0.78097994       0.87701833 </v>
    <v>       0.74195766       0.23969656       0.37389002 </v>
    <v>       0.73670471       0.25883999       0.87641642 </v>
    <v>       0.75074972       0.76189752       0.36937274 </v>
    <v>       0.74915450       0.75956634       0.88225360 </v>
    <v>       0.24328726       0.25429568       0.12730842 </v>
    <v>       0.23623854       0.23435504       0.62319097 </v>
    <v>       0.24240845       0.74356564       0.12427512 </v>
    <v>       0.28083804       0.74572182       0.62582206 </v>
    <v>       0.72137598       0.27505634       0.11745933 </v>
    <v>       0.75735534       0.24360227       0.62311526 </v>
    <v>       0.72683679       0.71883923       0.11883368 </v>
    <v>       0.75051754       0.74365862       0.62402071 </v>
   </varray>
  </structure>
  <varray name="forces" >
   <v>       0.00400460      -0.00562063      -0.00101436 </v>
   <v>      -0.00127050       0.00361640      -0.00563393 </v>
   <v>      -0.00719074       0.00513160      -0.00901024 </v>
   <v>       0.00395140       0.00238431      -0.00547168 </v>
   <v>       0.01145761       0.01102671      -0.00348842 </v>
   <v>      -0.00878620      -0.01095941       0.00154452 </v>
   <v>      -0.00835796      -0.00715599      -0.00071980 </v>
   <v>       0.01347855       0.00691079      -0.01246330 </v>
   <v>      -0.00900661       0.00845753      -0.00283444 </v>
   <v>      -0.00723044      -0.00874661      -0.00005219 </v>
   <v>       0.00266999      -0.00651739       0.00034215 </v>
   <v>       0.01180447       0.00187304       0.00621771 </v>
   <v>       0.00237472       0.01341200       0.00362068 </v>
   <v>       0.00447193       0.00314798      -0.00158475 </v>
   <v>       0.00256055      -0.00004461       0.00857598 </v>
   <v>      -0.00678853      -0.00973083       0.00072204 </v>
   <v>      -0.00110851       0.01336223      -0.00371635 </v>
   <v>       0.00596936       0.00199973      -0.00411163 </v>
   <v>       0.00882659       0.00025335      -0.00184228 </v>
   <v>      -0.00431254      -0.00789084      -0.00790140 </v>
   <v>       0.01028863      -0.00543839      -0.00889711 </v>
   <v>      -0.00754648       0.00381148      -0.00256364 </v>
   <v>       0.00483551      -0.00156430      -0.00479553 </v>
   <v>      -0.00262068       0.00949955       0.00559244 </v>
   <v>       0.00021723       0.00146488      -0.00159507 </v>
   <v>       0.00235026       0.00796995       0.00304655 </v>
   <v>       0.00067599      -0.01231608       0.00075856 </v>
   <v>       0.00063041       0.00226820       0.00103687 </v>
   <v>      -0.00746283       0.00196733       0.00828392 </v>
   <v>       0.00169774       0.01232703      -0.00458786 </v>
   <v>      -0.00229005      -0.00483066       0.00632056 </v>
   <v>      -0.00913308       0.00292183       0.01139695 </v>
   <v>       0.00494486      -0.00212894       0.01314375 </v>
   <v>       0.02450021       0.04673597      -0.00369178 </v>
   <v>      -0.00492897      -0.01867881       0.02068113 </v>
   <v>      -0.01428230       0.03795262       0.00843926 </v>
   <v>       0.00348744      -0.02437553      -0.00346613 </v>
   <v>       0.01076320       0.02199770       0.00087729 </v>
   <v>      -0.00710076      -0.00682362      -0.01255953 </v>
   <v>       0.00924778       0.00507567      -0.00878772 </v>
   <v>       0.02344963       0.00335632       0.00703729 </v>
   <v>       0.01280962      -0.01598972       0.01487535 </v>
   <v>       0.00029319       0.00503779      -0.00386676 </v>
   <v>       0.01027873      -0.00215295       0.01483543 </v>
   <v>      -0.00351602      -0.00092840       0.00811628 </v>
   <v>      -0.01152359      -0.00627352      -0.00845309 </v>
   <v>      -0.00164178       0.00383963      -0.01685372 </v>
   <v>       0.00384715      -0.01292805       0.02334142 </v>
   <v>      -0.00665489      -0.00244333      -0.00174113 </v>
   <v>       0.00892279      -0.00080065      -0.02262030 </v>
   <v>       0.00268398       0.00442698       0.01708323 </v>
   <v>      -0.00117432       0.00342947       0.00167136 </v>
   <v>       0.01045209       0.00060859      -0.00720589 </v>
   <v>       0.00499364       0.00301801       0.01006183 </v>
   <v>      -0.00559875       0.00278437      -0.00030851 </v>
   <v>      -0.01795983      -0.00309408       0.00207546 </v>
   <v>       0.00192115       0.00313986       0.00610148 </v>
   <v>      -0.00608159      -0.00396704      -0.01155389 </v>
   <v>      -0.00287579      -0.00360631       0.01186806 </v>
   <v>       0.00448364       0.00530466      -0.00090200 </v>
   <v>      -0.00393383       0.01339358      -0.01171242 </v>
   <v>       0.01211161      -0.00203382       0.00408115 </v>
   <v>       0.00648012      -0.01709185       0.00920086 </v>
   <v>       0.00809504      -0.00079139      -0.01297439 </v>
   <v>       0.01161079      -0.01414995       0.00215612 </v>
   <v>      -0.00832564      -0.01690916      -0.01267920 </v>
   <v>      -0.00091334      -0.01306002      -0.00309127 </v>
   <v>       0.00942562       0.01106558       0.00704158 </v>
   <v>       0.00687979      -0.01126032       0.00073661 </v>
   <v>      -0.00388854      -0.00231771       0.00279155 </v>
   <v>      -0.00144501      -0.00276468      -0.00425732 </v>
   <v>      -0.00281118       0.02174630       0.00540620 </v>
   <v>      -0.00035737       0.00525773      -0.00248023 </v>
   <v>      -0.00295740      -0.00504243       0.01024830 </v>
   <v>      -0.00253586       0.00102224      -0.00781020 </v>
   <v>       0.00627240      -0.00431056       0.00167426 </v>
   <v>       0.01013152       0.00417990       0.00396147 </v>
   <v>       0.00462007       0.00459197      -0.00369687 </v>
   <v>      -0.00500912      -0.01281364       0.00888854 </v>
   <v>       0.00327747      -0.00649729      -0.01175262 </v>
   <v>       0.00521233      -0.02014610       0.00469113 </v>
   <v>      -0.00107493       0.00495427      -0.00065061 </v>
   <v>      -0.01430043       0.01803478       0.00175164 </v>
   <v>       0.02087319       0.00154316      -0.01124631 </v>
   <v>       0.01705357       0.00440853      -0.00094429 </v>
   <v>       0.00671037      -0.00215047      -0.00217679 </v>
   <v>      -0.01115366       0.01428523      -0.00879604 </v>
   <v>      -0.00500822       0.01175994       0.00068129 </v>
   <v>      -0.01310086       0.00052994      -0.00429508 </v>
   <v>      -0.00654132      -0.00491776      -0.00385702 </v>
   <v>       0.00157747      -0.01066926       0.00201955 </v>
   <v>       0.00075569       0.00201185       0.00497722 </v>
   <v>       0.00319421      -0.01780256      -0.01165199 </v>
   <v>      -0.00348136      -0.01113985       0.00274893 </v>
   <v>      -0.01140928      -0.00538486      -0.00733457 </v>
   <v>      -0.01925532      -0.00164467      -0.01071674 </v>
   <v>       0.01256365       0.00218256      -0.00016443 </v>
   <v>       0.00179673      -0.00106474      -0.00105960 </v>
   <v>       0.01519809      -0.02433778       0.00386408 </v>
   <v>       0.00872328      -0.00575893       0.00482522 </v>
   <v>      -0.00725469      -0.00853166      -0.00231054 </v>
   <v>      -0.00377901      -0.01006260      -0.02253094 </v>
   <v>      -0.00607959      -0.04184661       0.01819471 </v>
   <v>      -0.00627227       0.01472636       0.00599578 </v>
   <v>      -0.01516237      -0.00027304      -0.01144063 </v>
   <v>       0.00108701       0.02413237      -0.00640905 </v>
   <v>      -0.00281940       0.01253953       0.01168102 </v>
   <v>      -0.00285097       0.01818484       0.00170350 </v>
   <v>      -0.01268354      -0.00256069      -0.00844941 </v>
   <v>      -0.01058149       0.01657620       0.00326239 </v>
   <v>       0.00254537       0.00477096       0.00211437 </v>
   <v>      -0.00626841       0.01862464      -0.00779254 </v>
   <v>       0.02108549       0.00422703       0.00628410 </v>
   <v>       0.00161226       0.00632424       0.00067901 </v>
   <v>       0.00115896      -0.01150681       0.00978565 </v>
   <v>       0.00297383       0.00135942       0.00676192 </v>
   <v>      -0.01127436       0.00716882       0.00408207 </v>
   <v>       0.00360718       0.00173403       0.00270857 </v>
   <v>      -0.00489050      -0.01441530      -0.00224298 </v>
   <v>       0.00581957      -0.00886410       0.00289513 </v>
   <v>       0.00315471      -0.02633512       0.00810150 </v>
   <v>      -0.00156853      -0.00144390       0.00483614 </v>
   <v>      -0.00959179       0.00551362      -0.00727786 </v>
   <v>       0.00236007      -0.00012792       0.00264326 </v>
   <v>       0.00442570       0.00316222      -0.01442753 </v>
   <v>      -0.00707230       0.00303764       0.01309928 </v>
   <v>       0.00218189       0.01174057       0.01236449 </v>
   <v>      -0.00301458      -0.00016558      -0.00059838 </v>
   <v>      -0.00641910      -0.00971708       0.00531308 </v>
   <v>       0.00694134       0.00389785      -0.02403365 </v>
   <v>      -0.00059057      -0.00235820      -0.00015308 </v>
   <v>      -0.00223472      -0.00738316      -0.01090041 </v>
   <v>      -0.00387431      -0.01073777      -0.01393255 </v>
   <v>       0.00162580      -0.00156660      -0.02167298 </v>
   <v>       0.00013333      -0.00277142       0.01916524 </v>
   <v>      -0.02781311       0.00633282       0.01613634 </v>
   <v>       0.00733420       0.00710056      -0.01582012 </v>
   <v>      -0.00470270      -0.00405569       0.00514536 </v>
   <v>      -0.00066703       0.00546998       0.00605983 </v>
   <v>      -0.00353321       0.00207810      -0.01453969 </v>
   <v>       0.00545136       0.00358017       0.00150485 </v>
   <v>      -0.00003182       0.00976664       0.01314564 </v>
   <v>       0.00310678       0.00183272       0.01051416 </v>
   <v>      -0.01134282      -0.01694860      -0.00612481 </v>
   <v>       0.00216278      -0.00669123      -0.00901361 </v>
   <v>       0.00937468       0.00307680       0.00214361 </v>
   <v>      -0.00814204       0.00890698       0.01395401 </v>
   <v>      -0.01005111       0.00755041       0.01336045 </v>
   <v>      -0.00650776       0.00160882      -0.00000996 </v>
   <v>      -0.01471563      -0.00017884      -0.01295691 </v>
   <v>       0.00273132       0.00366739      -0.00483969 </v>
   <v>       0.00295485      -0.01256457       0.01207098 </v>
  </varray>
  <varray name="stress" >
   <v>       0.09574557       0.04244032       0.04469952 </v>
   <v>       0.04244041       0.09396079       0.04393642 </v>
   <v>       0.04469987       0.04393638       0.05281512 </v>
  </varray>
  <energy>
   <i name="e_fr_energy">  -1054.34236769 </i>
   <i name="e_wo_entrp">  -1054.34178164 </i>
   <i name="e_0_energy">     -0.00117211 </i>
  </energy>
  <time name="totalsc"> 1966.07 1968.61</time>
 </calculation>
 <calculation>
  <scstep>
   <time name="dav">  580.89  580.96</time>
   <time name="total">  588.15  588.30</time>
   <energy>
    <i name="alphaZ">   5634.90719687 </i>
    <i name="ewald"> -61949.81724311 </i>
    <i name="hartreedc"> -17695.19204937 </i>
    <i name="XCdc">   3184.22452715 </i>
    <i name="pawpsdc"> 114213.86807057 </i>
    <i name="pawaedc">-113415.77052307 </i>
    <i name="eentropy">     -0.00115426 </i>
    <i name="bandstr">  -7076.73710758 </i>
    <i name="atom">  76050.17612637 </i>
    <i name="e_fr_energy">  -1054.34215643 </i>
    <i name="e_wo_entrp">  -1054.34100217 </i>
    <i name="e_0_energy">  -1054.34157930 </i>
   </energy>
  </scstep>
  <scstep>
   <time name="diag">   64.52   64.57</time>
   <time name="diis">  104.91  104.94</time>
   <time name="orth">   33.29   33.29</time>
   <time name="total">  210.02  210.12</time>
   <energy>
    <i name="e_fr_energy">  -1054.34332513 </i>
    <i name="e_wo_entrp">  -1054.34219639 </i>
    <i name="e_0_energy">  -1054.34276076 </i>
   </energy>
  </scstep>
  <scstep>
   <time name="diag">   64.57   64.59</time>
   <time name="diis">   91.35   91.36</time>
   <time name="orth">   33.27   33.27</time>
   <time name="total">  196.46  196.53</time>
   <energy>
    <i name="e_fr_energy">  -1054.34333613 </i>
    <i name="e_wo_entrp">  -1054.34220014 </i>
    <i name="e_0_energy">  -1054.34276813 </i>
   </energy>
  </scstep>
  <scstep>
   <time name="diag">   64.55   64.57</time>
   <time name="diis">   66.04   66.09</time>
   <time name="orth">   33.25   33.25</time>
   <time name="total">  171.13  171.29</time>
   <energy>
    <i name="e_fr_energy">  -1054.34328116 </i>
    <i name="e_wo_entrp">  -1054.34215086 </i>
    <i name="e_0_energy">  -1054.34271601 </i>
   </energy>
  </scstep>
  <scstep>
   <time name="diag">   64.59   64.60</time>
   <time name="diis">   64.60   64.63</time>
   <time name="orth">   33.26   33.26</time>
   <time name="total">  169.74  169.88</time>
   <energy>
    <i name="e_fr_energy">  -1054.34326442 </i>
    <i name="e_wo_entrp">  -1054.34214058 </i>
    <i name="e_0_energy">  -1054.34270250 </i>
   </energy>
  </scstep>
  <scstep>
   <time name="diag">   64.53   64.54</time>
   <time name="diis">   63.26   63.28</time>
   <time name="orth">   33.29   33.30</time>
   <time name="total">  168.37  168.46</time>
   <energy>
    <i name="e_fr_energy">  -1054.34326496 </i>
    <i name="e_wo_entrp">  -1054.34213634 </i>
    <i name="e_0_energy">  -1054.34270065 </i>
   </energy>
  </scstep>
  <scstep>
   <time name="diag">   64.62   64.64</time>
   <time name="diis">   60.36   60.39</time>
   <time name="orth">   33.27   33.27</time>
   <time name="total">  165.53  165.65</time>
   <energy>
    <i name="e_fr_energy">  -1054.34326488 </i>
    <i name="e_wo_entrp">  -1054.34213491 </i>
    <i name="e_0_energy">  -1054.34269990 </i>
   </energy>
  </scstep>
  <scstep>
   <time name="diag">   64.64   64.64</time>
   <time name="diis">   57.88   57.91</time>
   <time name="orth">   33.23   33.23</time>
   <time name="total">  156.81  156.89</time>
   <energy>
    <i name="alphaZ">   5634.90719687 </i>
    <i name="ewald"> -61949.81724311 </i>
    <i name="hartreedc"> -17696.71408227 </i>
    <i name="XCdc">   3184.31733663 </i>
    <i name="pawpsdc"> 114182.00346695 </i>
    <i name="pawaedc">-113383.90123358 </i>
    <i name="eentropy">     -0.00112832 </i>
    <i name="bandstr">  -7075.31370404 </i>
    <i name="atom">  76050.17612637 </i>
    <i name="e_fr_energy">  -1054.34326449 </i>
    <i name="e_wo_entrp">  -1054.34213617 </i>
    <i name="e_0_energy">  -1054.34270033 </i>
   </energy>
  </scstep>
  <structure>
   <crystal>
    <varray name="basis" >
     <v>      11.23750130       0.00000660      -0.03512574 </v>
     <v>      -0.00006764      11.26151709      -0.01488620 </v>
     <v>      -0.05035495      -0.02107241      15.79342609 </v>
    </varray>
    <i name="volume">   1998.65536361 </i>
    <varray name="rec_basis" >
     <v>       0.08898864       0.00000091       0.00028373 </v>
     <v>       0.00000032       0.08879814       0.00011848 </v>
     <v>       0.00019792       0.00008370       0.06331823 </v>
    </varray>
   </crystal>
   <varray name="positions" >
    <v>       0.99868524       0.26247846       0.12697276 </v>
    <v>       0.99804878       0.25608121       0.63027482 </v>
    <v>       0.00656294       0.73841421       0.12478612 </v>
    <v>       0.99099192       0.74235553       0.63087249 </v>
    <v>       0.49344576       0.24797472       0.13438626 </v>
    <v>       0.50008511       0.24189709       0.62682122 </v>
    <v>       0.49877213       0.75404775       0.13078065 </v>
    <v>       0.51633776       0.75075540       0.62561818 </v>
    <v>       0.99145606       0.25601330       0.36668259 </v>
    <v>       0.99803601       0.26037334       0.87499056 </v>
    <v>       0.99630258       0.74165172       0.36879464 </v>
    <v>       0.99649622       0.74093283       0.86996181 </v>
    <v>       0.50204860       0.23416649       0.37176841 </v>
    <v>       0.50101828       0.24810313       0.86829703 </v>
    <v>       0.50780412       0.76106968       0.37403181 </v>
    <v>       0.51126392       0.75055954       0.87147287 </v>
    <v>       0.24826605       0.99996900       0.12780743 </v>
    <v>       0.25170117       0.99666473       0.62478983 </v>
    <v>       0.23366806       0.49685362       0.12747001 </v>
    <v>       0.24547682       0.50234119       0.63167277 </v>
    <v>       0.74818840       0.00963696       0.12787918 </v>
    <v>       0.74705345       0.99286136       0.62947640 </v>
    <v>       0.77343907       0.49654769       0.12970665 </v>
    <v>       0.75923922       0.50609066       0.62829689 </v>
    <v>       0.25512192       0.99118251       0.36957653 </v>
    <v>       0.24246184       0.00611450       0.87292555 </v>
    <v>       0.23402067       0.49852527       0.37288361 </v>
    <v>       0.23125692       0.49713720       0.86818264 </v>
    <v>       0.74327271       0.00085467       0.37011130 </v>
    <v>       0.75239673       0.99687318       0.86518918 </v>
    <v>       0.76219416       0.50265985       0.36963393 </v>
    <v>       0.76686164       0.50197317       0.86810424 </v>
    <v>       0.00232941       0.99920473       0.99096595 </v>
    <v>       0.98796709       0.99388570       0.50116294 </v>
    <v>       0.00080151       0.49993174       0.50019867 </v>
    <v>       0.49978821       0.99956935       0.98872810 </v>
    <v>       0.49859985       0.99453290       0.50308490 </v>
    <v>       0.50844291       0.48897639       0.50373237 </v>
    <v>       0.25221440       0.25171039       0.00383998 </v>
    <v>       0.25681056       0.75461265       0.99966692 </v>
    <v>       0.75557226       0.24564037       0.49882663 </v>
    <v>       0.24266420       0.24361781       0.25167202 </v>
    <v>       0.24760926       0.24621459       0.74877037 </v>
    <v>       0.24848427       0.74774531       0.24866515 </v>
    <v>       0.75286217       0.25154970       0.74977762 </v>
    <v>       0.74990176       0.75093198       0.24485068 </v>
    <v>       0.49221990       0.50302304       0.26987396 </v>
    <v>       0.50446767       0.50144958       0.75083342 </v>
    <v>       0.99870409       0.50081390       0.99772823 </v>
    <v>       0.46147533       0.50242314       0.97884611 </v>
    <v>       0.25602865       0.26123360       0.49946371 </v>
    <v>       0.24132125       0.75931630       0.50163949 </v>
    <v>       0.75966778       0.24177446       0.00056977 </v>
    <v>       0.76642704       0.76678400       0.00509190 </v>
    <v>       0.74864254       0.74670880       0.49900646 </v>
    <v>       0.24502221       0.74304697       0.75068810 </v>
    <v>       0.74436216       0.25145399       0.24519041 </v>
    <v>       0.75246691       0.75058854       0.74936721 </v>
    <v>       0.99672008       0.00163848       0.25914541 </v>
    <v>       0.00394157       0.00097721       0.74542376 </v>
    <v>       0.99947420       0.49906258       0.25037768 </v>
    <v>       0.99927437       0.49960982       0.74949044 </v>
    <v>       0.49964226       0.99880750       0.25760555 </v>
    <v>       0.50696237       0.00848500       0.74762056 </v>
    <v>       0.11563228       0.12040737       0.23209060 </v>
    <v>       0.11730542       0.13546773       0.76689291 </v>
    <v>       0.12357242       0.62485027       0.25221344 </v>
    <v>       0.12289483       0.63018004       0.75364020 </v>
    <v>       0.61469230       0.12473781       0.23709015 </v>
    <v>       0.61901922       0.13067066       0.75065622 </v>
    <v>       0.61400939       0.62609521       0.25528532 </v>
    <v>       0.62430794       0.62453593       0.75067966 </v>
    <v>       0.37480361       0.36825810       0.25828962 </v>
    <v>       0.38180854       0.36794085       0.74554958 </v>
    <v>       0.38057804       0.86967173       0.24506567 </v>
    <v>       0.87218813       0.37461298       0.24813443 </v>
    <v>       0.87718032       0.37149613       0.75130123 </v>
    <v>       0.87877093       0.87270694       0.23451639 </v>
    <v>       0.88164262       0.87487258       0.74120007 </v>
    <v>       0.37014637       0.11579374       0.24193168 </v>
    <v>       0.36434124       0.10994833       0.75022017 </v>
    <v>       0.37454380       0.61068827       0.22646684 </v>
    <v>       0.37908914       0.62314342       0.76732863 </v>
    <v>       0.87154339       0.12117531       0.23554761 </v>
    <v>       0.86801385       0.12192561       0.75516740 </v>
    <v>       0.87081346       0.62508263       0.24937902 </v>
    <v>       0.87416196       0.62361089       0.75345244 </v>
    <v>       0.12471505       0.37235509       0.25303158 </v>
    <v>       0.13153134       0.37892829       0.75033740 </v>
    <v>       0.12698590       0.87548165       0.24876924 </v>
    <v>       0.14785083       0.88765410       0.74434099 </v>
    <v>       0.61448100       0.38411186       0.25705629 </v>
    <v>       0.62705024       0.37773072       0.73155424 </v>
    <v>       0.62620939       0.88116692       0.23584182 </v>
    <v>       0.61674434       0.87381414       0.75108502 </v>
    <v>       0.38570040       0.37350822       0.02523587 </v>
    <v>       0.35814868       0.39568927       0.50052916 </v>
    <v>       0.37958046       0.89018336       0.02733927 </v>
    <v>       0.37680887       0.86855019       0.49192809 </v>
    <v>       0.86217022       0.38379897       0.99822915 </v>
    <v>       0.85624602       0.38958256       0.49766821 </v>
    <v>       0.88266717       0.88730011       0.03088050 </v>
    <v>       0.86465127       0.88916196       0.50379793 </v>
    <v>       0.12833287       0.12023303       0.00152963 </v>
    <v>       0.14409267       0.62555233       0.98903761 </v>
    <v>       0.14451830       0.61250580       0.50355209 </v>
    <v>       0.62187748       0.12338297       0.99874763 </v>
    <v>       0.63312846       0.11409987       0.50661317 </v>
    <v>       0.62439847       0.61536525       0.49551943 </v>
    <v>       0.12590540       0.37248520       0.99774996 </v>
    <v>       0.10653687       0.35501948       0.49801164 </v>
    <v>       0.12408272       0.87875451       0.01069175 </v>
    <v>       0.12470202       0.88353646       0.49934335 </v>
    <v>       0.60738455       0.35923838       0.49975427 </v>
    <v>       0.62158735       0.87705888       0.00891380 </v>
    <v>       0.61913551       0.86832864       0.50146666 </v>
    <v>       0.38168109       0.12600775       0.01300900 </v>
    <v>       0.37405369       0.12527113       0.50017341 </v>
    <v>       0.40724040       0.65328696       0.00330905 </v>
    <v>       0.88595649       0.12718278       0.01257306 </v>
    <v>       0.89679991       0.14352190       0.49586951 </v>
    <v>       0.88054500       0.63419465       0.99684512 </v>
    <v>       0.88876275       0.63757886       0.49627659 </v>
    <v>       0.01821244       0.02536604       0.61931568 </v>
    <v>       0.00367456       0.50294670       0.12156813 </v>
    <v>       0.99794899       0.50093662       0.62477704 </v>
    <v>       0.48626557       0.98676631       0.62776136 </v>
    <v>       0.48149759       0.52139652       0.62075136 </v>
    <v>       0.00962997       0.01319218       0.37876059 </v>
    <v>       0.98935153       0.98274255       0.87640453 </v>
    <v>       0.99894582       0.50158490       0.37573716 </v>
    <v>       0.00056420       0.49784151       0.87538362 </v>
    <v>       0.50705668       0.00303960       0.37634641 </v>
    <v>       0.47973709       0.98326864       0.87182669 </v>
    <v>       0.46411493       0.53175987       0.38529273 </v>
    <v>       0.53890085       0.47844511       0.87678731 </v>
    <v>       0.23281765       0.22355125       0.37652469 </v>
    <v>       0.26818966       0.25629337       0.87998168 </v>
    <v>       0.26342732       0.73579410       0.37391228 </v>
    <v>       0.27318274       0.78098876       0.87697389 </v>
    <v>       0.74198109       0.23971190       0.37389468 </v>
    <v>       0.73670476       0.25888191       0.87645662 </v>
    <v>       0.75076320       0.76190543       0.36940490 </v>
    <v>       0.74910571       0.75949369       0.88223471 </v>
    <v>       0.24329642       0.25426696       0.12728088 </v>
    <v>       0.23627881       0.23436823       0.62319762 </v>
    <v>       0.24237369       0.74360388       0.12431770 </v>
    <v>       0.28079507       0.74575424       0.62586281 </v>
    <v>       0.72134804       0.27506323       0.11745925 </v>
    <v>       0.75729198       0.24360143       0.62307554 </v>
    <v>       0.72684845       0.71885491       0.11881894 </v>
    <v>       0.75053039       0.74360486       0.62405756 </v>
   </varray>
  </structure>
  <varray name="forces" >
   <v>       0.00646115      -0.00026114       0.00170265 </v>
   <v>      -0.00202037       0.00051193       0.00404341 </v>
   <v>       0.00077122       0.00204940      -0.00088017 </v>
   <v>       0.00065431       0.00741768      -0.00640407 </v>
   <v>       0.00982177       0.01041079      -0.00152283 </v>
   <v>      -0.00399055      -0.00962987      -0.00711513 </v>
   <v>      -0.00605689      -0.00173518      -0.00359456 </v>
   <v>       0.00525727       0.00140492      -0.00189983 </v>
   <v>      -0.00467564       0.01402218      -0.01249224 </v>
   <v>      -0.00367742      -0.00575401       0.00009165 </v>
   <v>       0.00049593      -0.00720110       0.00407697 </v>
   <v>       0.00542232       0.00469128       0.00137387 </v>
   <v>       0.00528239       0.01191144       0.00579616 </v>
   <v>       0.00113703      -0.00245457      -0.00253220 </v>
   <v>       0.00093856      -0.00544259       0.00588614 </v>
   <v>      -0.00156765       0.00061073      -0.00031423 </v>
   <v>      -0.00389149       0.00775612       0.00228346 </v>
   <v>       0.00468464      -0.00300536       0.00218118 </v>
   <v>       0.00310548      -0.00239242      -0.00277909 </v>
   <v>       0.00244434       0.00086343      -0.00819143 </v>
   <v>       0.00489994      -0.00288701      -0.00272322 </v>
   <v>      -0.00287138       0.00020457      -0.00535299 </v>
   <v>       0.00721745      -0.00429861      -0.00416358 </v>
   <v>      -0.00420236       0.01175758       0.00740318 </v>
   <v>      -0.00016559      -0.00048867      -0.00406789 </v>
   <v>       0.00073022       0.00380872      -0.00340378 </v>
   <v>      -0.00218642      -0.01148885      -0.00086362 </v>
   <v>      -0.00418258       0.00291206       0.00287807 </v>
   <v>      -0.00281969      -0.00079024       0.00895583 </v>
   <v>       0.00083444       0.00124826      -0.00539593 </v>
   <v>       0.00038947      -0.00369948       0.00330635 </v>
   <v>       0.00203640       0.00751511       0.00586650 </v>
   <v>      -0.00131733      -0.00422762      -0.03523733 </v>
   <v>      -0.03842014      -0.06199488       0.02035057 </v>
   <v>       0.00236662       0.01589870      -0.00771604 </v>
   <v>       0.00517591      -0.04476052      -0.02148604 </v>
   <v>       0.00968607      -0.00089945       0.00400332 </v>
   <v>      -0.00224273      -0.01031628       0.00458904 </v>
   <v>      -0.01474126       0.01920221       0.02084540 </v>
   <v>      -0.00282301      -0.00434378      -0.00069449 </v>
   <v>      -0.02336687      -0.00373022       0.00268458 </v>
   <v>      -0.00469096       0.00522690      -0.01531144 </v>
   <v>      -0.00594969      -0.01095334       0.00282229 </v>
   <v>      -0.00799500      -0.00216194       0.00026588 </v>
   <v>       0.00990006      -0.00138796       0.00061475 </v>
   <v>       0.01461184      -0.00264388       0.00317536 </v>
   <v>      -0.00592104       0.00074632       0.01812967 </v>
   <v>      -0.00597268       0.02347945      -0.00256108 </v>
   <v>       0.00257148      -0.00001482      -0.00270526 </v>
   <v>      -0.01637156      -0.01101796       0.01543589 </v>
   <v>       0.01591003       0.00760832       0.00472548 </v>
   <v>      -0.00142309      -0.00197627       0.00880316 </v>
   <v>       0.01109969       0.00277186       0.00936606 </v>
   <v>      -0.00775291       0.00049162      -0.01025546 </v>
   <v>       0.01228357       0.00244496      -0.00136212 </v>
   <v>       0.00022548       0.01072628      -0.00328346 </v>
   <v>       0.00380240       0.00050983      -0.00082155 </v>
   <v>       0.00007115       0.00417797      -0.00180488 </v>
   <v>       0.00080606      -0.00508528      -0.00135784 </v>
   <v>       0.00150302      -0.00910796       0.00287597 </v>
   <v>       0.00522203       0.00335073      -0.00370336 </v>
   <v>      -0.00090592       0.01073949       0.01204389 </v>
   <v>       0.00311474      -0.00494077      -0.00960312 </v>
   <v>       0.00294160      -0.01047116       0.00384032 </v>
   <v>       0.01298606      -0.00743718       0.00562636 </v>
   <v>       0.00848054       0.00350580      -0.01313342 </v>
   <v>       0.00555797       0.00071730      -0.00069400 </v>
   <v>      -0.01005945      -0.00830901       0.00483161 </v>
   <v>       0.00517607      -0.01036509       0.00091655 </v>
   <v>       0.00912571       0.01002041       0.00308684 </v>
   <v>       0.00108827      -0.00004510      -0.00525393 </v>
   <v>      -0.02178214      -0.00853729       0.00701955 </v>
   <v>       0.00336747       0.00673788      -0.00394422 </v>
   <v>      -0.00119947      -0.00367461       0.01152752 </v>
   <v>      -0.00141171      -0.00048062      -0.00508541 </v>
   <v>       0.00020129      -0.00319471      -0.00107892 </v>
   <v>      -0.00398704      -0.00577471       0.00163416 </v>
   <v>      -0.00458146      -0.00162769      -0.00447983 </v>
   <v>      -0.00234435      -0.00190006       0.00574444 </v>
   <v>       0.00670607      -0.00583866      -0.00820402 </v>
   <v>      -0.00958762       0.00026768       0.00330883 </v>
   <v>       0.00152717       0.00292229       0.00139547 </v>
   <v>       0.00431189      -0.00482856       0.00247183 </v>
   <v>       0.01614898       0.00400073      -0.00985946 </v>
   <v>       0.00261471       0.01485466      -0.00293841 </v>
   <v>      -0.00322231       0.00422851      -0.00426059 </v>
   <v>       0.00094053      -0.00114896      -0.00411425 </v>
   <v>       0.00518865      -0.00526646      -0.00149936 </v>
[...]
       <r>   -17.0722     0.0000    32.0000 </r>
       <r>   -16.9184     0.0000    32.0000 </r>
       <r>   -16.7645     0.0000    32.0000 </r>
       <r>   -16.6107     0.0000    32.0000 </r>
       <r>   -16.4568     0.0000    32.0000 </r>
       <r>   -16.3030     0.0000    32.0000 </r>
       <r>   -16.1492     0.0000    32.0000 </r>
       <r>   -15.9953     0.0000    32.0000 </r>
       <r>   -15.8415     0.0000    32.0000 </r>
       <r>   -15.6876     0.0000    32.0000 </r>
       <r>   -15.5338     0.0000    32.0000 </r>
       <r>   -15.3800     0.0000    32.0000 </r>
       <r>   -15.2261     0.8829    32.1358 </r>
       <r>   -15.0723    14.1267    34.3091 </r>
       <r>   -14.9185    40.9297    40.6056 </r>
       <r>   -14.7646    35.7423    46.1042 </r>
       <r>   -14.6108    42.5490    52.6499 </r>
       <r>   -14.4569    39.0565    58.6583 </r>
       <r>   -14.3031    42.8763    65.2544 </r>
       <r>   -14.1493    47.7131    72.5945 </r>
       <r>   -13.9954    82.2825    85.2527 </r>
       <r>   -13.8416    84.5008    98.2523 </r>
       <r>   -13.6877    71.9240   109.3170 </r>
       <r>   -13.5339    42.8083   115.9026 </r>
       <r>   -13.3801    24.1254   119.6140 </r>
       <r>   -13.2262     2.5092   120.0000 </r>
       <r>   -13.0724     0.0000   120.0000 </r>
       <r>   -12.9185     0.0141   120.0022 </r>
       <r>   -12.7647    12.5268   121.9293 </r>
       <r>   -12.6109    69.9038   132.6832 </r>
       <r>   -12.4570   101.1119   148.2382 </r>
       <r>   -12.3032   118.1887   166.4202 </r>
       <r>   -12.1494   107.5346   182.9632 </r>
       <r>   -11.9955    99.0591   198.2023 </r>
       <r>   -11.8417    75.5575   209.8260 </r>
       <r>   -11.6878    32.4897   214.8242 </r>
       <r>   -11.5340     7.6402   215.9996 </r>
       <r>   -11.3802     0.0028   216.0000 </r>
       <r>   -11.2263     0.0000   216.0000 </r>
       <r>   -11.0725     0.0000   216.0000 </r>
       <r>   -10.9186     0.0000   216.0000 </r>
       <r>   -10.7648     0.0000   216.0000 </r>
       <r>   -10.6110     0.0000   216.0000 </r>
       <r>   -10.4571     0.0000   216.0000 </r>
       <r>   -10.3033     0.0000   216.0000 </r>
       <r>   -10.1494     0.0000   216.0000 </r>
       <r>    -9.9956     0.0000   216.0000 </r>
       <r>    -9.8418     0.0000   216.0000 </r>
       <r>    -9.6879     0.0000   216.0000 </r>
       <r>    -9.5341     0.0000   216.0000 </r>
       <r>    -9.3803     0.0000   216.0000 </r>
       <r>    -9.2264     0.0000   216.0000 </r>
       <r>    -9.0726     0.0000   216.0000 </r>
       <r>    -8.9187     0.0000   216.0000 </r>
       <r>    -8.7649     0.0000   216.0000 </r>
       <r>    -8.6111     0.0000   216.0000 </r>
       <r>    -8.4572     0.0000   216.0000 </r>
       <r>    -8.3034     0.0000   216.0000 </r>
       <r>    -8.1495     0.0000   216.0000 </r>
       <r>    -7.9957     0.0000   216.0000 </r>
       <r>    -7.8419     0.0000   216.0000 </r>
       <r>    -7.6880     0.0000   216.0000 </r>
       <r>    -7.5342     0.0000   216.0000 </r>
       <r>    -7.3803     0.0000   216.0000 </r>
       <r>    -7.2265     0.0000   216.0000 </r>
       <r>    -7.0727     0.0000   216.0000 </r>
       <r>    -6.9188     0.0000   216.0000 </r>
       <r>    -6.7650     0.0000   216.0000 </r>
       <r>    -6.6111     0.0000   216.0000 </r>
       <r>    -6.4573     0.0000   216.0000 </r>
       <r>    -6.3035     0.0000   216.0000 </r>
       <r>    -6.1496     0.0000   216.0000 </r>
       <r>    -5.9958     0.0000   216.0000 </r>
       <r>    -5.8420     0.0000   216.0000 </r>
       <r>    -5.6881     0.0000   216.0000 </r>
       <r>    -5.5343     0.0000   216.0000 </r>
       <r>    -5.3804     0.0000   216.0000 </r>
       <r>    -5.2266     0.0000   216.0000 </r>
       <r>    -5.0728     0.0000   216.0000 </r>
       <r>    -4.9189     0.0000   216.0000 </r>
       <r>    -4.7651     0.0000   216.0000 </r>
       <r>    -4.6112     0.0000   216.0000 </r>
       <r>    -4.4574     0.0000   216.0000 </r>
       <r>    -4.3036     0.0000   216.0000 </r>
       <r>    -4.1497     0.0000   216.0000 </r>
       <r>    -3.9959     0.0000   216.0000 </r>
       <r>    -3.8420     0.0000   216.0000 </r>
       <r>    -3.6882     0.0000   216.0000 </r>
       <r>    -3.5344     0.0000   216.0000 </r>
       <r>    -3.3805     0.0000   216.0000 </r>
       <r>    -3.2267     0.0000   216.0000 </r>
       <r>    -3.0729     0.0000   216.0000 </r>
       <r>    -2.9190     0.0000   216.0000 </r>
       <r>    -2.7652     0.0000   216.0000 </r>
       <r>    -2.6113     2.6047   216.4007 </r>
       <r>    -2.4575     4.5457   217.1000 </r>
       <r>    -2.3037     9.4261   218.5501 </r>
       <r>    -2.1498    17.5024   221.2427 </r>
       <r>    -1.9960    25.6462   225.1881 </r>
       <r>    -1.8421    28.9381   229.6399 </r>
       <r>    -1.6883    27.0845   233.8065 </r>
       <r>    -1.5345    40.8875   240.0966 </r>
       <r>    -1.3806    51.5835   248.0321 </r>
       <r>    -1.2268    65.2861   258.0757 </r>
       <r>    -1.0729    66.8326   268.3571 </r>
       <r>    -0.9191    68.8616   278.9507 </r>
       <r>    -0.7653    84.4807   291.9472 </r>
       <r>    -0.6114    93.7934   306.3762 </r>
       <r>    -0.4576    94.4382   320.9045 </r>
       <r>    -0.3038    78.9209   333.0456 </r>
       <r>    -0.1499    64.5575   342.9771 </r>
       <r>     0.0039    52.4842   351.0512 </r>
       <r>     0.1578    51.0229   358.9005 </r>
       <r>     0.3116    50.1138   366.6099 </r>
       <r>     0.4654    57.2951   375.4242 </r>
       <r>     0.6193    53.2930   383.6227 </r>
       <r>     0.7731    54.2641   391.9707 </r>
       <r>     0.9270    49.0481   399.5162 </r>
       <r>     1.0808    53.4531   407.7393 </r>
       <r>     1.2346    59.7832   416.9363 </r>
       <r>     1.3885    71.8287   427.9864 </r>
       <r>     1.5423    79.5553   440.2251 </r>
       <r>     1.6962    77.5277   452.1518 </r>
       <r>     1.8500    67.1667   462.4847 </r>
       <r>     2.0038    53.0155   470.6406 </r>
       <r>     2.1577    34.3301   475.9219 </r>
       <r>     2.3115    19.1294   478.8647 </r>
       <r>     2.4653    13.8083   480.9890 </r>
       <r>     2.6192     0.0717   481.0000 </r>
       <r>     2.7730     0.0000   481.0000 </r>
       <r>     2.9269     0.0000   481.0000 </r>
       <r>     3.0807     0.0000   481.0000 </r>
       <r>     3.2345     0.0000   481.0000 </r>
       <r>     3.3884     0.0000   481.0000 </r>
       <r>     3.5422     0.0000   481.0000 </r>
       <r>     3.6961     0.0000   481.0000 </r>
       <r>     3.8499     0.0000   481.0000 </r>
       <r>     4.0037     0.0000   481.0000 </r>
       <r>     4.1576     0.0000   481.0000 </r>
       <r>     4.3114     0.0965   481.0148 </r>
       <r>     4.4653    11.5480   482.7914 </r>
       <r>     4.6191    51.3054   490.6842 </r>
       <r>     4.7729    45.7688   497.7252 </r>
       <r>     4.9268    55.2189   506.2200 </r>
       <r>     5.0806    58.0412   515.1490 </r>
       <r>     5.2344    68.6901   525.7162 </r>
       <r>     5.3883    73.0151   536.9488 </r>
       <r>     5.5421    78.2315   548.9838 </r>
       <r>     5.6960    52.0768   556.9953 </r>
       <r>     5.8498    54.8203   565.4287 </r>
       <r>     6.0036    78.8177   577.5540 </r>
       <r>     6.1575    78.9482   589.6993 </r>
       <r>     6.3113    68.4738   600.2332 </r>
       <r>     6.4652    34.0363   605.4693 </r>
       <r>     6.6190    25.8849   609.4514 </r>
       <r>     6.7728    20.1604   612.5529 </r>
       <r>     6.9267    13.9647   614.7012 </r>
       <r>     7.0805    12.0061   616.5482 </r>
       <r>     7.2344    13.1625   618.5731 </r>
       <r>     7.3882    18.2532   621.3812 </r>
       <r>     7.5420    17.0794   624.0086 </r>
       <r>     7.6959    16.6624   626.5720 </r>
       <r>     7.8497    17.8152   629.3127 </r>
       <r>     8.0036    22.3618   632.7528 </r>
       <r>     8.1574    24.3420   636.4975 </r>
       <r>     8.3112    24.6917   640.2961 </r>
       <r>     8.4651    24.9168   644.1292 </r>
       <r>     8.6189    28.1592   648.4612 </r>
       <r>     8.7727    31.2393   653.2670 </r>
       <r>     8.9266    28.0680   657.5850 </r>
       <r>     9.0804    33.7002   662.7694 </r>
       <r>     9.2343    34.3550   668.0545 </r>
       <r>     9.3881    40.8137   674.3332 </r>
       <r>     9.5419    43.7694   681.0667 </r>
       <r>     9.6958    49.5104   688.6833 </r>
       <r>     9.8496    58.1598   697.6306 </r>
       <r>    10.0035    57.3316   706.4504 </r>
       <r>    10.1573    59.6804   715.6316 </r>
       <r>    10.3111    57.2606   724.4405 </r>
       <r>    10.4650    51.9543   732.4331 </r>
       <r>    10.6188    54.0471   740.7476 </r>
       <r>    10.7727    52.1936   748.7770 </r>
       <r>    10.9265    50.3431   756.5218 </r>
       <r>    11.0803    54.3083   764.8765 </r>
       <r>    11.2342    20.2921   767.9982 </r>
       <r>    11.3880     0.0116   768.0000 </r>
       <r>    11.5418     0.0000   768.0000 </r>
       <r>    11.6957     0.0000   768.0000 </r>
       <r>    11.8495     0.0000   768.0000 </r>
       <r>    12.0034     0.0000   768.0000 </r>
       <r>    12.1572     0.0000   768.0000 </r>
       <r>    12.3110     0.0000   768.0000 </r>
       <r>    12.4649     0.0000   768.0000 </r>
       <r>    12.6187     0.0000   768.0000 </r>
       <r>    12.7726     0.0000   768.0000 </r>
       <r>    12.9264     0.0000   768.0000 </r>
       <r>    13.0802     0.0000   768.0000 </r>
       <r>    13.2341     0.0000   768.0000 </r>
      </set>
     </set>
    </array>
   </total>
  </dos>
 </calculation>
 <structure name="finalpos" >
  <crystal>
   <varray name="basis" >
    <v>      11.23743883       0.00017172      -0.03496167 </v>
    <v>       0.00009809      11.26136614      -0.01473218 </v>
    <v>      -0.05012518      -0.02085720      15.79317718 </v>
   </varray>
   <i name="volume">   1998.58621944 </i>
   <varray name="rec_basis" >
    <v>       0.08898913      -0.00000041       0.00028244 </v>
    <v>      -0.00000099       0.08879933       0.00011727 </v>
    <v>       0.00019700       0.00008283       0.06331922 </v>
   </varray>
  </crystal>
  <varray name="positions" >
   <v>       0.99871327       0.26246541       0.12697436 </v>
   <v>       0.99804015       0.25609102       0.63027369 </v>
   <v>       0.00654605       0.73843520       0.12476905 </v>
   <v>       0.99100306       0.74238243       0.63085018 </v>
   <v>       0.49350130       0.24803207       0.13437701 </v>
   <v>       0.50005308       0.24184319       0.62680918 </v>
   <v>       0.49873537       0.75402603       0.13077197 </v>
   <v>       0.51638614       0.75077444       0.62559118 </v>
   <v>       0.99141913       0.25607391       0.36665061 </v>
   <v>       0.99800891       0.26033654       0.87499032 </v>
   <v>       0.99631065       0.74161507       0.36880357 </v>
   <v>       0.99654033       0.74095210       0.86997776 </v>
   <v>       0.50207010       0.23423259       0.37178632 </v>
   <v>       0.50103436       0.24810770       0.86828878 </v>
   <v>       0.50781276       0.76105336       0.37405815 </v>
   <v>       0.51124002       0.75053880       0.87147480 </v>
   <v>       0.24825166       0.00002170       0.12780573 </v>
   <v>       0.25172926       0.99666193       0.62478780 </v>
   <v>       0.23369853       0.49684775       0.12746098 </v>
   <v>       0.24547399       0.50232492       0.63164247 </v>
   <v>       0.74822578       0.00961606       0.12785929 </v>
   <v>       0.74702693       0.99287190       0.62946072 </v>
   <v>       0.77347158       0.49653182       0.12968997 </v>
   <v>       0.75922076       0.50614704       0.62832177 </v>
   <v>       0.25512211       0.99118501       0.36956531 </v>
   <v>       0.24246980       0.00614505       0.87292359 </v>
   <v>       0.23401609       0.49846266       0.37288324 </v>
   <v>       0.23124581       0.49715018       0.86818973 </v>
   <v>       0.74324741       0.00085742       0.37014413 </v>
   <v>       0.75240220       0.99690593       0.86516995 </v>
   <v>       0.76219023       0.50263763       0.36965107 </v>
   <v>       0.76684056       0.50200097       0.86813430 </v>
   <v>       0.00233693       0.99918641       0.99091149 </v>
   <v>       0.98790674       0.99380435       0.50120301 </v>
   <v>       0.00079971       0.49993787       0.50021629 </v>
   <v>       0.49977220       0.99950700       0.98869537 </v>
   <v>       0.49863387       0.99447020       0.50309132 </v>
   <v>       0.50848551       0.48901901       0.50374563 </v>
   <v>       0.25215487       0.25175433       0.00386667 </v>
   <v>       0.25682877       0.75461207       0.99965137 </v>
   <v>       0.75556095       0.24563511       0.49884420 </v>
   <v>       0.24267907       0.24359889       0.25166215 </v>
   <v>       0.24759161       0.24619377       0.74876955 </v>
   <v>       0.24848432       0.74773369       0.24868896 </v>
   <v>       0.75288415       0.25154398       0.74979220 </v>
   <v>       0.74989913       0.75089211       0.24484613 </v>
   <v>       0.49219831       0.50303482       0.26988508 </v>
   <v>       0.50445809       0.50149213       0.75086564 </v>
   <v>       0.99869147       0.50080536       0.99771785 </v>
   <v>       0.46144782       0.50238791       0.97884043 </v>
   <v>       0.25608314       0.26126772       0.49950307 </v>
   <v>       0.24131428       0.75931907       0.50166120 </v>
   <v>       0.75972680       0.24178432       0.00057757 </v>
   <v>       0.76641585       0.76679320       0.00508733 </v>
   <v>       0.74866583       0.74672287       0.49900259 </v>
   <v>       0.24497981       0.74307276       0.75068446 </v>
   <v>       0.74437817       0.25146347       0.24519885 </v>
   <v>       0.75245242       0.75059219       0.74934314 </v>
   <v>       0.99671558       0.00161496       0.25916252 </v>
   <v>       0.00395739       0.00096324       0.74542820 </v>
   <v>       0.99948084       0.49910445       0.25035030 </v>
   <v>       0.99930112       0.49963794       0.74952334 </v>
   <v>       0.49966681       0.99875269       0.25760014 </v>
   <v>       0.50699116       0.00845127       0.74760729 </v>
   <v>       0.11569773       0.12034554       0.23210697 </v>
   <v>       0.11731128       0.13544000       0.76684293 </v>
   <v>       0.12358667       0.62482324       0.25220700 </v>
   <v>       0.12288630       0.63017995       0.75366164 </v>
   <v>       0.61472387       0.12467961       0.23709328 </v>
   <v>       0.61903803       0.13069683       0.75066747 </v>
   <v>       0.61400976       0.62608901       0.25526647 </v>
   <v>       0.62423511       0.62455954       0.75070405 </v>
   <v>       0.37481339       0.36829062       0.25827675 </v>
   <v>       0.38179842       0.36791791       0.74559193 </v>
   <v>       0.38056803       0.86967254       0.24504171 </v>
   <v>       0.87220251       0.37459379       0.24813455 </v>
   <v>       0.87719183       0.37148853       0.75131117 </v>
   <v>       0.87876735       0.87271338       0.23450046 </v>
   <v>       0.88162314       0.87483755       0.74122690 </v>
   <v>       0.37017517       0.11576110       0.24189490 </v>
   <v>       0.36432467       0.10990342       0.75023509 </v>
   <v>       0.37454667       0.61070866       0.22646918 </v>
   <v>       0.37906853       0.62317062       0.76733723 </v>
   <v>       0.87164158       0.12119081       0.23550804 </v>
   <v>       0.86806172       0.12198168       0.75515929 </v>
   <v>       0.87081899       0.62509056       0.24936595 </v>
   <v>       0.87413872       0.62363988       0.75342924 </v>
   <v>       0.12471866       0.37236609       0.25302955 </v>
   <v>       0.13150889       0.37890073       0.75031648 </v>
   <v>       0.12696152       0.87545174       0.24876483 </v>
   <v>       0.14784491       0.88763488       0.74434310 </v>
   <v>       0.61447787       0.38412776       0.25707103 </v>
   <v>       0.62704442       0.37767312       0.73153465 </v>
   <v>       0.62619774       0.88109598       0.23585065 </v>
   <v>       0.61669473       0.87378828       0.75105206 </v>
   <v>       0.38563660       0.37353533       0.02517865 </v>
   <v>       0.35817492       0.39567048       0.50053278 </v>
   <v>       0.37958702       0.89019460       0.02732863 </v>
   <v>       0.37690746       0.86845110       0.49194371 </v>
   <v>       0.86220310       0.38376524       0.99824184 </v>
   <v>       0.85624654       0.38954983       0.49766811 </v>
   <v>       0.88267237       0.88726565       0.03080010 </v>
   <v>       0.86482113       0.88914483       0.50386217 </v>
   <v>       0.12829107       0.12029752       0.00154728 </v>
   <v>       0.14405202       0.62559785       0.98900257 </v>
   <v>       0.14449189       0.61259135       0.50353580 </v>
   <v>       0.62184819       0.12344114       0.99878008 </v>
   <v>       0.63310004       0.11415292       0.50661429 </v>
   <v>       0.62437600       0.61540042       0.49549003 </v>
   <v>       0.12586997       0.37253459       0.99775744 </v>
   <v>       0.10654833       0.35503430       0.49802791 </v>
   <v>       0.12407101       0.87882111       0.01066723 </v>
   <v>       0.12478174       0.88362444       0.49935932 </v>
   <v>       0.60740818       0.35927904       0.49975234 </v>
   <v>       0.62155432       0.87705262       0.00894687 </v>
   <v>       0.61914149       0.86834349       0.50148767 </v>
   <v>       0.38163690       0.12602891       0.01301562 </v>
   <v>       0.37406151       0.12527016       0.50017895 </v>
   <v>       0.40720295       0.65323054       0.00330215 </v>
   <v>       0.88597052       0.12714341       0.01258364 </v>
   <v>       0.89681468       0.14345550       0.49589616 </v>
   <v>       0.88052799       0.63418329       0.99685963 </v>
   <v>       0.88872561       0.63755111       0.49625866 </v>
   <v>       0.01823491       0.02539145       0.61930508 </v>
   <v>       0.00368845       0.50296515       0.12152691 </v>
   <v>       0.99791722       0.50094510       0.62480188 </v>
   <v>       0.48627775       0.98682108       0.62775635 </v>
   <v>       0.48148521       0.52139967       0.62078035 </v>
   <v>       0.00960844       0.01315844       0.37878239 </v>
   <v>       0.98939258       0.98278220       0.87641169 </v>
   <v>       0.99893581       0.50156514       0.37577024 </v>
   <v>       0.00054432       0.49780939       0.87534415 </v>
   <v>       0.50704031       0.00297621       0.37634438 </v>
   <v>       0.47975054       0.98328438       0.87184045 </v>
   <v>       0.46411826       0.53174797       0.38528105 </v>
   <v>       0.53882832       0.47845772       0.87676880 </v>
   <v>       0.23285663       0.22358737       0.37650073 </v>
   <v>       0.26816166       0.25627318       0.87997229 </v>
   <v>       0.26343044       0.73582619       0.37392478 </v>
   <v>       0.27316187       0.78099259       0.87696624 </v>
   <v>       0.74201993       0.23972325       0.37390764 </v>
   <v>       0.73669679       0.25893163       0.87648024 </v>
   <v>       0.75076036       0.76190988       0.36941539 </v>
   <v>       0.74904539       0.75940932       0.88223236 </v>
   <v>       0.24330675       0.25422907       0.12725997 </v>
   <v>       0.23631876       0.23438914       0.62321219 </v>
   <v>       0.24233663       0.74365187       0.12432994 </v>
   <v>       0.28074789       0.74579609       0.62589369 </v>
   <v>       0.72131655       0.27507468       0.11745227 </v>
   <v>       0.75725041       0.24359373       0.62306189 </v>
   <v>       0.72686170       0.71886603       0.11882167 </v>
   <v>       0.75051430       0.74354099       0.62408051 </v>
  </varray>
 </structure>
</modeling>
