       N       E                     dE             d eps       ncg     rms          rms(c)
DAV:   1    -0.994826968973E+03   -0.99483E+03   -0.39418E-01 13240   0.147E+00    0.664E-02
RMM:   2    -0.994826982112E+03   -0.13139E-04   -0.14334E-04  7747   0.223E-02    0.671E-02
RMM:   3    -0.994826986431E+03   -0.43187E-05   -0.36357E-05  7269   0.125E-02    0.341E-02
RMM:   4    -0.994827004520E+03   -0.18089E-04   -0.25239E-05  7208   0.767E-03    0.280E-02
RMM:   5    -0.994827009134E+03   -0.46139E-05   -0.11873E-05  7091   0.605E-03    0.170E-02
RMM:   6    -0.994827010052E+03   -0.91785E-06   -0.85647E-06  6443   0.407E-03    0.820E-03
RMM:   7    -0.994827010414E+03   -0.36202E-06   -0.46421E-06  5703   0.368E-03    0.651E-03
RMM:   8    -0.994827010652E+03   -0.23792E-06   -0.27917E-06  4399   0.253E-03
   1 F= -.99482701E+03 E0= -.99482701E+03  d E =-.994827E+03  mag=   120.0000
       N       E                     dE             d eps       ncg     rms          rms(c)
DAV:   1    -0.994819825769E+03    0.71846E-02   -0.59449E+00 12400   0.290E+00    0.135E+00
RMM:   2    -0.994843072228E+03   -0.23246E-01   -0.18055E-01 12629   0.620E-01    0.969E-01
RMM:   3    -0.994845122742E+03   -0.20505E-02   -0.11296E-02 13426   0.167E-01    0.560E-01
RMM:   4    -0.994844236323E+03    0.88642E-03   -0.17644E-03 13159   0.537E-02    0.347E-01
RMM:   5    -0.994843842631E+03    0.39369E-03   -0.17446E-03 12240   0.459E-02    0.811E-02
RMM:   6    -0.994843833784E+03    0.88464E-05   -0.11139E-04  7934   0.210E-02    0.661E-02
RMM:   7    -0.994843834984E+03   -0.11999E-05   -0.48265E-05  7427   0.824E-03    0.405E-02
RMM:   8    -0.994843832550E+03    0.24338E-05   -0.22753E-05  7363   0.716E-03
   2 F= -.99484383E+03 E0= -.99484383E+03  d E =-.168219E-01  mag=   120.0000
       N       E                     dE             d eps       ncg     rms          rms(c)
DAV:   1    -0.994843503361E+03    0.33162E-03   -0.18073E-01 13120   0.507E-01    0.230E-01
RMM:   2    -0.994844220922E+03   -0.71756E-03   -0.55920E-03 12598   0.108E-01    0.164E-01
RMM:   3    -0.994844277510E+03   -0.56587E-04   -0.30084E-04  9442   0.297E-02    0.102E-01
RMM:   4    -0.994844257138E+03    0.20372E-04   -0.51877E-05  7384   0.120E-02    0.624E-02
RMM:   5    -0.994844242472E+03    0.14666E-04   -0.60828E-05  7325   0.954E-03    0.350E-02
RMM:   6    -0.994844243059E+03   -0.58697E-06   -0.14879E-05  6979   0.666E-03    0.154E-02
RMM:   7    -0.994844243116E+03   -0.57436E-07   -0.67755E-06  6364   0.386E-03    0.150E-02
RMM:   8    -0.994844243048E+03    0.68307E-07   -0.29767E-06  4979   0.309E-03
   3 F= -.99484424E+03 E0= -.99484424E+03  d E =-.172324E-01  mag=   120.0000
       N       E                     dE             d eps       ncg     rms          rms(c)
DAV:   1    -0.994840696798E+03    0.35463E-02   -0.51535E+00 12336   0.267E+00    0.954E-01
RMM:   2    -0.994857301509E+03   -0.16605E-01   -0.13853E-01 12632   0.518E-01    0.582E-01
RMM:   3    -0.994858502212E+03   -0.12007E-02   -0.84611E-03 13470   0.144E-01    0.332E-01
RMM:   4    -0.994858026486E+03    0.47573E-03   -0.13368E-03 13549   0.436E-02    0.189E-01
RMM:   5    -0.994857886321E+03    0.14016E-03   -0.79680E-04 11526   0.295E-02    0.540E-02
RMM:   6    -0.994857891005E+03   -0.46835E-05   -0.66086E-05  7466   0.137E-02    0.370E-02
RMM:   7    -0.994857894878E+03   -0.38737E-05   -0.34197E-05  7325   0.757E-03    0.276E-02
RMM:   8    -0.994857897037E+03   -0.21589E-05   -0.19275E-05  7200   0.714E-03
   4 F= -.99485790E+03 E0= -.99485790E+03  d E =-.136540E-01  mag=   120.0000
       N       E                     dE             d eps       ncg     rms          rms(c)
DAV:   1    -0.994832526652E+03    0.25368E-01   -0.97511E+00 12288   0.368E+00    0.131E+00
RMM:   2    -0.994864022851E+03   -0.31496E-01   -0.26286E-01 12633   0.714E-01    0.798E-01
RMM:   3    -0.994866302132E+03   -0.22793E-02   -0.16112E-02 13745   0.198E-01    0.457E-01
RMM:   4    -0.994865404563E+03    0.89757E-03   -0.25020E-03 14722   0.588E-02    0.261E-01
RMM:   5    -0.994865145385E+03    0.25918E-03   -0.15543E-03 12674   0.392E-02    0.746E-02
RMM:   6    -0.994865149325E+03   -0.39395E-05   -0.12349E-04  7979   0.177E-02    0.502E-02
RMM:   7    -0.994865155583E+03   -0.62580E-05   -0.60529E-05  7447   0.980E-03    0.364E-02
RMM:   8    -0.994865158809E+03   -0.32260E-05   -0.35332E-05  7324   0.844E-03
   5 F= -.99486516E+03 E0= -.99486516E+03  d E =-.209158E-01  mag=   120.0000
       N       E                     dE             d eps       ncg     rms          rms(c)
DAV:   1    -0.994856784735E+03    0.83708E-02   -0.55061E+00 12328   0.275E+00    0.947E-01
RMM:   2    -0.994875482942E+03   -0.18698E-01   -0.14492E-01 12645   0.525E-01    0.572E-01
RMM:   3    -0.994876969540E+03   -0.14866E-02   -0.88578E-03 13345   0.146E-01    0.313E-01
RMM:   4    -0.994876531161E+03    0.43838E-03   -0.12321E-03 13394   0.416E-02    0.189E-01
RMM:   5    -0.994876369798E+03    0.16136E-03   -0.88544E-04 11415   0.306E-02    0.516E-02
RMM:   6    -0.994876373475E+03   -0.36769E-05   -0.77132E-05  7472   0.144E-02    0.366E-02
RMM:   7    -0.994876376451E+03   -0.29765E-05   -0.39128E-05  7331   0.780E-03    0.258E-02
RMM:   8    -0.994876376742E+03   -0.29021E-06   -0.22448E-05  7137   0.752E-03
   6 F= -.99487638E+03 E0= -.99487638E+03  d E =-.112179E-01  mag=   120.0000
       N       E                     dE             d eps       ncg     rms          rms(c)
DAV:   1    -0.994845786936E+03    0.30590E-01   -0.10077E+01 12312   0.371E+00    0.128E+00
RMM:   2    -0.994879952883E+03   -0.34166E-01   -0.26469E-01 12633   0.710E-01    0.772E-01
RMM:   3    -0.994882684014E+03   -0.27311E-02   -0.16167E-02 13456   0.197E-01    0.424E-01
RMM:   4    -0.994881889709E+03    0.79430E-03   -0.22601E-03 14517   0.558E-02    0.256E-01
RMM:   5    -0.994881594796E+03    0.29491E-03   -0.16411E-03 12369   0.397E-02    0.702E-02
RMM:   6    -0.994881596209E+03   -0.14135E-05   -0.12596E-04  7944   0.181E-02    0.505E-02
RMM:   7    -0.994881600320E+03   -0.41106E-05   -0.56522E-05  7463   0.964E-03    0.338E-02
RMM:   8    -0.994881600574E+03   -0.25397E-06   -0.36854E-05  7326   0.824E-03
   7 F= -.99488160E+03 E0= -.99488160E+03  d E =-.164418E-01  mag=   120.0000
       N       E                     dE             d eps       ncg     rms          rms(c)
DAV:   1    -0.994862109589E+03    0.19491E-01   -0.78821E+00 12400   0.328E+00    0.114E+00
RMM:   2    -0.994889622560E+03   -0.27513E-01   -0.20309E-01 12630   0.622E-01    0.671E-01
RMM:   3    -0.994892010979E+03   -0.23884E-02   -0.12206E-02 13487   0.172E-01    0.339E-01
RMM:   4    -0.994891437570E+03    0.57341E-03   -0.15927E-03 14100   0.475E-02    0.211E-01
RMM:   5    -0.994891175452E+03    0.26212E-03   -0.12857E-03 12114   0.349E-02    0.634E-02
RMM:   6    -0.994891171734E+03    0.37183E-05   -0.10581E-04  7531   0.171E-02    0.498E-02
RMM:   7    -0.994891175072E+03   -0.33378E-05   -0.47133E-05  7397   0.877E-03    0.308E-02
RMM:   8    -0.994891174070E+03    0.10020E-05   -0.31192E-05  7289   0.833E-03
   8 F= -.99489117E+03 E0= -.99489117E+03  d E =-.957350E-02  mag=   120.0000
       N       E                     dE             d eps       ncg     rms          rms(c)
DAV:   1    -0.994863374032E+03    0.27801E-01   -0.84856E+00 12392   0.340E+00    0.119E+00
RMM:   2    -0.994892965832E+03   -0.29592E-01   -0.21828E-01 12623   0.645E-01    0.695E-01
RMM:   3    -0.994895543891E+03   -0.25781E-02   -0.13132E-02 13486   0.179E-01    0.351E-01
RMM:   4    -0.994894929541E+03    0.61435E-03   -0.17101E-03 14227   0.491E-02    0.220E-01
RMM:   5    -0.994894645061E+03    0.28448E-03   -0.13903E-03 12214   0.360E-02    0.661E-02
RMM:   6    -0.994894640460E+03    0.46004E-05   -0.11276E-04  7554   0.177E-02    0.524E-02
RMM:   7    -0.994894644043E+03   -0.35823E-05   -0.49363E-05  7416   0.905E-03    0.317E-02
RMM:   8    -0.994894642979E+03    0.10636E-05   -0.33685E-05  7321   0.859E-03
   9 F= -.99489464E+03 E0= -.99489464E+03  d E =-.130424E-01  mag=   120.0000
       N       E                     dE             d eps       ncg     rms          rms(c)
DAV:   1    -0.994874838882E+03    0.19805E-01   -0.65556E+00 12704   0.302E+00    0.121E+00
RMM:   2    -0.994901388831E+03   -0.26550E-01   -0.16959E-01 12696   0.570E-01    0.671E-01
RMM:   3    -0.994904274522E+03   -0.28857E-02   -0.97678E-03 13335   0.158E-01    0.328E-01
RMM:   4    -0.994903832999E+03    0.44152E-03   -0.15315E-03 14087   0.463E-02    0.199E-01
RMM:   5    -0.994903661340E+03    0.17166E-03   -0.85627E-04 11793   0.297E-02    0.728E-02
RMM:   6    -0.994903670855E+03   -0.95147E-05   -0.11265E-04  7522   0.159E-02    0.416E-02
RMM:   7    -0.994903677818E+03   -0.69638E-05   -0.48188E-05  7359   0.990E-03    0.278E-02
RMM:   8    -0.994903681679E+03   -0.38606E-05   -0.29450E-05  7263   0.807E-03
  10 F= -.99490368E+03 E0= -.99490368E+03  d E =-.903870E-02  mag=   120.0000
       N       E                     dE             d eps       ncg     rms          rms(c)
DAV:   1    -0.994878177902E+03    0.25500E-01   -0.64878E+00 12672   0.301E+00    0.121E+00
RMM:   2    -0.994904475727E+03   -0.26298E-01   -0.16790E-01 12686   0.567E-01    0.667E-01
RMM:   3    -0.994907347667E+03   -0.28719E-02   -0.97131E-03 13291   0.158E-01    0.327E-01
RMM:   4    -0.994906918706E+03    0.42896E-03   -0.15132E-03 14072   0.460E-02    0.198E-01
RMM:   5    -0.994906749751E+03    0.16896E-03   -0.84616E-04 11751   0.296E-02    0.733E-02
RMM:   6    -0.994906759447E+03   -0.96962E-05   -0.11318E-04  7520   0.159E-02    0.419E-02
RMM:   7    -0.994906766425E+03   -0.69784E-05   -0.48027E-05  7373   0.100E-02    0.278E-02
RMM:   8    -0.994906770211E+03   -0.37855E-05   -0.29604E-05  7264   0.811E-03
  11 F= -.99490677E+03 E0= -.99490677E+03  d E =-.121272E-01  mag=   120.0000
       N       E                     dE             d eps       ncg     rms          rms(c)
DAV:   1    -0.994880032421E+03    0.26734E-01   -0.78668E+00 12744   0.336E+00    0.136E+00
RMM:   2    -0.994912074379E+03   -0.32042E-01   -0.21133E-01 12622   0.645E-01    0.771E-01
RMM:   3    -0.994915500919E+03   -0.34265E-02   -0.12579E-02 13414   0.183E-01    0.364E-01
RMM:   4    -0.994914902835E+03    0.59808E-03   -0.20937E-03 14896   0.550E-02    0.218E-01
RMM:   5    -0.994914668263E+03    0.23457E-03   -0.11715E-03 12513   0.339E-02    0.852E-02
RMM:   6    -0.994914662283E+03    0.59800E-05   -0.12335E-04  7617   0.172E-02    0.581E-02
RMM:   7    -0.994914666819E+03   -0.45356E-05   -0.58345E-05  7380   0.104E-02    0.350E-02
RMM:   8    -0.994914666620E+03    0.19897E-06   -0.34314E-05  7263   0.900E-03
  12 F= -.99491467E+03 E0= -.99491467E+03  d E =-.789641E-02  mag=   120.0000
       N       E                     dE             d eps       ncg     rms          rms(c)
DAV:   1    -0.994908311257E+03    0.63556E-02   -0.16208E+00 12912   0.152E+00    0.617E-01
RMM:   2    -0.994914943808E+03   -0.66326E-02   -0.43808E-02 12629   0.293E-01    0.349E-01
RMM:   3    -0.994915654484E+03   -0.71068E-03   -0.26351E-03 12891   0.835E-02    0.165E-01
RMM:   4    -0.994915529716E+03    0.12477E-03   -0.39698E-04  9829   0.256E-02    0.996E-02
RMM:   5    -0.994915479073E+03    0.50643E-04   -0.22338E-04  7804   0.190E-02    0.509E-02
RMM:   6    -0.994915481429E+03   -0.23562E-05   -0.55057E-05  7271   0.133E-02    0.497E-02
RMM:   7    -0.994915483282E+03   -0.18528E-05   -0.27494E-05  7205   0.763E-03    0.190E-02
RMM:   8    -0.994915482891E+03    0.39085E-06   -0.15067E-05  7155   0.714E-03
  13 F= -.99491548E+03 E0= -.99491548E+03  d E =-.871268E-02  mag=   120.0000
       N       E                     dE             d eps       ncg     rms          rms(c)
DAV:   1    -0.994895316478E+03    0.20167E-01   -0.54073E+00 12432   0.279E+00    0.115E+00
RMM:   2    -0.994918426080E+03   -0.23110E-01   -0.14296E-01 12577   0.536E-01    0.652E-01
RMM:   3    -0.994921175127E+03   -0.27490E-02   -0.85545E-03 13387   0.153E-01    0.293E-01
RMM:   4    -0.994920767651E+03    0.40748E-03   -0.13471E-03 13876   0.445E-02    0.176E-01
RMM:   5    -0.994920580353E+03    0.18730E-03   -0.83493E-04 11559   0.292E-02    0.599E-02
RMM:   6    -0.994920578745E+03    0.16074E-05   -0.77896E-05  7442   0.149E-02    0.419E-02
RMM:   7    -0.994920581358E+03   -0.26130E-05   -0.35924E-05  7327   0.843E-03    0.262E-02
RMM:   8    -0.994920581542E+03   -0.18350E-06   -0.21972E-05  7232   0.767E-03
  14 F= -.99492058E+03 E0= -.99492058E+03  d E =-.509865E-02  mag=   120.0000
       N       E                     dE             d eps       ncg     rms          rms(c)
DAV:   1    -0.994916457633E+03    0.41237E-02   -0.10017E+00 12616   0.120E+00    0.496E-01
RMM:   2    -0.994920753099E+03   -0.42955E-02   -0.26646E-02 12584   0.231E-01    0.280E-01
RMM:   3    -0.994921262192E+03   -0.50909E-03   -0.16164E-03 12799   0.660E-02    0.127E-01
RMM:   4    -0.994921180600E+03    0.81592E-04   -0.18675E-04  8287   0.194E-02    0.776E-02
RMM:   5    -0.994921147550E+03    0.33050E-04   -0.15026E-04  7465   0.155E-02    0.382E-02
RMM:   6    -0.994921150139E+03   -0.25885E-05   -0.39604E-05  7225   0.114E-02    0.415E-02
RMM:   7    -0.994921151634E+03   -0.14951E-05   -0.18881E-05  7157   0.634E-03    0.143E-02
RMM:   8    -0.994921151891E+03   -0.25694E-06   -0.10344E-05  7017   0.586E-03
  15 F= -.99492115E+03 E0= -.99492115E+03  d E =-.566900E-02  mag=   120.0000
       N       E                     dE             d eps       ncg     rms          rms(c)
DAV:   1    -0.994903820322E+03    0.17331E-01   -0.41718E+00 12504   0.245E+00    0.109E+00
RMM:   2    -0.994923201452E+03   -0.19381E-01   -0.11108E-01 12730   0.466E-01    0.606E-01
RMM:   3    -0.994925568580E+03   -0.23671E-02   -0.62017E-03 13198   0.133E-01    0.264E-01
RMM:   4    -0.994925246563E+03    0.32202E-03   -0.12393E-03 13231   0.431E-02    0.147E-01
RMM:   5    -0.994925155550E+03    0.91012E-04   -0.51076E-04 10705   0.244E-02    0.587E-02
RMM:   6    -0.994925162055E+03   -0.65045E-05   -0.61940E-05  7415   0.128E-02    0.389E-02
RMM:   7    -0.994925166351E+03   -0.42961E-05   -0.29216E-05  7276   0.783E-03    0.230E-02
RMM:   8    -0.994925169938E+03   -0.35868E-05   -0.18094E-05  7209   0.671E-03
  16 F= -.99492517E+03 E0= -.99492517E+03  d E =-.401805E-02  mag=   120.0000
       N       E                     dE             d eps       ncg     rms          rms(c)
DAV:   1    -0.994921493229E+03    0.36731E-02   -0.79853E-01 12720   0.107E+00    0.477E-01
RMM:   2    -0.994925219672E+03   -0.37264E-02   -0.21374E-02 12733   0.204E-01    0.265E-01
RMM:   3    -0.994925672948E+03   -0.45328E-03   -0.12053E-03 12194   0.584E-02    0.117E-01
RMM:   4    -0.994925607423E+03    0.65525E-04   -0.17669E-04  8117   0.192E-02    0.674E-02
RMM:   5    -0.994925595117E+03    0.12306E-04   -0.10476E-04  7353   0.140E-02    0.404E-02
RMM:   6    -0.994925598939E+03   -0.38220E-05   -0.30140E-05  7202   0.100E-02    0.300E-02
RMM:   7    -0.994925601185E+03   -0.22461E-05   -0.15083E-05  7123   0.554E-03    0.138E-02
RMM:   8    -0.994925602745E+03   -0.15593E-05   -0.84543E-06  6967   0.537E-03
  17 F= -.99492560E+03 E0= -.99492560E+03  d E =-.445085E-02  mag=   120.0000
       N       E                     dE             d eps       ncg     rms          rms(c)
DAV:   1    -0.994909032642E+03    0.16569E-01   -0.48186E+00 12608   0.262E+00    0.113E+00
RMM:   2    -0.994928022855E+03   -0.18990E-01   -0.13199E-01 12570   0.508E-01    0.657E-01
RMM:   3    -0.994930046095E+03   -0.20232E-02   -0.79786E-03 13113   0.152E-01    0.311E-01
RMM:   4    -0.994929686953E+03    0.35914E-03   -0.14680E-03 14014   0.469E-02    0.193E-01
RMM:   5    -0.994929515222E+03    0.17173E-03   -0.70331E-04 11614   0.276E-02    0.856E-02
RMM:   6    -0.994929509234E+03    0.59879E-05   -0.94959E-05  7502   0.148E-02    0.647E-02
RMM:   7    -0.994929511941E+03   -0.27068E-05   -0.44841E-05  7334   0.947E-03    0.314E-02
RMM:   8    -0.994929510156E+03    0.17851E-05   -0.26546E-05  7234   0.843E-03
  18 F= -.99492951E+03 E0= -.99492951E+03  d E =-.390741E-02  mag=   120.0000
       N       E                     dE             d eps       ncg     rms          rms(c)
DAV:   1    -0.994925692441E+03    0.38195E-02   -0.97700E-01 12648   0.118E+00    0.507E-01
RMM:   2    -0.994929572081E+03   -0.38796E-02   -0.26971E-02 12579   0.229E-01    0.295E-01
RMM:   3    -0.994929987298E+03   -0.41522E-03   -0.16355E-03 12509   0.689E-02    0.140E-01
RMM:   4    -0.994929910558E+03    0.76740E-04   -0.22672E-04  8431   0.214E-02    0.886E-02
RMM:   5    -0.994929876864E+03    0.33694E-04   -0.14245E-04  7442   0.162E-02    0.532E-02
RMM:   6    -0.994929877470E+03   -0.60571E-06   -0.44486E-05  7231   0.121E-02    0.516E-02
RMM:   7    -0.994929878213E+03   -0.74317E-06   -0.24174E-05  7176   0.692E-03    0.163E-02
RMM:   8    -0.994929877281E+03    0.93249E-06   -0.13184E-05  7128   0.665E-03
  19 F= -.99492988E+03 E0= -.99492988E+03  d E =-.427454E-02  mag=   120.0000
       N       E                     dE             d eps       ncg     rms          rms(c)
DAV:   1    -0.994911222757E+03    0.18655E-01   -0.48060E+00 12576   0.257E+00    0.102E+00
RMM:   2    -0.994931100325E+03   -0.19878E-01   -0.12582E-01 12561   0.494E-01    0.564E-01
RMM:   3    -0.994933364624E+03   -0.22643E-02   -0.77815E-03 13255   0.142E-01    0.243E-01
RMM:   4    -0.994933034203E+03    0.33042E-03   -0.11146E-03 12601   0.403E-02    0.143E-01
RMM:   5    -0.994932916760E+03    0.11744E-03   -0.55172E-04 10701   0.251E-02    0.554E-02
RMM:   6    -0.994932923873E+03   -0.71129E-05   -0.63620E-05  7394   0.130E-02    0.288E-02
RMM:   7    -0.994932927793E+03   -0.39198E-05   -0.27903E-05  7268   0.758E-03    0.187E-02
RMM:   8    -0.994932930609E+03   -0.28162E-05   -0.16186E-05  7180   0.660E-03
  20 F= -.99493293E+03 E0= -.99493293E+03  d E =-.305333E-02  mag=   120.0000
       N       E                     dE             d eps       ncg     rms          rms(c)
DAV:   1    -0.994929610383E+03    0.33174E-02   -0.78034E-01 12712   0.104E+00    0.411E-01
RMM:   2    -0.994932854856E+03   -0.32445E-02   -0.20560E-02 12558   0.199E-01    0.227E-01
RMM:   3    -0.994933222037E+03   -0.36718E-03   -0.12762E-03 11785   0.577E-02    0.990E-02
RMM:   4    -0.994933166339E+03    0.55699E-04   -0.14612E-04  7874   0.169E-02    0.589E-02
RMM:   5    -0.994933151221E+03    0.15117E-04   -0.88048E-05  7292   0.122E-02    0.332E-02
RMM:   6    -0.994933154576E+03   -0.33550E-05   -0.24462E-05  7163   0.844E-03    0.244E-02
RMM:   7    -0.994933156195E+03   -0.16184E-05   -0.11203E-05  7067   0.496E-03    0.118E-02
RMM:   8    -0.994933157286E+03   -0.10910E-05   -0.61700E-06  6584   0.439E-03
  21 F= -.99493316E+03 E0= -.99493316E+03  d E =-.328001E-02  mag=   120.0000
       N       E                     dE             d eps       ncg     rms          rms(c)
DAV:   1    -0.994910634121E+03    0.22522E-01   -0.44822E+00 12368   0.246E+00    0.114E+00
RMM:   2    -0.994932616147E+03   -0.21982E-01   -0.11318E-01 12667   0.463E-01    0.629E-01
RMM:   3    -0.994935555563E+03   -0.29394E-02   -0.64673E-03 12774   0.134E-01    0.240E-01
RMM:   4    -0.994935236728E+03    0.31884E-03   -0.11433E-03 12538   0.418E-02    0.142E-01
RMM:   5    -0.994935124476E+03    0.11225E-03   -0.55933E-04 10672   0.252E-02    0.557E-02
RMM:   6    -0.994935130051E+03   -0.55751E-05   -0.61750E-05  7433   0.129E-02    0.321E-02
RMM:   7    -0.994935132259E+03   -0.22080E-05   -0.25389E-05  7271   0.736E-03    0.223E-02
RMM:   8    -0.994935133766E+03   -0.15069E-05   -0.14667E-05  7131   0.624E-03
  22 F= -.99493513E+03 E0= -.99493513E+03  d E =-.197648E-02  mag=   120.0000
       N       E                     dE             d eps       ncg     rms          rms(c)
DAV:   1    -0.994935075296E+03    0.56963E-04   -0.12600E-02 13488   0.130E-01    0.612E-02
RMM:   2    -0.994935132226E+03   -0.56930E-04   -0.27218E-04  8480   0.244E-02    0.356E-02
RMM:   3    -0.994935142936E+03   -0.10710E-04   -0.27737E-05  6718   0.110E-02    0.133E-02
RMM:   4    -0.994935142669E+03    0.26701E-06   -0.65140E-06  5766   0.413E-03    0.991E-03
RMM:   5    -0.994935142243E+03    0.42641E-06   -0.18947E-06  4437   0.291E-03    0.469E-03
RMM:   6    -0.994935142189E+03    0.53173E-07   -0.78311E-07  2437   0.201E-03    0.216E-03
RMM:   7    -0.994935142201E+03   -0.11176E-07   -0.13767E-07  1719   0.181E-03    0.110E-03
RMM:   8    -0.994935142190E+03    0.10186E-07   -0.72019E-09  1438   0.175E-03
  23 F= -.99493514E+03 E0= -.99493514E+03  d E =-.198490E-02  mag=   120.0000
       N       E                     dE             d eps       ncg     rms          rms(c)
DAV:   1    -0.994927124747E+03    0.80175E-02   -0.22706E+00 12560   0.177E+00    0.807E-01
RMM:   2    -0.994936136484E+03   -0.90117E-02   -0.61077E-02 12587   0.342E-01    0.471E-01
RMM:   3    -0.994937096679E+03   -0.96020E-03   -0.36124E-03 12770   0.104E-01    0.215E-01
RMM:   4    -0.994936865682E+03    0.23100E-03   -0.82850E-04 12250   0.361E-02    0.129E-01
RMM:   5    -0.994936790106E+03    0.75575E-04   -0.28607E-04  8646   0.224E-02    0.834E-02
RMM:   6    -0.994936789180E+03    0.92642E-06   -0.68546E-05  7409   0.131E-02    0.561E-02
RMM:   7    -0.994936789084E+03    0.95883E-07   -0.31074E-05  7222   0.832E-03    0.271E-02
RMM:   8    -0.994936787170E+03    0.19139E-05   -0.18776E-05  7170   0.705E-03
  24 F= -.99493679E+03 E0= -.99493679E+03  d E =-.164498E-02  mag=   120.0000
