<?xml version="1.0" encoding="ISO-8859-1"?>
<modeling>
 <generator>
  <i name="program" type="string">vasp </i>
  <i name="version" type="string">5.4.1  </i>
  <i name="subversion" type="string">05Feb16 (build Jan 25 2017 20:16:33) complex                          parallel </i>
  <i name="platform" type="string">BWXE6 </i>
  <i name="date" type="string">2019 08 06 </i>
  <i name="time" type="string">15:40:57 </i>
 </generator>
 <incar>
  <i type="string" name="SYSTEM"> STF</i>
  <i type="string" name="PREC">normal</i>
  <i type="string" name="ALGO"> Fast</i>
  <i type="int" name="ISPIN">     2</i>
  <i type="int" name="NELM">    40</i>
  <i type="int" name="NELMIN">     8</i>
  <i type="int" name="IBRION">     2</i>
  <i name="EDIFF">      0.00010000</i>
  <i name="EDIFFG">     -0.03000000</i>
  <i type="int" name="NSW">    30</i>
  <i type="int" name="ISIF">     3</i>
  <i name="ENCUT">    520.00000000</i>
  <i type="int" name="NBANDS">   768</i>
  <v name="MAGMOM">      0.60000000      0.60000000      0.60000000      0.60000000      0.60000000      0.60000000      0.60000000      0.60000000      0.60000000      0.60000000      0.60000000      0.60000000      0.60000000      0.60000000      0.60000000      0.60000000      0.60000000      0.60000000      0.60000000      0.60000000
      0.60000000      0.60000000      0.60000000      0.60000000      0.60000000      0.60000000      0.60000000      0.60000000      0.60000000      0.60000000      0.60000000      0.60000000      0.60000000      0.60000000      0.60000000      0.60000000      0.60000000      0.60000000      0.60000000      0.60000000
      5.00000000      5.00000000      5.00000000      5.00000000      5.00000000      5.00000000      5.00000000      5.00000000      5.00000000      5.00000000      5.00000000      5.00000000      5.00000000      5.00000000      5.00000000      5.00000000      5.00000000      5.00000000      5.00000000      5.00000000
      5.00000000      5.00000000      5.00000000      5.00000000      0.60000000      0.60000000      0.60000000      0.60000000      0.60000000      0.60000000      0.60000000      0.60000000      0.60000000      0.60000000      0.60000000      0.60000000      0.60000000      0.60000000      0.60000000      0.60000000
      0.60000000      0.60000000      0.60000000      0.60000000      0.60000000      0.60000000      0.60000000      0.60000000      0.60000000      0.60000000      0.60000000      0.60000000      0.60000000      0.60000000      0.60000000      0.60000000      0.60000000      0.60000000      0.60000000      0.60000000
      0.60000000      0.60000000      0.60000000      0.60000000      0.60000000      0.60000000      0.60000000      0.60000000      0.60000000      0.60000000      0.60000000      0.60000000      0.60000000      0.60000000      0.60000000      0.60000000      0.60000000      0.60000000      0.60000000      0.60000000
      0.60000000      0.60000000      0.60000000      0.60000000      0.60000000      0.60000000      0.60000000      0.60000000      0.60000000      0.60000000      0.60000000      0.60000000      0.60000000      0.60000000      0.60000000      0.60000000      0.60000000      0.60000000      0.60000000      0.60000000
      0.60000000      0.60000000      0.60000000      0.60000000      0.60000000      0.60000000      0.60000000      0.60000000</v>
  <i type="string" name="LREAL"> Auto</i>
  <i type="int" name="ISMEAR">     0</i>
  <i name="SIGMA">      0.05000000</i>
  <i type="int" name="LMAXMIX">     4</i>
  <v type="int" name="KPOINT_BSE">    -1     0     0     0</v>
  <i type="int" name="NELM">    40</i>
  <i type="logical" name="LDAU"> T  </i>
  <v type="int" name="LDAUTYPE">     2</v>
  <v type="int" name="LDAUL">     0     2     2     0</v>
  <v name="LDAUU">      0.00000000      3.00000000      5.00000000      0.00000000</v>
  <v name="LDAUJ">      0.00000000      0.00000000      0.00000000      0.00000000</v>
  <i type="int" name="LDAUPRINT">     1</i>
 </incar>
 <kpoints>
  <generation param="Monkhorst-Pack">
   <v type="int" name="divisions">       2        2        2 </v>
   <v name="usershift">      0.00000000       0.00000000       0.00000000 </v>
   <v name="genvec1">      0.50000000      -0.00000000       0.00000000 </v>
   <v name="genvec2">     -0.00000000       0.50000000       0.00000000 </v>
   <v name="genvec3">      0.00000000       0.00000000       0.50000000 </v>
   <v name="shift">      0.50000000       0.50000000       0.50000000 </v>
  </generation>
  <varray name="kpointlist" >
   <v>       0.25000000       0.25000000       0.25000000 </v>
   <v>      -0.25000000       0.25000000       0.25000000 </v>
   <v>       0.25000000      -0.25000000       0.25000000 </v>
   <v>      -0.25000000      -0.25000000       0.25000000 </v>
  </varray>
  <varray name="weights" >
   <v>       0.25000000 </v>
   <v>       0.25000000 </v>
   <v>       0.25000000 </v>
   <v>       0.25000000 </v>
  </varray>
 </kpoints>
 <parameters>
  <separator name="general" >
   <i type="string" name="SYSTEM">STF</i>
   <i type="logical" name="LCOMPAT"> F  </i>
  </separator>
  <separator name="electronic" >
   <i type="string" name="PREC">normal</i>
   <i name="ENMAX">    520.00000000</i>
   <i name="ENAUG">    605.39200000</i>
   <i name="EDIFF">      0.00010000</i>
   <i type="int" name="IALGO">    68</i>
   <i type="int" name="IWAVPR">    11</i>
   <i type="int" name="NBANDS">   768</i>
   <i name="NELECT">   1048.00000000</i>
   <i type="int" name="TURBO">     0</i>
   <i type="int" name="IRESTART">     0</i>
   <i type="int" name="NREBOOT">     0</i>
   <i type="int" name="NMIN">     0</i>
   <i name="EREF">      0.00000000</i>
   <separator name="electronic smearing" >
    <i type="int" name="ISMEAR">     0</i>
    <i name="SIGMA">      0.05000000</i>
    <i name="KSPACING">      0.50000000</i>
    <i type="logical" name="KGAMMA"> T  </i>
   </separator>
   <separator name="electronic projectors" >
    <i type="logical" name="LREAL"> T  </i>
    <v name="ROPT">     -0.00050000     -0.00050000     -0.00050000     -0.00050000</v>
    <i type="int" name="LMAXPAW">  -100</i>
    <i type="int" name="LMAXMIX">     4</i>
    <i type="logical" name="NLSPLINE"> F  </i>
   </separator>
   <separator name="electronic startup" >
    <i type="int" name="ISTART">     1</i>
    <i type="int" name="ICHARG">     0</i>
    <i type="int" name="INIWAV">     1</i>
   </separator>
   <separator name="electronic spin" >
    <i type="int" name="ISPIN">     2</i>
    <i type="logical" name="LNONCOLLINEAR"> F  </i>
    <v name="MAGMOM">      0.60000000      0.60000000      0.60000000      0.60000000      0.60000000      0.60000000      0.60000000      0.60000000      0.60000000      0.60000000      0.60000000      0.60000000      0.60000000      0.60000000      0.60000000      0.60000000      0.60000000      0.60000000      0.60000000      0.60000000
      0.60000000      0.60000000      0.60000000      0.60000000      0.60000000      0.60000000      0.60000000      0.60000000      0.60000000      0.60000000      0.60000000      0.60000000      0.60000000      0.60000000      0.60000000      0.60000000      0.60000000      0.60000000      0.60000000      0.60000000
      5.00000000      5.00000000      5.00000000      5.00000000      5.00000000      5.00000000      5.00000000      5.00000000      5.00000000      5.00000000      5.00000000      5.00000000      5.00000000      5.00000000      5.00000000      5.00000000      5.00000000      5.00000000      5.00000000      5.00000000
      5.00000000      5.00000000      5.00000000      5.00000000      0.60000000      0.60000000      0.60000000      0.60000000      0.60000000      0.60000000      0.60000000      0.60000000      0.60000000      0.60000000      0.60000000      0.60000000      0.60000000      0.60000000      0.60000000      0.60000000
      0.60000000      0.60000000      0.60000000      0.60000000      0.60000000      0.60000000      0.60000000      0.60000000      0.60000000      0.60000000      0.60000000      0.60000000      0.60000000      0.60000000      0.60000000      0.60000000      0.60000000      0.60000000      0.60000000      0.60000000
      0.60000000      0.60000000      0.60000000      0.60000000      0.60000000      0.60000000      0.60000000      0.60000000      0.60000000      0.60000000      0.60000000      0.60000000      0.60000000      0.60000000      0.60000000      0.60000000      0.60000000      0.60000000      0.60000000      0.60000000
      0.60000000      0.60000000      0.60000000      0.60000000      0.60000000      0.60000000      0.60000000      0.60000000      0.60000000      0.60000000      0.60000000      0.60000000      0.60000000      0.60000000      0.60000000      0.60000000      0.60000000      0.60000000      0.60000000      0.60000000
      0.60000000      0.60000000      0.60000000      0.60000000      0.60000000      0.60000000      0.60000000      0.60000000</v>
    <i name="NUPDOWN">     -1.00000000</i>
    <i type="logical" name="LSORBIT"> F  </i>
    <v name="SAXIS">      0.00000000      0.00000000      1.00000000</v>
    <i type="logical" name="LSPIRAL"> F  </i>
    <v name="QSPIRAL">      0.00000000      0.00000000      0.00000000</v>
    <i type="logical" name="LZEROZ"> F  </i>
   </separator>
   <separator name="electronic exchange-correlation" >
    <i type="logical" name="LASPH"> F  </i>
    <i type="logical" name="LMETAGGA"> F  </i>
   </separator>
   <separator name="electronic convergence" >
    <i type="int" name="NELM">    40</i>
    <i type="int" name="NELMDL">     0</i>
    <i type="int" name="NELMIN">     8</i>
    <i name="ENINI">    520.00000000</i>
    <separator name="electronic convergence detail" >
     <i type="logical" name="LDIAG"> T  </i>
     <i type="logical" name="LSUBROT"> F  </i>
     <i name="WEIMIN">      0.00100000</i>
     <i name="EBREAK">      0.00000003</i>
     <i name="DEPER">      0.30000000</i>
     <i type="int" name="NRMM">     4</i>
     <i name="TIME">      0.40000000</i>
    </separator>
   </separator>
   <separator name="electronic mixer" >
    <i name="AMIX">      0.40000000</i>
    <i name="BMIX">      1.00000000</i>
    <i name="AMIN">      0.10000000</i>
    <i name="AMIX_MAG">      1.60000000</i>
    <i name="BMIX_MAG">      1.00000000</i>
    <separator name="electronic mixer details" >
     <i type="int" name="IMIX">     4</i>
     <i type="logical" name="MIXFIRST"> F  </i>
     <i type="int" name="MAXMIX">   -45</i>
     <i name="WC">    100.00000000</i>
     <i type="int" name="INIMIX">     1</i>
     <i type="int" name="MIXPRE">     1</i>
     <i type="int" name="MREMOVE">     5</i>
    </separator>
   </separator>
   <separator name="electronic dipolcorrection" >
    <i type="logical" name="LDIPOL"> F  </i>
    <i type="logical" name="LMONO"> F  </i>
    <i type="int" name="IDIPOL">     0</i>
    <i name="EPSILON">      1.00000000</i>
    <v name="DIPOL">   -100.00000000   -100.00000000   -100.00000000</v>
    <i name="EFIELD">      0.00000000</i>
   </separator>
  </separator>
  <separator name="grids" >
   <i type="int" name="NGX">    64</i>
   <i type="int" name="NGY">    64</i>
   <i type="int" name="NGZ">    90</i>
   <i type="int" name="NGXF">   128</i>
   <i type="int" name="NGYF">   128</i>
   <i type="int" name="NGZF">   180</i>
   <i type="logical" name="ADDGRID"> F  </i>
  </separator>
  <separator name="ionic" >
   <i type="int" name="NSW">    30</i>
   <i type="int" name="IBRION">     2</i>
   <i type="int" name="ISIF">     3</i>
   <i name="PSTRESS">      0.00000000</i>
   <i name="EDIFFG">     -0.03000000</i>
   <i type="int" name="NFREE">     1</i>
   <i name="POTIM">      0.50000000</i>
   <i name="SMASS">     -3.00000000</i>
   <i name="SCALEE">      1.00000000</i>
  </separator>
  <separator name="ionic md" >
   <i name="TEBEG">      0.00010000</i>
   <i name="TEEND">      0.00010000</i>
   <i type="int" name="NBLOCK">     1</i>
   <i type="int" name="KBLOCK">    30</i>
   <i type="int" name="NPACO">   256</i>
   <i name="APACO">     16.00000000</i>
  </separator>
  <separator name="symmetry" >
   <i type="int" name="ISYM">     2</i>
   <i name="SYMPREC">      0.00001000</i>
  </separator>
  <separator name="dos" >
   <i type="logical" name="LORBIT"> F  </i>
   <v name="RWIGS">     -1.00000000     -1.00000000     -1.00000000     -1.00000000</v>
   <i type="int" name="NEDOS">   301</i>
   <i name="EMIN">     10.00000000</i>
   <i name="EMAX">    -10.00000000</i>
   <i name="EFERMI">      0.00000000</i>
  </separator>
  <separator name="writing" >
   <i type="int" name="NWRITE">     2</i>
   <i type="logical" name="LWAVE"> T  </i>
   <i type="logical" name="LCHARG"> T  </i>
   <i type="logical" name="LPARD"> F  </i>
   <i type="logical" name="LVTOT"> F  </i>
   <i type="logical" name="LVHAR"> F  </i>
   <i type="logical" name="LELF"> F  </i>
   <i type="logical" name="LOPTICS"> F  </i>
   <v name="STM">      0.00000000      0.00000000      0.00000000      0.00000000      0.00000000      0.00000000      0.00000000</v>
  </separator>
  <separator name="performance" >
   <i type="int" name="NPAR">     2</i>
   <i type="int" name="NSIM">     4</i>
   <i type="int" name="NBLK">    -1</i>
   <i type="logical" name="LPLANE"> T  </i>
   <i type="logical" name="LSCALAPACK"> T  </i>
   <i type="logical" name="LSCAAWARE"> F  </i>
   <i type="logical" name="LSCALU"> F  </i>
   <i type="logical" name="LASYNC"> F  </i>
   <i type="logical" name="LORBITALREAL"> F  </i>
  </separator>
  <separator name="miscellaneous" >
   <i type="int" name="IDIOT">     3</i>
   <i type="logical" name="LMUSIC"> F  </i>
   <v name="POMASS">     87.62000000     47.88000000     55.84700000     16.00000000</v>
   <v name="DARWINR">      0.00000000      0.00000000      0.00000000      0.00000000</v>
   <v name="DARWINV">      1.00000000      1.00000000      1.00000000      1.00000000</v>
   <i type="logical" name="LCORR"> T  </i>
  </separator>
  <i type="logical" name="GGA_COMPAT"> T  </i>
  <i type="logical" name="LBERRY"> F  </i>
  <i type="int" name="ICORELEVEL">     0</i>
  <i type="logical" name="LDAU"> T  </i>
  <v type="int" name="LDAUTYPE">     2</v>
  <v type="int" name="LDAUL">     0</v>
  <v name="LDAUU">      0.00000000</v>
  <v name="LDAUJ">      0.00000000</v>
  <i type="int" name="LDAUPRINT">     1</i>
  <i type="int" name="I_CONSTRAINED_M">     0</i>
  <separator name="electronic exchange-correlation" >
   <i type="string" name="GGA">--</i>
   <i type="int" name="VOSKOWN">     0</i>
   <i type="logical" name="LHFCALC"> F  </i>
   <i type="string" name="PRECFOCK"></i>
   <i type="logical" name="LSYMGRAD"> F  </i>
   <i type="logical" name="LHFONE"> F  </i>
   <i type="logical" name="LRHFCALC"> F  </i>
   <i type="logical" name="LTHOMAS"> F  </i>
   <i type="logical" name="LMODELHF"> F  </i>
   <i name="ENCUT4O">     -1.00000000</i>
   <i type="int" name="EXXOEP">     0</i>
   <i type="int" name="FOURORBIT">     0</i>
   <i name="AEXX">      0.00000000</i>
   <i name="HFALPHA">      0.00000000</i>
   <i name="MCALPHA">      0.00000000</i>
   <i name="ALDAX">      1.00000000</i>
   <i name="AGGAX">      1.00000000</i>
   <i name="ALDAC">      1.00000000</i>
   <i name="AGGAC">      1.00000000</i>
   <i type="int" name="NKREDX">     1</i>
   <i type="int" name="NKREDY">     1</i>
   <i type="int" name="NKREDZ">     1</i>
   <i type="logical" name="SHIFTRED"> F  </i>
   <i type="logical" name="ODDONLY"> F  </i>
   <i type="logical" name="EVENONLY"> F  </i>
   <i type="int" name="LMAXFOCK">     0</i>
   <i type="int" name="NMAXFOCKAE">     0</i>
   <i type="logical" name="LFOCKAEDFT"> F  </i>
   <i name="HFSCREEN">      0.00000000</i>
   <i name="HFSCREENC">      0.00000000</i>
   <i type="int" name="NBANDSGWLOW">     0</i>
  </separator>
  <separator name="vdW DFT" >
   <i type="logical" name="LUSE_VDW"> F  </i>
   <i name="Zab_VDW">     -0.84910000</i>
   <i name="PARAM1">      0.12340000</i>
   <i name="PARAM2">      1.00000000</i>
   <i name="PARAM3">      0.00000000</i>
  </separator>
  <separator name="model GW" >
   <i type="int" name="MODEL_GW">     0</i>
   <i name="MODEL_EPS0">      8.14314792</i>
   <i name="MODEL_ALPHA">      1.00000000</i>
  </separator>
  <separator name="linear response parameters" >
   <i type="logical" name="LEPSILON"> F  </i>
   <i type="logical" name="LRPA"> F  </i>
   <i type="logical" name="LNABLA"> F  </i>
   <i type="logical" name="LVEL"> F  </i>
   <i type="int" name="KINTER">     0</i>
   <i name="CSHIFT">      0.10000000</i>
   <i name="OMEGAMAX">     -1.00000000</i>
   <i name="DEG_THRESHOLD">      0.00200000</i>
  </separator>
  <separator name="orbital magnetization" >
   <i type="logical" name="NUCIND"> F  </i>
   <v name="MAGPOS">      0.00000000      0.00000000      0.00000000</v>
   <i type="logical" name="LNICSALL"> T  </i>
   <i type="logical" name="ORBITALMAG"> F  </i>
   <i type="logical" name="LMAGBLOCH"> F  </i>
   <i type="logical" name="LCHIMAG"> F  </i>
   <i type="logical" name="LGAUGE"> T  </i>
   <i type="int" name="MAGATOM">     0</i>
   <v name="MAGDIPOL">      0.00000000      0.00000000      0.00000000</v>
   <v name="AVECCONST">      0.00000000      0.00000000      0.00000000</v>
  </separator>
  <separator name="response functions" >
   <i type="logical" name="LADDER"> F  </i>
   <i type="logical" name="LFXC"> F  </i>
   <i type="logical" name="LHARTREE"> T  </i>
   <i type="int" name="IBSE">     0</i>
   <v type="int" name="KPOINT">    -1     0     0     0</v>
   <i type="logical" name="LTCTE"> F  </i>
   <i type="logical" name="LTETE"> F  </i>
   <i type="logical" name="LTRIPLET"> F  </i>
   <i type="logical" name="LFXCEPS"> F  </i>
   <i type="logical" name="LFXHEG"> F  </i>
   <i type="int" name="NATURALO">     0</i>
   <i type="logical" name="L2ORDER"> F  </i>
   <i type="logical" name="LUSEW"> F  </i>
   <i name="ENCUTGW">     -2.00000000</i>
   <i name="ENCUTGWSOFT">     -2.00000000</i>
   <i name="ENCUTLF">     -1.00000000</i>
   <i type="int" name="LMAXMP2">    -1</i>
   <i name="SCISSOR">      0.00000000</i>
   <i type="int" name="NOMEGA">     0</i>
   <i type="int" name="NOMEGAR">     0</i>
   <i type="int" name="NBANDSGW">    -1</i>
   <i type="int" name="NBANDSO">    -1</i>
   <i type="int" name="NBANDSV">    -1</i>
   <i type="int" name="NELM">    40</i>
   <i type="int" name="NELMHF">     1</i>
   <i type="int" name="DIM">     3</i>
   <i type="int" name="ANTIRES">     0</i>
   <i name="OMEGAMAX">    -30.00000000</i>
   <i name="OMEGAMIN">    -30.00000000</i>
   <i name="OMEGATL">   -200.00000000</i>
   <i type="int" name="OMEGAGRID">     0</i>
   <i name="CSHIFT">     -0.10000000</i>
   <i type="logical" name="SELFENERGY"> F  </i>
   <i type="logical" name="LSPECTRAL"> F  </i>
   <i type="logical" name="LSPECTRALGW"> F  </i>
   <i type="logical" name="LSINGLES"> F  </i>
   <i type="logical" name="LFERMIGW"> F  </i>
   <i type="logical" name="ODDONLYGW"> F  </i>
   <i type="logical" name="EVENONLYGW"> F  </i>
   <i type="int" name="NKREDLFX">     1</i>
   <i type="int" name="NKREDLFY">     1</i>
   <i type="int" name="NKREDLFZ">     1</i>
   <i type="int" name="MAXMEM">  1800</i>
   <i type="int" name="TELESCOPE">     0</i>
   <i type="int" name="TAUPAR">     1</i>
   <i type="int" name="OMEGAPAR">    -1</i>
   <i name="LAMBDA">      1.00000000</i>
  </separator>
  <separator name="External order field" >
   <i name="OFIELD_KAPPA">      0.00000000</i>
   <v name="OFIELD_K">      0.00000000      0.00000000      0.00000000</v>
   <i name="OFIELD_Q6_NEAR">      0.00000000</i>
   <i name="OFIELD_Q6_FAR">      0.00000000</i>
   <i name="OFIELD_A">      0.00000000</i>
  </separator>
 </parameters>
 <atominfo>
  <atoms>     148 </atoms>
  <types>       4 </types>
  <array name="atoms" >
   <dimension dim="1">ion</dimension>
   <field type="string">element</field>
   <field type="int">atomtype</field>
   <set>
    <rc><c>Sr</c><c>   1</c></rc>
    <rc><c>Sr</c><c>   1</c></rc>
    <rc><c>Sr</c><c>   1</c></rc>
    <rc><c>Sr</c><c>   1</c></rc>
    <rc><c>Sr</c><c>   1</c></rc>
    <rc><c>Sr</c><c>   1</c></rc>
    <rc><c>Sr</c><c>   1</c></rc>
    <rc><c>Sr</c><c>   1</c></rc>
    <rc><c>Sr</c><c>   1</c></rc>
    <rc><c>Sr</c><c>   1</c></rc>
    <rc><c>Sr</c><c>   1</c></rc>
    <rc><c>Sr</c><c>   1</c></rc>
    <rc><c>Sr</c><c>   1</c></rc>
    <rc><c>Sr</c><c>   1</c></rc>
    <rc><c>Sr</c><c>   1</c></rc>
    <rc><c>Sr</c><c>   1</c></rc>
    <rc><c>Sr</c><c>   1</c></rc>
    <rc><c>Sr</c><c>   1</c></rc>
    <rc><c>Sr</c><c>   1</c></rc>
    <rc><c>Sr</c><c>   1</c></rc>
    <rc><c>Sr</c><c>   1</c></rc>
    <rc><c>Sr</c><c>   1</c></rc>
    <rc><c>Sr</c><c>   1</c></rc>
    <rc><c>Sr</c><c>   1</c></rc>
    <rc><c>Sr</c><c>   1</c></rc>
    <rc><c>Sr</c><c>   1</c></rc>
    <rc><c>Sr</c><c>   1</c></rc>
    <rc><c>Sr</c><c>   1</c></rc>
    <rc><c>Sr</c><c>   1</c></rc>
    <rc><c>Sr</c><c>   1</c></rc>
    <rc><c>Sr</c><c>   1</c></rc>
    <rc><c>Sr</c><c>   1</c></rc>
    <rc><c>Ti</c><c>   2</c></rc>
    <rc><c>Ti</c><c>   2</c></rc>
    <rc><c>Ti</c><c>   2</c></rc>
    <rc><c>Ti</c><c>   2</c></rc>
    <rc><c>Ti</c><c>   2</c></rc>
    <rc><c>Ti</c><c>   2</c></rc>
    <rc><c>Ti</c><c>   2</c></rc>
    <rc><c>Ti</c><c>   2</c></rc>
    <rc><c>Fe</c><c>   3</c></rc>
    <rc><c>Fe</c><c>   3</c></rc>
    <rc><c>Fe</c><c>   3</c></rc>
    <rc><c>Fe</c><c>   3</c></rc>
    <rc><c>Fe</c><c>   3</c></rc>
    <rc><c>Fe</c><c>   3</c></rc>
    <rc><c>Fe</c><c>   3</c></rc>
    <rc><c>Fe</c><c>   3</c></rc>
    <rc><c>Fe</c><c>   3</c></rc>
    <rc><c>Fe</c><c>   3</c></rc>
    <rc><c>Fe</c><c>   3</c></rc>
    <rc><c>Fe</c><c>   3</c></rc>
    <rc><c>Fe</c><c>   3</c></rc>
    <rc><c>Fe</c><c>   3</c></rc>
    <rc><c>Fe</c><c>   3</c></rc>
    <rc><c>Fe</c><c>   3</c></rc>
    <rc><c>Fe</c><c>   3</c></rc>
    <rc><c>Fe</c><c>   3</c></rc>
    <rc><c>Fe</c><c>   3</c></rc>
    <rc><c>Fe</c><c>   3</c></rc>
    <rc><c>Fe</c><c>   3</c></rc>
    <rc><c>Fe</c><c>   3</c></rc>
    <rc><c>Fe</c><c>   3</c></rc>
    <rc><c>Fe</c><c>   3</c></rc>
    <rc><c>O </c><c>   4</c></rc>
    <rc><c>O </c><c>   4</c></rc>
    <rc><c>O </c><c>   4</c></rc>
    <rc><c>O </c><c>   4</c></rc>
    <rc><c>O </c><c>   4</c></rc>
    <rc><c>O </c><c>   4</c></rc>
    <rc><c>O </c><c>   4</c></rc>
    <rc><c>O </c><c>   4</c></rc>
    <rc><c>O </c><c>   4</c></rc>
    <rc><c>O </c><c>   4</c></rc>
    <rc><c>O </c><c>   4</c></rc>
    <rc><c>O </c><c>   4</c></rc>
    <rc><c>O </c><c>   4</c></rc>
    <rc><c>O </c><c>   4</c></rc>
    <rc><c>O </c><c>   4</c></rc>
    <rc><c>O </c><c>   4</c></rc>
    <rc><c>O </c><c>   4</c></rc>
    <rc><c>O </c><c>   4</c></rc>
    <rc><c>O </c><c>   4</c></rc>
    <rc><c>O </c><c>   4</c></rc>
    <rc><c>O </c><c>   4</c></rc>
    <rc><c>O </c><c>   4</c></rc>
    <rc><c>O </c><c>   4</c></rc>
    <rc><c>O </c><c>   4</c></rc>
    <rc><c>O </c><c>   4</c></rc>
    <rc><c>O </c><c>   4</c></rc>
    <rc><c>O </c><c>   4</c></rc>
    <rc><c>O </c><c>   4</c></rc>
    <rc><c>O </c><c>   4</c></rc>
    <rc><c>O </c><c>   4</c></rc>
    <rc><c>O </c><c>   4</c></rc>
    <rc><c>O </c><c>   4</c></rc>
    <rc><c>O </c><c>   4</c></rc>
    <rc><c>O </c><c>   4</c></rc>
    <rc><c>O </c><c>   4</c></rc>
    <rc><c>O </c><c>   4</c></rc>
    <rc><c>O </c><c>   4</c></rc>
    <rc><c>O </c><c>   4</c></rc>
    <rc><c>O </c><c>   4</c></rc>
    <rc><c>O </c><c>   4</c></rc>
    <rc><c>O </c><c>   4</c></rc>
    <rc><c>O </c><c>   4</c></rc>
    <rc><c>O </c><c>   4</c></rc>
    <rc><c>O </c><c>   4</c></rc>
    <rc><c>O </c><c>   4</c></rc>
    <rc><c>O </c><c>   4</c></rc>
    <rc><c>O </c><c>   4</c></rc>
    <rc><c>O </c><c>   4</c></rc>
    <rc><c>O </c><c>   4</c></rc>
    <rc><c>O </c><c>   4</c></rc>
    <rc><c>O </c><c>   4</c></rc>
    <rc><c>O </c><c>   4</c></rc>
    <rc><c>O </c><c>   4</c></rc>
    <rc><c>O </c><c>   4</c></rc>
    <rc><c>O </c><c>   4</c></rc>
    <rc><c>O </c><c>   4</c></rc>
    <rc><c>O </c><c>   4</c></rc>
    <rc><c>O </c><c>   4</c></rc>
    <rc><c>O </c><c>   4</c></rc>
    <rc><c>O </c><c>   4</c></rc>
    <rc><c>O </c><c>   4</c></rc>
    <rc><c>O </c><c>   4</c></rc>
    <rc><c>O </c><c>   4</c></rc>
    <rc><c>O </c><c>   4</c></rc>
    <rc><c>O </c><c>   4</c></rc>
    <rc><c>O </c><c>   4</c></rc>
    <rc><c>O </c><c>   4</c></rc>
    <rc><c>O </c><c>   4</c></rc>
    <rc><c>O </c><c>   4</c></rc>
    <rc><c>O </c><c>   4</c></rc>
    <rc><c>O </c><c>   4</c></rc>
    <rc><c>O </c><c>   4</c></rc>
    <rc><c>O </c><c>   4</c></rc>
    <rc><c>O </c><c>   4</c></rc>
    <rc><c>O </c><c>   4</c></rc>
    <rc><c>O </c><c>   4</c></rc>
    <rc><c>O </c><c>   4</c></rc>
    <rc><c>O </c><c>   4</c></rc>
    <rc><c>O </c><c>   4</c></rc>
    <rc><c>O </c><c>   4</c></rc>
    <rc><c>O </c><c>   4</c></rc>
    <rc><c>O </c><c>   4</c></rc>
    <rc><c>O </c><c>   4</c></rc>
    <rc><c>O </c><c>   4</c></rc>
   </set>
  </array>
  <array name="atomtypes" >
   <dimension dim="1">type</dimension>
   <field type="int">atomspertype</field>
   <field type="string">element</field>
   <field>mass</field>
   <field>valence</field>
   <field type="string">pseudopotential</field>
   <set>
    <rc><c>  32</c><c>Sr</c><c>     87.62000000</c><c>     10.00000000</c><c>  PAW_PBE Sr_sv 07Sep2000               </c></rc>
    <rc><c>   8</c><c>Ti</c><c>     47.88000000</c><c>      4.00000000</c><c>  PAW_PBE Ti 08Apr2002                  </c></rc>
    <rc><c>  24</c><c>Fe</c><c>     55.84700000</c><c>      8.00000000</c><c>  PAW_PBE Fe 06Sep2000                  </c></rc>
    <rc><c>  84</c><c>O </c><c>     16.00000000</c><c>      6.00000000</c><c>  PAW_PBE O 08Apr2002                   </c></rc>
   </set>
  </array>
 </atominfo>
 <structure name="initialpos" >
  <crystal>
   <varray name="basis" >
    <v>      11.27232485       0.00020996      -0.00028934 </v>
    <v>       0.00076107      11.44305701      -0.02415266 </v>
    <v>      -0.00041079      -0.03192107      15.57216909 </v>
   </varray>
   <i name="volume">   2008.64315321 </i>
   <varray name="rec_basis" >
    <v>       0.08871284      -0.00000590       0.00000233 </v>
    <v>      -0.00000162       0.08738961       0.00017914 </v>
    <v>       0.00000165       0.00013554       0.06421741 </v>
   </varray>
  </crystal>
  <varray name="positions" >
   <v>       0.99052915       0.23521087       0.11535521 </v>
   <v>       0.01046967       0.26288460       0.61520046 </v>
   <v>       0.00562408       0.75351747       0.11279616 </v>
   <v>       0.98848756       0.74897133       0.61388903 </v>
   <v>       0.51173502       0.23651700       0.11860691 </v>
   <v>       0.48625856       0.26105805       0.61772351 </v>
   <v>       0.49951572       0.75625949       0.11572912 </v>
   <v>       0.50314918       0.74711120       0.61563133 </v>
   <v>       0.98953033       0.23711540       0.38479954 </v>
   <v>       0.00947085       0.26478913       0.88464479 </v>
   <v>       0.01151244       0.75102867       0.38611097 </v>
   <v>       0.99437592       0.74648253       0.88720384 </v>
   <v>       0.51374144       0.23894195       0.38227649 </v>
   <v>       0.48826498       0.26348300       0.88139309 </v>
   <v>       0.49685082       0.75288880       0.38436867 </v>
   <v>       0.50048428       0.74374051       0.88427088 </v>
   <v>       0.24715838       0.00183225       0.10975682 </v>
   <v>       0.24361761       0.01111846       0.61937411 </v>
   <v>       0.25351838       0.51364011       0.11177972 </v>
   <v>       0.24768009       0.48370017       0.61955827 </v>
   <v>       0.75364570       0.01308228       0.11928660 </v>
   <v>       0.74852531       0.98508244       0.61137218 </v>
   <v>       0.75727705       0.49361660       0.11872773 </v>
   <v>       0.75209423       0.49977009       0.61044858 </v>
   <v>       0.24790577       0.00022991       0.38955142 </v>
   <v>       0.24272295       0.00638340       0.88127227 </v>
   <v>       0.25147469       0.51491756       0.38862782 </v>
   <v>       0.24635430       0.48691772       0.88071340 </v>
   <v>       0.75231991       0.01629983       0.38044173 </v>
   <v>       0.74648162       0.98635989       0.88822028 </v>
   <v>       0.75638239       0.48888154       0.38062589 </v>
   <v>       0.75284162       0.49816775       0.89024318 </v>
   <v>       0.00033061       0.50173682       0.49822574 </v>
   <v>       0.49971103       0.99867690       0.50169423 </v>
   <v>       0.74926485       0.74791213       0.00567304 </v>
   <v>       0.99966939       0.99826318       0.50177426 </v>
   <v>       0.24999016       0.24951193       0.00465338 </v>
   <v>       0.25073515       0.75208787       0.99432696 </v>
   <v>       0.50028897       0.50132310       0.49830577 </v>
   <v>       0.75000984       0.25048807       0.99534662 </v>
   <v>       0.99934829       0.99879615       0.99702378 </v>
   <v>       0.49927462       0.99931670       0.99828714 </v>
   <v>       0.00065171       0.50120385       0.00297622 </v>
   <v>       0.25053310       0.75337336       0.51441106 </v>
   <v>       0.99430326       0.98658930       0.24875160 </v>
   <v>       0.50072538       0.50068330       0.00171286 </v>
   <v>       0.24969193       0.24974846       0.49354315 </v>
   <v>       0.73982016       0.21835443       0.74978059 </v>
   <v>       0.75555782       0.24141226       0.25105444 </v>
   <v>       0.75030807       0.25025154       0.50645685 </v>
   <v>       0.24444218       0.25858774       0.74894556 </v>
   <v>       0.74946690       0.74662664       0.48558894 </v>
   <v>       0.26017984       0.28164557       0.25021941 </v>
   <v>       0.25973870       0.79606016       0.24683956 </v>
   <v>       0.23468849       0.72340383       0.75050734 </v>
   <v>       0.47673711       0.50554836       0.75123036 </v>
   <v>       0.76531151       0.77659617       0.24949266 </v>
   <v>       0.74026130       0.70393984       0.75316044 </v>
   <v>       0.52326289       0.99445164       0.24876964 </v>
   <v>       0.01386431       0.46987949       0.25032839 </v>
   <v>       0.00569674       0.51341070       0.75124840 </v>
   <v>       0.98613569       0.03012051       0.74967161 </v>
   <v>       0.48654376       0.03189683       0.74964175 </v>
   <v>       0.51345624       0.46810317       0.25035825 </v>
   <v>       0.00505216       0.01239187       0.12395538 </v>
   <v>       0.00379255       0.96819322       0.63701368 </v>
   <v>       0.99442566       0.53827521       0.14160380 </v>
   <v>       0.99523077       0.48935095       0.62363972 </v>
   <v>       0.48962264       0.01473599       0.12656976 </v>
   <v>       0.50705077       0.96801969       0.63762538 </v>
   <v>       0.48822871       0.53884535       0.14360811 </v>
   <v>       0.50549828       0.48618578       0.62525038 </v>
   <v>       0.00476923       0.01064905       0.37636028 </v>
   <v>       0.00557434       0.96172479       0.85839620 </v>
   <v>       0.99620745       0.53180678       0.36298632 </v>
   <v>       0.99494784       0.48760813       0.87604462 </v>
   <v>       0.49450172       0.01381422       0.37474962 </v>
   <v>       0.51177129       0.96115465       0.85639189 </v>
   <v>       0.49294923       0.53198031       0.36237462 </v>
   <v>       0.51037736       0.48526401       0.87343024 </v>
   <v>       0.23653791       0.21297538       0.35839664 </v>
   <v>       0.24737419       0.26598630       0.88011654 </v>
   <v>       0.23645308       0.72469059       0.35242189 </v>
   <v>       0.25528795       0.78025179       0.86327801 </v>
   <v>       0.75186857       0.23741343       0.37971918 </v>
   <v>       0.76054049       0.28432600       0.86029219 </v>
   <v>       0.74072505       0.71012172       0.35776432 </v>
   <v>       0.75619672       0.76368924       0.86790167 </v>
   <v>       0.23945951       0.21567400       0.13970781 </v>
   <v>       0.24813143       0.26258657       0.62028082 </v>
   <v>       0.24380328       0.73631076       0.13209833 </v>
   <v>       0.25927495       0.78987828       0.64223568 </v>
   <v>       0.75262581       0.23401370       0.11988346 </v>
   <v>       0.76346209       0.28702462       0.64160336 </v>
   <v>       0.74471205       0.71974821       0.13672199 </v>
   <v>       0.76354692       0.77530941       0.64757811 </v>
   <v>       0.17916827       0.42780887       0.24966183 </v>
   <v>       0.41905221       0.33067408       0.25062005 </v>
   <v>       0.66774839       0.40408302       0.24830257 </v>
   <v>       0.91402310       0.34072852       0.24984925 </v>
   <v>       0.16480419       0.93399020       0.24936371 </v>
   <v>       0.41824230       0.84978122       0.25122371 </v>
   <v>       0.66623994       0.90575175       0.24960370 </v>
   <v>       0.92421968       0.83058141       0.25061342 </v>
   <v>       0.12089065       0.12232491       0.50797075 </v>
   <v>       0.37557329       0.12011022       0.50817213 </v>
   <v>       0.62302845       0.12413200       0.51561643 </v>
   <v>       0.87707426       0.12206450       0.51614415 </v>
   <v>       0.12292574       0.37793550       0.48385585 </v>
   <v>       0.37697155       0.37586800       0.48438357 </v>
   <v>       0.62442671       0.37988978       0.49182787 </v>
   <v>       0.87910935       0.37767509       0.49202925 </v>
   <v>       0.12618695       0.62669483       0.51048506 </v>
   <v>       0.37276998       0.62556034       0.50934095 </v>
   <v>       0.62325042       0.62772382       0.50494653 </v>
   <v>       0.87387869       0.62632180       0.50222398 </v>
   <v>       0.12612131       0.87367820       0.49777602 </v>
   <v>       0.37674958       0.87227618       0.49505347 </v>
   <v>       0.62723002       0.87443966       0.49065905 </v>
   <v>       0.87381305       0.87330517       0.48951494 </v>
   <v>       0.08597690       0.15927148       0.75015075 </v>
   <v>       0.33225161       0.09591698       0.75169743 </v>
   <v>       0.58094779       0.16932592       0.74937995 </v>
   <v>       0.82083173       0.07219113       0.75033817 </v>
   <v>       0.07578032       0.66941859       0.74938658 </v>
   <v>       0.33376006       0.59424825       0.75039630 </v>
   <v>       0.58175770       0.65021878       0.74877629 </v>
   <v>       0.83519581       0.56600980       0.75063629 </v>
   <v>       0.12342942       0.12533701       0.99091868 </v>
   <v>       0.37302158       0.12353908       0.99069002 </v>
   <v>       0.62515137       0.12785958       0.98341929 </v>
   <v>       0.87402975       0.12563014       0.98216319 </v>
   <v>       0.12597025       0.37436986       0.01783681 </v>
   <v>       0.37484863       0.37214042       0.01658071 </v>
   <v>       0.62697842       0.37646092       0.00930998 </v>
   <v>       0.87657058       0.37466299       0.00908132 </v>
   <v>       0.12770682       0.62712888       0.99067624 </v>
   <v>       0.37179441       0.62590649       0.99099647 </v>
   <v>       0.62450830       0.62871803       0.99718676 </v>
   <v>       0.87376055       0.62790325       0.99853981 </v>
   <v>       0.12623945       0.87209675       0.00146019 </v>
   <v>       0.37549170       0.87128197       0.00281324 </v>
   <v>       0.62820559       0.87409351       0.00900353 </v>
   <v>       0.87229318       0.87287112       0.00932376 </v>
   <v>       0.60741364       0.14476362       0.25044258 </v>
   <v>       0.86739225       0.10195317       0.25089076 </v>
   <v>       0.13260775       0.39804683       0.74910924 </v>
   <v>       0.39258636       0.35523638       0.74955742 </v>
  </varray>
 </structure>
 <calculation>
  <scstep>
   <time name="dav">  301.69  301.75</time>
   <time name="total">  305.57  305.79</time>
   <energy>
    <i name="alphaZ">   5594.53134142 </i>
    <i name="ewald"> -62921.74165999 </i>
    <i name="hartreedc"> -18704.99158463 </i>
    <i name="XCdc">   3410.00679496 </i>
    <i name="pawpsdc"> 120524.54190963 </i>
    <i name="pawaedc">-120030.58629695 </i>
    <i name="eentropy">     -0.00000000 </i>
    <i name="bandstr">  -7183.49192946 </i>
    <i name="atom">  78316.90445604 </i>
    <i name="e_fr_energy">   -994.82696897 </i>
    <i name="e_wo_entrp">   -994.82696897 </i>
    <i name="e_0_energy">   -994.82696897 </i>
   </energy>
  </scstep>
  <scstep>
   <time name="diag">   33.33   33.33</time>
   <time name="diis">   34.10   34.13</time>
   <time name="orth">   18.97   18.97</time>
   <time name="total">   90.32   90.40</time>
   <energy>
    <i name="e_fr_energy">   -994.82698211 </i>
    <i name="e_wo_entrp">   -994.82698211 </i>
    <i name="e_0_energy">   -994.82698211 </i>
   </energy>
  </scstep>
  <scstep>
   <time name="diag">   33.34   33.34</time>
   <time name="diis">   32.36   32.39</time>
   <time name="orth">   19.03   19.04</time>
   <time name="total">   88.62   88.68</time>
   <energy>
    <i name="e_fr_energy">   -994.82698643 </i>
    <i name="e_wo_entrp">   -994.82698643 </i>
    <i name="e_0_energy">   -994.82698643 </i>
   </energy>
  </scstep>
  <scstep>
   <time name="diag">   33.25   33.27</time>
   <time name="diis">   31.99   31.99</time>
   <time name="orth">   18.99   18.98</time>
   <time name="total">   88.17   88.28</time>
   <energy>
    <i name="e_fr_energy">   -994.82700452 </i>
    <i name="e_wo_entrp">   -994.82700452 </i>
    <i name="e_0_energy">   -994.82700452 </i>
   </energy>
  </scstep>
  <scstep>
   <time name="diag">   33.27   33.28</time>
   <time name="diis">   31.83   31.84</time>
   <time name="orth">   19.03   19.02</time>
   <time name="total">   88.03   88.11</time>
   <energy>
    <i name="e_fr_energy">   -994.82700913 </i>
    <i name="e_wo_entrp">   -994.82700913 </i>
    <i name="e_0_energy">   -994.82700913 </i>
   </energy>
  </scstep>
  <scstep>
   <time name="diag">   33.26   33.26</time>
   <time name="diis">   30.77   30.80</time>
   <time name="orth">   19.02   19.01</time>
   <time name="total">   86.96   87.05</time>
   <energy>
    <i name="e_fr_energy">   -994.82701005 </i>
    <i name="e_wo_entrp">   -994.82701005 </i>
    <i name="e_0_energy">   -994.82701005 </i>
   </energy>
  </scstep>
  <scstep>
   <time name="diag">   33.25   33.28</time>
   <time name="diis">   29.70   29.72</time>
   <time name="orth">   18.93   18.94</time>
   <time name="total">   85.80   85.99</time>
   <energy>
    <i name="e_fr_energy">   -994.82701041 </i>
    <i name="e_wo_entrp">   -994.82701041 </i>
    <i name="e_0_energy">   -994.82701041 </i>
   </energy>
  </scstep>
  <scstep>
   <time name="diag">   33.28   33.28</time>
   <time name="diis">   27.70   27.72</time>
   <time name="orth">   19.03   19.03</time>
   <time name="total">   80.58   80.65</time>
   <energy>
    <i name="alphaZ">   5594.53134142 </i>
    <i name="ewald"> -62921.74165999 </i>
    <i name="hartreedc"> -18704.94815844 </i>
    <i name="XCdc">   3410.00036949 </i>
    <i name="pawpsdc"> 120508.59819620 </i>
    <i name="pawaedc">-120014.61638489 </i>
    <i name="eentropy">     -0.00000000 </i>
    <i name="bandstr">  -7183.55517048 </i>
    <i name="atom">  78316.90445604 </i>
    <i name="e_fr_energy">   -994.82701065 </i>
    <i name="e_wo_entrp">   -994.82701065 </i>
    <i name="e_0_energy">   -994.82701065 </i>
   </energy>
  </scstep>
  <structure>
   <crystal>
    <varray name="basis" >
     <v>      11.27232485       0.00020996      -0.00028934 </v>
     <v>       0.00076107      11.44305701      -0.02415266 </v>
     <v>      -0.00041079      -0.03192107      15.57216909 </v>
    </varray>
    <i name="volume">   2008.64315321 </i>
    <varray name="rec_basis" >
     <v>       0.08871284      -0.00000590       0.00000233 </v>
     <v>      -0.00000162       0.08738961       0.00017914 </v>
     <v>       0.00000165       0.00013554       0.06421741 </v>
    </varray>
   </crystal>
   <varray name="positions" >
    <v>       0.99052915       0.23521087       0.11535521 </v>
    <v>       0.01046967       0.26288460       0.61520046 </v>
    <v>       0.00562408       0.75351747       0.11279616 </v>
    <v>       0.98848756       0.74897133       0.61388903 </v>
    <v>       0.51173502       0.23651700       0.11860691 </v>
    <v>       0.48625856       0.26105805       0.61772351 </v>
    <v>       0.49951572       0.75625949       0.11572912 </v>
    <v>       0.50314918       0.74711120       0.61563133 </v>
    <v>       0.98953033       0.23711540       0.38479954 </v>
    <v>       0.00947085       0.26478913       0.88464479 </v>
    <v>       0.01151244       0.75102867       0.38611097 </v>
    <v>       0.99437592       0.74648253       0.88720384 </v>
    <v>       0.51374144       0.23894195       0.38227649 </v>
    <v>       0.48826498       0.26348300       0.88139309 </v>
    <v>       0.49685082       0.75288880       0.38436867 </v>
    <v>       0.50048428       0.74374051       0.88427088 </v>
    <v>       0.24715838       0.00183225       0.10975682 </v>
    <v>       0.24361761       0.01111846       0.61937411 </v>
    <v>       0.25351838       0.51364011       0.11177972 </v>
    <v>       0.24768009       0.48370017       0.61955827 </v>
    <v>       0.75364570       0.01308228       0.11928660 </v>
    <v>       0.74852531       0.98508244       0.61137218 </v>
    <v>       0.75727705       0.49361660       0.11872773 </v>
    <v>       0.75209423       0.49977009       0.61044858 </v>
    <v>       0.24790577       0.00022991       0.38955142 </v>
    <v>       0.24272295       0.00638340       0.88127227 </v>
    <v>       0.25147469       0.51491756       0.38862782 </v>
    <v>       0.24635430       0.48691772       0.88071340 </v>
    <v>       0.75231991       0.01629983       0.38044173 </v>
    <v>       0.74648162       0.98635989       0.88822028 </v>
    <v>       0.75638239       0.48888154       0.38062589 </v>
    <v>       0.75284162       0.49816775       0.89024318 </v>
    <v>       0.00033061       0.50173682       0.49822574 </v>
    <v>       0.49971103       0.99867690       0.50169423 </v>
    <v>       0.74926485       0.74791213       0.00567304 </v>
    <v>       0.99966939       0.99826318       0.50177426 </v>
    <v>       0.24999016       0.24951193       0.00465338 </v>
    <v>       0.25073515       0.75208787       0.99432696 </v>
    <v>       0.50028897       0.50132310       0.49830577 </v>
    <v>       0.75000984       0.25048807       0.99534662 </v>
    <v>       0.99934829       0.99879615       0.99702378 </v>
    <v>       0.49927462       0.99931670       0.99828714 </v>
    <v>       0.00065171       0.50120385       0.00297622 </v>
    <v>       0.25053310       0.75337336       0.51441106 </v>
    <v>       0.99430326       0.98658930       0.24875160 </v>
    <v>       0.50072538       0.50068330       0.00171286 </v>
    <v>       0.24969193       0.24974846       0.49354315 </v>
    <v>       0.73982016       0.21835443       0.74978059 </v>
    <v>       0.75555782       0.24141226       0.25105444 </v>
    <v>       0.75030807       0.25025154       0.50645685 </v>
    <v>       0.24444218       0.25858774       0.74894556 </v>
    <v>       0.74946690       0.74662664       0.48558894 </v>
    <v>       0.26017984       0.28164557       0.25021941 </v>
    <v>       0.25973870       0.79606016       0.24683956 </v>
    <v>       0.23468849       0.72340383       0.75050734 </v>
    <v>       0.47673711       0.50554836       0.75123036 </v>
    <v>       0.76531151       0.77659617       0.24949266 </v>
    <v>       0.74026130       0.70393984       0.75316044 </v>
    <v>       0.52326289       0.99445164       0.24876964 </v>
    <v>       0.01386431       0.46987949       0.25032839 </v>
    <v>       0.00569674       0.51341070       0.75124840 </v>
    <v>       0.98613569       0.03012051       0.74967161 </v>
    <v>       0.48654376       0.03189683       0.74964175 </v>
    <v>       0.51345624       0.46810317       0.25035825 </v>
    <v>       0.00505216       0.01239187       0.12395538 </v>
    <v>       0.00379255       0.96819322       0.63701368 </v>
    <v>       0.99442566       0.53827521       0.14160380 </v>
    <v>       0.99523077       0.48935095       0.62363972 </v>
    <v>       0.48962264       0.01473599       0.12656976 </v>
    <v>       0.50705077       0.96801969       0.63762538 </v>
    <v>       0.48822871       0.53884535       0.14360811 </v>
    <v>       0.50549828       0.48618578       0.62525038 </v>
    <v>       0.00476923       0.01064905       0.37636028 </v>
    <v>       0.00557434       0.96172479       0.85839620 </v>
    <v>       0.99620745       0.53180678       0.36298632 </v>
    <v>       0.99494784       0.48760813       0.87604462 </v>
    <v>       0.49450172       0.01381422       0.37474962 </v>
    <v>       0.51177129       0.96115465       0.85639189 </v>
    <v>       0.49294923       0.53198031       0.36237462 </v>
    <v>       0.51037736       0.48526401       0.87343024 </v>
    <v>       0.23653791       0.21297538       0.35839664 </v>
    <v>       0.24737419       0.26598630       0.88011654 </v>
    <v>       0.23645308       0.72469059       0.35242189 </v>
    <v>       0.25528795       0.78025179       0.86327801 </v>
    <v>       0.75186857       0.23741343       0.37971918 </v>
    <v>       0.76054049       0.28432600       0.86029219 </v>
    <v>       0.74072505       0.71012172       0.35776432 </v>
    <v>       0.75619672       0.76368924       0.86790167 </v>
    <v>       0.23945951       0.21567400       0.13970781 </v>
    <v>       0.24813143       0.26258657       0.62028082 </v>
    <v>       0.24380328       0.73631076       0.13209833 </v>
    <v>       0.25927495       0.78987828       0.64223568 </v>
    <v>       0.75262581       0.23401370       0.11988346 </v>
    <v>       0.76346209       0.28702462       0.64160336 </v>
    <v>       0.74471205       0.71974821       0.13672199 </v>
    <v>       0.76354692       0.77530941       0.64757811 </v>
    <v>       0.17916827       0.42780887       0.24966183 </v>
    <v>       0.41905221       0.33067408       0.25062005 </v>
    <v>       0.66774839       0.40408302       0.24830257 </v>
    <v>       0.91402310       0.34072852       0.24984925 </v>
    <v>       0.16480419       0.93399020       0.24936371 </v>
    <v>       0.41824230       0.84978122       0.25122371 </v>
    <v>       0.66623994       0.90575175       0.24960370 </v>
    <v>       0.92421968       0.83058141       0.25061342 </v>
    <v>       0.12089065       0.12232491       0.50797075 </v>
    <v>       0.37557329       0.12011022       0.50817213 </v>
    <v>       0.62302845       0.12413200       0.51561643 </v>
    <v>       0.87707426       0.12206450       0.51614415 </v>
    <v>       0.12292574       0.37793550       0.48385585 </v>
    <v>       0.37697155       0.37586800       0.48438357 </v>
    <v>       0.62442671       0.37988978       0.49182787 </v>
    <v>       0.87910935       0.37767509       0.49202925 </v>
    <v>       0.12618695       0.62669483       0.51048506 </v>
    <v>       0.37276998       0.62556034       0.50934095 </v>
    <v>       0.62325042       0.62772382       0.50494653 </v>
    <v>       0.87387869       0.62632180       0.50222398 </v>
    <v>       0.12612131       0.87367820       0.49777602 </v>
    <v>       0.37674958       0.87227618       0.49505347 </v>
    <v>       0.62723002       0.87443966       0.49065905 </v>
    <v>       0.87381305       0.87330517       0.48951494 </v>
    <v>       0.08597690       0.15927148       0.75015075 </v>
    <v>       0.33225161       0.09591698       0.75169743 </v>
    <v>       0.58094779       0.16932592       0.74937995 </v>
    <v>       0.82083173       0.07219113       0.75033817 </v>
    <v>       0.07578032       0.66941859       0.74938658 </v>
    <v>       0.33376006       0.59424825       0.75039630 </v>
    <v>       0.58175770       0.65021878       0.74877629 </v>
    <v>       0.83519581       0.56600980       0.75063629 </v>
    <v>       0.12342942       0.12533701       0.99091868 </v>
    <v>       0.37302158       0.12353908       0.99069002 </v>
    <v>       0.62515137       0.12785958       0.98341929 </v>
    <v>       0.87402975       0.12563014       0.98216319 </v>
    <v>       0.12597025       0.37436986       0.01783681 </v>
    <v>       0.37484863       0.37214042       0.01658071 </v>
    <v>       0.62697842       0.37646092       0.00930998 </v>
    <v>       0.87657058       0.37466299       0.00908132 </v>
    <v>       0.12770682       0.62712888       0.99067624 </v>
    <v>       0.37179441       0.62590649       0.99099647 </v>
    <v>       0.62450830       0.62871803       0.99718676 </v>
    <v>       0.87376055       0.62790325       0.99853981 </v>
    <v>       0.12623945       0.87209675       0.00146019 </v>
    <v>       0.37549170       0.87128197       0.00281324 </v>
    <v>       0.62820559       0.87409351       0.00900353 </v>
    <v>       0.87229318       0.87287112       0.00932376 </v>
    <v>       0.60741364       0.14476362       0.25044258 </v>
    <v>       0.86739225       0.10195317       0.25089076 </v>
    <v>       0.13260775       0.39804683       0.74910924 </v>
    <v>       0.39258636       0.35523638       0.74955742 </v>
   </varray>
  </structure>
  <varray name="forces" >
   <v>       0.03979447      -0.02317942      -0.00568127 </v>
   <v>      -0.00879394       0.02173221       0.02818396 </v>
   <v>      -0.00992281      -0.01949970      -0.02901069 </v>
   <v>       0.01490955       0.01841629      -0.01780348 </v>
   <v>      -0.01775093       0.02447621      -0.04178815 </v>
   <v>      -0.00349111       0.00342147      -0.03010734 </v>
   <v>      -0.00154165       0.00346732       0.02887058 </v>
   <v>       0.00869731      -0.01772739       0.03582767 </v>
   <v>       0.00879394      -0.02173221      -0.02818396 </v>
   <v>      -0.03979447       0.02317942       0.00568127 </v>
   <v>      -0.01490955      -0.01841629       0.01780348 </v>
   <v>       0.00992281       0.01949970       0.02901069 </v>
   <v>       0.00349111      -0.00342147       0.03010734 </v>
   <v>       0.01775093      -0.02447621       0.04178815 </v>
   <v>      -0.00869731       0.01772739      -0.03582767 </v>
   <v>       0.00154165      -0.00346732      -0.02887058 </v>
   <v>       0.00607747      -0.00299194      -0.05676964 </v>
   <v>       0.01145102       0.03773776      -0.06791392 </v>
   <v>      -0.03199415      -0.03833507       0.04162754 </v>
   <v>       0.01236627      -0.02506289       0.03128445 </v>
   <v>       0.03951643      -0.00870403       0.02114360 </v>
   <v>       0.01043720       0.05042367       0.02783666 </v>
   <v>       0.01419396       0.00404549      -0.05726352 </v>
   <v>      -0.04018042       0.00672401      -0.04185763 </v>
   <v>       0.04018042      -0.00672401       0.04185763 </v>
   <v>      -0.01419396      -0.00404549       0.05726352 </v>
   <v>      -0.01043720      -0.05042367      -0.02783666 </v>
   <v>      -0.03951643       0.00870403      -0.02114360 </v>
   <v>      -0.01236627       0.02506289      -0.03128445 </v>
   <v>       0.03199415       0.03833507      -0.04162754 </v>
   <v>      -0.01145102      -0.03773776       0.06791392 </v>
   <v>      -0.00607747       0.00299194       0.05676964 </v>
   <v>      -0.02414945      -0.03555372      -0.05648090 </v>
   <v>      -0.01660741       0.08221981      -0.03934955 </v>
   <v>       0.01382445      -0.02058736       0.01331887 </v>
   <v>       0.02414945       0.03555372       0.05648090 </v>
   <v>      -0.08523422      -0.00913577       0.05247807 </v>
   <v>      -0.01382445       0.02058736      -0.01331887 </v>
   <v>       0.01660741      -0.08221981       0.03934955 </v>
   <v>       0.08523422       0.00913577      -0.05247807 </v>
   <v>       0.00688722       0.03751120      -0.03255198 </v>
   <v>      -0.02260573       0.03307118      -0.00385976 </v>
   <v>      -0.00688722      -0.03751120       0.03255198 </v>
   <v>       0.00973525       0.03394650       0.03481058 </v>
   <v>       0.00344416      -0.01413015      -0.03664034 </v>
   <v>       0.02260573      -0.03307118       0.00385976 </v>
   <v>      -0.04156486      -0.02676054       0.07820687 </v>
   <v>       0.03289955      -0.00079881      -0.01740838 </v>
   <v>       0.01702758       0.02185572       0.06483977 </v>
   <v>       0.04156486       0.02676054      -0.07820687 </v>
   <v>      -0.01702758      -0.02185572      -0.06483977 </v>
   <v>      -0.00973525      -0.03394650      -0.03481058 </v>
   <v>      -0.03289955       0.00079881       0.01740838 </v>
   <v>       0.06618837       0.02292533      -0.01590827 </v>
   <v>       0.00650036       0.03139192       0.01737810 </v>
   <v>      -0.01898144       0.00460005      -0.05259829 </v>
   <v>      -0.00650036      -0.03139192      -0.01737810 </v>
   <v>      -0.06618837      -0.02292533       0.01590827 </v>
   <v>       0.01898144      -0.00460005       0.05259829 </v>
   <v>       0.07811974       0.02683318      -0.04288382 </v>
   <v>      -0.00344416       0.01413015       0.03664034 </v>
   <v>      -0.07811974      -0.02683318       0.04288382 </v>
   <v>       0.00835129       0.03321433      -0.01728445 </v>
   <v>      -0.00835129      -0.03321433       0.01728445 </v>
   <v>      -0.03565456      -0.05734502       0.08321984 </v>
   <v>      -0.00702663      -0.05076076      -0.07846881 </v>
   <v>       0.00938215       0.01644727      -0.01652616 </v>
   <v>      -0.00437699       0.05094548       0.02419847 </v>
   <v>      -0.00275839       0.00477008       0.04719186 </v>
   <v>       0.00022992       0.00388251      -0.08251480 </v>
   <v>       0.00014944       0.02033650      -0.07202085 </v>
   <v>       0.02130065      -0.00811257       0.01033608 </v>
   <v>       0.00437699      -0.05094548      -0.02419847 </v>
   <v>      -0.00938215      -0.01644727       0.01652616 </v>
   <v>       0.00702663       0.05076076       0.07846881 </v>
   <v>       0.03565456       0.05734502      -0.08321984 </v>
   <v>      -0.02130065       0.00811257      -0.01033608 </v>
   <v>      -0.00014944      -0.02033650       0.07202085 </v>
   <v>      -0.00022992      -0.00388251       0.08251480 </v>
   <v>       0.00275839      -0.00477008      -0.04719186 </v>
   <v>      -0.04911594       0.10207409       0.01021633 </v>
   <v>      -0.03602036      -0.01505564      -0.03086008 </v>
   <v>       0.03145614       0.00061328      -0.02849294 </v>
   <v>      -0.00843868       0.02196498       0.02229913 </v>
   <v>       0.05271027       0.04217130       0.00193918 </v>
   <v>       0.04553892      -0.06247292       0.03653321 </v>
   <v>      -0.01846506      -0.01973083      -0.01750320 </v>
   <v>      -0.02992781      -0.00866328       0.02037558 </v>
   <v>      -0.04553892       0.06247292      -0.03653321 </v>
   <v>      -0.05271027      -0.04217130      -0.00193918 </v>
   <v>       0.02992781       0.00866328      -0.02037558 </v>
   <v>       0.01846506       0.01973083       0.01750320 </v>
   <v>       0.03602036       0.01505564       0.03086008 </v>
   <v>       0.04911594      -0.10207409      -0.01021633 </v>
   <v>       0.00843868      -0.02196498      -0.02229913 </v>
   <v>      -0.03145614      -0.00061328       0.02849294 </v>
   <v>      -0.01613945       0.00345402       0.00292278 </v>
   <v>       0.00396249      -0.01371556      -0.00036936 </v>
   <v>       0.01274837       0.00134506       0.00871819 </v>
   <v>       0.01448193      -0.05122246      -0.01173217 </v>
   <v>       0.04779774       0.01619649       0.00016673 </v>
   <v>      -0.05336096      -0.07863064      -0.02373048 </v>
   <v>       0.08686927       0.00188549       0.00038117 </v>
   <v>       0.09954343       0.01244596       0.00658353 </v>
   <v>       0.04737137       0.00832688       0.00383387 </v>
   <v>       0.01107025       0.02572755      -0.01124758 </v>
   <v>       0.03164454      -0.02586520      -0.00108990 </v>
   <v>      -0.05565234       0.02158908      -0.02718774 </v>
   <v>       0.05565234      -0.02158908       0.02718774 </v>
   <v>      -0.03164454       0.02586520       0.00108990 </v>
   <v>      -0.01107025      -0.02572755       0.01124758 </v>
   <v>      -0.04737137      -0.00832688      -0.00383387 </v>
   <v>       0.07664430       0.03203900      -0.00413525 </v>
   <v>       0.01726544       0.08479657       0.02141484 </v>
   <v>       0.06616460       0.01684023       0.04544960 </v>
   <v>      -0.04015486       0.05340411       0.00942700 </v>
   <v>       0.04015486      -0.05340411      -0.00942700 </v>
   <v>      -0.06616460      -0.01684023      -0.04544960 </v>
   <v>      -0.01726544      -0.08479657      -0.02141484 </v>
   <v>      -0.07664430      -0.03203900       0.00413525 </v>
   <v>      -0.01448193       0.05122246       0.01173217 </v>
   <v>      -0.01274837      -0.00134506      -0.00871819 </v>
   <v>      -0.00396249       0.01371556       0.00036936 </v>
   <v>       0.01613945      -0.00345402      -0.00292278 </v>
   <v>      -0.09954343      -0.01244596      -0.00658353 </v>
   <v>      -0.08686927      -0.00188549      -0.00038117 </v>
   <v>       0.05336096       0.07863064       0.02373048 </v>
   <v>      -0.04779774      -0.01619649      -0.00016673 </v>
   <v>       0.00522392       0.00045398      -0.01027770 </v>
   <v>       0.05739513      -0.00709121      -0.00427333 </v>
   <v>      -0.03377608      -0.07279571       0.01461798 </v>
   <v>       0.03688862      -0.00918034       0.03569524 </v>
   <v>      -0.03688862       0.00918034      -0.03569524 </v>
   <v>       0.03377608       0.07279571      -0.01461798 </v>
   <v>      -0.05739513       0.00709121       0.00427333 </v>
   <v>      -0.00522392      -0.00045398       0.01027770 </v>
   <v>       0.07383205       0.01243806       0.02200673 </v>
   <v>       0.04826298       0.01446217      -0.03317343 </v>
   <v>       0.02763051      -0.04455726      -0.04802687 </v>
   <v>      -0.05327603       0.04298348      -0.01915025 </v>
   <v>       0.05327603      -0.04298348       0.01915025 </v>
   <v>      -0.02763051       0.04455726       0.04802687 </v>
   <v>      -0.04826298      -0.01446217       0.03317343 </v>
   <v>      -0.07383205      -0.01243806      -0.02200673 </v>
   <v>       0.08008882      -0.01493709      -0.02907416 </v>
   <v>       0.03855048       0.00535353      -0.01038135 </v>
   <v>      -0.03855048      -0.00535353       0.01038135 </v>
   <v>      -0.08008882       0.01493709       0.02907416 </v>
  </varray>
  <varray name="stress" >
   <v>      -0.72809728       0.29756981       0.09115941 </v>
   <v>       0.29756996       0.40862928      -0.13655362 </v>
   <v>       0.09115917      -0.13655321       1.04421603 </v>
  </varray>
  <energy>
   <i name="e_fr_energy">   -994.82701065 </i>
   <i name="e_wo_entrp">   -994.82701065 </i>
   <i name="e_0_energy">     -0.00000000 </i>
  </energy>
  <time name="totalsc"> 1066.86 1069.47</time>
 </calculation>
 <calculation>
  <scstep>
   <time name="dav">  286.09  286.24</time>
   <time name="total">  289.97  290.15</time>
   <energy>
    <i name="alphaZ">   5592.87556776 </i>
    <i name="ewald"> -62911.26570093 </i>
    <i name="hartreedc"> -18707.67051785 </i>
    <i name="XCdc">   3409.60353264 </i>
    <i name="pawpsdc"> 120508.62254494 </i>
    <i name="pawaedc">-120014.64052977 </i>
    <i name="eentropy">     -0.00000000 </i>
    <i name="bandstr">  -7189.24917860 </i>
    <i name="atom">  78316.90445604 </i>
    <i name="e_fr_energy">   -994.81982577 </i>
    <i name="e_wo_entrp">   -994.81982577 </i>
    <i name="e_0_energy">   -994.81982577 </i>
   </energy>
  </scstep>
  <scstep>
   <time name="diag">   33.29   33.30</time>
   <time name="diis">   53.18   53.17</time>
   <time name="orth">   18.94   18.94</time>
   <time name="total">  109.32  109.34</time>
   <energy>
    <i name="e_fr_energy">   -994.84307223 </i>
    <i name="e_wo_entrp">   -994.84307223 </i>
    <i name="e_0_energy">   -994.84307223 </i>
   </energy>
  </scstep>
  <scstep>
   <time name="diag">   33.32   33.32</time>
   <time name="diis">   56.39   56.39</time>
   <time name="orth">   18.95   18.94</time>
   <time name="total">  112.59  112.66</time>
   <energy>
    <i name="e_fr_energy">   -994.84512274 </i>
    <i name="e_wo_entrp">   -994.84512274 </i>
    <i name="e_0_energy">   -994.84512274 </i>
   </energy>
  </scstep>
  <scstep>
   <time name="diag">   33.32   33.32</time>
   <time name="diis">   55.24   55.26</time>
   <time name="orth">   18.93   18.93</time>
   <time name="total">  111.41  111.48</time>
   <energy>
    <i name="e_fr_energy">   -994.84423632 </i>
    <i name="e_wo_entrp">   -994.84423632 </i>
    <i name="e_0_energy">   -994.84423632 </i>
   </energy>
  </scstep>
  <scstep>
   <time name="diag">   33.27   33.28</time>
   <time name="diis">   51.62   51.63</time>
   <time name="orth">   18.93   18.93</time>
   <time name="total">  107.73  107.94</time>
   <energy>
    <i name="e_fr_energy">   -994.84384263 </i>
    <i name="e_wo_entrp">   -994.84384263 </i>
    <i name="e_0_energy">   -994.84384263 </i>
   </energy>
  </scstep>
  <scstep>
   <time name="diag">   33.31   33.32</time>
   <time name="diis">   34.85   34.86</time>
   <time name="orth">   18.94   18.94</time>
   <time name="total">   91.03   91.06</time>
   <energy>
    <i name="e_fr_energy">   -994.84383378 </i>
    <i name="e_wo_entrp">   -994.84383378 </i>
    <i name="e_0_energy">   -994.84383378 </i>
   </energy>
  </scstep>
  <scstep>
   <time name="diag">   33.32   33.32</time>
   <time name="diis">   32.75   32.74</time>
   <time name="orth">   18.95   18.95</time>
   <time name="total">   88.89   88.91</time>
   <energy>
    <i name="e_fr_energy">   -994.84383498 </i>
    <i name="e_wo_entrp">   -994.84383498 </i>
    <i name="e_0_energy">   -994.84383498 </i>
   </energy>
  </scstep>
  <scstep>
   <time name="diag">   33.38   33.39</time>
   <time name="diis">   32.72   32.72</time>
   <time name="orth">   19.00   19.00</time>
   <time name="total">   85.68   85.76</time>
   <energy>
    <i name="alphaZ">   5592.87556776 </i>
    <i name="ewald"> -62911.26570093 </i>
    <i name="hartreedc"> -18711.90575323 </i>
    <i name="XCdc">   3409.88500124 </i>
    <i name="pawpsdc"> 120424.66619587 </i>
    <i name="pawaedc">-119930.64716407 </i>
    <i name="eentropy">     -0.00000000 </i>
    <i name="bandstr">  -7185.35643523 </i>
    <i name="atom">  78316.90445604 </i>
    <i name="e_fr_energy">   -994.84383255 </i>
    <i name="e_wo_entrp">   -994.84383255 </i>
    <i name="e_0_energy">   -994.84383255 </i>
   </energy>
  </scstep>
  <structure>
   <crystal>
    <varray name="basis" >
     <v>      11.26897085       0.00158078       0.00013046 </v>
     <v>       0.00215147      11.44496933      -0.02480151 </v>
     <v>       0.00016556      -0.03279544      15.57881595 </v>
    </varray>
    <i name="volume">   2009.23781304 </i>
    <varray name="rec_basis" >
     <v>       0.08873925      -0.00001668      -0.00000098 </v>
     <v>      -0.00001226       0.08737503       0.00018394 </v>
     <v>      -0.00000076       0.00013910       0.06419002 </v>
    </varray>
   </crystal>
   <varray name="positions" >
    <v>       0.99069946       0.23511310       0.11533746 </v>
    <v>       0.01043203       0.26297646       0.61528792 </v>
    <v>       0.00558162       0.75343501       0.11270615 </v>
    <v>       0.98855136       0.74904881       0.61383400 </v>
    <v>       0.51165904       0.23661983       0.11847760 </v>
    <v>       0.48624361       0.26107221       0.61763026 </v>
    <v>       0.49950912       0.75627436       0.11581858 </v>
    <v>       0.50318641       0.74703677       0.61574221 </v>
    <v>       0.98956797       0.23702354       0.38471208 </v>
    <v>       0.00930054       0.26488690       0.88466254 </v>
    <v>       0.01144864       0.75095119       0.38616600 </v>
    <v>       0.99441838       0.74656499       0.88729385 </v>
    <v>       0.51375639       0.23892779       0.38236974 </v>
    <v>       0.48834096       0.26338017       0.88152240 </v>
    <v>       0.49681359       0.75296323       0.38425779 </v>
    <v>       0.50049088       0.74372564       0.88418142 </v>
    <v>       0.24718439       0.00181915       0.10958092 </v>
    <v>       0.24366660       0.01127697       0.61916396 </v>
    <v>       0.25338146       0.51347885       0.11190843 </v>
    <v>       0.24773302       0.48359478       0.61965503 </v>
    <v>       0.75381483       0.01304577       0.11935205 </v>
    <v>       0.74856996       0.98529526       0.61145875 </v>
    <v>       0.75733779       0.49363316       0.11855035 </v>
    <v>       0.75192226       0.49979808       0.61031894 </v>
    <v>       0.24807774       0.00020192       0.38968106 </v>
    <v>       0.24266221       0.00636684       0.88144965 </v>
    <v>       0.25143004       0.51470474       0.38854125 </v>
    <v>       0.24618517       0.48695423       0.88064795 </v>
    <v>       0.75226698       0.01640522       0.38034497 </v>
    <v>       0.74661854       0.98652115       0.88809157 </v>
    <v>       0.75633340       0.48872303       0.38083604 </v>
    <v>       0.75281561       0.49818085       0.89041908 </v>
    <v>       0.00022726       0.50158644       0.49805052 </v>
    <v>       0.49963993       0.99902319       0.50157286 </v>
    <v>       0.74932403       0.74782545       0.00571417 </v>
    <v>       0.99977274       0.99841356       0.50194948 </v>
    <v>       0.24962539       0.24947387       0.00481590 </v>
    <v>       0.25067597       0.75217455       0.99428583 </v>
    <v>       0.50036007       0.50097681       0.49842714 </v>
    <v>       0.75037461       0.25052613       0.99518410 </v>
    <v>       0.99937775       0.99895401       0.99692318 </v>
    <v>       0.49917787       0.99945609       0.99827540 </v>
    <v>       0.00062225       0.50104599       0.00307682 </v>
    <v>       0.25057476       0.75351677       0.51451912 </v>
    <v>       0.99431800       0.98652941       0.24863799 </v>
    <v>       0.50082213       0.50054391       0.00172460 </v>
    <v>       0.24951406       0.24963632       0.49378525 </v>
    <v>       0.73996096       0.21835091       0.74972666 </v>
    <v>       0.75563070       0.24150496       0.25125546 </v>
    <v>       0.75048594       0.25036368       0.50621475 </v>
    <v>       0.24436930       0.25849504       0.74874454 </v>
    <v>       0.74942524       0.74648323       0.48548088 </v>
    <v>       0.26003904       0.28164909       0.25027334 </v>
    <v>       0.26002196       0.79615667       0.24679044 </v>
    <v>       0.23471630       0.72353633       0.75056138 </v>
    <v>       0.47665587       0.50556730       0.75106744 </v>
    <v>       0.76528370       0.77646367       0.24943862 </v>
    <v>       0.73997804       0.70384333       0.75320956 </v>
    <v>       0.52334413       0.99443270       0.24893256 </v>
    <v>       0.01419863       0.46999224       0.25019571 </v>
    <v>       0.00568200       0.51347059       0.75136201 </v>
    <v>       0.98580137       0.03000776       0.74980429 </v>
    <v>       0.48657949       0.03203670       0.74958842 </v>
    <v>       0.51342051       0.46796330       0.25041158 </v>
    <v>       0.00489959       0.01215083       0.12421282 </v>
    <v>       0.00376248       0.96797854       0.63677025 </v>
    <v>       0.99446580       0.53834440       0.14155271 </v>
    <v>       0.99521203       0.48956594       0.62371502 </v>
    <v>       0.48961084       0.01475651       0.12671600 </v>
    <v>       0.50705175       0.96803535       0.63736977 </v>
    <v>       0.48822933       0.53893046       0.14338512 </v>
    <v>       0.50558945       0.48615166       0.62528235 </v>
    <v>       0.00478797       0.01043406       0.37628498 </v>
    <v>       0.00553420       0.96165560       0.85844729 </v>
    <v>       0.99623752       0.53202146       0.36322975 </v>
    <v>       0.99510041       0.48784917       0.87578718 </v>
    <v>       0.49441055       0.01384834       0.37471765 </v>
    <v>       0.51177067       0.96106954       0.85661488 </v>
    <v>       0.49294825       0.53196465       0.36263023 </v>
    <v>       0.51038916       0.48524349       0.87328400 </v>
    <v>       0.23632767       0.21340581       0.35842895 </v>
    <v>       0.24722003       0.26592256       0.88002083 </v>
    <v>       0.23658770       0.72469293       0.35233363 </v>
    <v>       0.25525183       0.78034458       0.86334724 </v>
    <v>       0.75209415       0.23759123       0.37972547 </v>
    <v>       0.76073541       0.28406293       0.86040497 </v>
    <v>       0.74064602       0.71003838       0.35770997 </v>
    <v>       0.75606864       0.76365290       0.86796473 </v>
    <v>       0.23926459       0.21593707       0.13959503 </v>
    <v>       0.24790585       0.26240877       0.62027453 </v>
    <v>       0.24393136       0.73634710       0.13203527 </v>
    <v>       0.25935398       0.78996162       0.64229003 </v>
    <v>       0.75277997       0.23407744       0.11997917 </v>
    <v>       0.76367233       0.28659419       0.64157105 </v>
    <v>       0.74474817       0.71965542       0.13665276 </v>
    <v>       0.76341230       0.77530707       0.64766637 </v>
    <v>       0.17909920       0.42782345       0.24967091 </v>
    <v>       0.41906918       0.33061625       0.25061882 </v>
    <v>       0.66780295       0.40408876       0.24832959 </v>
    <v>       0.91408510       0.34051247       0.24981257 </v>
    <v>       0.16500874       0.93405848       0.24936434 </v>
    <v>       0.41801395       0.84944952       0.25114967 </v>
    <v>       0.66661172       0.90575969       0.24960490 </v>
    <v>       0.92464569       0.83063393       0.25063390 </v>
    <v>       0.12109339       0.12236004       0.50798268 </v>
    <v>       0.37562066       0.12021859       0.50813745 </v>
    <v>       0.62316388       0.12402294       0.51561289 </v>
    <v>       0.87683607       0.12215529       0.51606006 </v>
    <v>       0.12316393       0.37784471       0.48393994 </v>
    <v>       0.37683612       0.37597706       0.48438711 </v>
    <v>       0.62437934       0.37978141       0.49186255 </v>
    <v>       0.87890661       0.37763996       0.49201732 </v>
    <v>       0.12651496       0.62682986       0.51047246 </v>
    <v>       0.37284385       0.62591801       0.50940785 </v>
    <v>       0.62353359       0.62779520       0.50508745 </v>
    <v>       0.87370683       0.62654703       0.50225353 </v>
    <v>       0.12629317       0.87345297       0.49774647 </v>
    <v>       0.37646641       0.87220480       0.49491255 </v>
    <v>       0.62715615       0.87408199       0.49059215 </v>
    <v>       0.87348504       0.87317014       0.48952754 </v>
    <v>       0.08591490       0.15948753       0.75018743 </v>
    <v>       0.33219705       0.09591124       0.75167041 </v>
    <v>       0.58093082       0.16938375       0.74938118 </v>
    <v>       0.82090080       0.07217655       0.75032909 </v>
    <v>       0.07535431       0.66936607       0.74936610 </v>
    <v>       0.33338828       0.59424031       0.75039510 </v>
    <v>       0.58198605       0.65055048       0.74885033 </v>
    <v>       0.83499126       0.56594152       0.75063566 </v>
    <v>       0.12345178       0.12533884       0.99088684 </v>
    <v>       0.37326721       0.12350914       0.99067674 </v>
    <v>       0.62500684       0.12755281       0.98346409 </v>
    <v>       0.87418763       0.12559174       0.98227372 </v>
    <v>       0.12581237       0.37440826       0.01772628 </v>
    <v>       0.37499316       0.37244719       0.01653591 </v>
    <v>       0.62673279       0.37649086       0.00932326 </v>
    <v>       0.87654822       0.37466116       0.00911316 </v>
    <v>       0.12802280       0.62718150       0.99074450 </v>
    <v>       0.37200096       0.62596717       0.99089379 </v>
    <v>       0.62462656       0.62852976       0.99703768 </v>
    <v>       0.87353252       0.62808430       0.99848076 </v>
    <v>       0.12646748       0.87191570       0.00151924 </v>
    <v>       0.37537344       0.87147024       0.00296232 </v>
    <v>       0.62799904       0.87403283       0.00910621 </v>
    <v>       0.87197720       0.87281850       0.00925550 </v>
    <v>       0.60775640       0.14470039       0.25035241 </v>
    <v>       0.86755723       0.10197565       0.25085864 </v>
    <v>       0.13244277       0.39802435       0.74914136 </v>
    <v>       0.39224360       0.35529961       0.74964759 </v>
   </varray>
  </structure>
  <varray name="forces" >
   <v>       0.01152877      -0.03602856       0.02612057 </v>
   <v>      -0.01531325       0.03531122       0.03294147 </v>
   <v>       0.00018028       0.00275090      -0.01430100 </v>
   <v>       0.00275842      -0.00863770      -0.02390651 </v>
   <v>       0.00341525       0.01008041      -0.04114012 </v>
   <v>       0.00305820      -0.00489716      -0.00819435 </v>
   <v>      -0.00578127       0.00352980      -0.00093078 </v>
   <v>       0.01492466      -0.00046850       0.00281151 </v>
   <v>       0.01531325      -0.03531122      -0.03294147 </v>
   <v>      -0.01152877       0.03602856      -0.02612057 </v>
   <v>      -0.00275842       0.00863770       0.02390651 </v>
   <v>      -0.00018028      -0.00275090       0.01430100 </v>
   <v>      -0.00305820       0.00489716       0.00819435 </v>
   <v>      -0.00341525      -0.01008041       0.04114012 </v>
   <v>      -0.01492466       0.00046850      -0.00281151 </v>
   <v>       0.00578127      -0.00352980       0.00093078 </v>
   <v>       0.01152707      -0.02216846      -0.01765103 </v>
   <v>       0.02103331       0.00639330      -0.03770827 </v>
   <v>       0.00737914       0.00391914       0.00077857 </v>
   <v>      -0.01125476       0.00336628       0.01923772 </v>
   <v>       0.02000633       0.00048308       0.01809513 </v>
   <v>      -0.00537594       0.00220021      -0.00621945 </v>
   <v>      -0.01743534      -0.00093954      -0.02701294 </v>
   <v>      -0.00758712       0.02283333      -0.00752543 </v>
   <v>       0.00758712      -0.02283333       0.00752543 </v>
   <v>       0.01743534       0.00093954       0.02701294 </v>
   <v>       0.00537594      -0.00220021       0.00621945 </v>
   <v>      -0.02000633      -0.00048308      -0.01809513 </v>
   <v>       0.01125476      -0.00336628      -0.01923772 </v>
   <v>      -0.00737914      -0.00391914      -0.00077857 </v>
   <v>      -0.02103331      -0.00639330       0.03770827 </v>
   <v>      -0.01152707       0.02216846       0.01765103 </v>
   <v>       0.02932372       0.05850680       0.03424049 </v>
   <v>       0.03528171      -0.07946494      -0.00193243 </v>
   <v>      -0.09322806       0.03306529      -0.01763461 </v>
   <v>      -0.02932372      -0.05850680      -0.03424049 </v>
   <v>       0.04026823       0.04889188      -0.03285112 </v>
   <v>       0.09322806      -0.03306529       0.01763461 </v>
   <v>      -0.03528171       0.07946494       0.00193243 </v>
   <v>      -0.04026823      -0.04889188       0.03285112 </v>
   <v>      -0.00809342      -0.02440206       0.02145322 </v>
   <v>       0.01472182      -0.01904614       0.01005704 </v>
   <v>       0.00809342       0.02440206      -0.02145322 </v>
   <v>       0.02367004      -0.00604760       0.01916606 </v>
   <v>       0.03939541      -0.02416071       0.02337703 </v>
   <v>      -0.01472182       0.01904614      -0.01005704 </v>
   <v>      -0.03284246       0.00420555       0.03712286 </v>
   <v>       0.00321426       0.01682810      -0.00945291 </v>
   <v>       0.03209582       0.00681624      -0.01103584 </v>
   <v>       0.03284246      -0.00420555      -0.03712286 </v>
   <v>      -0.03209582      -0.00681624       0.01103584 </v>
   <v>      -0.02367004       0.00604760      -0.01916606 </v>
   <v>      -0.00321426      -0.01682810       0.00945291 </v>
   <v>      -0.03912370      -0.01369074      -0.00915105 </v>
   <v>      -0.06181926       0.03772177       0.00383048 </v>
   <v>      -0.02371983       0.01458773       0.01080505 </v>
   <v>       0.06181926      -0.03772177      -0.00383048 </v>
   <v>       0.03912370       0.01369074       0.00915105 </v>
   <v>       0.02371983      -0.01458773      -0.01080505 </v>
   <v>      -0.03149992      -0.00379515       0.03022382 </v>
   <v>      -0.03939541       0.02416071      -0.02337703 </v>
   <v>       0.03149992       0.00379515      -0.03022382 </v>
   <v>       0.00247567      -0.02328186       0.01139943 </v>
   <v>      -0.00247567       0.02328186      -0.01139943 </v>
   <v>      -0.01961076      -0.03970729      -0.03881404 </v>
   <v>      -0.02019663       0.01052502      -0.00047091 </v>
   <v>       0.01392837      -0.00141215      -0.01959796 </v>
   <v>      -0.00652223       0.03155783      -0.05041306 </v>
   <v>      -0.01088227       0.00859272       0.07898133 </v>
   <v>      -0.00823519       0.03724152      -0.03122343 </v>
   <v>       0.01324643      -0.02482606       0.02050865 </v>
   <v>       0.01848557      -0.01654263       0.02179204 </v>
   <v>       0.00652223      -0.03155783       0.05041306 </v>
   <v>      -0.01392837       0.00141215       0.01959796 </v>
   <v>       0.02019663      -0.01052502       0.00047091 </v>
   <v>       0.01961076       0.03970729       0.03881404 </v>
   <v>      -0.01848557       0.01654263      -0.02179204 </v>
   <v>      -0.01324643       0.02482606      -0.02050865 </v>
   <v>       0.00823519      -0.03724152       0.03122343 </v>
   <v>       0.01088227      -0.00859272      -0.07898133 </v>
   <v>      -0.04344512       0.07244067       0.00572425 </v>
   <v>      -0.03761282      -0.02416441       0.04289098 </v>
   <v>       0.02913530      -0.01280901      -0.04730208 </v>
   <v>      -0.01329958       0.02105370      -0.00200174 </v>
   <v>       0.03120617       0.04131555       0.00746490 </v>
   <v>       0.04938776      -0.06639178       0.02720189 </v>
   <v>      -0.01439870      -0.02726110      -0.05312809 </v>
   <v>      -0.02178024      -0.00210485       0.01832310 </v>
   <v>      -0.04938776       0.06639178      -0.02720189 </v>
   <v>      -0.03120617      -0.04131555      -0.00746490 </v>
   <v>       0.02178024       0.00210485      -0.01832310 </v>
   <v>       0.01439870       0.02726110       0.05312809 </v>
   <v>       0.03761282       0.02416441      -0.04289098 </v>
   <v>       0.04344512      -0.07244067      -0.00572425 </v>
   <v>       0.01329958      -0.02105370       0.00200174 </v>
   <v>      -0.02913530       0.01280901       0.04730208 </v>
   <v>       0.00439273       0.00275625      -0.00377883 </v>
   <v>      -0.01978732      -0.01951547       0.00567206 </v>
   <v>       0.00580211       0.01150149       0.01338255 </v>
   <v>       0.07925723       0.02929481      -0.00267256 </v>
   <v>       0.05545760       0.03914260      -0.00426818 </v>
   <v>       0.07117345      -0.01245972      -0.01083157 </v>
   <v>       0.03852232       0.02524378       0.00563244 </v>
   <v>       0.01411667      -0.04067004      -0.00860797 </v>
   <v>       0.02317321      -0.00048087       0.00298651 </v>
   <v>       0.00102628       0.04961915      -0.01658403 </v>
   <v>       0.01570847      -0.00634830      -0.02116326 </v>
   <v>      -0.00969126       0.00998988      -0.02517559 </v>
   <v>       0.00969126      -0.00998988       0.02517559 </v>
[...]
       <r>   -17.5674     0.0000    32.0000 </r>
       <r>   -17.4137     0.0000    32.0000 </r>
       <r>   -17.2601     0.0000    32.0000 </r>
       <r>   -17.1065     0.0000    32.0000 </r>
       <r>   -16.9528     0.0000    32.0000 </r>
       <r>   -16.7992     0.0000    32.0000 </r>
       <r>   -16.6456     0.0000    32.0000 </r>
       <r>   -16.4919     0.0000    32.0000 </r>
       <r>   -16.3383     0.0000    32.0000 </r>
       <r>   -16.1847     0.0000    32.0000 </r>
       <r>   -16.0310     0.0000    32.0000 </r>
       <r>   -15.8774     0.0000    32.0000 </r>
       <r>   -15.7238     0.0000    32.0000 </r>
       <r>   -15.5701     0.0000    32.0000 </r>
       <r>   -15.4165     0.0000    32.0000 </r>
       <r>   -15.2629     0.0011    32.0002 </r>
       <r>   -15.1092     6.7311    33.0343 </r>
       <r>   -14.9556    40.0401    39.1858 </r>
       <r>   -14.8020    51.5317    47.1028 </r>
       <r>   -14.6483    42.2613    53.5955 </r>
       <r>   -14.4947    33.5586    58.7512 </r>
       <r>   -14.3411    44.0618    65.5206 </r>
       <r>   -14.1874    80.3698    77.8681 </r>
       <r>   -14.0338    72.3757    88.9874 </r>
       <r>   -13.8802    78.5879   101.0611 </r>
       <r>   -13.7265    57.7132   109.9278 </r>
       <r>   -13.5729    13.7624   112.0421 </r>
       <r>   -13.4193    24.5840   115.8191 </r>
       <r>   -13.2656     1.1776   116.0000 </r>
       <r>   -13.1120     0.0000   116.0000 </r>
       <r>   -12.9584     0.0000   116.0000 </r>
       <r>   -12.8047     0.0018   116.0003 </r>
       <r>   -12.6511    10.4022   117.5984 </r>
       <r>   -12.4975    84.3746   130.5612 </r>
       <r>   -12.3438   144.1989   152.7149 </r>
       <r>   -12.1902   108.4555   169.3773 </r>
       <r>   -12.0366   108.6136   186.0640 </r>
       <r>   -11.8829    95.4521   200.7286 </r>
       <r>   -11.7293    66.7634   210.9857 </r>
       <r>   -11.5757     6.6022   212.0000 </r>
       <r>   -11.4220     0.0000   212.0000 </r>
       <r>   -11.2684     0.0000   212.0000 </r>
       <r>   -11.1148     0.0000   212.0000 </r>
       <r>   -10.9611     0.0000   212.0000 </r>
       <r>   -10.8075     0.0000   212.0000 </r>
       <r>   -10.6539     0.0000   212.0000 </r>
       <r>   -10.5002     0.0000   212.0000 </r>
       <r>   -10.3466     0.0000   212.0000 </r>
       <r>   -10.1930     0.0000   212.0000 </r>
       <r>   -10.0393     0.0000   212.0000 </r>
       <r>    -9.8857     0.0000   212.0000 </r>
       <r>    -9.7321     0.0000   212.0000 </r>
       <r>    -9.5784     0.0000   212.0000 </r>
       <r>    -9.4248     0.0000   212.0000 </r>
       <r>    -9.2712     0.0000   212.0000 </r>
       <r>    -9.1175     0.0000   212.0000 </r>
       <r>    -8.9639     0.0000   212.0000 </r>
       <r>    -8.8103     0.0000   212.0000 </r>
       <r>    -8.6566     0.0000   212.0000 </r>
       <r>    -8.5030     0.0000   212.0000 </r>
       <r>    -8.3494     0.0000   212.0000 </r>
       <r>    -8.1957     0.0000   212.0000 </r>
       <r>    -8.0421     0.0000   212.0000 </r>
       <r>    -7.8885     0.0000   212.0000 </r>
       <r>    -7.7348     0.0000   212.0000 </r>
       <r>    -7.5812     0.0000   212.0000 </r>
       <r>    -7.4276     0.0000   212.0000 </r>
       <r>    -7.2739     0.0000   212.0000 </r>
       <r>    -7.1203     0.0000   212.0000 </r>
       <r>    -6.9667     0.0000   212.0000 </r>
       <r>    -6.8130     0.0000   212.0000 </r>
       <r>    -6.6594     0.0000   212.0000 </r>
       <r>    -6.5058     0.0000   212.0000 </r>
       <r>    -6.3521     0.0000   212.0000 </r>
       <r>    -6.1985     0.0000   212.0000 </r>
       <r>    -6.0449     0.0000   212.0000 </r>
       <r>    -5.8912     0.0000   212.0000 </r>
       <r>    -5.7376     0.0000   212.0000 </r>
       <r>    -5.5840     0.0000   212.0000 </r>
       <r>    -5.4303     0.0000   212.0000 </r>
       <r>    -5.2767     0.0000   212.0000 </r>
       <r>    -5.1231     0.0000   212.0000 </r>
       <r>    -4.9694     0.0000   212.0000 </r>
       <r>    -4.8158     0.0000   212.0000 </r>
       <r>    -4.6622     0.0000   212.0000 </r>
       <r>    -4.5085     0.0000   212.0000 </r>
       <r>    -4.3549     0.0000   212.0000 </r>
       <r>    -4.2013     0.0000   212.0000 </r>
       <r>    -4.0476     0.0000   212.0000 </r>
       <r>    -3.8940     0.0000   212.0000 </r>
       <r>    -3.7404     0.0000   212.0000 </r>
       <r>    -3.5867     0.0000   212.0000 </r>
       <r>    -3.4331     0.0000   212.0000 </r>
       <r>    -3.2795     0.0000   212.0000 </r>
       <r>    -3.1258     0.0000   212.0000 </r>
       <r>    -2.9722     0.0000   212.0000 </r>
       <r>    -2.8186     0.0000   212.0000 </r>
       <r>    -2.6649     0.0003   212.0000 </r>
       <r>    -2.5113     4.5371   212.6971 </r>
       <r>    -2.3577     9.7073   214.1885 </r>
       <r>    -2.2040    20.3835   217.3200 </r>
       <r>    -2.0504    21.6329   220.6436 </r>
       <r>    -1.8968    27.6611   224.8932 </r>
       <r>    -1.7431    23.6196   228.5220 </r>
       <r>    -1.5895    28.1471   232.8463 </r>
       <r>    -1.4359    32.1695   237.7886 </r>
       <r>    -1.2822    51.5165   245.7033 </r>
       <r>    -1.1286    65.4816   255.7634 </r>
       <r>    -0.9750    71.3620   266.7270 </r>
       <r>    -0.8213    83.4999   279.5554 </r>
       <r>    -0.6677    91.9560   293.6829 </r>
       <r>    -0.5141    95.2634   308.3185 </r>
       <r>    -0.3604    82.7668   321.0342 </r>
       <r>    -0.2068    50.9310   328.8589 </r>
       <r>    -0.0532    63.2573   338.5774 </r>
       <r>     0.1005    54.6759   346.9774 </r>
       <r>     0.2541    75.1085   358.5166 </r>
       <r>     0.4077    57.5218   367.3539 </r>
       <r>     0.5614    55.1109   375.8207 </r>
       <r>     0.7150    56.2775   384.4668 </r>
       <r>     0.8686    56.5561   393.1557 </r>
       <r>     1.0223    62.7678   402.7989 </r>
       <r>     1.1759    68.0085   413.2473 </r>
       <r>     1.3295    74.7744   424.7351 </r>
       <r>     1.4832    68.1712   435.2085 </r>
       <r>     1.6368    78.1247   447.2111 </r>
       <r>     1.7904    55.3355   455.7124 </r>
       <r>     1.9441    20.4824   458.8592 </r>
       <r>     2.0977     8.7155   460.1982 </r>
       <r>     2.2513    23.4646   463.8032 </r>
       <r>     2.4050     1.2813   464.0000 </r>
       <r>     2.5586     0.0000   464.0000 </r>
       <r>     2.7122     0.0000   464.0000 </r>
       <r>     2.8659     0.0000   464.0000 </r>
       <r>     3.0195     0.0000   464.0000 </r>
       <r>     3.1731     0.0000   464.0000 </r>
       <r>     3.3268     0.0000   464.0000 </r>
       <r>     3.4804     0.0000   464.0000 </r>
       <r>     3.6340     0.0000   464.0000 </r>
       <r>     3.7877     0.0000   464.0000 </r>
       <r>     3.9413     0.0000   464.0000 </r>
       <r>     4.0949     0.0000   464.0000 </r>
       <r>     4.2486     2.7256   464.4187 </r>
       <r>     4.4022    58.6823   473.4343 </r>
       <r>     4.5558    75.6491   485.0565 </r>
       <r>     4.7095    73.8579   496.4035 </r>
       <r>     4.8631    81.5410   508.9309 </r>
       <r>     5.0167    64.8200   518.8895 </r>
       <r>     5.1704    83.6111   531.7349 </r>
       <r>     5.3240    74.1644   543.1290 </r>
       <r>     5.4776    78.8109   555.2370 </r>
       <r>     5.6313    92.0432   569.3779 </r>
       <r>     5.7849   100.4944   584.8172 </r>
       <r>     5.9385    83.7319   597.6812 </r>
       <r>     6.0922    36.1545   603.2357 </r>
       <r>     6.2458     6.4456   604.2260 </r>
       <r>     6.3994    12.2510   606.1082 </r>
       <r>     6.5531    11.8703   607.9318 </r>
       <r>     6.7067     0.4886   608.0069 </r>
       <r>     6.8603     6.2377   608.9652 </r>
       <r>     7.0140     9.5161   610.4272 </r>
       <r>     7.1676    17.1326   613.0593 </r>
       <r>     7.3212    16.5625   615.6039 </r>
       <r>     7.4749    18.1163   618.3872 </r>
       <r>     7.6285    18.0779   621.1645 </r>
       <r>     7.7821    28.7475   625.5811 </r>
       <r>     7.9358    14.2757   627.7743 </r>
       <r>     8.0894    17.5247   630.4667 </r>
       <r>     8.2430    21.9790   633.8434 </r>
       <r>     8.3967    26.1509   637.8611 </r>
       <r>     8.5503    18.6406   640.7249 </r>
       <r>     8.7039    18.3017   643.5366 </r>
       <r>     8.8576    23.2788   647.1130 </r>
       <r>     9.0112    30.1288   651.7418 </r>
       <r>     9.1648    40.3558   657.9418 </r>
       <r>     9.3185    42.5242   664.4749 </r>
       <r>     9.4721    47.8624   671.8282 </r>
       <r>     9.6257    42.2510   678.3194 </r>
       <r>     9.7794    43.1830   684.9537 </r>
       <r>     9.9330    53.6569   693.1972 </r>
       <r>    10.0866    53.1941   701.3696 </r>
       <r>    10.2403    53.1889   709.5412 </r>
       <r>    10.3939    51.4435   717.4446 </r>
       <r>    10.5475    47.5920   724.7563 </r>
       <r>    10.7012    45.1531   731.6933 </r>
       <r>    10.8548    49.7089   739.3303 </r>
       <r>    11.0084    54.5331   747.7084 </r>
       <r>    11.1621    57.2723   756.5073 </r>
       <r>    11.3157    59.2985   765.6175 </r>
       <r>    11.4693    15.5019   767.9991 </r>
       <r>    11.6230     0.0057   768.0000 </r>
       <r>    11.7766     0.0000   768.0000 </r>
       <r>    11.9302     0.0000   768.0000 </r>
       <r>    12.0839     0.0000   768.0000 </r>
       <r>    12.2375     0.0000   768.0000 </r>
       <r>    12.3911     0.0000   768.0000 </r>
       <r>    12.5448     0.0000   768.0000 </r>
       <r>    12.6984     0.0000   768.0000 </r>
       <r>    12.8520     0.0000   768.0000 </r>
       <r>    13.0057     0.0000   768.0000 </r>
       <r>    13.1593     0.0000   768.0000 </r>
       <r>    13.3129     0.0000   768.0000 </r>
       <r>    13.4666     0.0000   768.0000 </r>
      </set>
     </set>
    </array>
   </total>
  </dos>
 </calculation>
 <structure name="finalpos" >
  <crystal>
   <varray name="basis" >
    <v>      11.25018890       0.00827818      -0.00255406 </v>
    <v>       0.00896176      11.43752177      -0.03202486 </v>
    <v>      -0.00357485      -0.04248987      15.63066892 </v>
   </varray>
   <i name="volume">   2011.24850535 </i>
   <varray name="rec_basis" >
    <v>       0.08888745      -0.00006959       0.00002014 </v>
    <v>      -0.00006428       0.08743224       0.00023766 </v>
    <v>       0.00001439       0.00017912       0.06397728 </v>
   </varray>
  </crystal>
  <varray name="positions" >
   <v>       0.99262975       0.23426713       0.11568811 </v>
   <v>       0.00869719       0.26374729       0.61577791 </v>
   <v>       0.00553317       0.75331538       0.11196427 </v>
   <v>       0.98473877       0.74921414       0.61331602 </v>
   <v>       0.51271845       0.23751827       0.11879473 </v>
   <v>       0.48527647       0.26076389       0.61759998 </v>
   <v>       0.49925586       0.75319425       0.11503062 </v>
   <v>       0.50691105       0.75011141       0.61533338 </v>
   <v>       0.99130281       0.23625271       0.38422209 </v>
   <v>       0.00737025       0.26573287       0.88431189 </v>
   <v>       0.01526123       0.75078586       0.38668398 </v>
   <v>       0.99446683       0.74668462       0.88803573 </v>
   <v>       0.51472353       0.23923611       0.38240002 </v>
   <v>       0.48728155       0.26248173       0.88120527 </v>
   <v>       0.49308895       0.74988859       0.38466662 </v>
   <v>       0.50074414       0.74680575       0.88496938 </v>
   <v>       0.24729446       0.00364776       0.10860035 </v>
   <v>       0.24506857       0.01312424       0.61816474 </v>
   <v>       0.25362097       0.51410742       0.11146387 </v>
   <v>       0.24573401       0.48193860       0.62075743 </v>
   <v>       0.75740316       0.01376501       0.12011667 </v>
   <v>       0.74854594       0.98507739       0.61044771 </v>
   <v>       0.75582484       0.49361457       0.11778240 </v>
   <v>       0.75239293       0.49828390       0.60994483 </v>
   <v>       0.24760707       0.00171610       0.39005517 </v>
   <v>       0.24417516       0.00638543       0.88221760 </v>
   <v>       0.25145406       0.51492261       0.38955229 </v>
   <v>       0.24259684       0.48623499       0.87988333 </v>
   <v>       0.75426599       0.01806140       0.37924257 </v>
   <v>       0.74637903       0.98589258       0.88853613 </v>
   <v>       0.75493143       0.48687576       0.38183526 </v>
   <v>       0.75270554       0.49635224       0.89139965 </v>
   <v>       0.00037526       0.50253638       0.49816441 </v>
   <v>       0.49994377       0.99934153       0.49970096 </v>
   <v>       0.74873574       0.74720192       0.00548511 </v>
   <v>       0.99962474       0.99746362       0.50183559 </v>
   <v>       0.24886045       0.25059979       0.00406663 </v>
   <v>       0.25126426       0.75279808       0.99451489 </v>
   <v>       0.50005623       0.50065847       0.50029904 </v>
   <v>       0.75113955       0.24940021       0.99593337 </v>
   <v>       0.99958207       0.99842360       0.99664676 </v>
   <v>       0.49971393       0.00016200       0.00096980 </v>
   <v>       0.00041793       0.50157640       0.00335324 </v>
   <v>       0.25137962       0.75452137       0.51927313 </v>
   <v>       0.99749274       0.98482165       0.24880948 </v>
   <v>       0.50028607       0.49983800      -0.00096980 </v>
   <v>       0.24833767       0.25003321       0.49448492 </v>
   <v>       0.74058581       0.21667513       0.74985929 </v>
   <v>       0.75869197       0.24267861       0.25112780 </v>
   <v>       0.75166233       0.24996679       0.50551508 </v>
   <v>       0.24130803       0.25732139       0.74887220 </v>
   <v>       0.74862038       0.74547863       0.48072687 </v>
   <v>       0.25941419       0.28332487       0.25014071 </v>
   <v>       0.26339253       0.79782136       0.24502763 </v>
   <v>       0.23223611       0.72431541       0.75131075 </v>
   <v>       0.47346333       0.50715820       0.75103043 </v>
   <v>       0.76776389       0.77568459       0.24868925 </v>
   <v>       0.73660747       0.70217864       0.75497237 </v>
   <v>       0.52653667       0.99284180       0.24896957 </v>
   <v>       0.01586122       0.47147688       0.25045003 </v>
   <v>       0.00250726       0.51517835       0.75119052 </v>
   <v>       0.98413878       0.02852312       0.74954997 </v>
   <v>       0.48669210       0.03341871       0.74874062 </v>
   <v>       0.51330790       0.46658129       0.25125938 </v>
   <v>       0.00411183       0.00841021       0.12413337 </v>
   <v>       0.00150568       0.96907005       0.63566820 </v>
   <v>       0.99542665       0.53807446       0.14141721 </v>
   <v>       0.99340074       0.49418523       0.62354798 </v>
   <v>       0.48803941       0.01626859       0.12841818 </v>
   <v>       0.50658396       0.97253569       0.63541256 </v>
   <v>       0.48774036       0.53641555       0.14451087 </v>
   <v>       0.50665040       0.48574092       0.62685558 </v>
   <v>       0.00659926       0.00581477       0.37645202 </v>
   <v>       0.00457335       0.96192554       0.85858279 </v>
   <v>       0.99849432       0.53092995       0.36433180 </v>
   <v>       0.99588817       0.49158979       0.87586663 </v>
   <v>       0.49334960       0.01425908       0.37314442 </v>
   <v>       0.51225964       0.96358445       0.85548913 </v>
   <v>       0.49341604       0.52746431       0.36458744 </v>
   <v>       0.51196059       0.48373141       0.87158182 </v>
   <v>       0.23220112       0.21750445       0.35834601 </v>
   <v>       0.24435747       0.26441253       0.87972490 </v>
   <v>       0.23799050       0.72282961       0.34779953 </v>
   <v>       0.25413435       0.78062725       0.86368847 </v>
   <v>       0.75425540       0.24110269       0.37926558 </v>
   <v>       0.76304042       0.27989424       0.86111130 </v>
   <v>       0.73752777       0.70740653       0.35537393 </v>
   <v>       0.75340044       0.76150558       0.86951493 </v>
   <v>       0.23695958       0.22010576       0.13888870 </v>
   <v>       0.24574460       0.25889731       0.62073442 </v>
   <v>       0.24659956       0.73849442       0.13048507 </v>
   <v>       0.26247223       0.79259347       0.64462607 </v>
   <v>       0.75564253       0.23558747       0.12027510 </v>
   <v>       0.76779888       0.28249555       0.64165399 </v>
   <v>       0.74586565       0.71937275       0.13631153 </v>
   <v>       0.76200950       0.77717039       0.65220047 </v>
   <v>       0.18197678       0.43164912       0.24953601 </v>
   <v>       0.42014280       0.32776551       0.25122063 </v>
   <v>       0.66903526       0.40439030       0.24810311 </v>
   <v>       0.91824326       0.34064855       0.24982047 </v>
   <v>       0.17022041       0.93794078       0.24868681 </v>
   <v>       0.42427316       0.84518091       0.25041402 </v>
   <v>       0.67301512       0.90820190       0.24927539 </v>
   <v>       0.92834903       0.82781924       0.25108984 </v>
   <v>       0.12129575       0.12132694       0.50686327 </v>
   <v>       0.37654104       0.12265509       0.50591580 </v>
   <v>       0.62486366       0.12275834       0.51266305 </v>
   <v>       0.87717804       0.12196261       0.51341122 </v>
   <v>       0.12282196       0.37803739       0.48658878 </v>
   <v>       0.37513634       0.37724166       0.48733695 </v>
   <v>       0.62345896       0.37734491       0.49408420 </v>
   <v>       0.87870425       0.37867306       0.49313673 </v>
   <v>       0.12844768       0.62731927       0.51090968 </v>
   <v>       0.37502336       0.62808672       0.51054933 </v>
   <v>       0.62533270       0.62551963       0.50554143 </v>
   <v>       0.87374001       0.62771655       0.50078856 </v>
   <v>       0.12625999       0.87228345       0.49921144 </v>
   <v>       0.37466730       0.87448037       0.49445857 </v>
   <v>       0.62497664       0.87191328       0.48945067 </v>
   <v>       0.87155232       0.87268073       0.48909032 </v>
   <v>       0.08175674       0.15935145       0.75017953 </v>
   <v>       0.33096474       0.09560970       0.75189689 </v>
   <v>       0.57985720       0.17223449       0.74877937 </v>
   <v>       0.81802322       0.06835088       0.75046399 </v>
   <v>       0.07165097       0.67218076       0.74891016 </v>
   <v>       0.32698488       0.59179810       0.75072461 </v>
   <v>       0.57572684       0.65481909       0.74958598 </v>
   <v>       0.82977959       0.56205922       0.75131319 </v>
   <v>       0.12392733       0.12460510       0.99167394 </v>
   <v>       0.37443305       0.12596777       0.99157223 </v>
   <v>       0.62660226       0.12540354       0.98597177 </v>
   <v>       0.87556635       0.12533103       0.98356692 </v>
   <v>       0.12443365       0.37466897       0.01643308 </v>
   <v>       0.37339774       0.37459646       0.01402823 </v>
   <v>       0.62556695       0.37403223       0.00842777 </v>
   <v>       0.87607267       0.37539490       0.00832606 </v>
   <v>       0.12927337       0.62719437       0.99187698 </v>
   <v>       0.37414154       0.62756302       0.99024173 </v>
   <v>       0.62558511       0.62559161       0.99752057 </v>
   <v>       0.87412476       0.62820012       0.99873846 </v>
   <v>       0.12587524       0.87179988       0.00126154 </v>
   <v>       0.37441489       0.87440839       0.00247943 </v>
   <v>       0.62585846       0.87243698       0.00975827 </v>
   <v>       0.87072663       0.87280563       0.00812302 </v>
   <v>       0.61283966       0.14362792       0.25051329 </v>
   <v>       0.87341063       0.10392641       0.25177988 </v>
   <v>       0.12658937       0.39607359       0.74822012 </v>
   <v>       0.38716034       0.35637208       0.74948671 </v>
  </varray>
 </structure>
</modeling>
