<?xml version="1.0" encoding="ISO-8859-1"?>
<modeling>
 <generator>
  <i name="program" type="string">vasp </i>
  <i name="version" type="string">5.4.1  </i>
  <i name="subversion" type="string">05Feb16 (build Jan 25 2017 20:16:33) complex                          parallel </i>
  <i name="platform" type="string">BWXE6 </i>
  <i name="date" type="string">2019 07 05 </i>
  <i name="time" type="string">20:03:35 </i>
 </generator>
 <incar>
  <i type="string" name="SYSTEM"> STF</i>
  <i type="string" name="PREC">normal</i>
  <i type="string" name="ALGO"> Fast</i>
  <i type="int" name="ISPIN">     2</i>
  <i type="int" name="NELM">    40</i>
  <i type="int" name="NELMIN">     8</i>
  <i type="int" name="IBRION">     2</i>
  <i name="EDIFF">      0.00010000</i>
  <i name="EDIFFG">     -0.03000000</i>
  <i type="int" name="NSW">    30</i>
  <i type="int" name="ISIF">     3</i>
  <i name="ENCUT">    520.00000000</i>
  <i type="int" name="NBANDS">   768</i>
  <v name="MAGMOM">      0.60000000      0.60000000      0.60000000      0.60000000      0.60000000      0.60000000      0.60000000      0.60000000      0.60000000      0.60000000      0.60000000      0.60000000      0.60000000      0.60000000      0.60000000      0.60000000      0.60000000      0.60000000      0.60000000      0.60000000
      0.60000000      0.60000000      0.60000000      0.60000000      0.60000000      0.60000000      0.60000000      0.60000000      0.60000000      0.60000000      0.60000000      0.60000000      0.60000000      0.60000000      0.60000000      0.60000000      0.60000000      0.60000000      0.60000000      0.60000000
      5.00000000      5.00000000      5.00000000      5.00000000      5.00000000      5.00000000      5.00000000      5.00000000      5.00000000      5.00000000      5.00000000      5.00000000      5.00000000      5.00000000      5.00000000      5.00000000      5.00000000      5.00000000      5.00000000      5.00000000
      5.00000000      5.00000000      5.00000000      5.00000000      0.60000000      0.60000000      0.60000000      0.60000000      0.60000000      0.60000000      0.60000000      0.60000000      0.60000000      0.60000000      0.60000000      0.60000000      0.60000000      0.60000000      0.60000000      0.60000000
      0.60000000      0.60000000      0.60000000      0.60000000      0.60000000      0.60000000      0.60000000      0.60000000      0.60000000      0.60000000      0.60000000      0.60000000      0.60000000      0.60000000      0.60000000      0.60000000      0.60000000      0.60000000      0.60000000      0.60000000
      0.60000000      0.60000000      0.60000000      0.60000000      0.60000000      0.60000000      0.60000000      0.60000000      0.60000000      0.60000000      0.60000000      0.60000000      0.60000000      0.60000000      0.60000000      0.60000000      0.60000000      0.60000000      0.60000000      0.60000000
      0.60000000      0.60000000      0.60000000      0.60000000      0.60000000      0.60000000      0.60000000      0.60000000      0.60000000      0.60000000      0.60000000      0.60000000      0.60000000      0.60000000      0.60000000      0.60000000      0.60000000      0.60000000      0.60000000      0.60000000
      0.60000000      0.60000000      0.60000000      0.60000000      0.60000000      0.60000000      0.60000000      0.60000000</v>
  <i type="string" name="LREAL"> Auto</i>
  <i type="int" name="ISMEAR">     0</i>
  <i name="SIGMA">      0.05000000</i>
  <i type="int" name="LMAXMIX">     4</i>
  <v type="int" name="KPOINT_BSE">    -1     0     0     0</v>
  <i type="int" name="NELM">    40</i>
  <i type="logical" name="LDAU"> T  </i>
  <v type="int" name="LDAUTYPE">     2</v>
  <v type="int" name="LDAUL">     0     2     2     0</v>
  <v name="LDAUU">      0.00000000      3.00000000      5.00000000      0.00000000</v>
  <v name="LDAUJ">      0.00000000      0.00000000      0.00000000      0.00000000</v>
  <i type="int" name="LDAUPRINT">     1</i>
 </incar>
 <kpoints>
  <generation param="Monkhorst-Pack">
   <v type="int" name="divisions">       2        2        2 </v>
   <v name="usershift">      0.00000000       0.00000000       0.00000000 </v>
   <v name="genvec1">      0.50000000      -0.00000000       0.00000000 </v>
   <v name="genvec2">      0.00000000       0.50000000       0.00000000 </v>
   <v name="genvec3">      0.00000000      -0.00000000       0.50000000 </v>
   <v name="shift">      0.50000000       0.50000000       0.50000000 </v>
  </generation>
  <varray name="kpointlist" >
   <v>       0.25000000       0.25000000       0.25000000 </v>
   <v>      -0.25000000       0.25000000       0.25000000 </v>
   <v>       0.25000000      -0.25000000       0.25000000 </v>
   <v>      -0.25000000      -0.25000000       0.25000000 </v>
  </varray>
  <varray name="weights" >
   <v>       0.25000000 </v>
   <v>       0.25000000 </v>
   <v>       0.25000000 </v>
   <v>       0.25000000 </v>
  </varray>
 </kpoints>
 <parameters>
  <separator name="general" >
   <i type="string" name="SYSTEM">STF</i>
   <i type="logical" name="LCOMPAT"> F  </i>
  </separator>
  <separator name="electronic" >
   <i type="string" name="PREC">normal</i>
   <i name="ENMAX">    520.00000000</i>
   <i name="ENAUG">    605.39200000</i>
   <i name="EDIFF">      0.00010000</i>
   <i type="int" name="IALGO">    68</i>
   <i type="int" name="IWAVPR">    11</i>
   <i type="int" name="NBANDS">   768</i>
   <i name="NELECT">   1048.00000000</i>
   <i type="int" name="TURBO">     0</i>
   <i type="int" name="IRESTART">     0</i>
   <i type="int" name="NREBOOT">     0</i>
   <i type="int" name="NMIN">     0</i>
   <i name="EREF">      0.00000000</i>
   <separator name="electronic smearing" >
    <i type="int" name="ISMEAR">     0</i>
    <i name="SIGMA">      0.05000000</i>
    <i name="KSPACING">      0.50000000</i>
    <i type="logical" name="KGAMMA"> T  </i>
   </separator>
   <separator name="electronic projectors" >
    <i type="logical" name="LREAL"> T  </i>
    <v name="ROPT">     -0.00050000     -0.00050000     -0.00050000     -0.00050000</v>
    <i type="int" name="LMAXPAW">  -100</i>
    <i type="int" name="LMAXMIX">     4</i>
    <i type="logical" name="NLSPLINE"> F  </i>
   </separator>
   <separator name="electronic startup" >
    <i type="int" name="ISTART">     1</i>
    <i type="int" name="ICHARG">     0</i>
    <i type="int" name="INIWAV">     1</i>
   </separator>
   <separator name="electronic spin" >
    <i type="int" name="ISPIN">     2</i>
    <i type="logical" name="LNONCOLLINEAR"> F  </i>
    <v name="MAGMOM">      0.60000000      0.60000000      0.60000000      0.60000000      0.60000000      0.60000000      0.60000000      0.60000000      0.60000000      0.60000000      0.60000000      0.60000000      0.60000000      0.60000000      0.60000000      0.60000000      0.60000000      0.60000000      0.60000000      0.60000000
      0.60000000      0.60000000      0.60000000      0.60000000      0.60000000      0.60000000      0.60000000      0.60000000      0.60000000      0.60000000      0.60000000      0.60000000      0.60000000      0.60000000      0.60000000      0.60000000      0.60000000      0.60000000      0.60000000      0.60000000
      5.00000000      5.00000000      5.00000000      5.00000000      5.00000000      5.00000000      5.00000000      5.00000000      5.00000000      5.00000000      5.00000000      5.00000000      5.00000000      5.00000000      5.00000000      5.00000000      5.00000000      5.00000000      5.00000000      5.00000000
      5.00000000      5.00000000      5.00000000      5.00000000      0.60000000      0.60000000      0.60000000      0.60000000      0.60000000      0.60000000      0.60000000      0.60000000      0.60000000      0.60000000      0.60000000      0.60000000      0.60000000      0.60000000      0.60000000      0.60000000
      0.60000000      0.60000000      0.60000000      0.60000000      0.60000000      0.60000000      0.60000000      0.60000000      0.60000000      0.60000000      0.60000000      0.60000000      0.60000000      0.60000000      0.60000000      0.60000000      0.60000000      0.60000000      0.60000000      0.60000000
      0.60000000      0.60000000      0.60000000      0.60000000      0.60000000      0.60000000      0.60000000      0.60000000      0.60000000      0.60000000      0.60000000      0.60000000      0.60000000      0.60000000      0.60000000      0.60000000      0.60000000      0.60000000      0.60000000      0.60000000
      0.60000000      0.60000000      0.60000000      0.60000000      0.60000000      0.60000000      0.60000000      0.60000000      0.60000000      0.60000000      0.60000000      0.60000000      0.60000000      0.60000000      0.60000000      0.60000000      0.60000000      0.60000000      0.60000000      0.60000000
      0.60000000      0.60000000      0.60000000      0.60000000      0.60000000      0.60000000      0.60000000      0.60000000</v>
    <i name="NUPDOWN">     -1.00000000</i>
    <i type="logical" name="LSORBIT"> F  </i>
    <v name="SAXIS">      0.00000000      0.00000000      1.00000000</v>
    <i type="logical" name="LSPIRAL"> F  </i>
    <v name="QSPIRAL">      0.00000000      0.00000000      0.00000000</v>
    <i type="logical" name="LZEROZ"> F  </i>
   </separator>
   <separator name="electronic exchange-correlation" >
    <i type="logical" name="LASPH"> F  </i>
    <i type="logical" name="LMETAGGA"> F  </i>
   </separator>
   <separator name="electronic convergence" >
    <i type="int" name="NELM">    40</i>
    <i type="int" name="NELMDL">     0</i>
    <i type="int" name="NELMIN">     8</i>
    <i name="ENINI">    520.00000000</i>
    <separator name="electronic convergence detail" >
     <i type="logical" name="LDIAG"> T  </i>
     <i type="logical" name="LSUBROT"> F  </i>
     <i name="WEIMIN">      0.00100000</i>
     <i name="EBREAK">      0.00000003</i>
     <i name="DEPER">      0.30000000</i>
     <i type="int" name="NRMM">     4</i>
     <i name="TIME">      0.40000000</i>
    </separator>
   </separator>
   <separator name="electronic mixer" >
    <i name="AMIX">      0.40000000</i>
    <i name="BMIX">      1.00000000</i>
    <i name="AMIN">      0.10000000</i>
    <i name="AMIX_MAG">      1.60000000</i>
    <i name="BMIX_MAG">      1.00000000</i>
    <separator name="electronic mixer details" >
     <i type="int" name="IMIX">     4</i>
     <i type="logical" name="MIXFIRST"> F  </i>
     <i type="int" name="MAXMIX">   -45</i>
     <i name="WC">    100.00000000</i>
     <i type="int" name="INIMIX">     1</i>
     <i type="int" name="MIXPRE">     1</i>
     <i type="int" name="MREMOVE">     5</i>
    </separator>
   </separator>
   <separator name="electronic dipolcorrection" >
    <i type="logical" name="LDIPOL"> F  </i>
    <i type="logical" name="LMONO"> F  </i>
    <i type="int" name="IDIPOL">     0</i>
    <i name="EPSILON">      1.00000000</i>
    <v name="DIPOL">   -100.00000000   -100.00000000   -100.00000000</v>
    <i name="EFIELD">      0.00000000</i>
   </separator>
  </separator>
  <separator name="grids" >
   <i type="int" name="NGX">    64</i>
   <i type="int" name="NGY">    64</i>
   <i type="int" name="NGZ">    90</i>
   <i type="int" name="NGXF">   128</i>
   <i type="int" name="NGYF">   128</i>
   <i type="int" name="NGZF">   180</i>
   <i type="logical" name="ADDGRID"> F  </i>
  </separator>
  <separator name="ionic" >
   <i type="int" name="NSW">    30</i>
   <i type="int" name="IBRION">     2</i>
   <i type="int" name="ISIF">     3</i>
   <i name="PSTRESS">      0.00000000</i>
   <i name="EDIFFG">     -0.03000000</i>
   <i type="int" name="NFREE">     1</i>
   <i name="POTIM">      0.50000000</i>
   <i name="SMASS">     -3.00000000</i>
   <i name="SCALEE">      1.00000000</i>
  </separator>
  <separator name="ionic md" >
   <i name="TEBEG">      0.00010000</i>
   <i name="TEEND">      0.00010000</i>
   <i type="int" name="NBLOCK">     1</i>
   <i type="int" name="KBLOCK">    30</i>
   <i type="int" name="NPACO">   256</i>
   <i name="APACO">     16.00000000</i>
  </separator>
  <separator name="symmetry" >
   <i type="int" name="ISYM">     2</i>
   <i name="SYMPREC">      0.00001000</i>
  </separator>
  <separator name="dos" >
   <i type="logical" name="LORBIT"> F  </i>
   <v name="RWIGS">     -1.00000000     -1.00000000     -1.00000000     -1.00000000</v>
   <i type="int" name="NEDOS">   301</i>
   <i name="EMIN">     10.00000000</i>
   <i name="EMAX">    -10.00000000</i>
   <i name="EFERMI">      0.00000000</i>
  </separator>
  <separator name="writing" >
   <i type="int" name="NWRITE">     2</i>
   <i type="logical" name="LWAVE"> T  </i>
   <i type="logical" name="LCHARG"> T  </i>
   <i type="logical" name="LPARD"> F  </i>
   <i type="logical" name="LVTOT"> F  </i>
   <i type="logical" name="LVHAR"> F  </i>
   <i type="logical" name="LELF"> F  </i>
   <i type="logical" name="LOPTICS"> F  </i>
   <v name="STM">      0.00000000      0.00000000      0.00000000      0.00000000      0.00000000      0.00000000      0.00000000</v>
  </separator>
  <separator name="performance" >
   <i type="int" name="NPAR">     2</i>
   <i type="int" name="NSIM">     4</i>
   <i type="int" name="NBLK">    -1</i>
   <i type="logical" name="LPLANE"> T  </i>
   <i type="logical" name="LSCALAPACK"> T  </i>
   <i type="logical" name="LSCAAWARE"> F  </i>
   <i type="logical" name="LSCALU"> F  </i>
   <i type="logical" name="LASYNC"> F  </i>
   <i type="logical" name="LORBITALREAL"> F  </i>
  </separator>
  <separator name="miscellaneous" >
   <i type="int" name="IDIOT">     3</i>
   <i type="logical" name="LMUSIC"> F  </i>
   <v name="POMASS">     87.62000000     47.88000000     55.84700000     16.00000000</v>
   <v name="DARWINR">      0.00000000      0.00000000      0.00000000      0.00000000</v>
   <v name="DARWINV">      1.00000000      1.00000000      1.00000000      1.00000000</v>
   <i type="logical" name="LCORR"> T  </i>
  </separator>
  <i type="logical" name="GGA_COMPAT"> T  </i>
  <i type="logical" name="LBERRY"> F  </i>
  <i type="int" name="ICORELEVEL">     0</i>
  <i type="logical" name="LDAU"> T  </i>
  <v type="int" name="LDAUTYPE">     2</v>
  <v type="int" name="LDAUL">     0</v>
  <v name="LDAUU">      0.00000000</v>
  <v name="LDAUJ">      0.00000000</v>
  <i type="int" name="LDAUPRINT">     1</i>
  <i type="int" name="I_CONSTRAINED_M">     0</i>
  <separator name="electronic exchange-correlation" >
   <i type="string" name="GGA">--</i>
   <i type="int" name="VOSKOWN">     0</i>
   <i type="logical" name="LHFCALC"> F  </i>
   <i type="string" name="PRECFOCK"></i>
   <i type="logical" name="LSYMGRAD"> F  </i>
   <i type="logical" name="LHFONE"> F  </i>
   <i type="logical" name="LRHFCALC"> F  </i>
   <i type="logical" name="LTHOMAS"> F  </i>
   <i type="logical" name="LMODELHF"> F  </i>
   <i name="ENCUT4O">     -1.00000000</i>
   <i type="int" name="EXXOEP">     0</i>
   <i type="int" name="FOURORBIT">     0</i>
   <i name="AEXX">      0.00000000</i>
   <i name="HFALPHA">      0.00000000</i>
   <i name="MCALPHA">      0.00000000</i>
   <i name="ALDAX">      1.00000000</i>
   <i name="AGGAX">      1.00000000</i>
   <i name="ALDAC">      1.00000000</i>
   <i name="AGGAC">      1.00000000</i>
   <i type="int" name="NKREDX">     1</i>
   <i type="int" name="NKREDY">     1</i>
   <i type="int" name="NKREDZ">     1</i>
   <i type="logical" name="SHIFTRED"> F  </i>
   <i type="logical" name="ODDONLY"> F  </i>
   <i type="logical" name="EVENONLY"> F  </i>
   <i type="int" name="LMAXFOCK">     0</i>
   <i type="int" name="NMAXFOCKAE">     0</i>
   <i type="logical" name="LFOCKAEDFT"> F  </i>
   <i name="HFSCREEN">      0.00000000</i>
   <i name="HFSCREENC">      0.00000000</i>
   <i type="int" name="NBANDSGWLOW">     0</i>
  </separator>
  <separator name="vdW DFT" >
   <i type="logical" name="LUSE_VDW"> F  </i>
   <i name="Zab_VDW">     -0.84910000</i>
   <i name="PARAM1">      0.12340000</i>
   <i name="PARAM2">      1.00000000</i>
   <i name="PARAM3">      0.00000000</i>
  </separator>
  <separator name="model GW" >
   <i type="int" name="MODEL_GW">     0</i>
   <i name="MODEL_EPS0">      8.09286927</i>
   <i name="MODEL_ALPHA">      1.00000000</i>
  </separator>
  <separator name="linear response parameters" >
   <i type="logical" name="LEPSILON"> F  </i>
   <i type="logical" name="LRPA"> F  </i>
   <i type="logical" name="LNABLA"> F  </i>
   <i type="logical" name="LVEL"> F  </i>
   <i type="int" name="KINTER">     0</i>
   <i name="CSHIFT">      0.10000000</i>
   <i name="OMEGAMAX">     -1.00000000</i>
   <i name="DEG_THRESHOLD">      0.00200000</i>
  </separator>
  <separator name="orbital magnetization" >
   <i type="logical" name="NUCIND"> F  </i>
   <v name="MAGPOS">      0.00000000      0.00000000      0.00000000</v>
   <i type="logical" name="LNICSALL"> T  </i>
   <i type="logical" name="ORBITALMAG"> F  </i>
   <i type="logical" name="LMAGBLOCH"> F  </i>
   <i type="logical" name="LCHIMAG"> F  </i>
   <i type="logical" name="LGAUGE"> T  </i>
   <i type="int" name="MAGATOM">     0</i>
   <v name="MAGDIPOL">      0.00000000      0.00000000      0.00000000</v>
   <v name="AVECCONST">      0.00000000      0.00000000      0.00000000</v>
  </separator>
  <separator name="response functions" >
   <i type="logical" name="LADDER"> F  </i>
   <i type="logical" name="LFXC"> F  </i>
   <i type="logical" name="LHARTREE"> T  </i>
   <i type="int" name="IBSE">     0</i>
   <v type="int" name="KPOINT">    -1     0     0     0</v>
   <i type="logical" name="LTCTE"> F  </i>
   <i type="logical" name="LTETE"> F  </i>
   <i type="logical" name="LTRIPLET"> F  </i>
   <i type="logical" name="LFXCEPS"> F  </i>
   <i type="logical" name="LFXHEG"> F  </i>
   <i type="int" name="NATURALO">     0</i>
   <i type="logical" name="L2ORDER"> F  </i>
   <i type="logical" name="LUSEW"> F  </i>
   <i name="ENCUTGW">     -2.00000000</i>
   <i name="ENCUTGWSOFT">     -2.00000000</i>
   <i name="ENCUTLF">     -1.00000000</i>
   <i type="int" name="LMAXMP2">    -1</i>
   <i name="SCISSOR">      0.00000000</i>
   <i type="int" name="NOMEGA">     0</i>
   <i type="int" name="NOMEGAR">     0</i>
   <i type="int" name="NBANDSGW">    -1</i>
   <i type="int" name="NBANDSO">    -1</i>
   <i type="int" name="NBANDSV">    -1</i>
   <i type="int" name="NELM">    40</i>
   <i type="int" name="NELMHF">     1</i>
   <i type="int" name="DIM">     3</i>
   <i type="int" name="ANTIRES">     0</i>
   <i name="OMEGAMAX">    -30.00000000</i>
   <i name="OMEGAMIN">    -30.00000000</i>
   <i name="OMEGATL">   -200.00000000</i>
   <i type="int" name="OMEGAGRID">     0</i>
   <i name="CSHIFT">     -0.10000000</i>
   <i type="logical" name="SELFENERGY"> F  </i>
   <i type="logical" name="LSPECTRAL"> F  </i>
   <i type="logical" name="LSPECTRALGW"> F  </i>
   <i type="logical" name="LSINGLES"> F  </i>
   <i type="logical" name="LFERMIGW"> F  </i>
   <i type="logical" name="ODDONLYGW"> F  </i>
   <i type="logical" name="EVENONLYGW"> F  </i>
   <i type="int" name="NKREDLFX">     1</i>
   <i type="int" name="NKREDLFY">     1</i>
   <i type="int" name="NKREDLFZ">     1</i>
   <i type="int" name="MAXMEM">  1800</i>
   <i type="int" name="TELESCOPE">     0</i>
   <i type="int" name="TAUPAR">     1</i>
   <i type="int" name="OMEGAPAR">    -1</i>
   <i name="LAMBDA">      1.00000000</i>
  </separator>
  <separator name="External order field" >
   <i name="OFIELD_KAPPA">      0.00000000</i>
   <v name="OFIELD_K">      0.00000000      0.00000000      0.00000000</v>
   <i name="OFIELD_Q6_NEAR">      0.00000000</i>
   <i name="OFIELD_Q6_FAR">      0.00000000</i>
   <i name="OFIELD_A">      0.00000000</i>
  </separator>
 </parameters>
 <atominfo>
  <atoms>     148 </atoms>
  <types>       4 </types>
  <array name="atoms" >
   <dimension dim="1">ion</dimension>
   <field type="string">element</field>
   <field type="int">atomtype</field>
   <set>
    <rc><c>Sr</c><c>   1</c></rc>
    <rc><c>Sr</c><c>   1</c></rc>
    <rc><c>Sr</c><c>   1</c></rc>
    <rc><c>Sr</c><c>   1</c></rc>
    <rc><c>Sr</c><c>   1</c></rc>
    <rc><c>Sr</c><c>   1</c></rc>
    <rc><c>Sr</c><c>   1</c></rc>
    <rc><c>Sr</c><c>   1</c></rc>
    <rc><c>Sr</c><c>   1</c></rc>
    <rc><c>Sr</c><c>   1</c></rc>
    <rc><c>Sr</c><c>   1</c></rc>
    <rc><c>Sr</c><c>   1</c></rc>
    <rc><c>Sr</c><c>   1</c></rc>
    <rc><c>Sr</c><c>   1</c></rc>
    <rc><c>Sr</c><c>   1</c></rc>
    <rc><c>Sr</c><c>   1</c></rc>
    <rc><c>Sr</c><c>   1</c></rc>
    <rc><c>Sr</c><c>   1</c></rc>
    <rc><c>Sr</c><c>   1</c></rc>
    <rc><c>Sr</c><c>   1</c></rc>
    <rc><c>Sr</c><c>   1</c></rc>
    <rc><c>Sr</c><c>   1</c></rc>
    <rc><c>Sr</c><c>   1</c></rc>
    <rc><c>Sr</c><c>   1</c></rc>
    <rc><c>Sr</c><c>   1</c></rc>
    <rc><c>Sr</c><c>   1</c></rc>
    <rc><c>Sr</c><c>   1</c></rc>
    <rc><c>Sr</c><c>   1</c></rc>
    <rc><c>Sr</c><c>   1</c></rc>
    <rc><c>Sr</c><c>   1</c></rc>
    <rc><c>Sr</c><c>   1</c></rc>
    <rc><c>Sr</c><c>   1</c></rc>
    <rc><c>Ti</c><c>   2</c></rc>
    <rc><c>Ti</c><c>   2</c></rc>
    <rc><c>Ti</c><c>   2</c></rc>
    <rc><c>Ti</c><c>   2</c></rc>
    <rc><c>Ti</c><c>   2</c></rc>
    <rc><c>Ti</c><c>   2</c></rc>
    <rc><c>Ti</c><c>   2</c></rc>
    <rc><c>Ti</c><c>   2</c></rc>
    <rc><c>Fe</c><c>   3</c></rc>
    <rc><c>Fe</c><c>   3</c></rc>
    <rc><c>Fe</c><c>   3</c></rc>
    <rc><c>Fe</c><c>   3</c></rc>
    <rc><c>Fe</c><c>   3</c></rc>
    <rc><c>Fe</c><c>   3</c></rc>
    <rc><c>Fe</c><c>   3</c></rc>
    <rc><c>Fe</c><c>   3</c></rc>
    <rc><c>Fe</c><c>   3</c></rc>
    <rc><c>Fe</c><c>   3</c></rc>
    <rc><c>Fe</c><c>   3</c></rc>
    <rc><c>Fe</c><c>   3</c></rc>
    <rc><c>Fe</c><c>   3</c></rc>
    <rc><c>Fe</c><c>   3</c></rc>
    <rc><c>Fe</c><c>   3</c></rc>
    <rc><c>Fe</c><c>   3</c></rc>
    <rc><c>Fe</c><c>   3</c></rc>
    <rc><c>Fe</c><c>   3</c></rc>
    <rc><c>Fe</c><c>   3</c></rc>
    <rc><c>Fe</c><c>   3</c></rc>
    <rc><c>Fe</c><c>   3</c></rc>
    <rc><c>Fe</c><c>   3</c></rc>
    <rc><c>Fe</c><c>   3</c></rc>
    <rc><c>Fe</c><c>   3</c></rc>
    <rc><c>O </c><c>   4</c></rc>
    <rc><c>O </c><c>   4</c></rc>
    <rc><c>O </c><c>   4</c></rc>
    <rc><c>O </c><c>   4</c></rc>
    <rc><c>O </c><c>   4</c></rc>
    <rc><c>O </c><c>   4</c></rc>
    <rc><c>O </c><c>   4</c></rc>
    <rc><c>O </c><c>   4</c></rc>
    <rc><c>O </c><c>   4</c></rc>
    <rc><c>O </c><c>   4</c></rc>
    <rc><c>O </c><c>   4</c></rc>
    <rc><c>O </c><c>   4</c></rc>
    <rc><c>O </c><c>   4</c></rc>
    <rc><c>O </c><c>   4</c></rc>
    <rc><c>O </c><c>   4</c></rc>
    <rc><c>O </c><c>   4</c></rc>
    <rc><c>O </c><c>   4</c></rc>
    <rc><c>O </c><c>   4</c></rc>
    <rc><c>O </c><c>   4</c></rc>
    <rc><c>O </c><c>   4</c></rc>
    <rc><c>O </c><c>   4</c></rc>
    <rc><c>O </c><c>   4</c></rc>
    <rc><c>O </c><c>   4</c></rc>
    <rc><c>O </c><c>   4</c></rc>
    <rc><c>O </c><c>   4</c></rc>
    <rc><c>O </c><c>   4</c></rc>
    <rc><c>O </c><c>   4</c></rc>
    <rc><c>O </c><c>   4</c></rc>
    <rc><c>O </c><c>   4</c></rc>
    <rc><c>O </c><c>   4</c></rc>
    <rc><c>O </c><c>   4</c></rc>
    <rc><c>O </c><c>   4</c></rc>
    <rc><c>O </c><c>   4</c></rc>
    <rc><c>O </c><c>   4</c></rc>
    <rc><c>O </c><c>   4</c></rc>
    <rc><c>O </c><c>   4</c></rc>
    <rc><c>O </c><c>   4</c></rc>
    <rc><c>O </c><c>   4</c></rc>
    <rc><c>O </c><c>   4</c></rc>
    <rc><c>O </c><c>   4</c></rc>
    <rc><c>O </c><c>   4</c></rc>
    <rc><c>O </c><c>   4</c></rc>
    <rc><c>O </c><c>   4</c></rc>
    <rc><c>O </c><c>   4</c></rc>
    <rc><c>O </c><c>   4</c></rc>
    <rc><c>O </c><c>   4</c></rc>
    <rc><c>O </c><c>   4</c></rc>
    <rc><c>O </c><c>   4</c></rc>
    <rc><c>O </c><c>   4</c></rc>
    <rc><c>O </c><c>   4</c></rc>
    <rc><c>O </c><c>   4</c></rc>
    <rc><c>O </c><c>   4</c></rc>
    <rc><c>O </c><c>   4</c></rc>
    <rc><c>O </c><c>   4</c></rc>
    <rc><c>O </c><c>   4</c></rc>
    <rc><c>O </c><c>   4</c></rc>
    <rc><c>O </c><c>   4</c></rc>
    <rc><c>O </c><c>   4</c></rc>
    <rc><c>O </c><c>   4</c></rc>
    <rc><c>O </c><c>   4</c></rc>
    <rc><c>O </c><c>   4</c></rc>
    <rc><c>O </c><c>   4</c></rc>
    <rc><c>O </c><c>   4</c></rc>
    <rc><c>O </c><c>   4</c></rc>
    <rc><c>O </c><c>   4</c></rc>
    <rc><c>O </c><c>   4</c></rc>
    <rc><c>O </c><c>   4</c></rc>
    <rc><c>O </c><c>   4</c></rc>
    <rc><c>O </c><c>   4</c></rc>
    <rc><c>O </c><c>   4</c></rc>
    <rc><c>O </c><c>   4</c></rc>
    <rc><c>O </c><c>   4</c></rc>
    <rc><c>O </c><c>   4</c></rc>
    <rc><c>O </c><c>   4</c></rc>
    <rc><c>O </c><c>   4</c></rc>
    <rc><c>O </c><c>   4</c></rc>
    <rc><c>O </c><c>   4</c></rc>
    <rc><c>O </c><c>   4</c></rc>
    <rc><c>O </c><c>   4</c></rc>
    <rc><c>O </c><c>   4</c></rc>
    <rc><c>O </c><c>   4</c></rc>
    <rc><c>O </c><c>   4</c></rc>
    <rc><c>O </c><c>   4</c></rc>
    <rc><c>O </c><c>   4</c></rc>
   </set>
  </array>
  <array name="atomtypes" >
   <dimension dim="1">type</dimension>
   <field type="int">atomspertype</field>
   <field type="string">element</field>
   <field>mass</field>
   <field>valence</field>
   <field type="string">pseudopotential</field>
   <set>
    <rc><c>  32</c><c>Sr</c><c>     87.62000000</c><c>     10.00000000</c><c>  PAW_PBE Sr_sv 07Sep2000               </c></rc>
    <rc><c>   8</c><c>Ti</c><c>     47.88000000</c><c>      4.00000000</c><c>  PAW_PBE Ti 08Apr2002                  </c></rc>
    <rc><c>  24</c><c>Fe</c><c>     55.84700000</c><c>      8.00000000</c><c>  PAW_PBE Fe 06Sep2000                  </c></rc>
    <rc><c>  84</c><c>O </c><c>     16.00000000</c><c>      6.00000000</c><c>  PAW_PBE O 08Apr2002                   </c></rc>
   </set>
  </array>
 </atominfo>
 <structure name="initialpos" >
  <crystal>
   <varray name="basis" >
    <v>      11.21461431      -0.05587315      -0.02421522 </v>
    <v>      -0.05591878      11.22722785      -0.02775990 </v>
    <v>      -0.03481271      -0.03841011      15.85519443 </v>
   </varray>
   <i name="volume">   1996.24108653 </i>
   <varray name="rec_basis" >
    <v>       0.08917200       0.00044462       0.00019687 </v>
    <v>       0.00044424       0.08907193       0.00021676 </v>
    <v>       0.00013697       0.00015663       0.06307149 </v>
   </varray>
  </crystal>
  <varray name="positions" >
   <v>       0.00541250       0.26482886       0.12067233 </v>
   <v>       0.98843316       0.26167015       0.61621297 </v>
   <v>       0.00077344       0.74013796       0.12629009 </v>
   <v>       0.99032549       0.73927451       0.61910093 </v>
   <v>       0.48203717       0.24263422       0.12387727 </v>
   <v>       0.49796756       0.24541795       0.61208786 </v>
   <v>       0.49950327       0.74725566       0.11506447 </v>
   <v>       0.51128471       0.75442450       0.61971839 </v>
   <v>       0.00266554       0.26190907       0.36782104 </v>
   <v>       0.99373422       0.25299690       0.88691906 </v>
   <v>       0.99506795       0.73236498       0.37377314 </v>
   <v>       0.00013048       0.74021767       0.87722820 </v>
   <v>       0.48457232       0.25732417       0.38082193 </v>
   <v>       0.49147283       0.23630796       0.87066384 </v>
   <v>       0.50720752       0.74349570       0.38525510 </v>
   <v>       0.51315453       0.76335908       0.87047517 </v>
   <v>       0.22937659       0.00751844       0.12450001 </v>
   <v>       0.27509937       0.99291054       0.61919679 </v>
   <v>       0.23890626       0.49403782       0.12837533 </v>
   <v>       0.24784830       0.49836206       0.61093924 </v>
   <v>       0.74737005       0.99086715       0.11851316 </v>
   <v>       0.73875992       0.99414144       0.62119290 </v>
   <v>       0.75878618       0.51750715       0.12647342 </v>
   <v>       0.74248710       0.51152643       0.61664764 </v>
   <v>       0.24541213       0.00257181       0.37324259 </v>
   <v>       0.26298557       0.99782922       0.88240722 </v>
   <v>       0.24500294       0.49529168       0.37146274 </v>
   <v>       0.24148748       0.49259337       0.87855894 </v>
   <v>       0.74542192       0.99009357       0.38883849 </v>
   <v>       0.73816239       0.99325448       0.87767551 </v>
   <v>       0.75078936       0.51635414       0.38243742 </v>
   <v>       0.75867383       0.51574806       0.87369292 </v>
   <v>       0.48852802       0.50385933       0.99695476 </v>
   <v>       0.24617005       0.24798139       0.00083001 </v>
   <v>       0.25164665       0.75030704       0.49139493 </v>
   <v>       0.74645221       0.24791621       0.49251472 </v>
   <v>       0.24690980       0.23345891       0.74421301 </v>
   <v>       0.25343583       0.74378811       0.74155737 </v>
   <v>       0.49696474       0.50491759       0.25035069 </v>
   <v>       0.49720676       0.50592455       0.75104761 </v>
   <v>       0.00099722       0.00456931       0.00102940 </v>
   <v>       0.98805773       0.98726030       0.48337523 </v>
   <v>       0.00030558       0.50469218       0.99877239 </v>
   <v>       0.99819120       0.49653010       0.49599613 </v>
   <v>       0.49879517       0.99929942       0.99854809 </v>
   <v>       0.49986038       0.99722240       0.49645141 </v>
   <v>       0.49710890       0.50442961       0.49908007 </v>
   <v>       0.25343620       0.25573205       0.49700232 </v>
   <v>       0.24611026       0.75720724       0.01266890 </v>
   <v>       0.74652149       0.23805830       0.02274088 </v>
   <v>       0.74240918       0.74208155       0.99812797 </v>
   <v>       0.75079454       0.75007411       0.50263760 </v>
   <v>       0.24119754       0.24839518       0.24907815 </v>
   <v>       0.24034937       0.74015689       0.24895655 </v>
   <v>       0.74561267       0.28040353       0.25405247 </v>
   <v>       0.73263915       0.26511339       0.73350897 </v>
   <v>       0.75787026       0.74907151       0.25033616 </v>
   <v>       0.75222666       0.75543849       0.74813996 </v>
   <v>       0.00286685       0.99138280       0.24976166 </v>
   <v>       0.01567795       0.98515398       0.76848119 </v>
   <v>       0.00020990       0.49679135       0.24848929 </v>
   <v>       0.98912882       0.50974076       0.75171356 </v>
   <v>       0.48144940       0.00252926       0.24606435 </v>
   <v>       0.50631888       0.99529304       0.74986455 </v>
   <v>       0.09246169       0.13503462       0.22932164 </v>
   <v>       0.23113972       0.24634719       0.86855501 </v>
   <v>       0.11802489       0.62921675       0.24899904 </v>
   <v>       0.13210667       0.62100541       0.76483600 </v>
   <v>       0.65803597       0.12809083       0.77222093 </v>
   <v>       0.60622248       0.66342832       0.24565994 </v>
   <v>       0.62317923       0.61988100       0.76081124 </v>
   <v>       0.38983907       0.36587613       0.24901990 </v>
   <v>       0.32918881       0.38268789       0.74151310 </v>
   <v>       0.37774319       0.86636040       0.74862531 </v>
   <v>       0.89142287       0.35596132       0.23918211 </v>
   <v>       0.87349740       0.34928526       0.76240862 </v>
   <v>       0.84187088       0.91461015       0.25582047 </v>
   <v>       0.88977459       0.90295976       0.72048828 </v>
   <v>       0.35356322       0.11081111       0.24453953 </v>
   <v>       0.36997552       0.12531719       0.74831285 </v>
   <v>       0.36880356       0.62034516       0.23545390 </v>
   <v>       0.37270642       0.62776616       0.78115370 </v>
   <v>       0.08303266       0.13912105       0.74584850 </v>
   <v>       0.87155927       0.62644007       0.24735753 </v>
   <v>       0.87438854       0.62927707       0.74885596 </v>
   <v>       0.13561107       0.38461279       0.25062912 </v>
   <v>       0.12576644       0.87808059       0.25336530 </v>
   <v>       0.14018028       0.87031988       0.77354654 </v>
   <v>       0.64389391       0.40992433       0.25979354 </v>
   <v>       0.60037603       0.36607915       0.73636079 </v>
   <v>       0.63076145       0.87547119       0.74983122 </v>
   <v>       0.38327739       0.36169152       0.99529478 </v>
   <v>       0.37695414       0.37127981       0.50378722 </v>
   <v>       0.37372688       0.86008821       0.97906240 </v>
   <v>       0.37802695       0.86975962       0.50823290 </v>
   <v>       0.84377959       0.37655501       0.00013207 </v>
   <v>       0.86960799       0.36953404       0.49552632 </v>
   <v>       0.87766288       0.87156465       0.51921196 </v>
   <v>       0.11586630       0.12832604       0.00231942 </v>
   <v>       0.13305772       0.63057571       0.99168162 </v>
   <v>       0.12218450       0.63195872       0.49145801 </v>
   <v>       0.60647307       0.14646593       0.99293794 </v>
   <v>       0.61770185       0.12677931       0.49110133 </v>
   <v>       0.62785659       0.61454549       0.99284083 </v>
   <v>       0.62314121       0.62323065       0.49885691 </v>
   <v>       0.12288724       0.37382000       0.99831162 </v>
   <v>       0.11916278       0.36624917       0.49636583 </v>
   <v>       0.11729223       0.87477786       0.98997013 </v>
   <v>       0.12780659       0.89410444       0.50124939 </v>
   <v>       0.62493054       0.37135714       0.49633970 </v>
   <v>       0.63670151       0.88003071       0.99504646 </v>
   <v>       0.62693942       0.87555470       0.50359662 </v>
   <v>       0.36167225       0.11413934       0.00424713 </v>
   <v>       0.36188544       0.11512851       0.49466349 </v>
   <v>       0.37233030       0.61775801       0.99760796 </v>
   <v>       0.36655216       0.62458292       0.49777610 </v>
   <v>       0.86442161       0.10680859       0.99968785 </v>
   <v>       0.88619429       0.11594988       0.50670439 </v>
   <v>       0.88235262       0.64005572       0.99753220 </v>
   <v>       0.87442722       0.62071350       0.50594506 </v>
   <v>       0.98004839       0.97118683       0.11652600 </v>
   <v>       0.00114862       0.50273556       0.12087444 </v>
   <v>       0.01416887       0.48473097       0.63376880 </v>
   <v>       0.51108147       0.97538058       0.13018957 </v>
   <v>       0.50531188       0.01395713       0.62812680 </v>
   <v>       0.52219938       0.47980022       0.11609486 </v>
   <v>       0.48628657       0.51823760       0.63064598 </v>
   <v>       0.01705826       0.03480118       0.37101004 </v>
   <v>       0.96801698       0.98914845       0.88097282 </v>
   <v>       0.99024623       0.50106966       0.37263404 </v>
   <v>       0.00164763       0.48533458       0.87253030 </v>
   <v>       0.51392319       0.97398220       0.36024662 </v>
   <v>       0.49555318       0.00256832       0.87251408 </v>
   <v>       0.48940481       0.50764576       0.37218043 </v>
   <v>       0.51822270       0.46475489       0.87834401 </v>
   <v>       0.23736542       0.23794663       0.37474034 </v>
   <v>       0.26860364       0.76483027       0.36968924 </v>
   <v>       0.75302796       0.21986613       0.36562763 </v>
   <v>       0.75463745       0.75595099       0.37574486 </v>
   <v>       0.76991114       0.76533660       0.87425129 </v>
   <v>       0.24763115       0.25810314       0.12191000 </v>
   <v>       0.22104678       0.22629560       0.62045268 </v>
   <v>       0.26572083       0.77993442       0.13014270 </v>
   <v>       0.24092980       0.74083422       0.62554782 </v>
   <v>       0.71078068       0.20415867       0.15295039 </v>
   <v>       0.75232732       0.23368939       0.61866985 </v>
   <v>       0.75654612       0.76171893       0.12190458 </v>
   <v>       0.74139302       0.73929859       0.62783566 </v>
  </varray>
 </structure>
 <calculation>
  <scstep>
   <time name="dav">  617.70  617.72</time>
   <time name="total">  624.98  625.03</time>
   <energy>
    <i name="alphaZ">   5629.28854146 </i>
    <i name="ewald"> -62593.95068522 </i>
    <i name="hartreedc"> -19129.81452563 </i>
    <i name="XCdc">   3403.71784546 </i>
    <i name="pawpsdc"> 116104.46423660 </i>
    <i name="pawaedc">-115607.39070880 </i>
    <i name="eentropy">     -0.00153646 </i>
    <i name="bandstr">  -7112.31624962 </i>
    <i name="atom">  78316.90445604 </i>
    <i name="e_fr_energy">   -989.09862617 </i>
    <i name="e_wo_entrp">   -989.09708971 </i>
    <i name="e_0_energy">   -989.09785794 </i>
   </energy>
  </scstep>
  <scstep>
   <time name="diag">   64.25   64.25</time>
   <time name="diis">  103.04  103.10</time>
   <time name="orth">   33.27   33.27</time>
   <time name="total">  207.88  208.04</time>
   <energy>
    <i name="e_fr_energy">   -989.07661004 </i>
    <i name="e_wo_entrp">   -989.07227495 </i>
    <i name="e_0_energy">   -989.07444249 </i>
   </energy>
  </scstep>
  <scstep>
   <time name="diag">   64.28   64.33</time>
   <time name="diis">  108.16  108.16</time>
   <time name="orth">   33.21   33.21</time>
   <time name="total">  212.97  213.06</time>
   <energy>
    <i name="e_fr_energy">   -989.07163602 </i>
    <i name="e_wo_entrp">   -989.06764823 </i>
    <i name="e_0_energy">   -989.06964212 </i>
   </energy>
  </scstep>
  <scstep>
   <time name="diag">   64.08   64.13</time>
   <time name="diis">  103.66  103.69</time>
   <time name="orth">   33.21   33.21</time>
   <time name="total">  208.30  208.39</time>
   <energy>
    <i name="e_fr_energy">   -989.06737470 </i>
    <i name="e_wo_entrp">   -989.06365193 </i>
    <i name="e_0_energy">   -989.06551331 </i>
   </energy>
  </scstep>
  <scstep>
   <time name="diag">   64.38   64.38</time>
   <time name="diis">  104.17  104.17</time>
   <time name="orth">   33.16   33.16</time>
   <time name="total">  209.02  209.09</time>
   <energy>
    <i name="e_fr_energy">   -989.06628982 </i>
    <i name="e_wo_entrp">   -989.06227665 </i>
    <i name="e_0_energy">   -989.06428323 </i>
   </energy>
  </scstep>
  <scstep>
   <time name="diag">   64.32   64.32</time>
   <time name="diis">   89.18   89.21</time>
   <time name="orth">   33.23   33.23</time>
   <time name="total">  194.05  194.15</time>
   <energy>
    <i name="e_fr_energy">   -989.06625061 </i>
    <i name="e_wo_entrp">   -989.06215388 </i>
    <i name="e_0_energy">   -989.06420225 </i>
   </energy>
  </scstep>
  <scstep>
   <time name="diag">   64.72   64.72</time>
   <time name="diis">   65.16   65.16</time>
   <time name="orth">   33.23   33.23</time>
   <time name="total">  170.51  170.56</time>
   <energy>
    <i name="e_fr_energy">   -989.06623471 </i>
    <i name="e_wo_entrp">   -989.06223429 </i>
    <i name="e_0_energy">   -989.06423450 </i>
   </energy>
  </scstep>
  <scstep>
   <time name="diag">   64.68   64.71</time>
   <time name="diis">   64.00   64.01</time>
   <time name="orth">   33.13   33.12</time>
   <time name="total">  162.87  163.00</time>
   <energy>
    <i name="alphaZ">   5629.28854146 </i>
    <i name="ewald"> -62593.95068522 </i>
    <i name="hartreedc"> -19130.12400363 </i>
    <i name="XCdc">   3403.75376329 </i>
    <i name="pawpsdc"> 116097.48027686 </i>
    <i name="pawaedc">-115600.43395003 </i>
    <i name="eentropy">     -0.00400079 </i>
    <i name="bandstr">  -7111.98062646 </i>
    <i name="atom">  78316.90445604 </i>
    <i name="e_fr_energy">   -989.06622847 </i>
    <i name="e_wo_entrp">   -989.06222769 </i>
    <i name="e_0_energy">   -989.06422808 </i>
   </energy>
  </scstep>
  <structure>
   <crystal>
    <varray name="basis" >
     <v>      11.21461431      -0.05587315      -0.02421522 </v>
     <v>      -0.05591878      11.22722785      -0.02775990 </v>
     <v>      -0.03481271      -0.03841011      15.85519443 </v>
    </varray>
    <i name="volume">   1996.24108653 </i>
    <varray name="rec_basis" >
     <v>       0.08917200       0.00044462       0.00019687 </v>
     <v>       0.00044424       0.08907193       0.00021676 </v>
     <v>       0.00013697       0.00015663       0.06307149 </v>
    </varray>
   </crystal>
   <varray name="positions" >
    <v>       0.00541250       0.26482886       0.12067233 </v>
    <v>       0.98843316       0.26167015       0.61621297 </v>
    <v>       0.00077344       0.74013796       0.12629009 </v>
    <v>       0.99032549       0.73927451       0.61910093 </v>
    <v>       0.48203717       0.24263422       0.12387727 </v>
    <v>       0.49796756       0.24541795       0.61208786 </v>
    <v>       0.49950327       0.74725566       0.11506447 </v>
    <v>       0.51128471       0.75442450       0.61971839 </v>
    <v>       0.00266554       0.26190907       0.36782104 </v>
    <v>       0.99373422       0.25299690       0.88691906 </v>
    <v>       0.99506795       0.73236498       0.37377314 </v>
    <v>       0.00013048       0.74021767       0.87722820 </v>
    <v>       0.48457232       0.25732417       0.38082193 </v>
    <v>       0.49147283       0.23630796       0.87066384 </v>
    <v>       0.50720752       0.74349570       0.38525510 </v>
    <v>       0.51315453       0.76335908       0.87047517 </v>
    <v>       0.22937659       0.00751844       0.12450001 </v>
    <v>       0.27509937       0.99291054       0.61919679 </v>
    <v>       0.23890626       0.49403782       0.12837533 </v>
    <v>       0.24784830       0.49836206       0.61093924 </v>
    <v>       0.74737005       0.99086715       0.11851316 </v>
    <v>       0.73875992       0.99414144       0.62119290 </v>
    <v>       0.75878618       0.51750715       0.12647342 </v>
    <v>       0.74248710       0.51152643       0.61664764 </v>
    <v>       0.24541213       0.00257181       0.37324259 </v>
    <v>       0.26298557       0.99782922       0.88240722 </v>
    <v>       0.24500294       0.49529168       0.37146274 </v>
    <v>       0.24148748       0.49259337       0.87855894 </v>
    <v>       0.74542192       0.99009357       0.38883849 </v>
    <v>       0.73816239       0.99325448       0.87767551 </v>
    <v>       0.75078936       0.51635414       0.38243742 </v>
    <v>       0.75867383       0.51574806       0.87369292 </v>
    <v>       0.48852802       0.50385933       0.99695476 </v>
    <v>       0.24617005       0.24798139       0.00083001 </v>
    <v>       0.25164665       0.75030704       0.49139493 </v>
    <v>       0.74645221       0.24791621       0.49251472 </v>
    <v>       0.24690980       0.23345891       0.74421301 </v>
    <v>       0.25343583       0.74378811       0.74155737 </v>
    <v>       0.49696474       0.50491759       0.25035069 </v>
    <v>       0.49720676       0.50592455       0.75104761 </v>
    <v>       0.00099722       0.00456931       0.00102940 </v>
    <v>       0.98805773       0.98726030       0.48337523 </v>
    <v>       0.00030558       0.50469218       0.99877239 </v>
    <v>       0.99819120       0.49653010       0.49599613 </v>
    <v>       0.49879517       0.99929942       0.99854809 </v>
    <v>       0.49986038       0.99722240       0.49645141 </v>
    <v>       0.49710890       0.50442961       0.49908007 </v>
    <v>       0.25343620       0.25573205       0.49700232 </v>
    <v>       0.24611026       0.75720724       0.01266890 </v>
    <v>       0.74652149       0.23805830       0.02274088 </v>
    <v>       0.74240918       0.74208155       0.99812797 </v>
    <v>       0.75079454       0.75007411       0.50263760 </v>
    <v>       0.24119754       0.24839518       0.24907815 </v>
    <v>       0.24034937       0.74015689       0.24895655 </v>
    <v>       0.74561267       0.28040353       0.25405247 </v>
    <v>       0.73263915       0.26511339       0.73350897 </v>
    <v>       0.75787026       0.74907151       0.25033616 </v>
    <v>       0.75222666       0.75543849       0.74813996 </v>
    <v>       0.00286685       0.99138280       0.24976166 </v>
    <v>       0.01567795       0.98515398       0.76848119 </v>
    <v>       0.00020990       0.49679135       0.24848929 </v>
    <v>       0.98912882       0.50974076       0.75171356 </v>
    <v>       0.48144940       0.00252926       0.24606435 </v>
    <v>       0.50631888       0.99529304       0.74986455 </v>
    <v>       0.09246169       0.13503462       0.22932164 </v>
    <v>       0.23113972       0.24634719       0.86855501 </v>
    <v>       0.11802489       0.62921675       0.24899904 </v>
    <v>       0.13210667       0.62100541       0.76483600 </v>
    <v>       0.65803597       0.12809083       0.77222093 </v>
    <v>       0.60622248       0.66342832       0.24565994 </v>
    <v>       0.62317923       0.61988100       0.76081124 </v>
    <v>       0.38983907       0.36587613       0.24901990 </v>
    <v>       0.32918881       0.38268789       0.74151310 </v>
    <v>       0.37774319       0.86636040       0.74862531 </v>
    <v>       0.89142287       0.35596132       0.23918211 </v>
    <v>       0.87349740       0.34928526       0.76240862 </v>
    <v>       0.84187088       0.91461015       0.25582047 </v>
    <v>       0.88977459       0.90295976       0.72048828 </v>
    <v>       0.35356322       0.11081111       0.24453953 </v>
    <v>       0.36997552       0.12531719       0.74831285 </v>
    <v>       0.36880356       0.62034516       0.23545390 </v>
    <v>       0.37270642       0.62776616       0.78115370 </v>
    <v>       0.08303266       0.13912105       0.74584850 </v>
    <v>       0.87155927       0.62644007       0.24735753 </v>
    <v>       0.87438854       0.62927707       0.74885596 </v>
    <v>       0.13561107       0.38461279       0.25062912 </v>
    <v>       0.12576644       0.87808059       0.25336530 </v>
    <v>       0.14018028       0.87031988       0.77354654 </v>
    <v>       0.64389391       0.40992433       0.25979354 </v>
    <v>       0.60037603       0.36607915       0.73636079 </v>
    <v>       0.63076145       0.87547119       0.74983122 </v>
    <v>       0.38327739       0.36169152       0.99529478 </v>
    <v>       0.37695414       0.37127981       0.50378722 </v>
    <v>       0.37372688       0.86008821       0.97906240 </v>
    <v>       0.37802695       0.86975962       0.50823290 </v>
    <v>       0.84377959       0.37655501       0.00013207 </v>
    <v>       0.86960799       0.36953404       0.49552632 </v>
    <v>       0.87766288       0.87156465       0.51921196 </v>
    <v>       0.11586630       0.12832604       0.00231942 </v>
    <v>       0.13305772       0.63057571       0.99168162 </v>
    <v>       0.12218450       0.63195872       0.49145801 </v>
    <v>       0.60647307       0.14646593       0.99293794 </v>
    <v>       0.61770185       0.12677931       0.49110133 </v>
    <v>       0.62785659       0.61454549       0.99284083 </v>
    <v>       0.62314121       0.62323065       0.49885691 </v>
    <v>       0.12288724       0.37382000       0.99831162 </v>
    <v>       0.11916278       0.36624917       0.49636583 </v>
    <v>       0.11729223       0.87477786       0.98997013 </v>
    <v>       0.12780659       0.89410444       0.50124939 </v>
    <v>       0.62493054       0.37135714       0.49633970 </v>
    <v>       0.63670151       0.88003071       0.99504646 </v>
    <v>       0.62693942       0.87555470       0.50359662 </v>
    <v>       0.36167225       0.11413934       0.00424713 </v>
    <v>       0.36188544       0.11512851       0.49466349 </v>
    <v>       0.37233030       0.61775801       0.99760796 </v>
    <v>       0.36655216       0.62458292       0.49777610 </v>
    <v>       0.86442161       0.10680859       0.99968785 </v>
    <v>       0.88619429       0.11594988       0.50670439 </v>
    <v>       0.88235262       0.64005572       0.99753220 </v>
    <v>       0.87442722       0.62071350       0.50594506 </v>
    <v>       0.98004839       0.97118683       0.11652600 </v>
    <v>       0.00114862       0.50273556       0.12087444 </v>
    <v>       0.01416887       0.48473097       0.63376880 </v>
    <v>       0.51108147       0.97538058       0.13018957 </v>
    <v>       0.50531188       0.01395713       0.62812680 </v>
    <v>       0.52219938       0.47980022       0.11609486 </v>
    <v>       0.48628657       0.51823760       0.63064598 </v>
    <v>       0.01705826       0.03480118       0.37101004 </v>
    <v>       0.96801698       0.98914845       0.88097282 </v>
    <v>       0.99024623       0.50106966       0.37263404 </v>
    <v>       0.00164763       0.48533458       0.87253030 </v>
    <v>       0.51392319       0.97398220       0.36024662 </v>
    <v>       0.49555318       0.00256832       0.87251408 </v>
    <v>       0.48940481       0.50764576       0.37218043 </v>
    <v>       0.51822270       0.46475489       0.87834401 </v>
    <v>       0.23736542       0.23794663       0.37474034 </v>
    <v>       0.26860364       0.76483027       0.36968924 </v>
    <v>       0.75302796       0.21986613       0.36562763 </v>
    <v>       0.75463745       0.75595099       0.37574486 </v>
    <v>       0.76991114       0.76533660       0.87425129 </v>
    <v>       0.24763115       0.25810314       0.12191000 </v>
    <v>       0.22104678       0.22629560       0.62045268 </v>
    <v>       0.26572083       0.77993442       0.13014270 </v>
    <v>       0.24092980       0.74083422       0.62554782 </v>
    <v>       0.71078068       0.20415867       0.15295039 </v>
    <v>       0.75232732       0.23368939       0.61866985 </v>
    <v>       0.75654612       0.76171893       0.12190458 </v>
    <v>       0.74139302       0.73929859       0.62783566 </v>
   </varray>
  </structure>
  <varray name="forces" >
   <v>       0.00831410      -0.00163838      -0.00627774 </v>
   <v>      -0.00191732       0.00928604       0.00275139 </v>
   <v>       0.00331037       0.00214541       0.00105923 </v>
   <v>       0.00155226      -0.00888542      -0.00565960 </v>
   <v>      -0.00556371      -0.00476544      -0.00110118 </v>
   <v>      -0.00230191       0.00757783      -0.00381511 </v>
   <v>      -0.00488448       0.00799663      -0.00097745 </v>
   <v>       0.00063444       0.00181988       0.00511472 </v>
   <v>       0.00337126       0.00465489      -0.00280740 </v>
   <v>      -0.00383538       0.00182144      -0.00075565 </v>
   <v>       0.00163910       0.00168695       0.00497127 </v>
   <v>      -0.00422304       0.00147723      -0.00285863 </v>
   <v>      -0.00398509       0.00416500       0.00737174 </v>
   <v>      -0.00051076       0.00576603       0.00624973 </v>
   <v>       0.00884854       0.00366744       0.00287212 </v>
   <v>       0.00571684      -0.00599338      -0.00539282 </v>
   <v>       0.00072065      -0.00153432      -0.00224956 </v>
   <v>      -0.00160850       0.00587854      -0.00141220 </v>
   <v>      -0.00314796      -0.00264125      -0.00331311 </v>
   <v>       0.00409837       0.00424550       0.00273178 </v>
   <v>       0.00233391       0.00325349      -0.00330713 </v>
   <v>       0.00889837      -0.00720377      -0.00182019 </v>
   <v>      -0.00092654       0.00179488      -0.00440266 </v>
   <v>      -0.00552542      -0.00002521       0.00604284 </v>
   <v>       0.00228971      -0.00342554       0.00246091 </v>
   <v>       0.00326489       0.00351153      -0.00635671 </v>
   <v>      -0.00047372       0.00661490      -0.00456327 </v>
   <v>      -0.01072084      -0.00475212      -0.00081768 </v>
   <v>       0.00190881      -0.00197030       0.00177073 </v>
   <v>      -0.00536798       0.00906143      -0.00270921 </v>
   <v>      -0.00079731      -0.00036631       0.00375655 </v>
   <v>      -0.00775316      -0.00367677       0.00698188 </v>
   <v>       0.06501711      -0.05633787      -0.02625456 </v>
   <v>       0.00870288       0.02317090      -0.01244276 </v>
   <v>      -0.01789448       0.01155422       0.01351936 </v>
   <v>      -0.00519391      -0.01662975       0.01678881 </v>
   <v>       0.01028893       0.01524914       0.00332370 </v>
   <v>      -0.00947404      -0.01929746      -0.02830927 </v>
   <v>      -0.01270771      -0.00222379      -0.00206787 </v>
   <v>      -0.00376075      -0.01777054       0.00603187 </v>
   <v>       0.00363654       0.00128586       0.00322974 </v>
   <v>      -0.00359404       0.00058134      -0.00524827 </v>
   <v>      -0.00529800      -0.00063499       0.00162983 </v>
   <v>       0.00279490       0.00033227      -0.00103830 </v>
   <v>       0.00701425      -0.00082380       0.00320528 </v>
   <v>       0.00581259      -0.00201228      -0.00344140 </v>
   <v>       0.00067259      -0.01034885       0.00954029 </v>
   <v>       0.00849817       0.00363157       0.01772570 </v>
   <v>       0.00388374       0.00308008       0.00757387 </v>
   <v>       0.00065967       0.00078596      -0.00615173 </v>
   <v>      -0.02209317      -0.01669721       0.00604129 </v>
   <v>      -0.00672176       0.00586286       0.00897605 </v>
   <v>      -0.00513219       0.00039203       0.00203811 </v>
   <v>      -0.00744648       0.00772759      -0.01388910 </v>
   <v>       0.00515222      -0.00064262      -0.01101581 </v>
   <v>      -0.02559978       0.00488702      -0.00082365 </v>
   <v>       0.01518720      -0.00374861       0.00409534 </v>
   <v>      -0.02174447       0.00221981      -0.01148744 </v>
   <v>       0.00656689      -0.00190115       0.01022374 </v>
   <v>       0.02474028      -0.01665827       0.01186529 </v>
   <v>      -0.01165063       0.00146870       0.00477652 </v>
   <v>       0.03554998      -0.02776790       0.00038509 </v>
   <v>       0.00453773      -0.00106960      -0.00192496 </v>
   <v>       0.00260239       0.00250397      -0.00110770 </v>
   <v>      -0.00448961       0.00150948      -0.00270889 </v>
   <v>       0.00705439       0.00441794       0.01155034 </v>
   <v>      -0.01330146       0.00571804       0.00932402 </v>
   <v>       0.00757113       0.01759086      -0.00443790 </v>
   <v>      -0.00272425      -0.01024706       0.00016328 </v>
   <v>      -0.01103921      -0.00153045      -0.00644206 </v>
   <v>       0.00862957       0.01891381       0.00517938 </v>
   <v>       0.00744258       0.00243847      -0.00023157 </v>
   <v>      -0.00472129       0.00142766       0.00625784 </v>
   <v>      -0.00641374       0.00640794       0.00764050 </v>
   <v>      -0.01092926      -0.00617537      -0.00684995 </v>
   <v>       0.01525582      -0.00082304       0.01776728 </v>
   <v>       0.00357630       0.00330215      -0.00756828 </v>
   <v>      -0.01346161      -0.00907969      -0.01484952 </v>
   <v>       0.00674459      -0.00234475       0.00018410 </v>
   <v>       0.01666023      -0.00710109      -0.00353209 </v>
   <v>       0.00858601      -0.00931682       0.00447365 </v>
   <v>      -0.00033576       0.03339610      -0.00111196 </v>
   <v>       0.00975135       0.00200690       0.00253021 </v>
   <v>      -0.01089461      -0.00061356      -0.00708254 </v>
   <v>      -0.01221975      -0.00982277       0.01037857 </v>
   <v>      -0.00269018       0.00757777       0.00305113 </v>
   <v>      -0.00514554       0.01541651       0.00323243 </v>
   <v>      -0.00727405      -0.00468294       0.01153230 </v>
   <v>      -0.00490420       0.00499643      -0.00083047 </v>
   <v>       0.02298120      -0.01524465      -0.00366183 </v>
   <v>       0.00475650      -0.01600564       0.00591397 </v>
   <v>      -0.01735373      -0.01822143      -0.00234633 </v>
   <v>       0.01528896       0.00683285      -0.00270432 </v>
   <v>      -0.00290551      -0.01073651       0.00499143 </v>
   <v>       0.01367200       0.00563746       0.00860659 </v>
   <v>      -0.00130387      -0.01459870       0.00033849 </v>
   <v>       0.00578708       0.00724981       0.00184239 </v>
   <v>       0.00741422       0.00396330       0.00548235 </v>
   <v>       0.00092034      -0.01660139      -0.00806956 </v>
   <v>      -0.00438780       0.00887111      -0.00219644 </v>
   <v>      -0.00744281      -0.00802597      -0.00281170 </v>
   <v>       0.01382634       0.00049393      -0.00997356 </v>
   <v>       0.00092797       0.00107441       0.00736278 </v>
   <v>      -0.00601449       0.00702996       0.00806206 </v>
   <v>      -0.00000606       0.00405393      -0.00815992 </v>
   <v>      -0.00166079       0.01413414       0.00243854 </v>
   <v>      -0.00525039       0.00597721       0.00387763 </v>
   <v>      -0.00596956      -0.00126709      -0.01024480 </v>
   <v>       0.00091644       0.00466671       0.00460244 </v>
   <v>      -0.00187469       0.00458427      -0.00703062 </v>
   <v>       0.00705398      -0.00071611      -0.00292538 </v>
   <v>      -0.00746982       0.00367322      -0.00277699 </v>
   <v>       0.00382442       0.00004254      -0.00061941 </v>
   <v>       0.00112094       0.01007150       0.00096273 </v>
   <v>      -0.04313517       0.04371126      -0.00261279 </v>
   <v>       0.00384240       0.00290832      -0.00022855 </v>
   <v>      -0.00104971      -0.00480018      -0.00267313 </v>
   <v>       0.00610924      -0.00503907      -0.00343021 </v>
   <v>       0.00152794      -0.00668694       0.00018525 </v>
   <v>       0.00263612      -0.01846697       0.00856566 </v>
   <v>      -0.00060810       0.00379625      -0.00022319 </v>
   <v>       0.00580083       0.00190317      -0.01189781 </v>
   <v>      -0.00977121      -0.00270120       0.00887847 </v>
   <v>      -0.00513203      -0.00222460       0.00633415 </v>
   <v>       0.01127703       0.00057772      -0.01107745 </v>
   <v>      -0.00880355      -0.00566324       0.01758842 </v>
   <v>      -0.00638552       0.00074410      -0.01646185 </v>
   <v>      -0.01180292       0.00192090      -0.00621340 </v>
   <v>      -0.00145550       0.01886301       0.00241526 </v>
   <v>       0.00033191       0.00221661       0.00663471 </v>
   <v>      -0.01021212      -0.00560731       0.00865792 </v>
   <v>      -0.01017950      -0.00124574      -0.00676479 </v>
   <v>      -0.00259860      -0.00278606      -0.00478443 </v>
   <v>      -0.00017199      -0.00263716      -0.00924033 </v>
   <v>       0.00104391       0.00833627       0.01108204 </v>
   <v>       0.00027731      -0.01128339      -0.01553312 </v>
   <v>      -0.00228841      -0.00539060      -0.00699902 </v>
   <v>       0.00030303      -0.00259336      -0.01083814 </v>
   <v>       0.00821190      -0.00419892      -0.00096511 </v>
   <v>       0.00738299       0.00868968       0.00032222 </v>
   <v>       0.00048524      -0.00495722       0.00536968 </v>
   <v>       0.00335662       0.01010857      -0.00037155 </v>
   <v>      -0.00582264      -0.00705903      -0.01091330 </v>
   <v>      -0.00950719       0.00593425       0.02585108 </v>
   <v>       0.00055866      -0.00082597       0.00314152 </v>
   <v>       0.00656790      -0.00592537      -0.01809487 </v>
   <v>       0.00456812       0.00322806      -0.00205475 </v>
   <v>       0.00069948       0.00711734       0.00846644 </v>
  </varray>
  <varray name="stress" >
   <v>       0.02355916      -0.05263918       0.02885608 </v>
   <v>      -0.05263937       0.05251071       0.01894712 </v>
   <v>       0.02885627       0.01894749      -0.00461368 </v>
  </varray>
  <energy>
   <i name="e_fr_energy">   -989.06622847 </i>
   <i name="e_wo_entrp">   -989.06422808 </i>
   <i name="e_0_energy">     -0.00400079 </i>
  </energy>
  <time name="totalsc"> 2252.64 2255.22</time>
 </calculation>
 <calculation>
  <scstep>
   <time name="dav">  559.31  559.47</time>
   <time name="total">  566.61  566.84</time>
   <energy>
    <i name="alphaZ">   5629.12518169 </i>
    <i name="ewald"> -62593.00357816 </i>
    <i name="hartreedc"> -19130.36427292 </i>
    <i name="XCdc">   3403.71750491 </i>
    <i name="pawpsdc"> 116097.48234231 </i>
    <i name="pawaedc">-115600.43679894 </i>
    <i name="eentropy">     -0.00398633 </i>
    <i name="bandstr">  -7112.48589831 </i>
    <i name="atom">  78316.90445604 </i>
    <i name="e_fr_energy">   -989.06504970 </i>
    <i name="e_wo_entrp">   -989.06106337 </i>
    <i name="e_0_energy">   -989.06305654 </i>
   </energy>
  </scstep>
  <scstep>
   <time name="diag">   64.20   64.23</time>
   <time name="diis">  104.72  104.73</time>
   <time name="orth">   33.21   33.21</time>
   <time name="total">  209.46  209.50</time>
   <energy>
    <i name="e_fr_energy">   -989.06674859 </i>
    <i name="e_wo_entrp">   -989.06294312 </i>
    <i name="e_0_energy">   -989.06484585 </i>
   </energy>
  </scstep>
  <scstep>
   <time name="diag">   64.17   64.17</time>
   <time name="diis">   91.22   91.24</time>
   <time name="orth">   33.19   33.18</time>
   <time name="total">  195.92  195.98</time>
   <energy>
    <i name="e_fr_energy">   -989.06683827 </i>
    <i name="e_wo_entrp">   -989.06298150 </i>
    <i name="e_0_energy">   -989.06490988 </i>
   </energy>
  </scstep>
  <scstep>
   <time name="diag">   64.19   64.21</time>
   <time name="diis">   69.52   69.55</time>
   <time name="orth">   33.23   33.23</time>
   <time name="total">  174.29  174.42</time>
   <energy>
    <i name="e_fr_energy">   -989.06677572 </i>
    <i name="e_wo_entrp">   -989.06292682 </i>
    <i name="e_0_energy">   -989.06485127 </i>
   </energy>
  </scstep>
  <scstep>
   <time name="diag">   64.25   64.25</time>
   <time name="diis">   66.50   66.53</time>
   <time name="orth">   33.21   33.21</time>
   <time name="total">  171.27  171.38</time>
   <energy>
    <i name="e_fr_energy">   -989.06675482 </i>
    <i name="e_wo_entrp">   -989.06292730 </i>
    <i name="e_0_energy">   -989.06484106 </i>
   </energy>
  </scstep>
  <scstep>
   <time name="diag">   64.22   64.23</time>
   <time name="diis">   62.45   62.46</time>
   <time name="orth">   33.14   33.14</time>
   <time name="total">  167.17  167.22</time>
   <energy>
    <i name="e_fr_energy">   -989.06675501 </i>
    <i name="e_wo_entrp">   -989.06293251 </i>
    <i name="e_0_energy">   -989.06484376 </i>
   </energy>
  </scstep>
  <scstep>
   <time name="diag">   64.55   64.55</time>
   <time name="diis">   58.26   58.26</time>
   <time name="orth">   33.22   33.22</time>
   <time name="total">  163.35  163.43</time>
   <energy>
    <i name="e_fr_energy">   -989.06675458 </i>
    <i name="e_wo_entrp">   -989.06291534 </i>
    <i name="e_0_energy">   -989.06483496 </i>
   </energy>
  </scstep>
  <scstep>
   <time name="diag">   64.64   64.70</time>
   <time name="diis">   55.49   55.51</time>
   <time name="orth">   33.23   33.23</time>
   <time name="total">  154.42  154.57</time>
   <energy>
    <i name="alphaZ">   5629.12518169 </i>
    <i name="ewald"> -62593.00357816 </i>
    <i name="hartreedc"> -19130.88348962 </i>
    <i name="XCdc">   3403.74189907 </i>
    <i name="pawpsdc"> 116089.03275952 </i>
    <i name="pawaedc">-115591.98830273 </i>
    <i name="eentropy">     -0.00383068 </i>
    <i name="bandstr">  -7111.99184958 </i>
    <i name="atom">  78316.90445604 </i>
    <i name="e_fr_energy">   -989.06675445 </i>
    <i name="e_wo_entrp">   -989.06292377 </i>
    <i name="e_0_energy">   -989.06483911 </i>
   </energy>
  </scstep>
  <structure>
   <crystal>
    <varray name="basis" >
     <v>      11.21472252      -0.05611428      -0.02408418 </v>
     <v>      -0.05615966      11.22746827      -0.02767411 </v>
     <v>      -0.03462641      -0.03828818      15.85516402 </v>
    </varray>
    <i name="volume">   1996.29901835 </i>
    <varray name="rec_basis" >
     <v>       0.08917116       0.00044652       0.00019582 </v>
     <v>       0.00044614       0.08907004       0.00021607 </v>
     <v>       0.00013623       0.00015614       0.06307161 </v>
    </varray>
   </crystal>
   <varray name="positions" >
    <v>       0.00544817       0.26482194       0.12065327 </v>
    <v>       0.98842514       0.26171004       0.61622140 </v>
    <v>       0.00078773       0.74014726       0.12629335 </v>
    <v>       0.99033192       0.73923631       0.61908365 </v>
    <v>       0.48201312       0.24261361       0.12387385 </v>
    <v>       0.49795778       0.24545042       0.61207630 </v>
    <v>       0.49948242       0.74728991       0.11506153 </v>
    <v>       0.51128752       0.75443239       0.61973397 </v>
    <v>       0.00268012       0.26192911       0.36781256 </v>
    <v>       0.99371775       0.25300463       0.88691675 </v>
    <v>       0.99507508       0.73237232       0.37378829 </v>
    <v>       0.00011232       0.74022390       0.87721948 </v>
    <v>       0.48455533       0.25734206       0.38084437 </v>
    <v>       0.49147081       0.23633279       0.87068290 </v>
    <v>       0.50724569       0.74351168       0.38526392 </v>
    <v>       0.51317895       0.76333339       0.87045876 </v>
    <v>       0.22937964       0.00751184       0.12449316 </v>
    <v>       0.27509256       0.99293575       0.61919253 </v>
    <v>       0.23889263       0.49402636       0.12836520 </v>
    <v>       0.24786605       0.49838042       0.61094761 </v>
    <v>       0.74738013       0.99088115       0.11850313 </v>
    <v>       0.73879803       0.99411066       0.62118737 </v>
    <v>       0.75878219       0.51751479       0.12646003 </v>
    <v>       0.74246339       0.51152627       0.61666599 </v>
    <v>       0.24542193       0.00255717       0.37325007 </v>
    <v>       0.26299963       0.99784431       0.88238792 </v>
    <v>       0.24500100       0.49532005       0.37144890 </v>
    <v>       0.24144125       0.49257272       0.87855635 </v>
    <v>       0.74543010       0.99008516       0.38884388 </v>
    <v>       0.73813947       0.99329327       0.87766730 </v>
    <v>       0.75078596       0.51635259       0.38244884 </v>
    <v>       0.75864046       0.51573217       0.87371409 </v>
    <v>       0.48880626       0.50361836       0.99687488 </v>
    <v>       0.24620787       0.24808102       0.00079238 </v>
    <v>       0.25157005       0.75035644       0.49143603 </v>
    <v>       0.74642967       0.24784482       0.49256565 </v>
    <v>       0.24695442       0.23352469       0.74422331 </v>
    <v>       0.25339439       0.74370469       0.74147102 </v>
    <v>       0.49691001       0.50490774       0.25034430 </v>
    <v>       0.49719026       0.50584817       0.75106581 </v>
    <v>       0.00101292       0.00457494       0.00103926 </v>
    <v>       0.98804224       0.98726266       0.48335924 </v>
    <v>       0.00028279       0.50468936       0.99877731 </v>
    <v>       0.99820322       0.49653157       0.49599299 </v>
    <v>       0.49882535       0.99929607       0.99855789 </v>
    <v>       0.49988531       0.99721384       0.49644096 </v>
    <v>       0.49711166       0.50438525       0.49910902 </v>
    <v>       0.25347300       0.25574802       0.49705634 </v>
    <v>       0.24612711       0.75722063       0.01269199 </v>
    <v>       0.74652429       0.23806163       0.02272218 </v>
    <v>       0.74231383       0.74200939       0.99814608 </v>
    <v>       0.75076583       0.75009925       0.50266491 </v>
    <v>       0.24117549       0.24839678       0.24908432 </v>
    <v>       0.24031737       0.74018979       0.24891430 </v>
    <v>       0.74563472       0.28040076       0.25401898 </v>
    <v>       0.73252912       0.26513383       0.73350634 </v>
    <v>       0.75793555       0.74905577       0.25034870 </v>
    <v>       0.75213305       0.75544744       0.74810488 </v>
    <v>       0.00289516       0.99137488       0.24979279 </v>
    <v>       0.01578414       0.98508305       0.76851733 </v>
    <v>       0.00015985       0.49679746       0.24850376 </v>
    <v>       0.98928116       0.50962221       0.75171476 </v>
    <v>       0.48146888       0.00252474       0.24605851 </v>
    <v>       0.50633012       0.99530384       0.74986121 </v>
    <v>       0.09244238       0.13504098       0.22931338 </v>
    <v>       0.23117027       0.24636645       0.86859024 </v>
    <v>       0.11796788       0.62924113       0.24902737 </v>
    <v>       0.13213957       0.62108111       0.76482268 </v>
    <v>       0.65802403       0.12804674       0.77222133 </v>
    <v>       0.60617490       0.66342144       0.24564025 </v>
    <v>       0.62321681       0.61996251       0.76082719 </v>
    <v>       0.38987114       0.36588677       0.24901926 </v>
    <v>       0.32916859       0.38269399       0.74153213 </v>
    <v>       0.37771580       0.86638787       0.74864857 </v>
    <v>       0.89137565       0.35593448       0.23916115 </v>
    <v>       0.87356318       0.34928224       0.76246278 </v>
    <v>       0.84188626       0.91462434       0.25579749 </v>
    <v>       0.88971635       0.90292030       0.72044294 </v>
    <v>       0.35359219       0.11080118       0.24454012 </v>
    <v>       0.37004700       0.12528700       0.74830216 </v>
    <v>       0.36884034       0.62030535       0.23546750 </v>
    <v>       0.37270568       0.62790964       0.78115057 </v>
    <v>       0.08307467       0.13912991       0.74585628 </v>
    <v>       0.87151232       0.62643712       0.24733591 </v>
    <v>       0.87433586       0.62923471       0.74888738 </v>
    <v>       0.13559969       0.38464533       0.25063844 </v>
    <v>       0.12574466       0.87814676       0.25337522 </v>
    <v>       0.14014900       0.87029972       0.77358155 </v>
    <v>       0.64387291       0.40994569       0.25979102 </v>
    <v>       0.60047453       0.36601409       0.73634968 </v>
    <v>       0.63078163       0.87540257       0.74984913 </v>
    <v>       0.38320233       0.36161283       0.99528739 </v>
    <v>       0.37702003       0.37130947       0.50377914 </v>
    <v>       0.37371419       0.86004206       0.97907749 </v>
    <v>       0.37808597       0.86978422       0.50825922 </v>
    <v>       0.84377367       0.37649226       0.00013298 </v>
    <v>       0.86963305       0.36956533       0.49553202 </v>
    <v>       0.87769492       0.87158189       0.51922872 </v>
    <v>       0.11586983       0.12825464       0.00229475 </v>
    <v>       0.13303902       0.63061371       0.99167498 </v>
    <v>       0.12215228       0.63192404       0.49144934 </v>
    <v>       0.60653246       0.14646824       0.99290768 </v>
    <v>       0.61770594       0.12678402       0.49112375 </v>
    <v>       0.62783094       0.61457565       0.99286538 </v>
    <v>       0.62314119       0.62324799       0.49883211 </v>
    <v>       0.12288042       0.37388073       0.99831914 </v>
    <v>       0.11914036       0.36627478       0.49637764 </v>
    <v>       0.11726642       0.87477218       0.98993890 </v>
    <v>       0.12781068       0.89412456       0.50126343 </v>
    <v>       0.62492251       0.37137673       0.49631833 </v>
    <v>       0.63673181       0.88002775       0.99503760 </v>
    <v>       0.62690734       0.87557029       0.50358815 </v>
    <v>       0.36168870       0.11413960       0.00424528 </v>
    <v>       0.36189049       0.11517182       0.49466650 </v>
    <v>       0.37214565       0.61794489       0.99760005 </v>
    <v>       0.36656875       0.62459550       0.49777545 </v>
    <v>       0.86441697       0.10678792       0.99967967 </v>
    <v>       0.88622043       0.11592832       0.50669395 </v>
    <v>       0.88235905       0.64002702       0.99753272 </v>
    <v>       0.87443824       0.62063429       0.50597100 </v>
    <v>       0.98004585       0.97120313       0.11652535 </v>
    <v>       0.00117350       0.50274374       0.12083829 </v>
    <v>       0.01412687       0.48471925       0.63379573 </v>
    <v>       0.51105941       0.97537098       0.13020879 </v>
    <v>       0.50536030       0.01395974       0.62809318 </v>
    <v>       0.52216155       0.47977588       0.11614828 </v>
    <v>       0.48625896       0.51824049       0.63059585 </v>
    <v>       0.01700746       0.03480912       0.37099107 </v>
    <v>       0.96801115       0.98922950       0.88098030 </v>
    <v>       0.99024777       0.50107926       0.37265425 </v>
    <v>       0.00160366       0.48531036       0.87255653 </v>
    <v>       0.51387931       0.97397656       0.36022596 </v>
    <v>       0.49554190       0.00255624       0.87249948 </v>
    <v>       0.48940393       0.50763433       0.37215229 </v>
    <v>       0.51822747       0.46479085       0.87837780 </v>
    <v>       0.23736622       0.23789799       0.37469299 </v>
    <v>       0.26859361       0.76480698       0.36966789 </v>
    <v>       0.75302911       0.21985488       0.36559463 </v>
    <v>       0.75467267       0.75593311       0.37574194 </v>
    <v>       0.76994309       0.76537410       0.87425238 </v>
    <v>       0.24763318       0.25808190       0.12192631 </v>
    <v>       0.22106143       0.22633910       0.62045164 </v>
    <v>       0.26569552       0.77990385       0.13010940 </v>
    <v>       0.24088928       0.74085978       0.62562646 </v>
    <v>       0.71078310       0.20415517       0.15295995 </v>
    <v>       0.75235527       0.23366388       0.61861479 </v>
    <v>       0.75656583       0.76173287       0.12189838 </v>
    <v>       0.74139626       0.73932928       0.62786148 </v>
   </varray>
  </structure>
  <varray name="forces" >
   <v>       0.00933453      -0.00363210      -0.00581506 </v>
   <v>      -0.00386143       0.00921398       0.00279724 </v>
   <v>       0.00276243       0.00258613      -0.00305514 </v>
   <v>      -0.00663588      -0.00932039       0.00009075 </v>
   <v>      -0.00711082      -0.00972977       0.00768754 </v>
   <v>      -0.00285504       0.00070830      -0.01061768 </v>
   <v>      -0.00975227       0.00127895      -0.00271557 </v>
   <v>       0.00087848       0.00529566       0.00469644 </v>
   <v>       0.00120071       0.00367778      -0.00260355 </v>
   <v>      -0.00632078      -0.00335122       0.00066118 </v>
   <v>       0.00052277      -0.00010054       0.00439816 </v>
   <v>      -0.00691999       0.00044238      -0.00227277 </v>
   <v>      -0.00057696       0.00682603       0.00005365 </v>
   <v>      -0.00159351      -0.01661261       0.00603878 </v>
   <v>       0.00790739      -0.00003110       0.00102748 </v>
   <v>      -0.00381004      -0.00029326      -0.00288493 </v>
   <v>       0.00161930       0.00274987      -0.00430770 </v>
   <v>       0.00109979       0.00732533       0.00138953 </v>
   <v>       0.00010485       0.00253044      -0.00676685 </v>
   <v>       0.00257444       0.00368832      -0.00544998 </v>
   <v>       0.00396975       0.00259715      -0.00208407 </v>
   <v>       0.01100543      -0.00941533      -0.00205565 </v>
   <v>       0.00111979       0.00078942       0.00337409 </v>
   <v>       0.00164302       0.00516751       0.00237777 </v>
   <v>       0.00558564      -0.00058360      -0.00063797 </v>
   <v>       0.00591422      -0.00116523      -0.00244547 </v>
   <v>       0.00197780       0.00907256      -0.00546378 </v>
   <v>      -0.01270799       0.00882795       0.01148830 </v>
   <v>       0.00345754      -0.00099893      -0.00346107 </v>
   <v>      -0.00142267       0.00284351      -0.00075292 </v>
   <v>      -0.00394854      -0.00413474       0.00449878 </v>
   <v>       0.01096280       0.00001322       0.00034031 </v>
   <v>      -0.08963933       0.07770644       0.03834576 </v>
   <v>      -0.01254225      -0.00871784       0.01029007 </v>
   <v>       0.00572739      -0.00726049      -0.00918322 </v>
   <v>       0.00650673      -0.00051264      -0.01523016 </v>
   <v>       0.00858860      -0.02843994       0.00307529 </v>
   <v>       0.00966534       0.02815573       0.04371310 </v>
   <v>       0.00859945       0.00348054       0.00474442 </v>
   <v>       0.00351227       0.02130810      -0.01999391 </v>
   <v>       0.00006480      -0.00402844       0.00020101 </v>
   <v>      -0.00188943       0.00228753      -0.00587086 </v>
   <v>      -0.00127334       0.00861438       0.00147015 </v>
   <v>      -0.00490136      -0.00503038      -0.00227849 </v>
   <v>       0.00035941      -0.00428762       0.00064261 </v>
   <v>       0.00144189      -0.00157119      -0.00081715 </v>
   <v>       0.00605851       0.00265476      -0.01315117 </v>
   <v>       0.00414413       0.00671941      -0.00247034 </v>
   <v>       0.00435015      -0.01124752      -0.01053895 </v>
   <v>       0.00246606      -0.00381241      -0.00148971 </v>
   <v>       0.00825644       0.00477746       0.00161034 </v>
   <v>      -0.00258451      -0.00119305       0.00301390 </v>
   <v>      -0.00223853      -0.00033104      -0.00256727 </v>
   <v>      -0.00248334       0.00082937      -0.00552509 </v>
   <v>      -0.01237843       0.00338137       0.00101291 </v>
   <v>       0.02011692      -0.01326378      -0.00735734 </v>
   <v>      -0.00683497       0.00116586       0.00029317 </v>
   <v>       0.00610456      -0.00369454       0.00622798 </v>
   <v>      -0.00392033       0.00672236       0.00131420 </v>
   <v>      -0.01190115      -0.01446644       0.00073302 </v>
   <v>      -0.00901041      -0.00217914       0.00233081 </v>
   <v>      -0.00937464       0.00536397       0.01390696 </v>
   <v>       0.00094726      -0.00030912      -0.00014940 </v>
   <v>      -0.00031225      -0.00514378      -0.00466985 </v>
   <v>      -0.00331342       0.00309388      -0.00286986 </v>
   <v>       0.00877799       0.00789614       0.00200782 </v>
   <v>      -0.01127960       0.01027393       0.00666006 </v>
   <v>      -0.00410862      -0.00243094      -0.00402327 </v>
   <v>      -0.00186422       0.00069693      -0.00124221 </v>
   <v>       0.00059752       0.00707685      -0.00621199 </v>
   <v>      -0.02401986      -0.01533434       0.00579961 </v>
   <v>      -0.00289420      -0.00846844      -0.00280758 </v>
   <v>       0.01098455       0.02029781       0.00846401 </v>
   <v>      -0.00916682       0.00589045       0.00209824 </v>
   <v>       0.00744017       0.00530100      -0.01091116 </v>
   <v>      -0.00417278      -0.01499313       0.01148366 </v>
   <v>       0.00290789       0.00130043      -0.00526775 </v>
   <v>       0.01103679       0.00352325      -0.00115478 </v>
   <v>       0.00465249      -0.00094728      -0.00171612 </v>
   <v>       0.00173789       0.01515271      -0.00400993 </v>
   <v>      -0.01510534       0.00482561      -0.00085299 </v>
   <v>       0.01877230      -0.00534266      -0.00737816 </v>
   <v>       0.01567644       0.00118668       0.00508395 </v>
   <v>      -0.00143400      -0.00770370      -0.00615387 </v>
   <v>       0.00674609      -0.02880808       0.00902877 </v>
   <v>      -0.00292613       0.00425433       0.00335519 </v>
   <v>       0.00766273       0.00360152      -0.00015347 </v>
   <v>       0.00321631      -0.01235952       0.00644449 </v>
   <v>       0.00448520      -0.00173690      -0.00299071 </v>
   <v>      -0.00925555       0.01430402       0.00311669 </v>
   <v>      -0.00979917      -0.00209398       0.00057235 </v>
   <v>       0.01409690       0.00630635      -0.01018952 </v>
   <v>       0.00514038      -0.00128537       0.00111960 </v>
   <v>       0.00750954       0.00971295       0.00003417 </v>
   <v>      -0.00523351      -0.00458335       0.00568014 </v>
   <v>       0.00109652      -0.00673154      -0.00401533 </v>
   <v>      -0.00573324      -0.00480466       0.00378696 </v>
   <v>       0.00244754      -0.00433442       0.00588228 </v>
   <v>       0.01400829       0.00270211      -0.00879068 </v>
   <v>      -0.01475065       0.00458113      -0.00287950 </v>
   <v>       0.00498037       0.00490861       0.00237695 </v>
   <v>       0.00523983      -0.00050903      -0.01276885 </v>
   <v>       0.00027778       0.00032131       0.00628668 </v>
   <v>      -0.01430021      -0.01386939       0.00530997 </v>
   <v>      -0.00202840       0.00145651       0.00004481 </v>
   <v>       0.00562957       0.00500806       0.00036037 </v>
   <v>       0.00833111       0.00146610       0.00355816 </v>
   <v>      -0.00812504       0.00252204      -0.00651611 </v>
   <v>       0.00585111      -0.00236899       0.00403880 </v>
[...]
       <r>   -17.8204     0.0000    32.0000 </r>
       <r>   -17.6657     0.0000    32.0000 </r>
       <r>   -17.5110     0.0000    32.0000 </r>
       <r>   -17.3563     0.0000    32.0000 </r>
       <r>   -17.2016     0.0000    32.0000 </r>
       <r>   -17.0469     0.0000    32.0000 </r>
       <r>   -16.8922     0.0000    32.0000 </r>
       <r>   -16.7376     0.0000    32.0000 </r>
       <r>   -16.5829     0.0000    32.0000 </r>
       <r>   -16.4282     0.0000    32.0000 </r>
       <r>   -16.2735     0.0000    32.0000 </r>
       <r>   -16.1188     0.0000    32.0000 </r>
       <r>   -15.9641     0.0000    32.0000 </r>
       <r>   -15.8095     0.0000    32.0000 </r>
       <r>   -15.6548     0.0000    32.0000 </r>
       <r>   -15.5001     0.0000    32.0000 </r>
       <r>   -15.3454     0.0000    32.0000 </r>
       <r>   -15.1907     0.0685    32.0106 </r>
       <r>   -15.0360    18.0579    34.8039 </r>
       <r>   -14.8814    37.8215    40.6543 </r>
       <r>   -14.7267    42.9096    47.2917 </r>
       <r>   -14.5720    40.5428    53.5631 </r>
       <r>   -14.4173    37.2004    59.3174 </r>
       <r>   -14.2626    47.0512    66.5955 </r>
       <r>   -14.1079    67.9889    77.1123 </r>
       <r>   -13.9532    81.2734    89.6840 </r>
       <r>   -13.7986    66.9700   100.0432 </r>
       <r>   -13.6439    58.6626   109.1174 </r>
       <r>   -13.4892    40.5973   115.3972 </r>
       <r>   -13.3345     3.8972   116.0000 </r>
       <r>   -13.1798     0.0000   116.0000 </r>
       <r>   -13.0251     0.0000   116.0000 </r>
       <r>   -12.8705     2.7345   116.4230 </r>
       <r>   -12.7158    28.5264   120.8356 </r>
       <r>   -12.5611    95.7514   135.6468 </r>
       <r>   -12.4064   118.7669   154.0182 </r>
       <r>   -12.2517   109.6038   170.9722 </r>
       <r>   -12.0970    98.0016   186.1315 </r>
       <r>   -11.9423    80.5659   198.5938 </r>
       <r>   -11.7877    50.1140   206.3456 </r>
       <r>   -11.6330    34.1315   211.6253 </r>
       <r>   -11.4783     2.4227   212.0000 </r>
       <r>   -11.3236     0.0000   212.0000 </r>
       <r>   -11.1689     0.0000   212.0000 </r>
       <r>   -11.0142     0.0000   212.0000 </r>
       <r>   -10.8596     0.0000   212.0000 </r>
       <r>   -10.7049     0.0000   212.0000 </r>
       <r>   -10.5502     0.0000   212.0000 </r>
       <r>   -10.3955     0.0000   212.0000 </r>
       <r>   -10.2408     0.0000   212.0000 </r>
       <r>   -10.0861     0.0000   212.0000 </r>
       <r>    -9.9315     0.0000   212.0000 </r>
       <r>    -9.7768     0.0000   212.0000 </r>
       <r>    -9.6221     0.0000   212.0000 </r>
       <r>    -9.4674     0.0000   212.0000 </r>
       <r>    -9.3127     0.0000   212.0000 </r>
       <r>    -9.1580     0.0000   212.0000 </r>
       <r>    -9.0033     0.0000   212.0000 </r>
       <r>    -8.8487     0.0000   212.0000 </r>
       <r>    -8.6940     0.0000   212.0000 </r>
       <r>    -8.5393     0.0000   212.0000 </r>
       <r>    -8.3846     0.0000   212.0000 </r>
       <r>    -8.2299     0.0000   212.0000 </r>
       <r>    -8.0752     0.0000   212.0000 </r>
       <r>    -7.9206     0.0000   212.0000 </r>
       <r>    -7.7659     0.0000   212.0000 </r>
       <r>    -7.6112     0.0000   212.0000 </r>
       <r>    -7.4565     0.0000   212.0000 </r>
       <r>    -7.3018     0.0000   212.0000 </r>
       <r>    -7.1471     0.0000   212.0000 </r>
       <r>    -6.9924     0.0000   212.0000 </r>
       <r>    -6.8378     0.0000   212.0000 </r>
       <r>    -6.6831     0.0000   212.0000 </r>
       <r>    -6.5284     0.0000   212.0000 </r>
       <r>    -6.3737     0.0000   212.0000 </r>
       <r>    -6.2190     0.0000   212.0000 </r>
       <r>    -6.0643     0.0000   212.0000 </r>
       <r>    -5.9097     0.0000   212.0000 </r>
       <r>    -5.7550     0.0000   212.0000 </r>
       <r>    -5.6003     0.0000   212.0000 </r>
       <r>    -5.4456     0.0000   212.0000 </r>
       <r>    -5.2909     0.0000   212.0000 </r>
       <r>    -5.1362     0.0000   212.0000 </r>
       <r>    -4.9816     0.0000   212.0000 </r>
       <r>    -4.8269     0.0000   212.0000 </r>
       <r>    -4.6722     0.0000   212.0000 </r>
       <r>    -4.5175     0.0000   212.0000 </r>
       <r>    -4.3628     0.0000   212.0000 </r>
       <r>    -4.2081     0.0000   212.0000 </r>
       <r>    -4.0534     0.0000   212.0000 </r>
       <r>    -3.8988     0.0000   212.0000 </r>
       <r>    -3.7441     0.0000   212.0000 </r>
       <r>    -3.5894     0.0000   212.0000 </r>
       <r>    -3.4347     0.0000   212.0000 </r>
       <r>    -3.2800     0.0000   212.0000 </r>
       <r>    -3.1253     0.0000   212.0000 </r>
       <r>    -2.9707     0.0000   212.0000 </r>
       <r>    -2.8160     0.0001   212.0000 </r>
       <r>    -2.6613     3.6030   212.5573 </r>
       <r>    -2.5066     6.3557   213.5405 </r>
       <r>    -2.3519    13.3662   215.6080 </r>
       <r>    -2.1972    15.4663   218.0004 </r>
       <r>    -2.0425    23.8689   221.6925 </r>
       <r>    -1.8879    24.9891   225.5580 </r>
       <r>    -1.7332    25.5412   229.5088 </r>
       <r>    -1.5785    27.3340   233.7369 </r>
       <r>    -1.4238    34.2057   239.0280 </r>
       <r>    -1.2691    50.1892   246.7915 </r>
       <r>    -1.1144    59.5023   255.9956 </r>
       <r>    -0.9598    69.0769   266.6807 </r>
       <r>    -0.8051    87.3871   280.1981 </r>
       <r>    -0.6504   101.0319   295.8262 </r>
       <r>    -0.4957    84.4490   308.8891 </r>
       <r>    -0.3410    70.4539   319.7872 </r>
       <r>    -0.1863    58.2943   328.8044 </r>
       <r>    -0.0317    52.7550   336.9648 </r>
       <r>     0.1230    56.4739   345.7004 </r>
       <r>     0.2777    55.2020   354.2393 </r>
       <r>     0.4324    60.5598   363.6070 </r>
       <r>     0.5871    59.9814   372.8851 </r>
       <r>     0.7418    54.4501   381.3077 </r>
       <r>     0.8965    55.9769   389.9665 </r>
       <r>     1.0511    56.6597   398.7308 </r>
       <r>     1.2058    63.2641   408.5168 </r>
       <r>     1.3605    64.3686   418.4736 </r>
       <r>     1.5152    70.3920   429.3622 </r>
       <r>     1.6699    63.6729   439.2114 </r>
       <r>     1.8246    64.0773   449.1231 </r>
       <r>     1.9792    47.8868   456.5305 </r>
       <r>     2.1339    33.6821   461.7405 </r>
       <r>     2.2886    15.5816   464.1508 </r>
       <r>     2.4433    13.5360   466.2446 </r>
       <r>     2.5980     4.8834   467.0000 </r>
       <r>     2.7527     0.0002   467.0000 </r>
       <r>     2.9073     0.0000   467.0000 </r>
       <r>     3.0620     0.0000   467.0000 </r>
       <r>     3.2167     0.0000   467.0000 </r>
       <r>     3.3714     0.0000   467.0000 </r>
       <r>     3.5261     0.0000   467.0000 </r>
       <r>     3.6808     0.0000   467.0000 </r>
       <r>     3.8355     0.0000   467.0000 </r>
       <r>     3.9901     0.0000   467.0000 </r>
       <r>     4.1448     0.0001   467.0000 </r>
       <r>     4.2995     4.6537   467.7199 </r>
       <r>     4.4542    31.8769   472.6507 </r>
       <r>     4.6089    58.9474   481.7690 </r>
       <r>     4.7636    64.0506   491.6766 </r>
       <r>     4.9182    59.8458   500.9338 </r>
       <r>     5.0729    64.9269   510.9770 </r>
       <r>     5.2276    80.0306   523.3565 </r>
       <r>     5.3823    90.4255   537.3439 </r>
       <r>     5.5370    85.4693   550.5646 </r>
       <r>     5.6917    58.1870   559.5652 </r>
       <r>     5.8464    62.1298   569.1757 </r>
       <r>     6.0010    56.9035   577.9778 </r>
       <r>     6.1557    50.4696   585.7847 </r>
       <r>     6.3104    40.2063   592.0040 </r>
       <r>     6.4651    26.7435   596.1408 </r>
       <r>     6.6198    23.9150   599.8400 </r>
       <r>     6.7745    24.5357   603.6353 </r>
       <r>     6.9291    30.8201   608.4027 </r>
       <r>     7.0838    21.9487   611.7978 </r>
       <r>     7.2385    15.7157   614.2288 </r>
       <r>     7.3932    15.7604   616.6667 </r>
       <r>     7.5479    11.5093   618.4470 </r>
       <r>     7.7026    14.1444   620.6349 </r>
       <r>     7.8572    18.0543   623.4277 </r>
       <r>     8.0119    25.1310   627.3150 </r>
       <r>     8.1666    21.7492   630.6793 </r>
       <r>     8.3213    21.9536   634.0752 </r>
       <r>     8.4760    21.3455   637.3770 </r>
       <r>     8.6307    24.7554   641.2063 </r>
       <r>     8.7854    27.1349   645.4036 </r>
       <r>     8.9400    30.3969   650.1055 </r>
       <r>     9.0947    38.1931   656.0134 </r>
       <r>     9.2494    36.4952   661.6586 </r>
       <r>     9.4041    42.4874   668.2308 </r>
       <r>     9.5588    45.1262   675.2111 </r>
       <r>     9.7135    46.1460   682.3492 </r>
       <r>     9.8681    51.0386   690.2440 </r>
       <r>    10.0228    51.9457   698.2792 </r>
       <r>    10.1775    52.4164   706.3872 </r>
       <r>    10.3322    48.6570   713.9137 </r>
       <r>    10.4869    52.9304   722.1012 </r>
       <r>    10.6416    54.2670   730.4955 </r>
       <r>    10.7963    55.0855   739.0163 </r>
       <r>    10.9509    54.0869   747.3827 </r>
       <r>    11.1056    56.1613   756.0700 </r>
       <r>    11.2603    55.3421   764.6306 </r>
       <r>    11.4150    21.7704   767.9981 </r>
       <r>    11.5697     0.0123   768.0000 </r>
       <r>    11.7244     0.0000   768.0000 </r>
       <r>    11.8790     0.0000   768.0000 </r>
       <r>    12.0337     0.0000   768.0000 </r>
       <r>    12.1884     0.0000   768.0000 </r>
       <r>    12.3431     0.0000   768.0000 </r>
       <r>    12.4978     0.0000   768.0000 </r>
       <r>    12.6525     0.0000   768.0000 </r>
       <r>    12.8071     0.0000   768.0000 </r>
       <r>    12.9618     0.0000   768.0000 </r>
       <r>    13.1165     0.0000   768.0000 </r>
       <r>    13.2712     0.0000   768.0000 </r>
       <r>    13.4259     0.0000   768.0000 </r>
      </set>
     </set>
    </array>
   </total>
  </dos>
 </calculation>
 <structure name="finalpos" >
  <crystal>
   <varray name="basis" >
    <v>      11.21434213      -0.05597701      -0.02395457 </v>
    <v>      -0.05602177      11.22723992      -0.02765979 </v>
    <v>      -0.03444246      -0.03826679      15.85512050 </v>
   </varray>
   <i name="volume">   1996.18558064 </i>
   <varray name="rec_basis" >
    <v>       0.08917417       0.00044544       0.00019479 </v>
    <v>       0.00044507       0.08907184       0.00021594 </v>
    <v>       0.00013550       0.00015606       0.06307178 </v>
   </varray>
  </crystal>
  <varray name="positions" >
   <v>       0.00548490       0.26481027       0.12063521 </v>
   <v>       0.98841217       0.26175103       0.61622760 </v>
   <v>       0.00079957       0.74015680       0.12628865 </v>
   <v>       0.99031860       0.73919889       0.61907862 </v>
   <v>       0.48198443       0.24258080       0.12388619 </v>
   <v>       0.49794694       0.24546397       0.61205317 </v>
   <v>       0.49945229       0.74730264       0.11505536 </v>
   <v>       0.51129117       0.75444783       0.61974851 </v>
   <v>       0.00268567       0.26194607       0.36780380 </v>
   <v>       0.99369583       0.25299931       0.88691719 </v>
   <v>       0.99507943       0.73237440       0.37380146 </v>
   <v>       0.00009044       0.74022589       0.87721240 </v>
   <v>       0.48455016       0.25736659       0.38085149 </v>
   <v>       0.49146272       0.23630389       0.87070052 </v>
   <v>       0.50727954       0.74351777       0.38526989 </v>
   <v>       0.51317583       0.76332395       0.87044619 </v>
   <v>       0.22938525       0.00751802       0.12448280 </v>
   <v>       0.27509185       0.99296214       0.61919373 </v>
   <v>       0.23888775       0.49402856       0.12834878 </v>
   <v>       0.24787953       0.49839525       0.61094189 </v>
   <v>       0.74739301       0.99089129       0.11849600 </v>
   <v>       0.73883879       0.99407421       0.62118238 </v>
   <v>       0.75878511       0.51751959       0.12646075 </v>
   <v>       0.74245984       0.51154097       0.61667656 </v>
   <v>       0.24543995       0.00255090       0.37325074 </v>
   <v>       0.26302092       0.99784770       0.88237786 </v>
   <v>       0.24500111       0.49535390       0.37143473 </v>
   <v>       0.24139091       0.49258569       0.87857705 </v>
   <v>       0.74544304       0.99007851       0.38883920 </v>
   <v>       0.73812419       0.99331956       0.87766303 </v>
   <v>       0.75077550       0.51634221       0.38246224 </v>
   <v>       0.75865695       0.51572406       0.87372180 </v>
   <v>       0.48867188       0.50372263       0.99692242 </v>
   <v>       0.24618798       0.24809009       0.00080601 </v>
   <v>       0.25154490       0.75035191       0.49143312 </v>
   <v>       0.74644168       0.24781470       0.49254797 </v>
   <v>       0.24699037       0.23348557       0.74422750 </v>
   <v>       0.25342485       0.74376793       0.74152307 </v>
   <v>       0.49689725       0.50489547       0.25034617 </v>
   <v>       0.49719277       0.50587865       0.75103267 </v>
   <v>       0.00101837       0.00456623       0.00104249 </v>
   <v>       0.98803226       0.98726899       0.48334345 </v>
   <v>       0.00026995       0.50471106       0.99878235 </v>
   <v>       0.99819401       0.49651855       0.49598739 </v>
   <v>       0.49883650       0.99928357       0.99856201 </v>
   <v>       0.49989749       0.99720772       0.49643561 </v>
   <v>       0.49712589       0.50437430       0.49910045 </v>
   <v>       0.25349675       0.25576938       0.49706807 </v>
   <v>       0.24614553       0.75719386       0.01267975 </v>
   <v>       0.74653187       0.23805259       0.02271306 </v>
   <v>       0.74231371       0.74199856       0.99815292 </v>
   <v>       0.75075120       0.75010472       0.50268071 </v>
   <v>       0.24116353       0.24839520       0.24908819 </v>
   <v>       0.24030398       0.74020332       0.24889395 </v>
   <v>       0.74560978       0.28040806       0.25401021 </v>
   <v>       0.73254461       0.26510878       0.73349232 </v>
   <v>       0.75794122       0.74905310       0.25035486 </v>
   <v>       0.75211721       0.75544165       0.74810722 </v>
   <v>       0.00289556       0.99138792       0.24980523 </v>
   <v>       0.01580466       0.98502405       0.76853215 </v>
   <v>       0.00012090       0.49679337       0.24851257 </v>
   <v>       0.98930650       0.50959518       0.75174172 </v>
   <v>       0.48147627       0.00252135       0.24605662 </v>
   <v>       0.50633263       0.99529386       0.74985142 </v>
   <v>       0.09242715       0.13505171       0.22930420 </v>
   <v>       0.23121070       0.24639600       0.86860720 </v>
   <v>       0.11791654       0.62927522       0.24904839 </v>
   <v>       0.13214157       0.62110057       0.76480970 </v>
   <v>       0.65801522       0.12803705       0.77222288 </v>
   <v>       0.60616029       0.66343797       0.24562132 </v>
   <v>       0.62316503       0.61994975       0.76084516 </v>
   <v>       0.38987399       0.36586600       0.24901133 </v>
   <v>       0.32919038       0.38274891       0.74155497 </v>
   <v>       0.37768251       0.86641276       0.74866121 </v>
   <v>       0.89137901       0.35593838       0.23913254 </v>
   <v>       0.87357561       0.34924157       0.76250456 </v>
   <v>       0.84190004       0.91463293       0.25577886 </v>
   <v>       0.88972609       0.90291434       0.72042635 </v>
   <v>       0.35361526       0.11079479       0.24453636 </v>
   <v>       0.37007900       0.12531529       0.74829126 </v>
   <v>       0.36880751       0.62030615       0.23546827 </v>
   <v>       0.37275367       0.62795401       0.78113804 </v>
   <v>       0.08312987       0.13913495       0.74587025 </v>
   <v>       0.87149289       0.62641798       0.24731720 </v>
   <v>       0.87433620       0.62914303       0.74891459 </v>
   <v>       0.13558975       0.38466399       0.25064851 </v>
   <v>       0.12575355       0.87818303       0.25337888 </v>
   <v>       0.14015004       0.87025979       0.77360389 </v>
   <v>       0.64387199       0.40994995       0.25978598 </v>
   <v>       0.60048627       0.36602757       0.73635347 </v>
   <v>       0.63076145       0.87537186       0.74985344 </v>
   <v>       0.38320536       0.36159822       0.99526282 </v>
   <v>       0.37705893       0.37131671       0.50377867 </v>
   <v>       0.37372657       0.86005226       0.97908459 </v>
   <v>       0.37808796       0.86978399       0.50828008 </v>
   <v>       0.84377606       0.37645314       0.00012356 </v>
   <v>       0.86962564       0.36956523       0.49554079 </v>
   <v>       0.87771318       0.87157414       0.51924515 </v>
   <v>       0.11590671       0.12823758       0.00226894 </v>
   <v>       0.13299501       0.63063659       0.99166810 </v>
   <v>       0.12215767       0.63192780       0.49144895 </v>
   <v>       0.60656564       0.14646868       0.99287293 </v>
   <v>       0.61770850       0.12678743       0.49114414 </v>
   <v>       0.62778276       0.61454753       0.99288319 </v>
   <v>       0.62313259       0.62326144       0.49882354 </v>
   <v>       0.12289393       0.37391584       0.99832236 </v>
   <v>       0.11915124       0.36628536       0.49638759 </v>
   <v>       0.11723656       0.87477843       0.98991691 </v>
   <v>       0.12782767       0.89412875       0.50127841 </v>
   <v>       0.62492176       0.37138198       0.49630668 </v>
   <v>       0.63674220       0.88002440       0.99503137 </v>
   <v>       0.62689351       0.87557795       0.50357992 </v>
   <v>       0.36170771       0.11415134       0.00424028 </v>
   <v>       0.36189327       0.11520754       0.49467107 </v>
   <v>       0.37226414       0.61782311       0.99757900 </v>
   <v>       0.36655187       0.62463342       0.49778680 </v>
   <v>       0.86441217       0.10677137       0.99967267 </v>
   <v>       0.88623689       0.11591152       0.50668504 </v>
   <v>       0.88233829       0.63999651       0.99753200 </v>
   <v>       0.87443429       0.62059273       0.50599990 </v>
   <v>       0.98004706       0.97121649       0.11652185 </v>
   <v>       0.00119190       0.50274208       0.12082400 </v>
   <v>       0.01410632       0.48470591       0.63382473 </v>
   <v>       0.51104043       0.97537192       0.13020943 </v>
   <v>       0.50539527       0.01396269       0.62806996 </v>
   <v>       0.52212787       0.47973436       0.11612948 </v>
   <v>       0.48624080       0.51822482       0.63061253 </v>
   <v>       0.01696061       0.03481311       0.37098160 </v>
   <v>       0.96800705       0.98931066       0.88097854 </v>
   <v>       0.99024751       0.50109301       0.37265840 </v>
   <v>       0.00158373       0.48528886       0.87256764 </v>
   <v>       0.51385410       0.97396637       0.36022760 </v>
   <v>       0.49553711       0.00255207       0.87249312 </v>
   <v>       0.48939849       0.50762188       0.37215091 </v>
   <v>       0.51825863       0.46478165       0.87836905 </v>
   <v>       0.23737447       0.23785252       0.37468149 </v>
   <v>       0.26857220       0.76478981       0.36967693 </v>
   <v>       0.75302952       0.21983585       0.36558081 </v>
   <v>       0.75471375       0.75592012       0.37574795 </v>
   <v>       0.76996158       0.76540074       0.87426549 </v>
   <v>       0.24763219       0.25807210       0.12191734 </v>
   <v>       0.22108844       0.22639341       0.62046595 </v>
   <v>       0.26566789       0.77989876       0.13012946 </v>
   <v>       0.24083650       0.74087446       0.62559572 </v>
   <v>       0.71077105       0.20414020       0.15294325 </v>
   <v>       0.75237473       0.23365808       0.61861333 </v>
   <v>       0.75658567       0.76174168       0.12188718 </v>
   <v>       0.74139003       0.73933496       0.62785258 </v>
  </varray>
 </structure>
</modeling>
