<?xml version="1.0" encoding="ISO-8859-1"?>
<modeling>
 <generator>
  <i name="program" type="string">vasp </i>
  <i name="version" type="string">5.4.1  </i>
  <i name="subversion" type="string">05Feb16 (build Jan 25 2017 20:16:33) complex                          parallel </i>
  <i name="platform" type="string">BWXE6 </i>
  <i name="date" type="string">2019 06 25 </i>
  <i name="time" type="string">10:10:31 </i>
 </generator>
 <incar>
  <i type="string" name="SYSTEM"> STF</i>
  <i type="string" name="PREC">normal</i>
  <i type="string" name="ALGO"> Fast</i>
  <i type="int" name="ISPIN">     2</i>
  <i type="int" name="NELM">    40</i>
  <i type="int" name="NELMIN">     8</i>
  <i type="int" name="IBRION">     2</i>
  <i name="EDIFF">      0.00010000</i>
  <i name="EDIFFG">     -0.03000000</i>
  <i type="int" name="NSW">    30</i>
  <i type="int" name="ISIF">     3</i>
  <i name="ENCUT">    520.00000000</i>
  <i type="int" name="NBANDS">   768</i>
  <v name="MAGMOM">      0.60000000      0.60000000      0.60000000      0.60000000      0.60000000      0.60000000      0.60000000      0.60000000      0.60000000      0.60000000      0.60000000      0.60000000      0.60000000      0.60000000      0.60000000      0.60000000      0.60000000      0.60000000      0.60000000      0.60000000
      0.60000000      0.60000000      0.60000000      0.60000000      0.60000000      0.60000000      0.60000000      0.60000000      0.60000000      0.60000000      0.60000000      0.60000000      0.60000000      0.60000000      0.60000000      0.60000000      0.60000000      0.60000000      0.60000000      0.60000000
      0.60000000      0.60000000      0.60000000      0.60000000      0.60000000      0.60000000      0.60000000      0.60000000      0.60000000      0.60000000      0.60000000      0.60000000      0.60000000      0.60000000      0.60000000      0.60000000      5.00000000      5.00000000      5.00000000      5.00000000
      5.00000000      5.00000000      5.00000000      5.00000000      0.60000000      0.60000000      0.60000000      0.60000000      0.60000000      0.60000000      0.60000000      0.60000000      0.60000000      0.60000000      0.60000000      0.60000000      0.60000000      0.60000000      0.60000000      0.60000000
      0.60000000      0.60000000      0.60000000      0.60000000      0.60000000      0.60000000      0.60000000      0.60000000      0.60000000      0.60000000      0.60000000      0.60000000      0.60000000      0.60000000      0.60000000      0.60000000      0.60000000      0.60000000      0.60000000      0.60000000
      0.60000000      0.60000000      0.60000000      0.60000000      0.60000000      0.60000000      0.60000000      0.60000000      0.60000000      0.60000000      0.60000000      0.60000000      0.60000000      0.60000000      0.60000000      0.60000000      0.60000000      0.60000000      0.60000000      0.60000000
      0.60000000      0.60000000      0.60000000      0.60000000      0.60000000      0.60000000      0.60000000      0.60000000      0.60000000      0.60000000      0.60000000      0.60000000      0.60000000      0.60000000      0.60000000      0.60000000      0.60000000      0.60000000      0.60000000      0.60000000
      0.60000000      0.60000000      0.60000000      0.60000000      0.60000000      0.60000000      0.60000000      0.60000000      0.60000000      0.60000000      0.60000000      0.60000000      0.60000000      0.60000000      0.60000000      0.60000000</v>
  <i type="string" name="LREAL"> Auto</i>
  <i type="int" name="ISMEAR">     0</i>
  <i name="SIGMA">      0.05000000</i>
  <i type="int" name="LMAXMIX">     4</i>
  <v type="int" name="KPOINT_BSE">    -1     0     0     0</v>
  <i type="int" name="NELM">    40</i>
  <i type="logical" name="LDAU"> T  </i>
  <v type="int" name="LDAUTYPE">     2</v>
  <v type="int" name="LDAUL">     0     2     2     0</v>
  <v name="LDAUU">      0.00000000      3.00000000      5.00000000      0.00000000</v>
  <v name="LDAUJ">      0.00000000      0.00000000      0.00000000      0.00000000</v>
  <i type="int" name="LDAUPRINT">     1</i>
 </incar>
 <kpoints>
  <generation param="Monkhorst-Pack">
   <v type="int" name="divisions">       2        2        2 </v>
   <v name="usershift">      0.00000000       0.00000000       0.00000000 </v>
   <v name="genvec1">      0.50000000      -0.00000000      -0.00000000 </v>
   <v name="genvec2">      0.00000000       0.50000000       0.00000000 </v>
   <v name="genvec3">      0.00000000       0.00000000       0.50000000 </v>
   <v name="shift">      0.50000000       0.50000000       0.50000000 </v>
  </generation>
  <varray name="kpointlist" >
   <v>       0.25000000       0.25000000       0.25000000 </v>
   <v>      -0.25000000       0.25000000       0.25000000 </v>
   <v>       0.25000000      -0.25000000       0.25000000 </v>
   <v>      -0.25000000      -0.25000000       0.25000000 </v>
  </varray>
  <varray name="weights" >
   <v>       0.25000000 </v>
   <v>       0.25000000 </v>
   <v>       0.25000000 </v>
   <v>       0.25000000 </v>
  </varray>
 </kpoints>
 <parameters>
  <separator name="general" >
   <i type="string" name="SYSTEM">STF</i>
   <i type="logical" name="LCOMPAT"> F  </i>
  </separator>
  <separator name="electronic" >
   <i type="string" name="PREC">normal</i>
   <i name="ENMAX">    520.00000000</i>
   <i name="ENAUG">    605.39200000</i>
   <i name="EDIFF">      0.00010000</i>
   <i type="int" name="IALGO">    68</i>
   <i type="int" name="IWAVPR">    11</i>
   <i type="int" name="NBANDS">   768</i>
   <i name="NELECT">   1032.00000000</i>
   <i type="int" name="TURBO">     0</i>
   <i type="int" name="IRESTART">     0</i>
   <i type="int" name="NREBOOT">     0</i>
   <i type="int" name="NMIN">     0</i>
   <i name="EREF">      0.00000000</i>
   <separator name="electronic smearing" >
    <i type="int" name="ISMEAR">     0</i>
    <i name="SIGMA">      0.05000000</i>
    <i name="KSPACING">      0.50000000</i>
    <i type="logical" name="KGAMMA"> T  </i>
   </separator>
   <separator name="electronic projectors" >
    <i type="logical" name="LREAL"> T  </i>
    <v name="ROPT">     -0.00050000     -0.00050000     -0.00050000     -0.00050000</v>
    <i type="int" name="LMAXPAW">  -100</i>
    <i type="int" name="LMAXMIX">     4</i>
    <i type="logical" name="NLSPLINE"> F  </i>
   </separator>
   <separator name="electronic startup" >
    <i type="int" name="ISTART">     1</i>
    <i type="int" name="ICHARG">     0</i>
    <i type="int" name="INIWAV">     1</i>
   </separator>
   <separator name="electronic spin" >
    <i type="int" name="ISPIN">     2</i>
    <i type="logical" name="LNONCOLLINEAR"> F  </i>
    <v name="MAGMOM">      0.60000000      0.60000000      0.60000000      0.60000000      0.60000000      0.60000000      0.60000000      0.60000000      0.60000000      0.60000000      0.60000000      0.60000000      0.60000000      0.60000000      0.60000000      0.60000000      0.60000000      0.60000000      0.60000000      0.60000000
      0.60000000      0.60000000      0.60000000      0.60000000      0.60000000      0.60000000      0.60000000      0.60000000      0.60000000      0.60000000      0.60000000      0.60000000      0.60000000      0.60000000      0.60000000      0.60000000      0.60000000      0.60000000      0.60000000      0.60000000
      0.60000000      0.60000000      0.60000000      0.60000000      0.60000000      0.60000000      0.60000000      0.60000000      0.60000000      0.60000000      0.60000000      0.60000000      0.60000000      0.60000000      0.60000000      0.60000000      5.00000000      5.00000000      5.00000000      5.00000000
      5.00000000      5.00000000      5.00000000      5.00000000      0.60000000      0.60000000      0.60000000      0.60000000      0.60000000      0.60000000      0.60000000      0.60000000      0.60000000      0.60000000      0.60000000      0.60000000      0.60000000      0.60000000      0.60000000      0.60000000
      0.60000000      0.60000000      0.60000000      0.60000000      0.60000000      0.60000000      0.60000000      0.60000000      0.60000000      0.60000000      0.60000000      0.60000000      0.60000000      0.60000000      0.60000000      0.60000000      0.60000000      0.60000000      0.60000000      0.60000000
      0.60000000      0.60000000      0.60000000      0.60000000      0.60000000      0.60000000      0.60000000      0.60000000      0.60000000      0.60000000      0.60000000      0.60000000      0.60000000      0.60000000      0.60000000      0.60000000      0.60000000      0.60000000      0.60000000      0.60000000
      0.60000000      0.60000000      0.60000000      0.60000000      0.60000000      0.60000000      0.60000000      0.60000000      0.60000000      0.60000000      0.60000000      0.60000000      0.60000000      0.60000000      0.60000000      0.60000000      0.60000000      0.60000000      0.60000000      0.60000000
      0.60000000      0.60000000      0.60000000      0.60000000      0.60000000      0.60000000      0.60000000      0.60000000      0.60000000      0.60000000      0.60000000      0.60000000      0.60000000      0.60000000      0.60000000      0.60000000</v>
    <i name="NUPDOWN">     -1.00000000</i>
    <i type="logical" name="LSORBIT"> F  </i>
    <v name="SAXIS">      0.00000000      0.00000000      1.00000000</v>
    <i type="logical" name="LSPIRAL"> F  </i>
    <v name="QSPIRAL">      0.00000000      0.00000000      0.00000000</v>
    <i type="logical" name="LZEROZ"> F  </i>
   </separator>
   <separator name="electronic exchange-correlation" >
    <i type="logical" name="LASPH"> F  </i>
    <i type="logical" name="LMETAGGA"> F  </i>
   </separator>
   <separator name="electronic convergence" >
    <i type="int" name="NELM">    40</i>
    <i type="int" name="NELMDL">     0</i>
    <i type="int" name="NELMIN">     8</i>
    <i name="ENINI">    520.00000000</i>
    <separator name="electronic convergence detail" >
     <i type="logical" name="LDIAG"> T  </i>
     <i type="logical" name="LSUBROT"> F  </i>
     <i name="WEIMIN">      0.00100000</i>
     <i name="EBREAK">      0.00000003</i>
     <i name="DEPER">      0.30000000</i>
     <i type="int" name="NRMM">     4</i>
     <i name="TIME">      0.40000000</i>
    </separator>
   </separator>
   <separator name="electronic mixer" >
    <i name="AMIX">      0.40000000</i>
    <i name="BMIX">      1.00000000</i>
    <i name="AMIN">      0.10000000</i>
    <i name="AMIX_MAG">      1.60000000</i>
    <i name="BMIX_MAG">      1.00000000</i>
    <separator name="electronic mixer details" >
     <i type="int" name="IMIX">     4</i>
     <i type="logical" name="MIXFIRST"> F  </i>
     <i type="int" name="MAXMIX">   -45</i>
     <i name="WC">    100.00000000</i>
     <i type="int" name="INIMIX">     1</i>
     <i type="int" name="MIXPRE">     1</i>
     <i type="int" name="MREMOVE">     5</i>
    </separator>
   </separator>
   <separator name="electronic dipolcorrection" >
    <i type="logical" name="LDIPOL"> F  </i>
    <i type="logical" name="LMONO"> F  </i>
    <i type="int" name="IDIPOL">     0</i>
    <i name="EPSILON">      1.00000000</i>
    <v name="DIPOL">   -100.00000000   -100.00000000   -100.00000000</v>
    <i name="EFIELD">      0.00000000</i>
   </separator>
  </separator>
  <separator name="grids" >
   <i type="int" name="NGX">    64</i>
   <i type="int" name="NGY">    64</i>
   <i type="int" name="NGZ">    90</i>
   <i type="int" name="NGXF">   128</i>
   <i type="int" name="NGYF">   128</i>
   <i type="int" name="NGZF">   180</i>
   <i type="logical" name="ADDGRID"> F  </i>
  </separator>
  <separator name="ionic" >
   <i type="int" name="NSW">    30</i>
   <i type="int" name="IBRION">     2</i>
   <i type="int" name="ISIF">     3</i>
   <i name="PSTRESS">      0.00000000</i>
   <i name="EDIFFG">     -0.03000000</i>
   <i type="int" name="NFREE">     1</i>
   <i name="POTIM">      0.50000000</i>
   <i name="SMASS">     -3.00000000</i>
   <i name="SCALEE">      1.00000000</i>
  </separator>
  <separator name="ionic md" >
   <i name="TEBEG">      0.00010000</i>
   <i name="TEEND">      0.00010000</i>
   <i type="int" name="NBLOCK">     1</i>
   <i type="int" name="KBLOCK">    30</i>
   <i type="int" name="NPACO">   256</i>
   <i name="APACO">     16.00000000</i>
  </separator>
  <separator name="symmetry" >
   <i type="int" name="ISYM">     2</i>
   <i name="SYMPREC">      0.00001000</i>
  </separator>
  <separator name="dos" >
   <i type="logical" name="LORBIT"> F  </i>
   <v name="RWIGS">     -1.00000000     -1.00000000     -1.00000000     -1.00000000</v>
   <i type="int" name="NEDOS">   301</i>
   <i name="EMIN">     10.00000000</i>
   <i name="EMAX">    -10.00000000</i>
   <i name="EFERMI">      0.00000000</i>
  </separator>
  <separator name="writing" >
   <i type="int" name="NWRITE">     2</i>
   <i type="logical" name="LWAVE"> T  </i>
   <i type="logical" name="LCHARG"> T  </i>
   <i type="logical" name="LPARD"> F  </i>
   <i type="logical" name="LVTOT"> F  </i>
   <i type="logical" name="LVHAR"> F  </i>
   <i type="logical" name="LELF"> F  </i>
   <i type="logical" name="LOPTICS"> F  </i>
   <v name="STM">      0.00000000      0.00000000      0.00000000      0.00000000      0.00000000      0.00000000      0.00000000</v>
  </separator>
  <separator name="performance" >
   <i type="int" name="NPAR">     2</i>
   <i type="int" name="NSIM">     4</i>
   <i type="int" name="NBLK">    -1</i>
   <i type="logical" name="LPLANE"> T  </i>
   <i type="logical" name="LSCALAPACK"> T  </i>
   <i type="logical" name="LSCAAWARE"> F  </i>
   <i type="logical" name="LSCALU"> F  </i>
   <i type="logical" name="LASYNC"> F  </i>
   <i type="logical" name="LORBITALREAL"> F  </i>
  </separator>
  <separator name="miscellaneous" >
   <i type="int" name="IDIOT">     3</i>
   <i type="logical" name="LMUSIC"> F  </i>
   <v name="POMASS">     87.62000000     47.88000000     55.84700000     16.00000000</v>
   <v name="DARWINR">      0.00000000      0.00000000      0.00000000      0.00000000</v>
   <v name="DARWINV">      1.00000000      1.00000000      1.00000000      1.00000000</v>
   <i type="logical" name="LCORR"> T  </i>
  </separator>
  <i type="logical" name="GGA_COMPAT"> T  </i>
  <i type="logical" name="LBERRY"> F  </i>
  <i type="int" name="ICORELEVEL">     0</i>
  <i type="logical" name="LDAU"> T  </i>
  <v type="int" name="LDAUTYPE">     2</v>
  <v type="int" name="LDAUL">     0</v>
  <v name="LDAUU">      0.00000000</v>
  <v name="LDAUJ">      0.00000000</v>
  <i type="int" name="LDAUPRINT">     1</i>
  <i type="int" name="I_CONSTRAINED_M">     0</i>
  <separator name="electronic exchange-correlation" >
   <i type="string" name="GGA">--</i>
   <i type="int" name="VOSKOWN">     0</i>
   <i type="logical" name="LHFCALC"> F  </i>
   <i type="string" name="PRECFOCK"></i>
   <i type="logical" name="LSYMGRAD"> F  </i>
   <i type="logical" name="LHFONE"> F  </i>
   <i type="logical" name="LRHFCALC"> F  </i>
   <i type="logical" name="LTHOMAS"> F  </i>
   <i type="logical" name="LMODELHF"> F  </i>
   <i name="ENCUT4O">     -1.00000000</i>
   <i type="int" name="EXXOEP">     0</i>
   <i type="int" name="FOURORBIT">     0</i>
   <i name="AEXX">      0.00000000</i>
   <i name="HFALPHA">      0.00000000</i>
   <i name="MCALPHA">      0.00000000</i>
   <i name="ALDAX">      1.00000000</i>
   <i name="AGGAX">      1.00000000</i>
   <i name="ALDAC">      1.00000000</i>
   <i name="AGGAC">      1.00000000</i>
   <i type="int" name="NKREDX">     1</i>
   <i type="int" name="NKREDY">     1</i>
   <i type="int" name="NKREDZ">     1</i>
   <i type="logical" name="SHIFTRED"> F  </i>
   <i type="logical" name="ODDONLY"> F  </i>
   <i type="logical" name="EVENONLY"> F  </i>
   <i type="int" name="LMAXFOCK">     0</i>
   <i type="int" name="NMAXFOCKAE">     0</i>
   <i type="logical" name="LFOCKAEDFT"> F  </i>
   <i name="HFSCREEN">      0.00000000</i>
   <i name="HFSCREENC">      0.00000000</i>
   <i type="int" name="NBANDSGWLOW">     0</i>
  </separator>
  <separator name="vdW DFT" >
   <i type="logical" name="LUSE_VDW"> F  </i>
   <i name="Zab_VDW">     -0.84910000</i>
   <i name="PARAM1">      0.12340000</i>
   <i name="PARAM2">      1.00000000</i>
   <i name="PARAM3">      0.00000000</i>
  </separator>
  <separator name="model GW" >
   <i type="int" name="MODEL_GW">     0</i>
   <i name="MODEL_EPS0">      7.71358226</i>
   <i name="MODEL_ALPHA">      1.00000000</i>
  </separator>
  <separator name="linear response parameters" >
   <i type="logical" name="LEPSILON"> F  </i>
   <i type="logical" name="LRPA"> F  </i>
   <i type="logical" name="LNABLA"> F  </i>
   <i type="logical" name="LVEL"> F  </i>
   <i type="int" name="KINTER">     0</i>
   <i name="CSHIFT">      0.10000000</i>
   <i name="OMEGAMAX">     -1.00000000</i>
   <i name="DEG_THRESHOLD">      0.00200000</i>
  </separator>
  <separator name="orbital magnetization" >
   <i type="logical" name="NUCIND"> F  </i>
   <v name="MAGPOS">      0.00000000      0.00000000      0.00000000</v>
   <i type="logical" name="LNICSALL"> T  </i>
   <i type="logical" name="ORBITALMAG"> F  </i>
   <i type="logical" name="LMAGBLOCH"> F  </i>
   <i type="logical" name="LCHIMAG"> F  </i>
   <i type="logical" name="LGAUGE"> T  </i>
   <i type="int" name="MAGATOM">     0</i>
   <v name="MAGDIPOL">      0.00000000      0.00000000      0.00000000</v>
   <v name="AVECCONST">      0.00000000      0.00000000      0.00000000</v>
  </separator>
  <separator name="response functions" >
   <i type="logical" name="LADDER"> F  </i>
   <i type="logical" name="LFXC"> F  </i>
   <i type="logical" name="LHARTREE"> T  </i>
   <i type="int" name="IBSE">     0</i>
   <v type="int" name="KPOINT">    -1     0     0     0</v>
   <i type="logical" name="LTCTE"> F  </i>
   <i type="logical" name="LTETE"> F  </i>
   <i type="logical" name="LTRIPLET"> F  </i>
   <i type="logical" name="LFXCEPS"> F  </i>
   <i type="logical" name="LFXHEG"> F  </i>
   <i type="int" name="NATURALO">     0</i>
   <i type="logical" name="L2ORDER"> F  </i>
   <i type="logical" name="LUSEW"> F  </i>
   <i name="ENCUTGW">     -2.00000000</i>
   <i name="ENCUTGWSOFT">     -2.00000000</i>
   <i name="ENCUTLF">     -1.00000000</i>
   <i type="int" name="LMAXMP2">    -1</i>
   <i name="SCISSOR">      0.00000000</i>
   <i type="int" name="NOMEGA">     0</i>
   <i type="int" name="NOMEGAR">     0</i>
   <i type="int" name="NBANDSGW">    -1</i>
   <i type="int" name="NBANDSO">    -1</i>
   <i type="int" name="NBANDSV">    -1</i>
   <i type="int" name="NELM">    40</i>
   <i type="int" name="NELMHF">     1</i>
   <i type="int" name="DIM">     3</i>
   <i type="int" name="ANTIRES">     0</i>
   <i name="OMEGAMAX">    -30.00000000</i>
   <i name="OMEGAMIN">    -30.00000000</i>
   <i name="OMEGATL">   -200.00000000</i>
   <i type="int" name="OMEGAGRID">     0</i>
   <i name="CSHIFT">     -0.10000000</i>
   <i type="logical" name="SELFENERGY"> F  </i>
   <i type="logical" name="LSPECTRAL"> F  </i>
   <i type="logical" name="LSPECTRALGW"> F  </i>
   <i type="logical" name="LSINGLES"> F  </i>
   <i type="logical" name="LFERMIGW"> F  </i>
   <i type="logical" name="ODDONLYGW"> F  </i>
   <i type="logical" name="EVENONLYGW"> F  </i>
   <i type="int" name="NKREDLFX">     1</i>
   <i type="int" name="NKREDLFY">     1</i>
   <i type="int" name="NKREDLFZ">     1</i>
   <i type="int" name="MAXMEM">  1800</i>
   <i type="int" name="TELESCOPE">     0</i>
   <i type="int" name="TAUPAR">     1</i>
   <i type="int" name="OMEGAPAR">    -1</i>
   <i name="LAMBDA">      1.00000000</i>
  </separator>
  <separator name="External order field" >
   <i name="OFIELD_KAPPA">      0.00000000</i>
   <v name="OFIELD_K">      0.00000000      0.00000000      0.00000000</v>
   <i name="OFIELD_Q6_NEAR">      0.00000000</i>
   <i name="OFIELD_Q6_FAR">      0.00000000</i>
   <i name="OFIELD_A">      0.00000000</i>
  </separator>
 </parameters>
 <atominfo>
  <atoms>     156 </atoms>
  <types>       4 </types>
  <array name="atoms" >
   <dimension dim="1">ion</dimension>
   <field type="string">element</field>
   <field type="int">atomtype</field>
   <set>
    <rc><c>Sr</c><c>   1</c></rc>
    <rc><c>Sr</c><c>   1</c></rc>
    <rc><c>Sr</c><c>   1</c></rc>
    <rc><c>Sr</c><c>   1</c></rc>
    <rc><c>Sr</c><c>   1</c></rc>
    <rc><c>Sr</c><c>   1</c></rc>
    <rc><c>Sr</c><c>   1</c></rc>
    <rc><c>Sr</c><c>   1</c></rc>
    <rc><c>Sr</c><c>   1</c></rc>
    <rc><c>Sr</c><c>   1</c></rc>
    <rc><c>Sr</c><c>   1</c></rc>
    <rc><c>Sr</c><c>   1</c></rc>
    <rc><c>Sr</c><c>   1</c></rc>
    <rc><c>Sr</c><c>   1</c></rc>
    <rc><c>Sr</c><c>   1</c></rc>
    <rc><c>Sr</c><c>   1</c></rc>
    <rc><c>Sr</c><c>   1</c></rc>
    <rc><c>Sr</c><c>   1</c></rc>
    <rc><c>Sr</c><c>   1</c></rc>
    <rc><c>Sr</c><c>   1</c></rc>
    <rc><c>Sr</c><c>   1</c></rc>
    <rc><c>Sr</c><c>   1</c></rc>
    <rc><c>Sr</c><c>   1</c></rc>
    <rc><c>Sr</c><c>   1</c></rc>
    <rc><c>Sr</c><c>   1</c></rc>
    <rc><c>Sr</c><c>   1</c></rc>
    <rc><c>Sr</c><c>   1</c></rc>
    <rc><c>Sr</c><c>   1</c></rc>
    <rc><c>Sr</c><c>   1</c></rc>
    <rc><c>Sr</c><c>   1</c></rc>
    <rc><c>Sr</c><c>   1</c></rc>
    <rc><c>Sr</c><c>   1</c></rc>
    <rc><c>Ti</c><c>   2</c></rc>
    <rc><c>Ti</c><c>   2</c></rc>
    <rc><c>Ti</c><c>   2</c></rc>
    <rc><c>Ti</c><c>   2</c></rc>
    <rc><c>Ti</c><c>   2</c></rc>
    <rc><c>Ti</c><c>   2</c></rc>
    <rc><c>Ti</c><c>   2</c></rc>
    <rc><c>Ti</c><c>   2</c></rc>
    <rc><c>Ti</c><c>   2</c></rc>
    <rc><c>Ti</c><c>   2</c></rc>
    <rc><c>Ti</c><c>   2</c></rc>
    <rc><c>Ti</c><c>   2</c></rc>
    <rc><c>Ti</c><c>   2</c></rc>
    <rc><c>Ti</c><c>   2</c></rc>
    <rc><c>Ti</c><c>   2</c></rc>
    <rc><c>Ti</c><c>   2</c></rc>
    <rc><c>Ti</c><c>   2</c></rc>
    <rc><c>Ti</c><c>   2</c></rc>
    <rc><c>Ti</c><c>   2</c></rc>
    <rc><c>Ti</c><c>   2</c></rc>
    <rc><c>Ti</c><c>   2</c></rc>
    <rc><c>Ti</c><c>   2</c></rc>
    <rc><c>Ti</c><c>   2</c></rc>
    <rc><c>Ti</c><c>   2</c></rc>
    <rc><c>Fe</c><c>   3</c></rc>
    <rc><c>Fe</c><c>   3</c></rc>
    <rc><c>Fe</c><c>   3</c></rc>
    <rc><c>Fe</c><c>   3</c></rc>
    <rc><c>Fe</c><c>   3</c></rc>
    <rc><c>Fe</c><c>   3</c></rc>
    <rc><c>Fe</c><c>   3</c></rc>
    <rc><c>Fe</c><c>   3</c></rc>
    <rc><c>O </c><c>   4</c></rc>
    <rc><c>O </c><c>   4</c></rc>
    <rc><c>O </c><c>   4</c></rc>
    <rc><c>O </c><c>   4</c></rc>
    <rc><c>O </c><c>   4</c></rc>
    <rc><c>O </c><c>   4</c></rc>
    <rc><c>O </c><c>   4</c></rc>
    <rc><c>O </c><c>   4</c></rc>
    <rc><c>O </c><c>   4</c></rc>
    <rc><c>O </c><c>   4</c></rc>
    <rc><c>O </c><c>   4</c></rc>
    <rc><c>O </c><c>   4</c></rc>
    <rc><c>O </c><c>   4</c></rc>
    <rc><c>O </c><c>   4</c></rc>
    <rc><c>O </c><c>   4</c></rc>
    <rc><c>O </c><c>   4</c></rc>
    <rc><c>O </c><c>   4</c></rc>
    <rc><c>O </c><c>   4</c></rc>
    <rc><c>O </c><c>   4</c></rc>
    <rc><c>O </c><c>   4</c></rc>
    <rc><c>O </c><c>   4</c></rc>
    <rc><c>O </c><c>   4</c></rc>
    <rc><c>O </c><c>   4</c></rc>
    <rc><c>O </c><c>   4</c></rc>
    <rc><c>O </c><c>   4</c></rc>
    <rc><c>O </c><c>   4</c></rc>
    <rc><c>O </c><c>   4</c></rc>
    <rc><c>O </c><c>   4</c></rc>
    <rc><c>O </c><c>   4</c></rc>
    <rc><c>O </c><c>   4</c></rc>
    <rc><c>O </c><c>   4</c></rc>
    <rc><c>O </c><c>   4</c></rc>
    <rc><c>O </c><c>   4</c></rc>
    <rc><c>O </c><c>   4</c></rc>
    <rc><c>O </c><c>   4</c></rc>
    <rc><c>O </c><c>   4</c></rc>
    <rc><c>O </c><c>   4</c></rc>
    <rc><c>O </c><c>   4</c></rc>
    <rc><c>O </c><c>   4</c></rc>
    <rc><c>O </c><c>   4</c></rc>
    <rc><c>O </c><c>   4</c></rc>
    <rc><c>O </c><c>   4</c></rc>
    <rc><c>O </c><c>   4</c></rc>
    <rc><c>O </c><c>   4</c></rc>
    <rc><c>O </c><c>   4</c></rc>
    <rc><c>O </c><c>   4</c></rc>
    <rc><c>O </c><c>   4</c></rc>
    <rc><c>O </c><c>   4</c></rc>
    <rc><c>O </c><c>   4</c></rc>
    <rc><c>O </c><c>   4</c></rc>
    <rc><c>O </c><c>   4</c></rc>
    <rc><c>O </c><c>   4</c></rc>
    <rc><c>O </c><c>   4</c></rc>
    <rc><c>O </c><c>   4</c></rc>
    <rc><c>O </c><c>   4</c></rc>
    <rc><c>O </c><c>   4</c></rc>
    <rc><c>O </c><c>   4</c></rc>
    <rc><c>O </c><c>   4</c></rc>
    <rc><c>O </c><c>   4</c></rc>
    <rc><c>O </c><c>   4</c></rc>
    <rc><c>O </c><c>   4</c></rc>
    <rc><c>O </c><c>   4</c></rc>
    <rc><c>O </c><c>   4</c></rc>
    <rc><c>O </c><c>   4</c></rc>
    <rc><c>O </c><c>   4</c></rc>
    <rc><c>O </c><c>   4</c></rc>
    <rc><c>O </c><c>   4</c></rc>
    <rc><c>O </c><c>   4</c></rc>
    <rc><c>O </c><c>   4</c></rc>
    <rc><c>O </c><c>   4</c></rc>
    <rc><c>O </c><c>   4</c></rc>
    <rc><c>O </c><c>   4</c></rc>
    <rc><c>O </c><c>   4</c></rc>
    <rc><c>O </c><c>   4</c></rc>
    <rc><c>O </c><c>   4</c></rc>
    <rc><c>O </c><c>   4</c></rc>
    <rc><c>O </c><c>   4</c></rc>
    <rc><c>O </c><c>   4</c></rc>
    <rc><c>O </c><c>   4</c></rc>
    <rc><c>O </c><c>   4</c></rc>
    <rc><c>O </c><c>   4</c></rc>
    <rc><c>O </c><c>   4</c></rc>
    <rc><c>O </c><c>   4</c></rc>
    <rc><c>O </c><c>   4</c></rc>
    <rc><c>O </c><c>   4</c></rc>
    <rc><c>O </c><c>   4</c></rc>
    <rc><c>O </c><c>   4</c></rc>
    <rc><c>O </c><c>   4</c></rc>
    <rc><c>O </c><c>   4</c></rc>
    <rc><c>O </c><c>   4</c></rc>
    <rc><c>O </c><c>   4</c></rc>
    <rc><c>O </c><c>   4</c></rc>
   </set>
  </array>
  <array name="atomtypes" >
   <dimension dim="1">type</dimension>
   <field type="int">atomspertype</field>
   <field type="string">element</field>
   <field>mass</field>
   <field>valence</field>
   <field type="string">pseudopotential</field>
   <set>
    <rc><c>  32</c><c>Sr</c><c>     87.62000000</c><c>     10.00000000</c><c>  PAW_PBE Sr_sv 07Sep2000               </c></rc>
    <rc><c>  24</c><c>Ti</c><c>     47.88000000</c><c>      4.00000000</c><c>  PAW_PBE Ti 08Apr2002                  </c></rc>
    <rc><c>   8</c><c>Fe</c><c>     55.84700000</c><c>      8.00000000</c><c>  PAW_PBE Fe 06Sep2000                  </c></rc>
    <rc><c>  92</c><c>O </c><c>     16.00000000</c><c>      6.00000000</c><c>  PAW_PBE O 08Apr2002                   </c></rc>
   </set>
  </array>
 </atominfo>
 <structure name="initialpos" >
  <crystal>
   <varray name="basis" >
    <v>      11.21319524      -0.00937831      -0.00240141 </v>
    <v>      -0.00931775      11.21703281       0.00255948 </v>
    <v>      -0.00344127       0.00366444      15.94492327 </v>
   </varray>
   <i name="volume">   2005.53138889 </i>
   <varray name="rec_basis" >
    <v>       0.08918071       0.00007408       0.00001923 </v>
    <v>       0.00007456       0.08915020      -0.00002047 </v>
    <v>       0.00001342      -0.00001430       0.06271589 </v>
   </varray>
  </crystal>
  <varray name="positions" >
   <v>       0.99699640       0.24533663       0.12767420 </v>
   <v>       0.99788092       0.25102142       0.63173359 </v>
   <v>       0.00833179       0.75438012       0.12637108 </v>
   <v>       0.00539730       0.74688758       0.63206425 </v>
   <v>       0.50532785       0.25159722       0.12389180 </v>
   <v>       0.50143133       0.25188233       0.63649638 </v>
   <v>       0.49740254       0.74742028       0.12060563 </v>
   <v>       0.49461749       0.74769905       0.63474379 </v>
   <v>       0.99726336       0.25128794       0.36532106 </v>
   <v>       0.99868542       0.24409069       0.87486467 </v>
   <v>       0.00286148       0.74668988       0.36839837 </v>
   <v>       0.01248319       0.75395863       0.87339194 </v>
   <v>       0.50154045       0.25145782       0.36138845 </v>
   <v>       0.50277986       0.25172713       0.87974026 </v>
   <v>       0.49769222       0.74738404       0.36477040 </v>
   <v>       0.49352518       0.74784441       0.87863033 </v>
   <v>       0.25187283       0.99956396       0.12321220 </v>
   <v>       0.24401524       0.99408803       0.63208323 </v>
   <v>       0.25673611       0.49955313       0.12632397 </v>
   <v>       0.24263996       0.50211322       0.62982043 </v>
   <v>       0.75165401       0.00969561       0.12221261 </v>
   <v>       0.75523086       0.99595570       0.63762650 </v>
   <v>       0.74424428       0.49203008       0.12520693 </v>
   <v>       0.75103257       0.50068687       0.63059366 </v>
   <v>       0.24422386       0.99878336       0.36740436 </v>
   <v>       0.25157104       0.99352357       0.87794492 </v>
   <v>       0.24301469       0.49708369       0.36940800 </v>
   <v>       0.25656631       0.50733284       0.87569580 </v>
   <v>       0.75511249       0.99719091       0.36143115 </v>
   <v>       0.75278740       0.00533988       0.88053616 </v>
   <v>       0.75086846       0.49805217       0.36727898 </v>
   <v>       0.74367190       0.49552433       0.87636553 </v>
   <v>       0.00088189       0.99847478       0.00022120 </v>
   <v>       0.99937629       0.99658304       0.49985186 </v>
   <v>       0.00730451       0.48918592       0.99983225 </v>
   <v>       0.50013821       0.00092388       0.00026930 </v>
   <v>       0.49861637       0.00665824       0.50013661 </v>
   <v>       0.49030344       0.51251488       0.50002760 </v>
   <v>       0.25544564       0.24701420       0.00216828 </v>
   <v>       0.23453742       0.25675495       0.49980772 </v>
   <v>       0.24106042       0.75088661       0.50034544 </v>
   <v>       0.75885985       0.24595441       0.49915317 </v>
   <v>       0.76166328       0.74390627       0.50020680 </v>
   <v>       0.25150636       0.24862726       0.75234239 </v>
   <v>       0.25163975       0.74896688       0.24855687 </v>
   <v>       0.74960518       0.25014103       0.75332522 </v>
   <v>       0.75097394       0.74865518       0.24421748 </v>
   <v>       0.75082052       0.74900819       0.75561369 </v>
   <v>       0.00109064       0.00229407       0.24872158 </v>
   <v>       0.00203367       0.99855106       0.75112446 </v>
   <v>       0.99851696       0.49831742       0.24999691 </v>
   <v>       0.99972682       0.50147904       0.74994728 </v>
   <v>       0.50235826       0.00045275       0.24704714 </v>
   <v>       0.50060609       0.99749123       0.75348182 </v>
   <v>       0.50022257       0.49630884       0.24788895 </v>
   <v>       0.49978542       0.49972875       0.75199925 </v>
   <v>       0.99778656       0.50079115       0.49968998 </v>
   <v>       0.49970610       0.50051415       0.00026476 </v>
   <v>       0.25089840       0.75012093       0.99976360 </v>
   <v>       0.75026790       0.25217142       0.00107418 </v>
   <v>       0.74045248       0.75685099       0.99990463 </v>
   <v>       0.25152001       0.24820090       0.24876823 </v>
   <v>       0.25191439       0.74884427       0.75080782 </v>
   <v>       0.74946469       0.25017629       0.24757176 </v>
   <v>       0.11653750       0.13250944       0.25197866 </v>
   <v>       0.11512949       0.13484786       0.74880998 </v>
   <v>       0.11704141       0.63388668       0.25172039 </v>
   <v>       0.11595290       0.63137531       0.74905526 </v>
   <v>       0.61799925       0.12958455       0.25005972 </v>
   <v>       0.61611624       0.13329424       0.75165900 </v>
   <v>       0.61637511       0.63412155       0.25124418 </v>
   <v>       0.61605996       0.63537103       0.74987898 </v>
   <v>       0.38226740       0.36787927       0.25060588 </v>
   <v>       0.38449005       0.36460387       0.74851954 </v>
   <v>       0.38756050       0.86323456       0.25041253 </v>
   <v>       0.38854377       0.86548515       0.74760893 </v>
   <v>       0.88338520       0.36819544       0.24908621 </v>
   <v>       0.88500778       0.36464959       0.74969963 </v>
   <v>       0.88494385       0.86556315       0.25161032 </v>
   <v>       0.88456105       0.86496246       0.74700719 </v>
   <v>       0.37038849       0.11166525       0.25476704 </v>
   <v>       0.36776821       0.11313190       0.74331541 </v>
   <v>       0.36738911       0.61466633       0.26174158 </v>
   <v>       0.36914996       0.61231940       0.73954448 </v>
   <v>       0.86944130       0.11678248       0.25191333 </v>
   <v>       0.86618054       0.11620478       0.74881299 </v>
   <v>       0.86640893       0.61946805       0.26046707 </v>
   <v>       0.86529286       0.61765654       0.73831227 </v>
   <v>       0.13169235       0.38461173       0.24829419 </v>
   <v>       0.13485010       0.38316681       0.75283162 </v>
   <v>       0.13540185       0.88341321       0.24674269 </v>
   <v>       0.13329946       0.88471599       0.75161736 </v>
   <v>       0.63095612       0.38257564       0.24701299 </v>
   <v>       0.63488960       0.38335700       0.75219636 </v>
   <v>       0.63774137       0.88173346       0.23802852 </v>
   <v>       0.63867025       0.88408865       0.76323906 </v>
   <v>       0.36098030       0.38834935       0.99897623 </v>
   <v>       0.37120885       0.37821554       0.50163426 </v>
   <v>       0.36831187       0.88555149       0.00187786 </v>
   <v>       0.35993490       0.90083435       0.50101651 </v>
   <v>       0.85808440       0.40217054       0.99972700 </v>
   <v>       0.83544205       0.39895262       0.50075291 </v>
   <v>       0.87304431       0.87387386       0.00009379 </v>
   <v>       0.84263200       0.90350886       0.50039148 </v>
   <v>       0.13690201       0.11555351       0.99802156 </v>
   <v>       0.14863979       0.10145108       0.50084630 </v>
   <v>       0.11580591       0.62407996       0.99913251 </v>
   <v>       0.14516909       0.60644075       0.49908842 </v>
   <v>       0.63402543       0.11459896       0.99784453 </v>
   <v>       0.59282576       0.16002265       0.49996103 </v>
   <v>       0.63906180       0.61268870       0.99961017 </v>
   <v>       0.63891986       0.61386171       0.49988894 </v>
   <v>       0.11197714       0.36240907       0.99843268 </v>
   <v>       0.10149941       0.35307177       0.49870762 </v>
   <v>       0.12116422       0.87084530       0.00082741 </v>
   <v>       0.09855171       0.85412212       0.50090754 </v>
   <v>       0.60869499       0.36811177       0.00063518 </v>
   <v>       0.61517783       0.86713739       0.99791350 </v>
   <v>       0.38778201       0.13788422       0.00073278 </v>
   <v>       0.38556528       0.63116498       0.99886190 </v>
   <v>       0.39028762       0.64328170       0.49949025 </v>
   <v>       0.88728496       0.13461531       0.99903643 </v>
   <v>       0.89146070       0.14490832       0.49960797 </v>
   <v>       0.89585649       0.64905850       0.50156825 </v>
   <v>       0.99918418       0.00200180       0.12515837 </v>
   <v>       0.99946705       0.00055644       0.62383827 </v>
   <v>       0.98761956       0.51405545       0.12250652 </v>
   <v>       0.00263577       0.49382207       0.62434325 </v>
   <v>       0.49827299       0.00314424       0.12437725 </v>
   <v>       0.52031362       0.98865163       0.62121926 </v>
   <v>       0.49456099       0.50506390       0.12752733 </v>
   <v>       0.51733152       0.48485750       0.61910871 </v>
   <v>       0.00101637       0.99793762       0.37663276 </v>
   <v>       0.99811113       0.00021824       0.87408181 </v>
   <v>       0.99992686       0.49626319       0.37596500 </v>
   <v>       0.98587169       0.51321827       0.87643762 </v>
   <v>       0.51875754       0.98632947       0.37940664 </v>
   <v>       0.49236225       0.00354139       0.87503001 </v>
   <v>       0.51570441       0.48424655       0.38169450 </v>
   <v>       0.49643565       0.50181156       0.87184842 </v>
   <v>       0.26023956       0.24056175       0.38091848 </v>
   <v>       0.25442042       0.24512820       0.87383163 </v>
   <v>       0.24701680       0.75702439       0.37669037 </v>
   <v>       0.25571935       0.74550711       0.87452560 </v>
   <v>       0.74168066       0.25472986       0.37858035 </v>
   <v>       0.75258252       0.25042430       0.87496222 </v>
   <v>       0.73419533       0.76474774       0.37963027 </v>
   <v>       0.76967453       0.73244532       0.87780130 </v>
   <v>       0.25072855       0.24766812       0.12353219 </v>
   <v>       0.25555153       0.24300774       0.62186679 </v>
   <v>       0.25511234       0.74190051       0.12681511 </v>
   <v>       0.24766152       0.75309241       0.62218818 </v>
   <v>       0.75115670       0.24851495       0.12335877 </v>
   <v>       0.74180115       0.25254478       0.62295241 </v>
   <v>       0.76717708       0.73237050       0.12156632 </v>
   <v>       0.73138490       0.76499576       0.62086700 </v>
  </varray>
 </structure>
 <calculation>
  <scstep>
   <time name="dav">  598.35  598.36</time>
   <time name="total">  605.54  605.59</time>
   <energy>
    <i name="alphaZ">   5627.11528743 </i>
    <i name="ewald"> -60711.43227041 </i>
    <i name="hartreedc"> -16816.69204268 </i>
    <i name="XCdc">   2962.07798400 </i>
    <i name="pawpsdc"> 112436.43318040 </i>
    <i name="pawaedc">-111335.70366118 </i>
    <i name="eentropy">     -0.00000112 </i>
    <i name="bandstr">  -7062.45823995 </i>
    <i name="atom">  73783.44779670 </i>
    <i name="e_fr_energy">  -1117.21196680 </i>
    <i name="e_wo_entrp">  -1117.21196569 </i>
    <i name="e_0_energy">  -1117.21196625 </i>
   </energy>
  </scstep>
  <scstep>
   <time name="diag">   64.59   64.60</time>
   <time name="diis">   62.38   62.39</time>
   <time name="orth">   33.28   33.28</time>
   <time name="total">  167.40  167.44</time>
   <energy>
    <i name="e_fr_energy">  -1117.21196744 </i>
    <i name="e_wo_entrp">  -1117.21196632 </i>
    <i name="e_0_energy">  -1117.21196688 </i>
   </energy>
  </scstep>
  <scstep>
   <time name="diag">   64.52   64.53</time>
   <time name="diis">   56.68   56.72</time>
   <time name="orth">   33.28   33.28</time>
   <time name="total">  161.57  161.67</time>
   <energy>
    <i name="e_fr_energy">  -1117.21196774 </i>
    <i name="e_wo_entrp">  -1117.21196662 </i>
    <i name="e_0_energy">  -1117.21196718 </i>
   </energy>
  </scstep>
  <scstep>
   <time name="diag">   64.56   64.60</time>
   <time name="diis">   49.26   49.31</time>
   <time name="orth">   33.29   33.29</time>
   <time name="total">  154.24  154.42</time>
   <energy>
    <i name="e_fr_energy">  -1117.21196789 </i>
    <i name="e_wo_entrp">  -1117.21196677 </i>
    <i name="e_0_energy">  -1117.21196733 </i>
   </energy>
  </scstep>
  <scstep>
   <time name="diag">   64.44   64.46</time>
   <time name="diis">   48.79   48.79</time>
   <time name="orth">   33.26   33.26</time>
   <time name="total">  153.61  153.72</time>
   <energy>
    <i name="e_fr_energy">  -1117.21196786 </i>
    <i name="e_wo_entrp">  -1117.21196674 </i>
    <i name="e_0_energy">  -1117.21196730 </i>
   </energy>
  </scstep>
  <scstep>
   <time name="diag">   64.56   64.60</time>
   <time name="diis">   44.17   44.17</time>
   <time name="orth">   33.30   33.30</time>
   <time name="total">  149.13  149.25</time>
   <energy>
    <i name="e_fr_energy">  -1117.21196780 </i>
    <i name="e_wo_entrp">  -1117.21196667 </i>
    <i name="e_0_energy">  -1117.21196724 </i>
   </energy>
  </scstep>
  <scstep>
   <time name="diag">   64.66   64.68</time>
   <time name="diis">   44.13   44.14</time>
   <time name="orth">   33.37   33.37</time>
   <time name="total">  149.29  149.37</time>
   <energy>
    <i name="e_fr_energy">  -1117.21196778 </i>
    <i name="e_wo_entrp">  -1117.21196666 </i>
    <i name="e_0_energy">  -1117.21196722 </i>
   </energy>
  </scstep>
  <scstep>
   <time name="diag">   64.66   64.68</time>
   <time name="diis">   42.67   42.69</time>
   <time name="orth">   33.39   33.39</time>
   <time name="total">  141.78  141.85</time>
   <energy>
    <i name="alphaZ">   5627.11528743 </i>
    <i name="ewald"> -60711.43227041 </i>
    <i name="hartreedc"> -16816.68200007 </i>
    <i name="XCdc">   2962.07748346 </i>
    <i name="pawpsdc"> 112435.32261127 </i>
    <i name="pawaedc">-111334.60072935 </i>
    <i name="eentropy">     -0.00000112 </i>
    <i name="bandstr">  -7062.46014569 </i>
    <i name="atom">  73783.44779670 </i>
    <i name="e_fr_energy">  -1117.21196779 </i>
    <i name="e_wo_entrp">  -1117.21196666 </i>
    <i name="e_0_energy">  -1117.21196723 </i>
   </energy>
  </scstep>
  <structure>
   <crystal>
    <varray name="basis" >
     <v>      11.21319524      -0.00937831      -0.00240141 </v>
     <v>      -0.00931775      11.21703281       0.00255948 </v>
     <v>      -0.00344127       0.00366444      15.94492327 </v>
    </varray>
    <i name="volume">   2005.53138889 </i>
    <varray name="rec_basis" >
     <v>       0.08918071       0.00007408       0.00001923 </v>
     <v>       0.00007456       0.08915020      -0.00002047 </v>
     <v>       0.00001342      -0.00001430       0.06271589 </v>
    </varray>
   </crystal>
   <varray name="positions" >
    <v>       0.99699640       0.24533663       0.12767420 </v>
    <v>       0.99788092       0.25102142       0.63173359 </v>
    <v>       0.00833179       0.75438012       0.12637108 </v>
    <v>       0.00539730       0.74688758       0.63206425 </v>
    <v>       0.50532785       0.25159722       0.12389180 </v>
    <v>       0.50143133       0.25188233       0.63649638 </v>
    <v>       0.49740254       0.74742028       0.12060563 </v>
    <v>       0.49461749       0.74769905       0.63474379 </v>
    <v>       0.99726336       0.25128794       0.36532106 </v>
    <v>       0.99868542       0.24409069       0.87486467 </v>
    <v>       0.00286148       0.74668988       0.36839837 </v>
    <v>       0.01248319       0.75395863       0.87339194 </v>
    <v>       0.50154045       0.25145782       0.36138845 </v>
    <v>       0.50277986       0.25172713       0.87974026 </v>
    <v>       0.49769222       0.74738404       0.36477040 </v>
    <v>       0.49352518       0.74784441       0.87863033 </v>
    <v>       0.25187283       0.99956396       0.12321220 </v>
    <v>       0.24401524       0.99408803       0.63208323 </v>
    <v>       0.25673611       0.49955313       0.12632397 </v>
    <v>       0.24263996       0.50211322       0.62982043 </v>
    <v>       0.75165401       0.00969561       0.12221261 </v>
    <v>       0.75523086       0.99595570       0.63762650 </v>
    <v>       0.74424428       0.49203008       0.12520693 </v>
    <v>       0.75103257       0.50068687       0.63059366 </v>
    <v>       0.24422386       0.99878336       0.36740436 </v>
    <v>       0.25157104       0.99352357       0.87794492 </v>
    <v>       0.24301469       0.49708369       0.36940800 </v>
    <v>       0.25656631       0.50733284       0.87569580 </v>
    <v>       0.75511249       0.99719091       0.36143115 </v>
    <v>       0.75278740       0.00533988       0.88053616 </v>
    <v>       0.75086846       0.49805217       0.36727898 </v>
    <v>       0.74367190       0.49552433       0.87636553 </v>
    <v>       0.00088189       0.99847478       0.00022120 </v>
    <v>       0.99937629       0.99658304       0.49985186 </v>
    <v>       0.00730451       0.48918592       0.99983225 </v>
    <v>       0.50013821       0.00092388       0.00026930 </v>
    <v>       0.49861637       0.00665824       0.50013661 </v>
    <v>       0.49030344       0.51251488       0.50002760 </v>
    <v>       0.25544564       0.24701420       0.00216828 </v>
    <v>       0.23453742       0.25675495       0.49980772 </v>
    <v>       0.24106042       0.75088661       0.50034544 </v>
    <v>       0.75885985       0.24595441       0.49915317 </v>
    <v>       0.76166328       0.74390627       0.50020680 </v>
    <v>       0.25150636       0.24862726       0.75234239 </v>
    <v>       0.25163975       0.74896688       0.24855687 </v>
    <v>       0.74960518       0.25014103       0.75332522 </v>
    <v>       0.75097394       0.74865518       0.24421748 </v>
    <v>       0.75082052       0.74900819       0.75561369 </v>
    <v>       0.00109064       0.00229407       0.24872158 </v>
    <v>       0.00203367       0.99855106       0.75112446 </v>
    <v>       0.99851696       0.49831742       0.24999691 </v>
    <v>       0.99972682       0.50147904       0.74994728 </v>
    <v>       0.50235826       0.00045275       0.24704714 </v>
    <v>       0.50060609       0.99749123       0.75348182 </v>
    <v>       0.50022257       0.49630884       0.24788895 </v>
    <v>       0.49978542       0.49972875       0.75199925 </v>
    <v>       0.99778656       0.50079115       0.49968998 </v>
    <v>       0.49970610       0.50051415       0.00026476 </v>
    <v>       0.25089840       0.75012093       0.99976360 </v>
    <v>       0.75026790       0.25217142       0.00107418 </v>
    <v>       0.74045248       0.75685099       0.99990463 </v>
    <v>       0.25152001       0.24820090       0.24876823 </v>
    <v>       0.25191439       0.74884427       0.75080782 </v>
    <v>       0.74946469       0.25017629       0.24757176 </v>
    <v>       0.11653750       0.13250944       0.25197866 </v>
    <v>       0.11512949       0.13484786       0.74880998 </v>
    <v>       0.11704141       0.63388668       0.25172039 </v>
    <v>       0.11595290       0.63137531       0.74905526 </v>
    <v>       0.61799925       0.12958455       0.25005972 </v>
    <v>       0.61611624       0.13329424       0.75165900 </v>
    <v>       0.61637511       0.63412155       0.25124418 </v>
    <v>       0.61605996       0.63537103       0.74987898 </v>
    <v>       0.38226740       0.36787927       0.25060588 </v>
    <v>       0.38449005       0.36460387       0.74851954 </v>
    <v>       0.38756050       0.86323456       0.25041253 </v>
    <v>       0.38854377       0.86548515       0.74760893 </v>
    <v>       0.88338520       0.36819544       0.24908621 </v>
    <v>       0.88500778       0.36464959       0.74969963 </v>
    <v>       0.88494385       0.86556315       0.25161032 </v>
    <v>       0.88456105       0.86496246       0.74700719 </v>
    <v>       0.37038849       0.11166525       0.25476704 </v>
    <v>       0.36776821       0.11313190       0.74331541 </v>
    <v>       0.36738911       0.61466633       0.26174158 </v>
    <v>       0.36914996       0.61231940       0.73954448 </v>
    <v>       0.86944130       0.11678248       0.25191333 </v>
    <v>       0.86618054       0.11620478       0.74881299 </v>
    <v>       0.86640893       0.61946805       0.26046707 </v>
    <v>       0.86529286       0.61765654       0.73831227 </v>
    <v>       0.13169235       0.38461173       0.24829419 </v>
    <v>       0.13485010       0.38316681       0.75283162 </v>
    <v>       0.13540185       0.88341321       0.24674269 </v>
    <v>       0.13329946       0.88471599       0.75161736 </v>
    <v>       0.63095612       0.38257564       0.24701299 </v>
    <v>       0.63488960       0.38335700       0.75219636 </v>
    <v>       0.63774137       0.88173346       0.23802852 </v>
    <v>       0.63867025       0.88408865       0.76323906 </v>
    <v>       0.36098030       0.38834935       0.99897623 </v>
    <v>       0.37120885       0.37821554       0.50163426 </v>
    <v>       0.36831187       0.88555149       0.00187786 </v>
    <v>       0.35993490       0.90083435       0.50101651 </v>
    <v>       0.85808440       0.40217054       0.99972700 </v>
    <v>       0.83544205       0.39895262       0.50075291 </v>
    <v>       0.87304431       0.87387386       0.00009379 </v>
    <v>       0.84263200       0.90350886       0.50039148 </v>
    <v>       0.13690201       0.11555351       0.99802156 </v>
    <v>       0.14863979       0.10145108       0.50084630 </v>
    <v>       0.11580591       0.62407996       0.99913251 </v>
    <v>       0.14516909       0.60644075       0.49908842 </v>
    <v>       0.63402543       0.11459896       0.99784453 </v>
    <v>       0.59282576       0.16002265       0.49996103 </v>
    <v>       0.63906180       0.61268870       0.99961017 </v>
    <v>       0.63891986       0.61386171       0.49988894 </v>
    <v>       0.11197714       0.36240907       0.99843268 </v>
    <v>       0.10149941       0.35307177       0.49870762 </v>
    <v>       0.12116422       0.87084530       0.00082741 </v>
    <v>       0.09855171       0.85412212       0.50090754 </v>
    <v>       0.60869499       0.36811177       0.00063518 </v>
    <v>       0.61517783       0.86713739       0.99791350 </v>
    <v>       0.38778201       0.13788422       0.00073278 </v>
    <v>       0.38556528       0.63116498       0.99886190 </v>
    <v>       0.39028762       0.64328170       0.49949025 </v>
    <v>       0.88728496       0.13461531       0.99903643 </v>
    <v>       0.89146070       0.14490832       0.49960797 </v>
    <v>       0.89585649       0.64905850       0.50156825 </v>
    <v>       0.99918418       0.00200180       0.12515837 </v>
    <v>       0.99946705       0.00055644       0.62383827 </v>
    <v>       0.98761956       0.51405545       0.12250652 </v>
    <v>       0.00263577       0.49382207       0.62434325 </v>
    <v>       0.49827299       0.00314424       0.12437725 </v>
    <v>       0.52031362       0.98865163       0.62121926 </v>
    <v>       0.49456099       0.50506390       0.12752733 </v>
    <v>       0.51733152       0.48485750       0.61910871 </v>
    <v>       0.00101637       0.99793762       0.37663276 </v>
    <v>       0.99811113       0.00021824       0.87408181 </v>
    <v>       0.99992686       0.49626319       0.37596500 </v>
    <v>       0.98587169       0.51321827       0.87643762 </v>
    <v>       0.51875754       0.98632947       0.37940664 </v>
    <v>       0.49236225       0.00354139       0.87503001 </v>
    <v>       0.51570441       0.48424655       0.38169450 </v>
    <v>       0.49643565       0.50181156       0.87184842 </v>
    <v>       0.26023956       0.24056175       0.38091848 </v>
    <v>       0.25442042       0.24512820       0.87383163 </v>
    <v>       0.24701680       0.75702439       0.37669037 </v>
    <v>       0.25571935       0.74550711       0.87452560 </v>
    <v>       0.74168066       0.25472986       0.37858035 </v>
    <v>       0.75258252       0.25042430       0.87496222 </v>
    <v>       0.73419533       0.76474774       0.37963027 </v>
    <v>       0.76967453       0.73244532       0.87780130 </v>
    <v>       0.25072855       0.24766812       0.12353219 </v>
    <v>       0.25555153       0.24300774       0.62186679 </v>
    <v>       0.25511234       0.74190051       0.12681511 </v>
    <v>       0.24766152       0.75309241       0.62218818 </v>
    <v>       0.75115670       0.24851495       0.12335877 </v>
    <v>       0.74180115       0.25254478       0.62295241 </v>
    <v>       0.76717708       0.73237050       0.12156632 </v>
    <v>       0.73138490       0.76499576       0.62086700 </v>
   </varray>
  </structure>
  <varray name="forces" >
   <v>      -0.00091918      -0.00158821      -0.00673810 </v>
   <v>       0.00572630      -0.00799309      -0.00533846 </v>
   <v>      -0.00962104      -0.00998757      -0.01218349 </v>
   <v>       0.00300933       0.00335810      -0.00545310 </v>
   <v>      -0.00054413      -0.00262115      -0.00694466 </v>
   <v>       0.01728256      -0.02305638      -0.01469601 </v>
   <v>       0.00763678      -0.00436007       0.00614611 </v>
   <v>       0.02228265       0.00369387      -0.01501335 </v>
   <v>       0.00106021      -0.00167078       0.01220043 </v>
   <v>       0.00307250      -0.00300434       0.01011458 </v>
   <v>       0.00070532      -0.00046800       0.01867737 </v>
   <v>      -0.01408404      -0.00734301       0.00666955 </v>
   <v>       0.01555260      -0.01737436       0.01271951 </v>
   <v>       0.00080162       0.00489805       0.00148755 </v>
   <v>       0.02959940       0.00538078       0.01327050 </v>
   <v>       0.01359743       0.00386789      -0.01293451 </v>
   <v>       0.00056986       0.00323906       0.00231120 </v>
   <v>      -0.00204927      -0.00015133      -0.00805998 </v>
   <v>       0.00175483      -0.00752603      -0.00620837 </v>
   <v>       0.00240314      -0.00364072      -0.01074020 </v>
   <v>      -0.00726675       0.00173647       0.00005078 </v>
   <v>      -0.00478279      -0.00573094      -0.00729297 </v>
   <v>      -0.00598239       0.00279839      -0.00430739 </v>
   <v>       0.00068969      -0.00226840      -0.00899384 </v>
   <v>      -0.00751465      -0.00424345       0.01372533 </v>
   <v>      -0.00059899      -0.00151494       0.00761256 </v>
   <v>      -0.00498101      -0.00326434       0.00949524 </v>
   <v>       0.00024455      -0.01219292      -0.00524035 </v>
   <v>       0.00041325       0.00191660      -0.00481204 </v>
   <v>      -0.00400040      -0.00917432      -0.01278183 </v>
   <v>      -0.00149032       0.00092724       0.01476464 </v>
   <v>      -0.00771118      -0.00296540      -0.00064207 </v>
   <v>       0.00021588      -0.01126507      -0.00787910 </v>
   <v>       0.01348907       0.01595356       0.01102419 </v>
   <v>      -0.03555323       0.00948193       0.00816156 </v>
   <v>       0.01042828       0.00337566      -0.00430027 </v>
   <v>      -0.02995914      -0.02118233      -0.00178080 </v>
   <v>      -0.03659555       0.04281893      -0.00955363 </v>
   <v>      -0.00471386       0.01225840      -0.00450243 </v>
   <v>      -0.00735367      -0.01705079       0.00003991 </v>
   <v>      -0.00907615       0.00985095      -0.00269137 </v>
   <v>       0.01228254       0.00982153      -0.01867359 </v>
   <v>       0.00457794      -0.00956379      -0.01266508 </v>
   <v>      -0.00357481       0.01095734       0.01154960 </v>
   <v>      -0.00179691      -0.01022108       0.02457833 </v>
   <v>       0.01643194       0.00241846       0.00734545 </v>
   <v>       0.00135664      -0.01543665       0.00288801 </v>
   <v>       0.00591996       0.00308905       0.02553903 </v>
   <v>      -0.00975082      -0.00517700      -0.00505847 </v>
   <v>      -0.01480500      -0.01668233      -0.00541676 </v>
   <v>       0.00253358      -0.00749979      -0.00010131 </v>
   <v>      -0.00900772      -0.00617920      -0.00603087 </v>
   <v>      -0.00654981       0.00252305      -0.00947863 </v>
   <v>       0.00682331      -0.01040206      -0.00431066 </v>
   <v>       0.00674902       0.00597194      -0.00956317 </v>
   <v>      -0.00477475       0.00106158       0.00211470 </v>
   <v>       0.00592663       0.01499306      -0.00195546 </v>
   <v>       0.00723940       0.00049168       0.00162510 </v>
   <v>      -0.00526394      -0.00375775       0.00066156 </v>
   <v>       0.00431602      -0.00679767       0.00185069 </v>
   <v>       0.00605466      -0.01113939      -0.00776357 </v>
   <v>      -0.00417211       0.00278325      -0.00593533 </v>
   <v>      -0.00895598       0.00137872      -0.01728683 </v>
   <v>       0.00387000       0.00212741      -0.00232635 </v>
   <v>       0.00547926      -0.00400633       0.00477881 </v>
   <v>       0.00928076       0.01584144       0.00483712 </v>
   <v>      -0.00141097      -0.01368868      -0.00285902 </v>
   <v>      -0.01177725      -0.00804730       0.00451014 </v>
   <v>      -0.00741548       0.00467023       0.00369784 </v>
   <v>      -0.00547163       0.01020767       0.00045679 </v>
   <v>       0.00486043       0.00289523       0.00783014 </v>
   <v>       0.00472109      -0.01597068      -0.00841064 </v>
   <v>       0.00263495      -0.00701302       0.00316712 </v>
   <v>      -0.01093438      -0.01127892       0.00301159 </v>
   <v>       0.00562571       0.00928814      -0.00503546 </v>
   <v>      -0.00346719       0.00022747       0.00008146 </v>
   <v>       0.00480023       0.00603089      -0.00060706 </v>
   <v>       0.00701766       0.00611331       0.00219083 </v>
   <v>       0.00460387       0.00222075      -0.00198288 </v>
   <v>       0.00018720      -0.00623366       0.00151631 </v>
   <v>      -0.00996405       0.00427858      -0.00799579 </v>
   <v>      -0.00323487       0.01111225       0.00596489 </v>
   <v>       0.00706661      -0.00262595       0.01043699 </v>
   <v>       0.00410591      -0.01250689       0.00120727 </v>
   <v>       0.00357903      -0.00317146      -0.00336512 </v>
   <v>       0.00470185       0.01490416      -0.00425415 </v>
   <v>       0.00650361      -0.00530768      -0.00728177 </v>
   <v>       0.01405733      -0.00436493       0.01066069 </v>
   <v>      -0.00172591      -0.01553114       0.00785469 </v>
   <v>      -0.00664831      -0.01291641      -0.00916962 </v>
   <v>       0.00247583      -0.01017253       0.00258000 </v>
   <v>       0.00398123       0.00383469      -0.00087290 </v>
   <v>       0.00875150      -0.00054919       0.00788940 </v>
   <v>       0.00044000       0.00884720      -0.00764654 </v>
   <v>      -0.00801941      -0.00406159       0.01550619 </v>
   <v>      -0.01537926       0.00884680      -0.01118980 </v>
   <v>       0.01068916      -0.00259252       0.00016492 </v>
   <v>      -0.03487519       0.03737983       0.01162285 </v>
   <v>      -0.00810083      -0.00575051       0.00113097 </v>
   <v>       0.01481022       0.03271313      -0.01241538 </v>
   <v>       0.00966802      -0.00751144      -0.00182978 </v>
   <v>      -0.01905133      -0.00439973       0.00487713 </v>
   <v>       0.00431397       0.01069274       0.01066035 </v>
   <v>      -0.01504045      -0.01821858      -0.00418049 </v>
   <v>      -0.01052975      -0.00521133       0.00182681 </v>
   <v>      -0.00763763       0.02217554      -0.00308879 </v>
   <v>       0.01838423       0.00219834      -0.00253602 </v>
   <v>       0.00513416      -0.00985919      -0.00570591 </v>
   <v>       0.01322275       0.00480735       0.00458798 </v>
   <v>       0.02531800      -0.02517028      -0.00193285 </v>
   <v>      -0.01265144      -0.00400432      -0.00104273 </v>
   <v>      -0.00666563       0.01597514      -0.00530033 </v>
   <v>      -0.00543800      -0.01153292       0.00122510 </v>
   <v>      -0.01845023       0.00730970      -0.00128325 </v>
   <v>       0.00104973      -0.01443027       0.00108368 </v>
   <v>      -0.00662455      -0.00932587      -0.00117623 </v>
   <v>       0.00268448      -0.01332734      -0.00192878 </v>
   <v>      -0.00670042      -0.00332588       0.00038751 </v>
   <v>       0.00641348      -0.00395468       0.00417005 </v>
   <v>      -0.00225135       0.00097995       0.00231551 </v>
   <v>       0.02891999       0.01889564       0.00448181 </v>
   <v>       0.00562997       0.01548856      -0.00211870 </v>
   <v>       0.00565058       0.00039583      -0.00723047 </v>
   <v>      -0.03595359       0.02440180      -0.00066397 </v>
   <v>       0.01023345       0.00414674       0.00235739 </v>
   <v>       0.00364869      -0.00426680       0.00550539 </v>
   <v>       0.02075543      -0.01419424       0.00881006 </v>
   <v>       0.00393988      -0.00439225       0.00728860 </v>
   <v>      -0.00047499      -0.00476060       0.01465773 </v>
   <v>      -0.01902175       0.02070186       0.00729443 </v>
   <v>      -0.00319028       0.00533298       0.00438396 </v>
   <v>      -0.00325246      -0.00203489      -0.01651339 </v>
   <v>      -0.01020311      -0.00134786      -0.00269506 </v>
   <v>       0.00334796       0.00544831       0.01499027 </v>
   <v>      -0.00186751      -0.00494726       0.00125433 </v>
   <v>       0.01473833      -0.00747800      -0.00137354 </v>
   <v>      -0.01865186       0.01904289      -0.01946709 </v>
   <v>      -0.00044017      -0.00388437      -0.00521651 </v>
   <v>      -0.00971062      -0.00368485       0.01904411 </v>
   <v>      -0.00533118       0.00799300       0.00179386 </v>
   <v>       0.01416006      -0.00127782       0.00332927 </v>
   <v>      -0.00208726       0.00574980      -0.01671591 </v>
   <v>       0.00491618       0.01446679      -0.00603458 </v>
   <v>       0.00509013       0.00745429       0.01381616 </v>
   <v>       0.00563703       0.00129170       0.01809152 </v>
   <v>      -0.00633115       0.00703496       0.01847634 </v>
   <v>       0.01640698       0.00176771       0.01298090 </v>
   <v>      -0.00096225       0.00504476      -0.00869880 </v>
   <v>      -0.00804088       0.00308363       0.00953691 </v>
   <v>       0.00738654      -0.00319523      -0.00276762 </v>
   <v>       0.00666479      -0.00294677      -0.01954887 </v>
   <v>      -0.00123521       0.00730687       0.00151870 </v>
   <v>      -0.00267516       0.00316620      -0.00680632 </v>
   <v>       0.00724841       0.00653773      -0.01187728 </v>
   <v>      -0.00438671       0.00661519      -0.00380026 </v>
   <v>       0.02117765       0.00087611      -0.00819232 </v>
  </varray>
  <varray name="stress" >
   <v>      -0.13792118       0.02357364      -0.05484610 </v>
   <v>       0.02357483       0.02337520       0.00698738 </v>
   <v>      -0.05484645       0.00698765      -0.07181190 </v>
  </varray>
  <energy>
   <i name="e_fr_energy">  -1117.21196779 </i>
   <i name="e_wo_entrp">  -1117.21196723 </i>
   <i name="e_0_energy">     -0.00000112 </i>
  </energy>
  <time name="totalsc"> 1947.37 1949.73</time>
 </calculation>
 <calculation>
  <scstep>
   <time name="dav">  578.57  578.68</time>
   <time name="total">  585.66  585.86</time>
   <energy>
    <i name="alphaZ">   5627.52125292 </i>
    <i name="ewald"> -60714.71028066 </i>
    <i name="hartreedc"> -16815.25925900 </i>
    <i name="XCdc">   2962.16880118 </i>
    <i name="pawpsdc"> 112435.32362212 </i>
    <i name="pawaedc">-111334.60175558 </i>
    <i name="eentropy">     -0.00000112 </i>
    <i name="bandstr">  -7061.10252614 </i>
    <i name="atom">  73783.44779670 </i>
    <i name="e_fr_energy">  -1117.21234958 </i>
    <i name="e_wo_entrp">  -1117.21234846 </i>
    <i name="e_0_energy">  -1117.21234902 </i>
   </energy>
  </scstep>
  <scstep>
   <time name="diag">   64.83   64.85</time>
   <time name="diis">  104.72  104.76</time>
   <time name="orth">   33.44   33.44</time>
   <time name="total">  210.20  210.27</time>
   <energy>
    <i name="e_fr_energy">  -1117.21334024 </i>
    <i name="e_wo_entrp">  -1117.21333905 </i>
    <i name="e_0_energy">  -1117.21333965 </i>
   </energy>
  </scstep>
  <scstep>
   <time name="diag">   64.83   64.83</time>
   <time name="diis">   94.95   94.98</time>
   <time name="orth">   33.49   33.49</time>
   <time name="total">  200.48  200.53</time>
   <energy>
    <i name="e_fr_energy">  -1117.21328762 </i>
    <i name="e_wo_entrp">  -1117.21328644 </i>
    <i name="e_0_energy">  -1117.21328703 </i>
   </energy>
  </scstep>
  <scstep>
   <time name="diag">   64.84   64.86</time>
   <time name="diis">   68.23   68.24</time>
   <time name="orth">   33.47   33.47</time>
   <time name="total">  173.75  173.85</time>
   <energy>
    <i name="e_fr_energy">  -1117.21321913 </i>
    <i name="e_wo_entrp">  -1117.21321795 </i>
    <i name="e_0_energy">  -1117.21321854 </i>
   </energy>
  </scstep>
  <scstep>
   <time name="diag">   64.89   64.91</time>
   <time name="diis">   66.54   66.56</time>
   <time name="orth">   33.43   33.46</time>
   <time name="total">  172.07  172.21</time>
   <energy>
    <i name="e_fr_energy">  -1117.21320545 </i>
    <i name="e_wo_entrp">  -1117.21320426 </i>
    <i name="e_0_energy">  -1117.21320486 </i>
   </energy>
  </scstep>
  <scstep>
   <time name="diag">   64.81   64.84</time>
   <time name="diis">   63.36   63.37</time>
   <time name="orth">   33.43   33.43</time>
   <time name="total">  168.81  168.88</time>
   <energy>
    <i name="e_fr_energy">  -1117.21320721 </i>
    <i name="e_wo_entrp">  -1117.21320602 </i>
    <i name="e_0_energy">  -1117.21320662 </i>
   </energy>
  </scstep>
  <scstep>
   <time name="diag">   64.79   64.82</time>
   <time name="diis">   61.33   61.35</time>
   <time name="orth">   33.38   33.38</time>
   <time name="total">  166.71  166.80</time>
   <energy>
    <i name="e_fr_energy">  -1117.21320807 </i>
    <i name="e_wo_entrp">  -1117.21320689 </i>
    <i name="e_0_energy">  -1117.21320748 </i>
   </energy>
  </scstep>
  <scstep>
   <time name="diag">   64.83   64.86</time>
   <time name="diis">   59.47   59.52</time>
   <time name="orth">   33.34   33.37</time>
   <time name="total">  158.71  158.89</time>
   <energy>
    <i name="alphaZ">   5627.52125292 </i>
    <i name="ewald"> -60714.71028066 </i>
    <i name="hartreedc"> -16814.18145879 </i>
    <i name="XCdc">   2962.09847960 </i>
    <i name="pawpsdc"> 112442.52706148 </i>
    <i name="pawaedc">-111341.82688862 </i>
    <i name="eentropy">     -0.00000119 </i>
    <i name="bandstr">  -7062.08917040 </i>
    <i name="atom">  73783.44779670 </i>
    <i name="e_fr_energy">  -1117.21320896 </i>
    <i name="e_wo_entrp">  -1117.21320778 </i>
    <i name="e_0_energy">  -1117.21320837 </i>
   </energy>
  </scstep>
  <structure>
   <crystal>
    <varray name="basis" >
     <v>      11.21259654      -0.00927607      -0.00263944 </v>
     <v>      -0.00921494      11.21713423       0.00258994 </v>
     <v>      -0.00377958       0.00370757      15.94448011 </v>
    </varray>
    <i name="volume">   2005.38671125 </i>
    <varray name="rec_basis" >
     <v>       0.08918547       0.00007326       0.00002112 </v>
     <v>       0.00007375       0.08914940      -0.00002071 </v>
     <v>       0.00001475      -0.00001447       0.06271764 </v>
    </varray>
   </crystal>
   <varray name="positions" >
    <v>       0.99699243       0.24532980       0.12765381 </v>
    <v>       0.99790552       0.25098707       0.63171745 </v>
    <v>       0.00829035       0.75433714       0.12633422 </v>
    <v>       0.00541025       0.74690204       0.63204775 </v>
    <v>       0.50532549       0.25158596       0.12387079 </v>
    <v>       0.50150559       0.25178325       0.63645195 </v>
    <v>       0.49743539       0.74740155       0.12062423 </v>
    <v>       0.49471336       0.74771503       0.63469837 </v>
    <v>       0.99726793       0.25128074       0.36535797 </v>
    <v>       0.99869864       0.24407777       0.87489528 </v>
    <v>       0.00286453       0.74668785       0.36845488 </v>
    <v>       0.01242258       0.75392699       0.87341212 </v>
    <v>       0.50160731       0.25138314       0.36142696 </v>
    <v>       0.50278333       0.25174819       0.87974476 </v>
    <v>       0.49781960       0.74740728       0.36481056 </v>
    <v>       0.49358368       0.74786111       0.87859120 </v>
    <v>       0.25187530       0.99957789       0.12321919 </v>
    <v>       0.24400642       0.99408738       0.63205884 </v>
    <v>       0.25674363       0.49952078       0.12630520 </v>
    <v>       0.24265028       0.50209758       0.62978794 </v>
    <v>       0.75162276       0.00970305       0.12221276 </v>
    <v>       0.75521026       0.99593104       0.63760443 </v>
    <v>       0.74421854       0.49204210       0.12519389 </v>
    <v>       0.75103552       0.50067712       0.63056645 </v>
    <v>       0.24419152       0.99876507       0.36744589 </v>
    <v>       0.25156847       0.99351705       0.87796795 </v>
    <v>       0.24299326       0.49706962       0.36943672 </v>
    <v>       0.25656732       0.50728041       0.87567995 </v>
    <v>       0.75511427       0.99719915       0.36141659 </v>
    <v>       0.75277014       0.00530042       0.88049749 </v>
    <v>       0.75086207       0.49805614       0.36732365 </v>
    <v>       0.74363871       0.49551155       0.87636359 </v>
    <v>       0.00088277       0.99842634       0.00019737 </v>
    <v>       0.99943439       0.99665169       0.49988522 </v>
    <v>       0.00715159       0.48922656       0.99985691 </v>
    <v>       0.50018308       0.00093844       0.00025629 </v>
    <v>       0.49848740       0.00656703       0.50013122 </v>
    <v>       0.49014614       0.51269892       0.49999864 </v>
    <v>       0.25542540       0.24706691       0.00215465 </v>
    <v>       0.23450572       0.25668159       0.49980785 </v>
    <v>       0.24102141       0.75092895       0.50033729 </v>
    <v>       0.75891272       0.24599672       0.49909668 </v>
    <v>       0.76168293       0.74386517       0.50016849 </v>
    <v>       0.25149103       0.24867436       0.75237733 </v>
    <v>       0.25163200       0.74892289       0.24863124 </v>
    <v>       0.74967589       0.25015148       0.75334746 </v>
    <v>       0.75097973       0.74858879       0.24422623 </v>
    <v>       0.75084602       0.74902147       0.75569096 </v>
    <v>       0.00104867       0.00227178       0.24870627 </v>
    <v>       0.00196991       0.99847926       0.75110807 </v>
    <v>       0.99852783       0.49828517       0.24999661 </v>
    <v>       0.99968803       0.50145244       0.74992904 </v>
    <v>       0.50233008       0.00046359       0.24701846 </v>
    <v>       0.50063541       0.99744652       0.75346879 </v>
    <v>       0.50025162       0.49633456       0.24786002 </v>
    <v>       0.49976488       0.49973330       0.75200565 </v>
    <v>       0.99781211       0.50085566       0.49968406 </v>
    <v>       0.49973725       0.50051629       0.00026968 </v>
    <v>       0.25087574       0.75010474       0.99976560 </v>
    <v>       0.75028644       0.25214220       0.00107979 </v>
    <v>       0.74047848       0.75680311       0.99988116 </v>
    <v>       0.25150206       0.24821287       0.24875026 </v>
    <v>       0.25187585       0.74885018       0.75075551 </v>
    <v>       0.74948135       0.25018545       0.24756472 </v>
    <v>       0.11656106       0.13249222       0.25199313 </v>
    <v>       0.11516948       0.13491602       0.74882461 </v>
    <v>       0.11703529       0.63382780       0.25171175 </v>
    <v>       0.11590221       0.63134066       0.74906891 </v>
    <v>       0.61796737       0.12960460       0.25007090 </v>
    <v>       0.61609274       0.13333812       0.75166037 </v>
    <v>       0.61639603       0.63413401       0.25126787 </v>
    <v>       0.61608021       0.63530237       0.74985355 </v>
    <v>       0.38227871       0.36784912       0.25061547 </v>
    <v>       0.38444296       0.36455532       0.74852865 </v>
    <v>       0.38758473       0.86327453       0.25039729 </v>
    <v>       0.38852886       0.86548612       0.74760917 </v>
    <v>       0.88340587       0.36822139       0.24908437 </v>
    <v>       0.88503800       0.36467590       0.74970626 </v>
    <v>       0.88496366       0.86557272       0.25160432 </v>
    <v>       0.88456183       0.86493565       0.74701178 </v>
    <v>       0.37034562       0.11168362       0.25474284 </v>
    <v>       0.36775434       0.11317967       0.74333344 </v>
    <v>       0.36741951       0.61465505       0.26177317 </v>
    <v>       0.36916758       0.61226562       0.73954814 </v>
    <v>       0.86945668       0.11676886       0.25190315 </v>
    <v>       0.86620081       0.11626890       0.74880011 </v>
    <v>       0.86643688       0.61944526       0.26044505 </v>
    <v>       0.86535333       0.61763781       0.73834454 </v>
    <v>       0.13168488       0.38454492       0.24831797 </v>
    <v>       0.13482145       0.38311125       0.75280389 </v>
    <v>       0.13541247       0.88336946       0.24675051 </v>
    <v>       0.13331660       0.88473249       0.75161472 </v>
    <v>       0.63099378       0.38257330       0.24703687 </v>
    <v>       0.63489152       0.38339506       0.75217322 </v>
    <v>       0.63770687       0.88171594       0.23807543 </v>
    <v>       0.63860410       0.88412665       0.76320519 </v>
    <v>       0.36102628       0.38833824       0.99897674 </v>
    <v>       0.37105895       0.37837617       0.50166937 </v>
    <v>       0.36827700       0.88552673       0.00188128 </v>
    <v>       0.35999872       0.90097511       0.50097894 </v>
    <v>       0.85812597       0.40213827       0.99972147 </v>
    <v>       0.83536007       0.39893362       0.50076766 </v>
    <v>       0.87306292       0.87391986       0.00012604 </v>
    <v>       0.84256722       0.90343046       0.50037883 </v>
    <v>       0.13685669       0.11553106       0.99802708 </v>
    <v>       0.14860700       0.10154643       0.50083694 </v>
    <v>       0.11588501       0.62408948       0.99912485 </v>
    <v>       0.14519114       0.60639837       0.49907117 </v>
    <v>       0.63408234       0.11461967       0.99785842 </v>
    <v>       0.59293460       0.15991449       0.49995522 </v>
    <v>       0.63900735       0.61267143       0.99960701 </v>
    <v>       0.63889124       0.61393040       0.49987288 </v>
    <v>       0.11195371       0.36235945       0.99843639 </v>
    <v>       0.10142006       0.35310315       0.49870372 </v>
    <v>       0.12116869       0.87078324       0.00083070 </v>
    <v>       0.09852318       0.85408199       0.50090399 </v>
    <v>       0.60870649       0.36805447       0.00062935 </v>
    <v>       0.61514899       0.86712306       0.99791467 </v>
    <v>       0.38780959       0.13786723       0.00074541 </v>
    <v>       0.38555560       0.63116918       0.99886890 </v>
    <v>       0.39041211       0.64336307       0.49950382 </v>
    <v>       0.88730924       0.13468195       0.99903002 </v>
    <v>       0.89148501       0.14491005       0.49958610 </v>
    <v>       0.89570189       0.64916332       0.50156620 </v>
    <v>       0.99922823       0.00201967       0.12516551 </v>
    <v>       0.99948274       0.00053810       0.62385493 </v>
    <v>       0.98770882       0.51399447       0.12253320 </v>
    <v>       0.00265271       0.49380319       0.62436531 </v>
    <v>       0.49827095       0.00312375       0.12442160 </v>
    <v>       0.52023187       0.98874059       0.62124131 </v>
    <v>       0.49454729       0.50508682       0.12754059 </v>
    <v>       0.51731750       0.48484875       0.61905875 </v>
    <v>       0.00097247       0.99793179       0.37662460 </v>
    <v>       0.99812557       0.00024167       0.87412717 </v>
    <v>       0.99991881       0.49624190       0.37596880 </v>
    <v>       0.98593507       0.51318617       0.87643348 </v>
    <v>       0.51867735       0.98641132       0.37934772 </v>
    <v>       0.49236034       0.00352469       0.87501423 </v>
    <v>       0.51566264       0.48423064       0.38175211 </v>
    <v>       0.49641274       0.50184592       0.87185384 </v>
    <v>       0.26030048       0.24055630       0.38092856 </v>
    <v>       0.25441145       0.24515294       0.87378105 </v>
    <v>       0.24703799       0.75708664       0.37667210 </v>
    <v>       0.25574129       0.74553917       0.87456740 </v>
    <v>       0.74170493       0.25473542       0.37863509 </v>
    <v>       0.75255532       0.25045451       0.87501812 </v>
    <v>       0.73426593       0.76475538       0.37966956 </v>
    <v>       0.76967040       0.73246703       0.87777498 </v>
    <v>       0.25069397       0.24768134       0.12356104 </v>
    <v>       0.25558330       0.24299403       0.62185843 </v>
    <v>       0.25514098       0.74188788       0.12675597 </v>
    <v>       0.24765623       0.75312383       0.62219277 </v>
    <v>       0.75114520       0.24852857       0.12333817 </v>
    <v>       0.74183235       0.25257294       0.62291648 </v>
    <v>       0.76715823       0.73239894       0.12155481 </v>
    <v>       0.73147600       0.76499961       0.62084222 </v>
   </varray>
  </structure>
  <varray name="forces" >
   <v>       0.00252268      -0.00455353      -0.00718571 </v>
   <v>       0.00626918      -0.00431939      -0.00237566 </v>
   <v>      -0.00267568      -0.00541834      -0.00686525 </v>
   <v>      -0.00563437      -0.00141847      -0.00182177 </v>
   <v>      -0.00313531      -0.00445655      -0.00385798 </v>
   <v>       0.01518655      -0.01547125      -0.01425580 </v>
   <v>       0.00091175       0.00131801       0.00336171 </v>
   <v>       0.02440853       0.00181060      -0.00779671 </v>
   <v>       0.00354507      -0.00295699       0.00812927 </v>
   <v>       0.00573785      -0.00344352       0.01040379 </v>
   <v>      -0.00627166       0.00282947       0.00707150 </v>
   <v>      -0.00143543      -0.00918227       0.00326153 </v>
   <v>       0.00875809      -0.01668220       0.00918564 </v>
   <v>       0.00001680       0.00191943      -0.00390747 </v>
   <v>       0.02575767       0.01073891       0.00589698 </v>
   <v>       0.00261546       0.00146082      -0.00713170 </v>
   <v>      -0.00063207      -0.00060392       0.00378809 </v>
   <v>       0.00378609       0.00867595       0.00643709 </v>
   <v>      -0.00180413      -0.00289811      -0.00663317 </v>
   <v>       0.00485860      -0.01405263      -0.00452923 </v>
   <v>      -0.00606647      -0.00009482       0.00145137 </v>
   <v>      -0.00954974      -0.00374832      -0.01519403 </v>
   <v>      -0.00644745       0.00001183      -0.00154207 </v>
   <v>      -0.00762393      -0.00035840      -0.00712151 </v>
   <v>      -0.00487143       0.00351233      -0.00206838 </v>
   <v>       0.00127331      -0.00086533       0.00530193 </v>
   <v>      -0.00130255      -0.01127610       0.00471387 </v>
   <v>      -0.00467302      -0.00716558      -0.00400978 </v>
   <v>      -0.00290484       0.00040343      -0.00106343 </v>
   <v>      -0.00624184       0.00056958      -0.00518381 </v>
   <v>      -0.00512532      -0.00193958       0.01389468 </v>
   <v>      -0.01067696      -0.00793443      -0.00439192 </v>
   <v>       0.00653525      -0.00143653       0.00702131 </v>
   <v>      -0.02256471       0.01379496      -0.01742406 </v>
   <v>       0.04705355      -0.02443065      -0.00617198 </v>
   <v>      -0.00492361      -0.00301976      -0.00166090 </v>
   <v>       0.02787687       0.03052728      -0.00309210 </v>
   <v>       0.01379191      -0.04362883       0.00408448 </v>
   <v>      -0.00408096      -0.00279883       0.00093661 </v>
   <v>      -0.00041351       0.03358351       0.00409702 </v>
   <v>      -0.00428768      -0.00239860      -0.00237544 </v>
   <v>      -0.00942765      -0.01149520       0.01876719 </v>
   <v>      -0.03516140       0.02358623       0.00458302 </v>
   <v>      -0.00093923      -0.00095786      -0.00518945 </v>
   <v>       0.01239597       0.00299504      -0.01428968 </v>
   <v>      -0.00681527       0.00959790      -0.00333002 </v>
   <v>       0.00535567       0.00505674       0.00187845 </v>
   <v>      -0.00606467      -0.01945441      -0.01295758 </v>
   <v>       0.00722132      -0.00180121      -0.00469089 </v>
   <v>       0.01962353       0.01664721       0.01431666 </v>
   <v>       0.00615560      -0.01138755       0.00237242 </v>
   <v>       0.01957795       0.00875796       0.00346065 </v>
   <v>      -0.01461466       0.00059565       0.00130924 </v>
   <v>      -0.01467638       0.01331464      -0.00714020 </v>
   <v>      -0.00635636      -0.01031612       0.01243586 </v>
   <v>       0.00179358      -0.00874339      -0.01334223 </v>
   <v>       0.00035171       0.00380396       0.00271791 </v>
   <v>      -0.00182092       0.00000357      -0.00312274 </v>
   <v>       0.00079612      -0.00519297       0.00448444 </v>
   <v>       0.00134491      -0.00987807       0.00105319 </v>
   <v>      -0.00541329      -0.00049141       0.00399370 </v>
   <v>      -0.00040619      -0.00332751      -0.00137220 </v>
   <v>      -0.00352759      -0.00498521       0.00554027 </v>
   <v>       0.00073712      -0.00089871      -0.00432936 </v>
   <v>      -0.00292960      -0.01010999       0.00648863 </v>
   <v>      -0.01782498      -0.01411005       0.00094438 </v>
   <v>       0.00373001      -0.00754826       0.00309128 </v>
   <v>      -0.00122897       0.00320450       0.00194638 </v>
[...]
       <r>   -16.2198     0.0000    32.0000 </r>
       <r>   -16.0676     0.0000    32.0000 </r>
       <r>   -15.9155     0.0000    32.0000 </r>
       <r>   -15.7633     0.0000    32.0000 </r>
       <r>   -15.6112     0.0000    32.0000 </r>
       <r>   -15.4590     0.0000    32.0000 </r>
       <r>   -15.3069     0.0000    32.0000 </r>
       <r>   -15.1548     2.6996    32.4107 </r>
       <r>   -15.0026    27.5256    36.5985 </r>
       <r>   -14.8505    52.9272    44.6509 </r>
       <r>   -14.6983    43.9971    51.3446 </r>
       <r>   -14.5462    34.3719    56.5740 </r>
       <r>   -14.3941    32.7022    61.5493 </r>
       <r>   -14.2419    41.4435    67.8546 </r>
       <r>   -14.0898    90.8190    81.6719 </r>
       <r>   -13.9376   112.2869    98.7553 </r>
       <r>   -13.7855   100.2222   114.0032 </r>
       <r>   -13.6334    48.6576   121.4060 </r>
       <r>   -13.4812    16.8821   123.9744 </r>
       <r>   -13.3291     0.1681   124.0000 </r>
       <r>   -13.1769     0.0000   124.0000 </r>
       <r>   -13.0248     0.0000   124.0000 </r>
       <r>   -12.8727     0.0000   124.0000 </r>
       <r>   -12.7205     0.3232   124.0492 </r>
       <r>   -12.5684    42.5240   130.5188 </r>
       <r>   -12.4162   151.7716   153.6095 </r>
       <r>   -12.2641   146.8863   175.9569 </r>
       <r>   -12.1120   126.5522   195.2106 </r>
       <r>   -11.9598   110.3736   212.0030 </r>
       <r>   -11.8077    48.4134   219.3686 </r>
       <r>   -11.6555     4.1500   220.0000 </r>
       <r>   -11.5034     0.0000   220.0000 </r>
       <r>   -11.3512     0.0000   220.0000 </r>
       <r>   -11.1991     0.0000   220.0000 </r>
       <r>   -11.0470     0.0000   220.0000 </r>
       <r>   -10.8948     0.0000   220.0000 </r>
       <r>   -10.7427     0.0000   220.0000 </r>
       <r>   -10.5905     0.0000   220.0000 </r>
       <r>   -10.4384     0.0000   220.0000 </r>
       <r>   -10.2863     0.0000   220.0000 </r>
       <r>   -10.1341     0.0000   220.0000 </r>
       <r>    -9.9820     0.0000   220.0000 </r>
       <r>    -9.8298     0.0000   220.0000 </r>
       <r>    -9.6777     0.0000   220.0000 </r>
       <r>    -9.5256     0.0000   220.0000 </r>
       <r>    -9.3734     0.0000   220.0000 </r>
       <r>    -9.2213     0.0000   220.0000 </r>
       <r>    -9.0691     0.0000   220.0000 </r>
       <r>    -8.9170     0.0000   220.0000 </r>
       <r>    -8.7649     0.0000   220.0000 </r>
       <r>    -8.6127     0.0000   220.0000 </r>
       <r>    -8.4606     0.0000   220.0000 </r>
       <r>    -8.3084     0.0000   220.0000 </r>
       <r>    -8.1563     0.0000   220.0000 </r>
       <r>    -8.0041     0.0000   220.0000 </r>
       <r>    -7.8520     0.0000   220.0000 </r>
       <r>    -7.6999     0.0000   220.0000 </r>
       <r>    -7.5477     0.0000   220.0000 </r>
       <r>    -7.3956     0.0000   220.0000 </r>
       <r>    -7.2434     0.0000   220.0000 </r>
       <r>    -7.0913     0.0000   220.0000 </r>
       <r>    -6.9392     0.0000   220.0000 </r>
       <r>    -6.7870     0.0000   220.0000 </r>
       <r>    -6.6349     0.0000   220.0000 </r>
       <r>    -6.4827     0.0000   220.0000 </r>
       <r>    -6.3306     0.0000   220.0000 </r>
       <r>    -6.1785     0.0000   220.0000 </r>
       <r>    -6.0263     0.0000   220.0000 </r>
       <r>    -5.8742     0.0000   220.0000 </r>
       <r>    -5.7220     0.0000   220.0000 </r>
       <r>    -5.5699     0.0000   220.0000 </r>
       <r>    -5.4178     0.0000   220.0000 </r>
       <r>    -5.2656     0.0000   220.0000 </r>
       <r>    -5.1135     0.0000   220.0000 </r>
       <r>    -4.9613     0.0000   220.0000 </r>
       <r>    -4.8092     0.0000   220.0000 </r>
       <r>    -4.6571     0.0000   220.0000 </r>
       <r>    -4.5049     0.0000   220.0000 </r>
       <r>    -4.3528     0.0000   220.0000 </r>
       <r>    -4.2006     0.0000   220.0000 </r>
       <r>    -4.0485     0.0000   220.0000 </r>
       <r>    -3.8963     0.0000   220.0000 </r>
       <r>    -3.7442     0.0000   220.0000 </r>
       <r>    -3.5921     0.0000   220.0000 </r>
       <r>    -3.4399     0.0000   220.0000 </r>
       <r>    -3.2878     0.0000   220.0000 </r>
       <r>    -3.1356     0.0000   220.0000 </r>
       <r>    -2.9835     0.0000   220.0000 </r>
       <r>    -2.8314     0.0000   220.0000 </r>
       <r>    -2.6792     0.0000   220.0000 </r>
       <r>    -2.5271     0.9285   220.1413 </r>
       <r>    -2.3749     6.4842   221.1278 </r>
       <r>    -2.2228    17.8399   223.8419 </r>
       <r>    -2.0707    20.6568   226.9847 </r>
       <r>    -1.9185    23.7462   230.5974 </r>
       <r>    -1.7664    38.5468   236.4620 </r>
       <r>    -1.6142    43.0928   243.0182 </r>
       <r>    -1.4621    56.5622   251.6236 </r>
       <r>    -1.3100    64.2903   261.4048 </r>
       <r>    -1.1578    73.0364   272.5166 </r>
       <r>    -1.0057    75.8268   284.0529 </r>
       <r>    -0.8535    78.6868   296.0244 </r>
       <r>    -0.7014    88.4170   309.4762 </r>
       <r>    -0.5492   101.8628   324.9737 </r>
       <r>    -0.3971   100.5092   340.2653 </r>
       <r>    -0.2450    73.2385   351.4078 </r>
       <r>    -0.0928    49.1775   358.8897 </r>
       <r>     0.0593    50.6876   366.6014 </r>
       <r>     0.2115    51.6709   374.4627 </r>
       <r>     0.3636    49.2054   381.9488 </r>
       <r>     0.5157    48.4601   389.3216 </r>
       <r>     0.6679    58.5507   398.2295 </r>
       <r>     0.8200    43.5346   404.8529 </r>
       <r>     0.9722    51.3372   412.6634 </r>
       <r>     1.1243    64.7946   422.5213 </r>
       <r>     1.2764    81.5393   434.9267 </r>
       <r>     1.4286    84.5747   447.7940 </r>
       <r>     1.5807    87.4013   461.0913 </r>
       <r>     1.7329    74.9775   472.4984 </r>
       <r>     1.8850    61.2647   481.8193 </r>
       <r>     2.0371    38.0963   487.6153 </r>
       <r>     2.1893    32.6222   492.5785 </r>
       <r>     2.3414    19.9694   495.6166 </r>
       <r>     2.4936     2.5197   496.0000 </r>
       <r>     2.6457     0.0001   496.0000 </r>
       <r>     2.7978     0.0000   496.0000 </r>
       <r>     2.9500     0.0000   496.0000 </r>
       <r>     3.1021     0.0000   496.0000 </r>
       <r>     3.2543     0.0000   496.0000 </r>
       <r>     3.4064     0.0000   496.0000 </r>
       <r>     3.5586     0.0000   496.0000 </r>
       <r>     3.7107     0.0000   496.0000 </r>
       <r>     3.8628     0.0000   496.0000 </r>
       <r>     4.0150     0.0000   496.0000 </r>
       <r>     4.1671     0.0000   496.0000 </r>
       <r>     4.3193     0.0583   496.0089 </r>
       <r>     4.4714     7.0321   497.0787 </r>
       <r>     4.6235    33.4043   502.1609 </r>
       <r>     4.7757    39.1924   508.1237 </r>
       <r>     4.9278    27.9499   512.3760 </r>
       <r>     5.0800    40.3676   518.5175 </r>
       <r>     5.2321    55.6872   526.9898 </r>
       <r>     5.3842    68.5829   537.4241 </r>
       <r>     5.5364    60.7149   546.6613 </r>
       <r>     5.6885    61.2457   555.9793 </r>
       <r>     5.8407    71.5505   566.8650 </r>
       <r>     5.9928    80.7069   579.1439 </r>
       <r>     6.1449    92.4777   593.2135 </r>
       <r>     6.2971    71.5903   604.1053 </r>
       <r>     6.4492    48.5951   611.4986 </r>
       <r>     6.6014    21.7307   614.8047 </r>
       <r>     6.7535    20.8542   617.9775 </r>
       <r>     6.9057    16.9016   620.5489 </r>
       <r>     7.0578    20.7305   623.7028 </r>
       <r>     7.2099    16.8014   626.2590 </r>
       <r>     7.3621    18.2705   629.0387 </r>
       <r>     7.5142    17.5629   631.7107 </r>
       <r>     7.6664    12.5047   633.6132 </r>
       <r>     7.8185    16.4008   636.1085 </r>
       <r>     7.9706    17.5084   638.7722 </r>
       <r>     8.1228    22.6734   642.2218 </r>
       <r>     8.2749    26.9357   646.3198 </r>
       <r>     8.4271    24.0509   649.9789 </r>
       <r>     8.5792    22.1115   653.3430 </r>
       <r>     8.7313    26.3680   657.3546 </r>
       <r>     8.8835    28.5437   661.6973 </r>
       <r>     9.0356    33.6604   666.8184 </r>
       <r>     9.1878    38.0328   672.6048 </r>
       <r>     9.3399    41.6497   678.9414 </r>
       <r>     9.4920    42.3569   685.3856 </r>
       <r>     9.6442    45.8460   692.3606 </r>
       <r>     9.7963    53.8365   700.5514 </r>
       <r>     9.9485    60.6980   709.7860 </r>
       <r>    10.1006    69.7167   720.3928 </r>
       <r>    10.2527    63.8123   730.1012 </r>
       <r>    10.4049    55.7414   738.5818 </r>
       <r>    10.5570    58.9762   747.5545 </r>
       <r>    10.7092    63.9836   757.2890 </r>
       <r>    10.8613    50.4343   764.9621 </r>
       <r>    11.0135    19.9540   767.9979 </r>
       <r>    11.1656     0.0137   768.0000 </r>
       <r>    11.3177     0.0000   768.0000 </r>
       <r>    11.4699     0.0000   768.0000 </r>
       <r>    11.6220     0.0000   768.0000 </r>
       <r>    11.7742     0.0000   768.0000 </r>
       <r>    11.9263     0.0000   768.0000 </r>
       <r>    12.0784     0.0000   768.0000 </r>
       <r>    12.2306     0.0000   768.0000 </r>
       <r>    12.3827     0.0000   768.0000 </r>
       <r>    12.5349     0.0000   768.0000 </r>
       <r>    12.6870     0.0000   768.0000 </r>
       <r>    12.8391     0.0000   768.0000 </r>
       <r>    12.9913     0.0000   768.0000 </r>
      </set>
     </set>
    </array>
   </total>
  </dos>
 </calculation>
 <structure name="finalpos" >
  <crystal>
   <varray name="basis" >
    <v>      11.21299637      -0.00807458      -0.00232979 </v>
    <v>      -0.00801330      11.21638723       0.00223998 </v>
    <v>      -0.00333855       0.00320912      15.94657337 </v>
   </varray>
   <i name="volume">   2005.58831859 </i>
   <varray name="rec_basis" >
    <v>       0.08918228       0.00006371       0.00001866 </v>
    <v>       0.00006420       0.08915532      -0.00001793 </v>
    <v>       0.00001302      -0.00001251       0.06270940 </v>
   </varray>
  </crystal>
  <varray name="positions" >
   <v>       0.99707064       0.24515555       0.12755932 </v>
   <v>       0.99802097       0.25075693       0.63179690 </v>
   <v>       0.00830280       0.75400218       0.12631445 </v>
   <v>       0.00524908       0.74705461       0.63206230 </v>
   <v>       0.50520104       0.25135073       0.12372274 </v>
   <v>       0.50214513       0.25107297       0.63652026 </v>
   <v>       0.49754360       0.74731390       0.12075032 </v>
   <v>       0.49545198       0.74790341       0.63461690 </v>
   <v>       0.99722762       0.25109020       0.36541631 </v>
   <v>       0.99892635       0.24391356       0.87515831 </v>
   <v>       0.00277753       0.74678856       0.36853101 </v>
   <v>       0.01234798       0.75355746       0.87346601 </v>
   <v>       0.50210666       0.25055127       0.36126622 </v>
   <v>       0.50278210       0.25177032       0.87967340 </v>
   <v>       0.49871873       0.74791930       0.36481231 </v>
   <v>       0.49364531       0.74779556       0.87835358 </v>
   <v>       0.25179361       0.99941464       0.12338931 </v>
   <v>       0.24407183       0.99432126       0.63204959 </v>
   <v>       0.25666505       0.49939392       0.12620754 </v>
   <v>       0.24279848       0.50169589       0.62959551 </v>
   <v>       0.75145869       0.00960783       0.12231269 </v>
   <v>       0.75519917       0.99604746       0.63749094 </v>
   <v>       0.74398617       0.49191415       0.12518966 </v>
   <v>       0.75099183       0.50076969       0.63053474 </v>
   <v>       0.24398410       0.99878126       0.36747368 </v>
   <v>       0.25151766       0.99313082       0.87811463 </v>
   <v>       0.24292845       0.49675101       0.36945963 </v>
   <v>       0.25645995       0.50699586       0.87552749 </v>
   <v>       0.75503033       0.99739898       0.36122856 </v>
   <v>       0.75251332       0.00518555       0.88026673 </v>
   <v>       0.75084935       0.49804847       0.36747962 </v>
   <v>       0.74333839       0.49521445       0.87634655 </v>
   <v>       0.00089751       0.99831905       0.00021972 </v>
   <v>       0.99935684       0.99681298       0.49983597 </v>
   <v>       0.00732824       0.48899402       0.99986524 </v>
   <v>       0.50023879       0.00076878       0.00023041 </v>
   <v>       0.49835579       0.00668527       0.50001810 </v>
   <v>       0.48946454       0.51341205       0.50002255 </v>
   <v>       0.25546179       0.24692759       0.00212347 </v>
   <v>       0.23405831       0.25714090       0.49982428 </v>
   <v>       0.24100374       0.75118979       0.50035846 </v>
   <v>       0.75914318       0.24604333       0.49911988 </v>
   <v>       0.76174620       0.74415780       0.50015890 </v>
   <v>       0.25147876       0.24849299       0.75233480 </v>
   <v>       0.25185314       0.74869301       0.24887569 </v>
   <v>       0.74984229       0.25029589       0.75331007 </v>
   <v>       0.75113264       0.74851065       0.24428928 </v>
   <v>       0.75100430       0.74878138       0.75562587 </v>
   <v>       0.00119426       0.00204065       0.24870399 </v>
   <v>       0.00207056       0.99839556       0.75118571 </v>
   <v>       0.99868366       0.49802527       0.25004184 </v>
   <v>       0.99987378       0.50135105       0.74989648 </v>
   <v>       0.50201175       0.00040383       0.24686983 </v>
   <v>       0.50048148       0.99749923       0.75343745 </v>
   <v>       0.50032277       0.49620783       0.24809275 </v>
   <v>       0.49972735       0.49962398       0.75182176 </v>
   <v>       0.99787670       0.50103231       0.49971771 </v>
   <v>       0.49973105       0.50043036       0.00026500 </v>
   <v>       0.25108064       0.74989177       0.99980244 </v>
   <v>       0.75033872       0.25193710       0.00112385 </v>
   <v>       0.74037696       0.75679111       0.99987344 </v>
   <v>       0.25152795       0.24811891       0.24873089 </v>
   <v>       0.25190346       0.74878132       0.75063286 </v>
   <v>       0.74958415       0.25021875       0.24760220 </v>
   <v>       0.11675662       0.13206813       0.25235441 </v>
   <v>       0.11518980       0.13481348       0.74887992 </v>
   <v>       0.11748427       0.63341065       0.25191464 </v>
   <v>       0.11596373       0.63135351       0.74915866 </v>
   <v>       0.61774489       0.12970817       0.24994811 </v>
   <v>       0.61601604       0.13360515       0.75168195 </v>
   <v>       0.61662906       0.63395432       0.25156701 </v>
   <v>       0.61631936       0.63515125       0.74943870 </v>
   <v>       0.38267962       0.36752242       0.25061830 </v>
   <v>       0.38460507       0.36439162       0.74840140 </v>
   <v>       0.38757246       0.86324250       0.25025018 </v>
   <v>       0.38865029       0.86541913       0.74748653 </v>
   <v>       0.88347231       0.36809581       0.24909647 </v>
   <v>       0.88505103       0.36479657       0.74980904 </v>
   <v>       0.88493559       0.86539560       0.25133152 </v>
   <v>       0.88454731       0.86500614       0.74726983 </v>
   <v>       0.36995753       0.11156983       0.25422137 </v>
   <v>       0.36762270       0.11318053       0.74373962 </v>
   <v>       0.36775882       0.61472950       0.26227856 </v>
   <v>       0.36914602       0.61221181       0.73930998 </v>
   <v>       0.86935626       0.11658124       0.25174548 </v>
   <v>       0.86626931       0.11638884       0.74875511 </v>
   <v>       0.86660164       0.61918835       0.26011662 </v>
   <v>       0.86556808       0.61758675       0.73867801 </v>
   <v>       0.13174071       0.38400156       0.24877227 </v>
   <v>       0.13468780       0.38278729       0.75236777 </v>
   <v>       0.13519528       0.88293354       0.24686659 </v>
   <v>       0.13335860       0.88477317       0.75164220 </v>
   <v>       0.63133893       0.38283370       0.24735438 </v>
   <v>       0.63504194       0.38364335       0.75190443 </v>
   <v>       0.63739995       0.88155003       0.23868245 </v>
   <v>       0.63849556       0.88407923       0.76266385 </v>
   <v>       0.36130020       0.38812361       0.99898034 </v>
   <v>       0.36818602       0.38119194       0.50213521 </v>
   <v>       0.36809886       0.88561697       0.00196590 </v>
   <v>       0.35917506       0.90224681       0.50080189 </v>
   <v>       0.85812520       0.40221575       0.99974771 </v>
   <v>       0.83484449       0.39933780       0.50080596 </v>
   <v>       0.87279956       0.87406742       0.00030072 </v>
   <v>       0.84216844       0.90364232       0.50035721 </v>
   <v>       0.13704067       0.11532317       0.99797874 </v>
   <v>       0.14773994       0.10193377       0.50077168 </v>
   <v>       0.11613540       0.62366464       0.99907588 </v>
   <v>       0.14562929       0.60642658       0.49888630 </v>
   <v>       0.63437248       0.11422501       0.99791689 </v>
   <v>       0.59437376       0.15891151       0.49989825 </v>
   <v>       0.63901063       0.61244913       0.99946862 </v>
   <v>       0.63817028       0.61538774       0.49965681 </v>
   <v>       0.11188690       0.36199897       0.99838885 </v>
   <v>       0.10059893       0.35288975       0.49863255 </v>
   <v>       0.12080971       0.87022376       0.00088280 </v>
   <v>       0.09810993       0.85405613       0.50088755 </v>
   <v>       0.60864261       0.36790656       0.00065698 </v>
   <v>       0.61488108       0.86680192       0.99783965 </v>
   <v>       0.38791085       0.13779851       0.00081370 </v>
   <v>       0.38560127       0.63107119       0.99884608 </v>
   <v>       0.39107462       0.64535000       0.49957081 </v>
   <v>       0.88761011       0.13496810       0.99905023 </v>
   <v>       0.89183638       0.14519318       0.49956126 </v>
   <v>       0.89565859       0.64904067       0.50165782 </v>
   <v>       0.99972490       0.00216961       0.12513938 </v>
   <v>       0.99933424       0.00033686       0.62389919 </v>
   <v>       0.98861988       0.51326336       0.12266303 </v>
   <v>       0.00262060       0.49395924       0.62433374 </v>
   <v>       0.49857418       0.00291848       0.12433550 </v>
   <v>       0.51897964       0.99004317       0.62126753 </v>
   <v>       0.49465128       0.50521516       0.12771749 </v>
   <v>       0.51736282       0.48464348       0.61871499 </v>
   <v>       0.00048548       0.99766160       0.37658745 </v>
   <v>       0.99807003       0.00024801       0.87418077 </v>
   <v>       0.99973439       0.49630148       0.37603452 </v>
   <v>       0.98653482       0.51272710       0.87642417 </v>
   <v>       0.51763669       0.98753513       0.37912515 </v>
   <v>       0.49260660       0.00335809       0.87498649 </v>
   <v>       0.51531671       0.48374298       0.38212250 </v>
   <v>       0.49644051       0.50198597       0.87165809 </v>
   <v>       0.26112152       0.24041410       0.38122875 </v>
   <v>       0.25422912       0.24568157       0.87379045 </v>
   <v>       0.24711856       0.75783298       0.37677185 </v>
   <v>       0.25596154       0.74576599       0.87453339 </v>
   <v>       0.74190883       0.25485133       0.37854785 </v>
   <v>       0.75229522       0.25071610       0.87504071 </v>
   <v>       0.73502271       0.76474124       0.37947438 </v>
   <v>       0.76941046       0.73270749       0.87780384 </v>
   <v>       0.25018598       0.24797598       0.12351665 </v>
   <v>       0.25586065       0.24249353       0.62169834 </v>
   <v>       0.25538712       0.74155087       0.12688347 </v>
   <v>       0.24746792       0.75357471       0.62210832 </v>
   <v>       0.75107211       0.24867534       0.12333922 </v>
   <v>       0.74205275       0.25283307       0.62295943 </v>
   <v>       0.76680973       0.73243265       0.12156439 </v>
   <v>       0.73219997       0.76496497       0.62100908 </v>
  </varray>
 </structure>
</modeling>
