       N       E                     dE             d eps       ncg     rms          rms(c)
DAV:   1    -0.115350028141E+04   -0.11535E+04   -0.29201E-05  4104   0.180E-02    0.276E-02
RMM:   2    -0.115350028054E+04    0.86766E-06   -0.21763E-05  3321   0.958E-03    0.479E-02
RMM:   3    -0.115350028128E+04   -0.73675E-06   -0.98038E-06  2942   0.462E-03    0.379E-03
RMM:   4    -0.115350028145E+04   -0.17352E-06   -0.36796E-06  1983   0.314E-03    0.611E-03
RMM:   5    -0.115350028159E+04   -0.13523E-06   -0.28760E-06  1571   0.251E-03    0.711E-03
RMM:   6    -0.115350028159E+04   -0.44674E-08   -0.16393E-06  1313   0.240E-03    0.935E-04
RMM:   7    -0.115350028162E+04   -0.28842E-07   -0.91534E-07  1029   0.200E-03    0.174E-03
RMM:   8    -0.115350028161E+04    0.95315E-08   -0.57932E-07   948   0.201E-03
   1 F= -.11535003E+04 E0= -.11535003E+04  d E =-.115350E+04  mag=    20.0000
       N       E                     dE             d eps       ncg     rms          rms(c)
DAV:   1    -0.115350042000E+04   -0.13838E-03   -0.29016E-01  6240   0.629E-01    0.194E-01
RMM:   2    -0.115350084936E+04   -0.42936E-03   -0.94616E-03  6151   0.129E-01    0.186E-01
RMM:   3    -0.115350078196E+04    0.67396E-04   -0.43228E-04  5182   0.375E-02    0.120E-01
RMM:   4    -0.115350068273E+04    0.99233E-04   -0.18584E-04  3859   0.171E-02    0.649E-02
RMM:   5    -0.115350065872E+04    0.24011E-04   -0.87430E-05  3663   0.119E-02    0.601E-02
RMM:   6    -0.115350065924E+04   -0.52343E-06   -0.25649E-05  3440   0.857E-03    0.215E-02
RMM:   7    -0.115350065891E+04    0.33701E-06   -0.92205E-06  3090   0.389E-03    0.129E-02
RMM:   8    -0.115350065902E+04   -0.11615E-06   -0.42906E-06  2761   0.367E-03
   2 F= -.11535007E+04 E0= -.11535007E+04  d E =-.377410E-03  mag=    20.0000
       N       E                     dE             d eps       ncg     rms          rms(c)
DAV:   1    -0.115350086011E+04   -0.20121E-03   -0.40154E-02  6208   0.234E-01    0.743E-02
RMM:   2    -0.115350091866E+04   -0.58542E-04   -0.12986E-03  6016   0.482E-02    0.712E-02
RMM:   3    -0.115350090892E+04    0.97350E-05   -0.47880E-05  3340   0.139E-02    0.447E-02
RMM:   4    -0.115350089659E+04    0.12331E-04   -0.24599E-05  3171   0.698E-03    0.250E-02
RMM:   5    -0.115350089328E+04    0.33085E-05   -0.16657E-05  2915   0.544E-03    0.335E-02
RMM:   6    -0.115350089333E+04   -0.47628E-07   -0.52097E-06  2327   0.399E-03    0.652E-03
RMM:   7    -0.115350089330E+04    0.29875E-07   -0.53344E-07  1326   0.188E-03    0.382E-03
RMM:   8    -0.115350089335E+04   -0.47599E-07   -0.25772E-07  1111   0.184E-03
   3 F= -.11535009E+04 E0= -.11535009E+04  d E =-.611734E-03  mag=    20.0000
       N       E                     dE             d eps       ncg     rms          rms(c)
DAV:   1    -0.115350077857E+04    0.11473E-03   -0.21213E-01  6240   0.535E-01    0.125E-01
RMM:   2    -0.115350122831E+04   -0.44973E-03   -0.54648E-03  6155   0.962E-02    0.982E-02
RMM:   3    -0.115350121334E+04    0.14963E-04   -0.23290E-04  4012   0.309E-02    0.634E-02
RMM:   4    -0.115350118814E+04    0.25204E-04   -0.92028E-05  3526   0.124E-02    0.337E-02
RMM:   5    -0.115350118629E+04    0.18533E-05   -0.30650E-05  3462   0.814E-03    0.253E-02
RMM:   6    -0.115350118741E+04   -0.11205E-05   -0.10202E-05  3199   0.493E-03    0.101E-02
RMM:   7    -0.115350118790E+04   -0.49047E-06   -0.45973E-06  2640   0.333E-03    0.629E-03
RMM:   8    -0.115350118827E+04   -0.37534E-06   -0.27985E-06  2357   0.272E-03
   4 F= -.11535012E+04 E0= -.11535012E+04  d E =-.294925E-03  mag=    20.0000
       N       E                     dE             d eps       ncg     rms          rms(c)
DAV:   1    -0.115350118809E+04   -0.19537E-06   -0.10233E-04  4216   0.125E-02    0.909E-03
RMM:   2    -0.115350118878E+04   -0.68975E-06   -0.77604E-06  2993   0.526E-03    0.146E-02
RMM:   3    -0.115350118891E+04   -0.12729E-06   -0.12060E-06  1550   0.219E-03    0.312E-03
RMM:   4    -0.115350118892E+04   -0.66648E-08   -0.22070E-07  1005   0.186E-03    0.276E-03
RMM:   5    -0.115350118890E+04    0.12704E-07   -0.53447E-09   576   0.164E-03    0.170E-03
RMM:   6    -0.115350118889E+04    0.11205E-07   -0.22259E-08   604   0.166E-03    0.591E-04
RMM:   7    -0.115350118889E+04    0.32596E-08   -0.53758E-09   443   0.164E-03    0.361E-04
RMM:   8    -0.115350118889E+04    0.84401E-09   -0.59599E-10   405   0.164E-03
   5 F= -.11535012E+04 E0= -.11535012E+04  d E =-.295541E-03  mag=    20.0000
       N       E                     dE             d eps       ncg     rms          rms(c)
DAV:   1    -0.115350131822E+04   -0.12934E-03   -0.13697E-01  6192   0.428E-01    0.917E-02
RMM:   2    -0.115350159781E+04   -0.27958E-03   -0.34852E-03  6126   0.754E-02    0.687E-02
RMM:   3    -0.115350158876E+04    0.90495E-05   -0.14826E-04  3648   0.251E-02    0.438E-02
RMM:   4    -0.115350157779E+04    0.10965E-04   -0.62266E-05  3498   0.102E-02    0.271E-02
RMM:   5    -0.115350157712E+04    0.67150E-06   -0.20985E-05  3380   0.721E-03    0.327E-02
RMM:   6    -0.115350157792E+04   -0.80388E-06   -0.10496E-05  3142   0.441E-03    0.822E-03
RMM:   7    -0.115350157848E+04   -0.55118E-06   -0.42606E-06  2580   0.358E-03    0.829E-03
RMM:   8    -0.115350157883E+04   -0.35067E-06   -0.25521E-06  1899   0.254E-03
   6 F= -.11535016E+04 E0= -.11535016E+04  d E =-.389939E-03  mag=    20.0000
       N       E                     dE             d eps       ncg     rms          rms(c)
DAV:   1    -0.115350156744E+04    0.11036E-04   -0.28238E-02  6080   0.194E-01    0.421E-02
RMM:   2    -0.115350162628E+04   -0.58837E-04   -0.72940E-04  5609   0.351E-02    0.327E-02
RMM:   3    -0.115350162503E+04    0.12441E-05   -0.33721E-05  3422   0.115E-02    0.210E-02
RMM:   4    -0.115350162342E+04    0.16142E-05   -0.12826E-05  3332   0.489E-03    0.119E-02
RMM:   5    -0.115350162314E+04    0.28186E-06   -0.62475E-06  2934   0.365E-03    0.128E-02
RMM:   6    -0.115350162335E+04   -0.21108E-06   -0.24512E-06  2149   0.279E-03    0.444E-03
RMM:   7    -0.115350162346E+04   -0.11332E-06   -0.85142E-07  1436   0.210E-03    0.197E-03
RMM:   8    -0.115350162354E+04   -0.80283E-07   -0.46492E-07  1278   0.204E-03
   7 F= -.11535016E+04 E0= -.11535016E+04  d E =-.434654E-03  mag=    20.0000
       N       E                     dE             d eps       ncg     rms          rms(c)
DAV:   1    -0.115350164234E+04   -0.18881E-04   -0.16455E-01  6216   0.463E-01    0.100E-01
RMM:   2    -0.115350199066E+04   -0.34832E-03   -0.40337E-03  6128   0.795E-02    0.693E-02
RMM:   3    -0.115350198231E+04    0.83486E-05   -0.18087E-04  3787   0.274E-02    0.453E-02
RMM:   4    -0.115350197410E+04    0.82100E-05   -0.58855E-05  3485   0.101E-02    0.308E-02
RMM:   5    -0.115350197237E+04    0.17330E-05   -0.20770E-05  3380   0.713E-03    0.331E-02
RMM:   6    -0.115350197263E+04   -0.25642E-06   -0.10780E-05  3126   0.444E-03    0.682E-03
RMM:   7    -0.115350197281E+04   -0.18015E-06   -0.45624E-06  2598   0.359E-03    0.735E-03
RMM:   8    -0.115350197285E+04   -0.41036E-07   -0.27132E-06  1851   0.257E-03
   8 F= -.11535020E+04 E0= -.11535020E+04  d E =-.349305E-03  mag=    20.0000
