<?xml version="1.0" encoding="ISO-8859-1"?>
<modeling>
 <generator>
  <i name="program" type="string">vasp </i>
  <i name="version" type="string">5.4.1  </i>
  <i name="subversion" type="string">05Feb16 (build Jan 25 2017 20:16:33) complex                          parallel </i>
  <i name="platform" type="string">BWXE6 </i>
  <i name="date" type="string">2019 08 11 </i>
  <i name="time" type="string">11:32:15 </i>
 </generator>
 <incar>
  <i type="string" name="SYSTEM"> STF</i>
  <i type="string" name="PREC">normal</i>
  <i type="string" name="ALGO"> Fast</i>
  <i type="int" name="ISPIN">     2</i>
  <i type="int" name="NELM">    40</i>
  <i type="int" name="NELMIN">     8</i>
  <i type="int" name="IBRION">     2</i>
  <i name="EDIFF">      0.00010000</i>
  <i name="EDIFFG">     -0.03000000</i>
  <i type="int" name="NSW">    30</i>
  <i type="int" name="ISIF">     3</i>
  <i name="ENCUT">    520.00000000</i>
  <i type="int" name="NBANDS">   768</i>
  <v name="MAGMOM">      0.60000000      0.60000000      0.60000000      0.60000000      0.60000000      0.60000000      0.60000000      0.60000000      0.60000000      0.60000000      0.60000000      0.60000000      0.60000000      0.60000000      0.60000000      0.60000000      0.60000000      0.60000000      0.60000000      0.60000000
      0.60000000      0.60000000      0.60000000      0.60000000      0.60000000      0.60000000      0.60000000      0.60000000      0.60000000      0.60000000      0.60000000      0.60000000      0.60000000      0.60000000      0.60000000      0.60000000      0.60000000      0.60000000      0.60000000      0.60000000
      0.60000000      0.60000000      0.60000000      0.60000000      0.60000000      0.60000000      0.60000000      0.60000000      0.60000000      0.60000000      0.60000000      0.60000000      0.60000000      0.60000000      0.60000000      0.60000000      0.60000000      0.60000000      0.60000000      0.60000000
      5.00000000      5.00000000      5.00000000      5.00000000      0.60000000      0.60000000      0.60000000      0.60000000      0.60000000      0.60000000      0.60000000      0.60000000      0.60000000      0.60000000      0.60000000      0.60000000      0.60000000      0.60000000      0.60000000      0.60000000
      0.60000000      0.60000000      0.60000000      0.60000000      0.60000000      0.60000000      0.60000000      0.60000000      0.60000000      0.60000000      0.60000000      0.60000000      0.60000000      0.60000000      0.60000000      0.60000000      0.60000000      0.60000000      0.60000000      0.60000000
      0.60000000      0.60000000      0.60000000      0.60000000      0.60000000      0.60000000      0.60000000      0.60000000      0.60000000      0.60000000      0.60000000      0.60000000      0.60000000      0.60000000      0.60000000      0.60000000      0.60000000      0.60000000      0.60000000      0.60000000
      0.60000000      0.60000000      0.60000000      0.60000000      0.60000000      0.60000000      0.60000000      0.60000000      0.60000000      0.60000000      0.60000000      0.60000000      0.60000000      0.60000000      0.60000000      0.60000000      0.60000000      0.60000000      0.60000000      0.60000000
      0.60000000      0.60000000      0.60000000      0.60000000      0.60000000      0.60000000      0.60000000      0.60000000      0.60000000      0.60000000      0.60000000      0.60000000      0.60000000      0.60000000      0.60000000      0.60000000      0.60000000      0.60000000</v>
  <i type="string" name="LREAL"> Auto</i>
  <i type="int" name="ISMEAR">     0</i>
  <i name="SIGMA">      0.05000000</i>
  <i type="int" name="LMAXMIX">     4</i>
  <v type="int" name="KPOINT_BSE">    -1     0     0     0</v>
  <i type="int" name="NELM">    40</i>
  <i type="logical" name="LDAU"> T  </i>
  <v type="int" name="LDAUTYPE">     2</v>
  <v type="int" name="LDAUL">     0     2     2     0</v>
  <v name="LDAUU">      0.00000000      3.00000000      5.00000000      0.00000000</v>
  <v name="LDAUJ">      0.00000000      0.00000000      0.00000000      0.00000000</v>
  <i type="int" name="LDAUPRINT">     1</i>
 </incar>
 <kpoints>
  <generation param="Monkhorst-Pack">
   <v type="int" name="divisions">       2        2        2 </v>
   <v name="usershift">      0.00000000       0.00000000       0.00000000 </v>
   <v name="genvec1">      0.50000000       0.00000000       0.00000000 </v>
   <v name="genvec2">      0.00000000       0.50000000       0.00000000 </v>
   <v name="genvec3">      0.00000000       0.00000000       0.50000000 </v>
   <v name="shift">      0.50000000       0.50000000       0.50000000 </v>
  </generation>
  <varray name="kpointlist" >
   <v>       0.25000000       0.25000000       0.25000000 </v>
   <v>      -0.25000000       0.25000000       0.25000000 </v>
  </varray>
  <varray name="weights" >
   <v>       0.50000000 </v>
   <v>       0.50000000 </v>
  </varray>
 </kpoints>
 <parameters>
  <separator name="general" >
   <i type="string" name="SYSTEM">STF</i>
   <i type="logical" name="LCOMPAT"> F  </i>
  </separator>
  <separator name="electronic" >
   <i type="string" name="PREC">normal</i>
   <i name="ENMAX">    520.00000000</i>
   <i name="ENAUG">    605.39200000</i>
   <i name="EDIFF">      0.00010000</i>
   <i type="int" name="IALGO">    68</i>
   <i type="int" name="IWAVPR">    11</i>
   <i type="int" name="NBANDS">   768</i>
   <i name="NELECT">   1028.00000000</i>
   <i type="int" name="TURBO">     0</i>
   <i type="int" name="IRESTART">     0</i>
   <i type="int" name="NREBOOT">     0</i>
   <i type="int" name="NMIN">     0</i>
   <i name="EREF">      0.00000000</i>
   <separator name="electronic smearing" >
    <i type="int" name="ISMEAR">     0</i>
    <i name="SIGMA">      0.05000000</i>
    <i name="KSPACING">      0.50000000</i>
    <i type="logical" name="KGAMMA"> T  </i>
   </separator>
   <separator name="electronic projectors" >
    <i type="logical" name="LREAL"> T  </i>
    <v name="ROPT">     -0.00050000     -0.00050000     -0.00050000     -0.00050000</v>
    <i type="int" name="LMAXPAW">  -100</i>
    <i type="int" name="LMAXMIX">     4</i>
    <i type="logical" name="NLSPLINE"> F  </i>
   </separator>
   <separator name="electronic startup" >
    <i type="int" name="ISTART">     1</i>
    <i type="int" name="ICHARG">     0</i>
    <i type="int" name="INIWAV">     1</i>
   </separator>
   <separator name="electronic spin" >
    <i type="int" name="ISPIN">     2</i>
    <i type="logical" name="LNONCOLLINEAR"> F  </i>
    <v name="MAGMOM">      0.60000000      0.60000000      0.60000000      0.60000000      0.60000000      0.60000000      0.60000000      0.60000000      0.60000000      0.60000000      0.60000000      0.60000000      0.60000000      0.60000000      0.60000000      0.60000000      0.60000000      0.60000000      0.60000000      0.60000000
      0.60000000      0.60000000      0.60000000      0.60000000      0.60000000      0.60000000      0.60000000      0.60000000      0.60000000      0.60000000      0.60000000      0.60000000      0.60000000      0.60000000      0.60000000      0.60000000      0.60000000      0.60000000      0.60000000      0.60000000
      0.60000000      0.60000000      0.60000000      0.60000000      0.60000000      0.60000000      0.60000000      0.60000000      0.60000000      0.60000000      0.60000000      0.60000000      0.60000000      0.60000000      0.60000000      0.60000000      0.60000000      0.60000000      0.60000000      0.60000000
      5.00000000      5.00000000      5.00000000      5.00000000      0.60000000      0.60000000      0.60000000      0.60000000      0.60000000      0.60000000      0.60000000      0.60000000      0.60000000      0.60000000      0.60000000      0.60000000      0.60000000      0.60000000      0.60000000      0.60000000
      0.60000000      0.60000000      0.60000000      0.60000000      0.60000000      0.60000000      0.60000000      0.60000000      0.60000000      0.60000000      0.60000000      0.60000000      0.60000000      0.60000000      0.60000000      0.60000000      0.60000000      0.60000000      0.60000000      0.60000000
      0.60000000      0.60000000      0.60000000      0.60000000      0.60000000      0.60000000      0.60000000      0.60000000      0.60000000      0.60000000      0.60000000      0.60000000      0.60000000      0.60000000      0.60000000      0.60000000      0.60000000      0.60000000      0.60000000      0.60000000
      0.60000000      0.60000000      0.60000000      0.60000000      0.60000000      0.60000000      0.60000000      0.60000000      0.60000000      0.60000000      0.60000000      0.60000000      0.60000000      0.60000000      0.60000000      0.60000000      0.60000000      0.60000000      0.60000000      0.60000000
      0.60000000      0.60000000      0.60000000      0.60000000      0.60000000      0.60000000      0.60000000      0.60000000      0.60000000      0.60000000      0.60000000      0.60000000      0.60000000      0.60000000      0.60000000      0.60000000      0.60000000      0.60000000</v>
    <i name="NUPDOWN">     -1.00000000</i>
    <i type="logical" name="LSORBIT"> F  </i>
    <v name="SAXIS">      0.00000000      0.00000000      1.00000000</v>
    <i type="logical" name="LSPIRAL"> F  </i>
    <v name="QSPIRAL">      0.00000000      0.00000000      0.00000000</v>
    <i type="logical" name="LZEROZ"> F  </i>
   </separator>
   <separator name="electronic exchange-correlation" >
    <i type="logical" name="LASPH"> F  </i>
    <i type="logical" name="LMETAGGA"> F  </i>
   </separator>
   <separator name="electronic convergence" >
    <i type="int" name="NELM">    40</i>
    <i type="int" name="NELMDL">     0</i>
    <i type="int" name="NELMIN">     8</i>
    <i name="ENINI">    520.00000000</i>
    <separator name="electronic convergence detail" >
     <i type="logical" name="LDIAG"> T  </i>
     <i type="logical" name="LSUBROT"> F  </i>
     <i name="WEIMIN">      0.00100000</i>
     <i name="EBREAK">      0.00000003</i>
     <i name="DEPER">      0.30000000</i>
     <i type="int" name="NRMM">     4</i>
     <i name="TIME">      0.40000000</i>
    </separator>
   </separator>
   <separator name="electronic mixer" >
    <i name="AMIX">      0.40000000</i>
    <i name="BMIX">      1.00000000</i>
    <i name="AMIN">      0.10000000</i>
    <i name="AMIX_MAG">      1.60000000</i>
    <i name="BMIX_MAG">      1.00000000</i>
    <separator name="electronic mixer details" >
     <i type="int" name="IMIX">     4</i>
     <i type="logical" name="MIXFIRST"> F  </i>
     <i type="int" name="MAXMIX">   -45</i>
     <i name="WC">    100.00000000</i>
     <i type="int" name="INIMIX">     1</i>
     <i type="int" name="MIXPRE">     1</i>
     <i type="int" name="MREMOVE">     5</i>
    </separator>
   </separator>
   <separator name="electronic dipolcorrection" >
    <i type="logical" name="LDIPOL"> F  </i>
    <i type="logical" name="LMONO"> F  </i>
    <i type="int" name="IDIPOL">     0</i>
    <i name="EPSILON">      1.00000000</i>
    <v name="DIPOL">   -100.00000000   -100.00000000   -100.00000000</v>
    <i name="EFIELD">      0.00000000</i>
   </separator>
  </separator>
  <separator name="grids" >
   <i type="int" name="NGX">    64</i>
   <i type="int" name="NGY">    64</i>
   <i type="int" name="NGZ">    90</i>
   <i type="int" name="NGXF">   128</i>
   <i type="int" name="NGYF">   128</i>
   <i type="int" name="NGZF">   180</i>
   <i type="logical" name="ADDGRID"> F  </i>
  </separator>
  <separator name="ionic" >
   <i type="int" name="NSW">    30</i>
   <i type="int" name="IBRION">     2</i>
   <i type="int" name="ISIF">     3</i>
   <i name="PSTRESS">      0.00000000</i>
   <i name="EDIFFG">     -0.03000000</i>
   <i type="int" name="NFREE">     1</i>
   <i name="POTIM">      0.50000000</i>
   <i name="SMASS">     -3.00000000</i>
   <i name="SCALEE">      1.00000000</i>
  </separator>
  <separator name="ionic md" >
   <i name="TEBEG">      0.00010000</i>
   <i name="TEEND">      0.00010000</i>
   <i type="int" name="NBLOCK">     1</i>
   <i type="int" name="KBLOCK">    30</i>
   <i type="int" name="NPACO">   256</i>
   <i name="APACO">     16.00000000</i>
  </separator>
  <separator name="symmetry" >
   <i type="int" name="ISYM">     2</i>
   <i name="SYMPREC">      0.00001000</i>
  </separator>
  <separator name="dos" >
   <i type="logical" name="LORBIT"> F  </i>
   <v name="RWIGS">     -1.00000000     -1.00000000     -1.00000000     -1.00000000</v>
   <i type="int" name="NEDOS">   301</i>
   <i name="EMIN">     10.00000000</i>
   <i name="EMAX">    -10.00000000</i>
   <i name="EFERMI">      0.00000000</i>
  </separator>
  <separator name="writing" >
   <i type="int" name="NWRITE">     2</i>
   <i type="logical" name="LWAVE"> T  </i>
   <i type="logical" name="LCHARG"> T  </i>
   <i type="logical" name="LPARD"> F  </i>
   <i type="logical" name="LVTOT"> F  </i>
   <i type="logical" name="LVHAR"> F  </i>
   <i type="logical" name="LELF"> F  </i>
   <i type="logical" name="LOPTICS"> F  </i>
   <v name="STM">      0.00000000      0.00000000      0.00000000      0.00000000      0.00000000      0.00000000      0.00000000</v>
  </separator>
  <separator name="performance" >
   <i type="int" name="NPAR">     2</i>
   <i type="int" name="NSIM">     4</i>
   <i type="int" name="NBLK">    -1</i>
   <i type="logical" name="LPLANE"> T  </i>
   <i type="logical" name="LSCALAPACK"> T  </i>
   <i type="logical" name="LSCAAWARE"> F  </i>
   <i type="logical" name="LSCALU"> F  </i>
   <i type="logical" name="LASYNC"> F  </i>
   <i type="logical" name="LORBITALREAL"> F  </i>
  </separator>
  <separator name="miscellaneous" >
   <i type="int" name="IDIOT">     3</i>
   <i type="logical" name="LMUSIC"> F  </i>
   <v name="POMASS">     87.62000000     47.88000000     55.84700000     16.00000000</v>
   <v name="DARWINR">      0.00000000      0.00000000      0.00000000      0.00000000</v>
   <v name="DARWINV">      1.00000000      1.00000000      1.00000000      1.00000000</v>
   <i type="logical" name="LCORR"> T  </i>
  </separator>
  <i type="logical" name="GGA_COMPAT"> T  </i>
  <i type="logical" name="LBERRY"> F  </i>
  <i type="int" name="ICORELEVEL">     0</i>
  <i type="logical" name="LDAU"> T  </i>
  <v type="int" name="LDAUTYPE">     2</v>
  <v type="int" name="LDAUL">     0</v>
  <v name="LDAUU">      0.00000000</v>
  <v name="LDAUJ">      0.00000000</v>
  <i type="int" name="LDAUPRINT">     1</i>
  <i type="int" name="I_CONSTRAINED_M">     0</i>
  <separator name="electronic exchange-correlation" >
   <i type="string" name="GGA">--</i>
   <i type="int" name="VOSKOWN">     0</i>
   <i type="logical" name="LHFCALC"> F  </i>
   <i type="string" name="PRECFOCK"></i>
   <i type="logical" name="LSYMGRAD"> F  </i>
   <i type="logical" name="LHFONE"> F  </i>
   <i type="logical" name="LRHFCALC"> F  </i>
   <i type="logical" name="LTHOMAS"> F  </i>
   <i type="logical" name="LMODELHF"> F  </i>
   <i name="ENCUT4O">     -1.00000000</i>
   <i type="int" name="EXXOEP">     0</i>
   <i type="int" name="FOURORBIT">     0</i>
   <i name="AEXX">      0.00000000</i>
   <i name="HFALPHA">      0.00000000</i>
   <i name="MCALPHA">      0.00000000</i>
   <i name="ALDAX">      1.00000000</i>
   <i name="AGGAX">      1.00000000</i>
   <i name="ALDAC">      1.00000000</i>
   <i name="AGGAC">      1.00000000</i>
   <i type="int" name="NKREDX">     1</i>
   <i type="int" name="NKREDY">     1</i>
   <i type="int" name="NKREDZ">     1</i>
   <i type="logical" name="SHIFTRED"> F  </i>
   <i type="logical" name="ODDONLY"> F  </i>
   <i type="logical" name="EVENONLY"> F  </i>
   <i type="int" name="LMAXFOCK">     0</i>
   <i type="int" name="NMAXFOCKAE">     0</i>
   <i type="logical" name="LFOCKAEDFT"> F  </i>
   <i name="HFSCREEN">      0.00000000</i>
   <i name="HFSCREENC">      0.00000000</i>
   <i type="int" name="NBANDSGWLOW">     0</i>
  </separator>
  <separator name="vdW DFT" >
   <i type="logical" name="LUSE_VDW"> F  </i>
   <i name="Zab_VDW">     -0.84910000</i>
   <i name="PARAM1">      0.12340000</i>
   <i name="PARAM2">      1.00000000</i>
   <i name="PARAM3">      0.00000000</i>
  </separator>
  <separator name="model GW" >
   <i type="int" name="MODEL_GW">     0</i>
   <i name="MODEL_EPS0">      7.59462031</i>
   <i name="MODEL_ALPHA">      1.00000000</i>
  </separator>
  <separator name="linear response parameters" >
   <i type="logical" name="LEPSILON"> F  </i>
   <i type="logical" name="LRPA"> F  </i>
   <i type="logical" name="LNABLA"> F  </i>
   <i type="logical" name="LVEL"> F  </i>
   <i type="int" name="KINTER">     0</i>
   <i name="CSHIFT">      0.10000000</i>
   <i name="OMEGAMAX">     -1.00000000</i>
   <i name="DEG_THRESHOLD">      0.00200000</i>
  </separator>
  <separator name="orbital magnetization" >
   <i type="logical" name="NUCIND"> F  </i>
   <v name="MAGPOS">      0.00000000      0.00000000      0.00000000</v>
   <i type="logical" name="LNICSALL"> T  </i>
   <i type="logical" name="ORBITALMAG"> F  </i>
   <i type="logical" name="LMAGBLOCH"> F  </i>
   <i type="logical" name="LCHIMAG"> F  </i>
   <i type="logical" name="LGAUGE"> T  </i>
   <i type="int" name="MAGATOM">     0</i>
   <v name="MAGDIPOL">      0.00000000      0.00000000      0.00000000</v>
   <v name="AVECCONST">      0.00000000      0.00000000      0.00000000</v>
  </separator>
  <separator name="response functions" >
   <i type="logical" name="LADDER"> F  </i>
   <i type="logical" name="LFXC"> F  </i>
   <i type="logical" name="LHARTREE"> T  </i>
   <i type="int" name="IBSE">     0</i>
   <v type="int" name="KPOINT">    -1     0     0     0</v>
   <i type="logical" name="LTCTE"> F  </i>
   <i type="logical" name="LTETE"> F  </i>
   <i type="logical" name="LTRIPLET"> F  </i>
   <i type="logical" name="LFXCEPS"> F  </i>
   <i type="logical" name="LFXHEG"> F  </i>
   <i type="int" name="NATURALO">     0</i>
   <i type="logical" name="L2ORDER"> F  </i>
   <i type="logical" name="LUSEW"> F  </i>
   <i name="ENCUTGW">     -2.00000000</i>
   <i name="ENCUTGWSOFT">     -2.00000000</i>
   <i name="ENCUTLF">     -1.00000000</i>
   <i type="int" name="LMAXMP2">    -1</i>
   <i name="SCISSOR">      0.00000000</i>
   <i type="int" name="NOMEGA">     0</i>
   <i type="int" name="NOMEGAR">     0</i>
   <i type="int" name="NBANDSGW">    -1</i>
   <i type="int" name="NBANDSO">    -1</i>
   <i type="int" name="NBANDSV">    -1</i>
   <i type="int" name="NELM">    40</i>
   <i type="int" name="NELMHF">     1</i>
   <i type="int" name="DIM">     3</i>
   <i type="int" name="ANTIRES">     0</i>
   <i name="OMEGAMAX">    -30.00000000</i>
   <i name="OMEGAMIN">    -30.00000000</i>
   <i name="OMEGATL">   -200.00000000</i>
   <i type="int" name="OMEGAGRID">     0</i>
   <i name="CSHIFT">     -0.10000000</i>
   <i type="logical" name="SELFENERGY"> F  </i>
   <i type="logical" name="LSPECTRAL"> F  </i>
   <i type="logical" name="LSPECTRALGW"> F  </i>
   <i type="logical" name="LSINGLES"> F  </i>
   <i type="logical" name="LFERMIGW"> F  </i>
   <i type="logical" name="ODDONLYGW"> F  </i>
   <i type="logical" name="EVENONLYGW"> F  </i>
   <i type="int" name="NKREDLFX">     1</i>
   <i type="int" name="NKREDLFY">     1</i>
   <i type="int" name="NKREDLFZ">     1</i>
   <i type="int" name="MAXMEM">  1800</i>
   <i type="int" name="TELESCOPE">     0</i>
   <i type="int" name="TAUPAR">     1</i>
   <i type="int" name="OMEGAPAR">    -1</i>
   <i name="LAMBDA">      1.00000000</i>
  </separator>
  <separator name="External order field" >
   <i name="OFIELD_KAPPA">      0.00000000</i>
   <v name="OFIELD_K">      0.00000000      0.00000000      0.00000000</v>
   <i name="OFIELD_Q6_NEAR">      0.00000000</i>
   <i name="OFIELD_Q6_FAR">      0.00000000</i>
   <i name="OFIELD_A">      0.00000000</i>
  </separator>
 </parameters>
 <atominfo>
  <atoms>     158 </atoms>
  <types>       4 </types>
  <array name="atoms" >
   <dimension dim="1">ion</dimension>
   <field type="string">element</field>
   <field type="int">atomtype</field>
   <set>
    <rc><c>Sr</c><c>   1</c></rc>
    <rc><c>Sr</c><c>   1</c></rc>
    <rc><c>Sr</c><c>   1</c></rc>
    <rc><c>Sr</c><c>   1</c></rc>
    <rc><c>Sr</c><c>   1</c></rc>
    <rc><c>Sr</c><c>   1</c></rc>
    <rc><c>Sr</c><c>   1</c></rc>
    <rc><c>Sr</c><c>   1</c></rc>
    <rc><c>Sr</c><c>   1</c></rc>
    <rc><c>Sr</c><c>   1</c></rc>
    <rc><c>Sr</c><c>   1</c></rc>
    <rc><c>Sr</c><c>   1</c></rc>
    <rc><c>Sr</c><c>   1</c></rc>
    <rc><c>Sr</c><c>   1</c></rc>
    <rc><c>Sr</c><c>   1</c></rc>
    <rc><c>Sr</c><c>   1</c></rc>
    <rc><c>Sr</c><c>   1</c></rc>
    <rc><c>Sr</c><c>   1</c></rc>
    <rc><c>Sr</c><c>   1</c></rc>
    <rc><c>Sr</c><c>   1</c></rc>
    <rc><c>Sr</c><c>   1</c></rc>
    <rc><c>Sr</c><c>   1</c></rc>
    <rc><c>Sr</c><c>   1</c></rc>
    <rc><c>Sr</c><c>   1</c></rc>
    <rc><c>Sr</c><c>   1</c></rc>
    <rc><c>Sr</c><c>   1</c></rc>
    <rc><c>Sr</c><c>   1</c></rc>
    <rc><c>Sr</c><c>   1</c></rc>
    <rc><c>Sr</c><c>   1</c></rc>
    <rc><c>Sr</c><c>   1</c></rc>
    <rc><c>Sr</c><c>   1</c></rc>
    <rc><c>Sr</c><c>   1</c></rc>
    <rc><c>Ti</c><c>   2</c></rc>
    <rc><c>Ti</c><c>   2</c></rc>
    <rc><c>Ti</c><c>   2</c></rc>
    <rc><c>Ti</c><c>   2</c></rc>
    <rc><c>Ti</c><c>   2</c></rc>
    <rc><c>Ti</c><c>   2</c></rc>
    <rc><c>Ti</c><c>   2</c></rc>
    <rc><c>Ti</c><c>   2</c></rc>
    <rc><c>Ti</c><c>   2</c></rc>
    <rc><c>Ti</c><c>   2</c></rc>
    <rc><c>Ti</c><c>   2</c></rc>
    <rc><c>Ti</c><c>   2</c></rc>
    <rc><c>Ti</c><c>   2</c></rc>
    <rc><c>Ti</c><c>   2</c></rc>
    <rc><c>Ti</c><c>   2</c></rc>
    <rc><c>Ti</c><c>   2</c></rc>
    <rc><c>Ti</c><c>   2</c></rc>
    <rc><c>Ti</c><c>   2</c></rc>
    <rc><c>Ti</c><c>   2</c></rc>
    <rc><c>Ti</c><c>   2</c></rc>
    <rc><c>Ti</c><c>   2</c></rc>
    <rc><c>Ti</c><c>   2</c></rc>
    <rc><c>Ti</c><c>   2</c></rc>
    <rc><c>Ti</c><c>   2</c></rc>
    <rc><c>Ti</c><c>   2</c></rc>
    <rc><c>Ti</c><c>   2</c></rc>
    <rc><c>Ti</c><c>   2</c></rc>
    <rc><c>Ti</c><c>   2</c></rc>
    <rc><c>Fe</c><c>   3</c></rc>
    <rc><c>Fe</c><c>   3</c></rc>
    <rc><c>Fe</c><c>   3</c></rc>
    <rc><c>Fe</c><c>   3</c></rc>
    <rc><c>O </c><c>   4</c></rc>
    <rc><c>O </c><c>   4</c></rc>
    <rc><c>O </c><c>   4</c></rc>
    <rc><c>O </c><c>   4</c></rc>
    <rc><c>O </c><c>   4</c></rc>
    <rc><c>O </c><c>   4</c></rc>
    <rc><c>O </c><c>   4</c></rc>
    <rc><c>O </c><c>   4</c></rc>
    <rc><c>O </c><c>   4</c></rc>
    <rc><c>O </c><c>   4</c></rc>
    <rc><c>O </c><c>   4</c></rc>
    <rc><c>O </c><c>   4</c></rc>
    <rc><c>O </c><c>   4</c></rc>
    <rc><c>O </c><c>   4</c></rc>
    <rc><c>O </c><c>   4</c></rc>
    <rc><c>O </c><c>   4</c></rc>
    <rc><c>O </c><c>   4</c></rc>
    <rc><c>O </c><c>   4</c></rc>
    <rc><c>O </c><c>   4</c></rc>
    <rc><c>O </c><c>   4</c></rc>
    <rc><c>O </c><c>   4</c></rc>
    <rc><c>O </c><c>   4</c></rc>
    <rc><c>O </c><c>   4</c></rc>
    <rc><c>O </c><c>   4</c></rc>
    <rc><c>O </c><c>   4</c></rc>
    <rc><c>O </c><c>   4</c></rc>
    <rc><c>O </c><c>   4</c></rc>
    <rc><c>O </c><c>   4</c></rc>
    <rc><c>O </c><c>   4</c></rc>
    <rc><c>O </c><c>   4</c></rc>
    <rc><c>O </c><c>   4</c></rc>
    <rc><c>O </c><c>   4</c></rc>
    <rc><c>O </c><c>   4</c></rc>
    <rc><c>O </c><c>   4</c></rc>
    <rc><c>O </c><c>   4</c></rc>
    <rc><c>O </c><c>   4</c></rc>
    <rc><c>O </c><c>   4</c></rc>
    <rc><c>O </c><c>   4</c></rc>
    <rc><c>O </c><c>   4</c></rc>
    <rc><c>O </c><c>   4</c></rc>
    <rc><c>O </c><c>   4</c></rc>
    <rc><c>O </c><c>   4</c></rc>
    <rc><c>O </c><c>   4</c></rc>
    <rc><c>O </c><c>   4</c></rc>
    <rc><c>O </c><c>   4</c></rc>
    <rc><c>O </c><c>   4</c></rc>
    <rc><c>O </c><c>   4</c></rc>
    <rc><c>O </c><c>   4</c></rc>
    <rc><c>O </c><c>   4</c></rc>
    <rc><c>O </c><c>   4</c></rc>
    <rc><c>O </c><c>   4</c></rc>
    <rc><c>O </c><c>   4</c></rc>
    <rc><c>O </c><c>   4</c></rc>
    <rc><c>O </c><c>   4</c></rc>
    <rc><c>O </c><c>   4</c></rc>
    <rc><c>O </c><c>   4</c></rc>
    <rc><c>O </c><c>   4</c></rc>
    <rc><c>O </c><c>   4</c></rc>
    <rc><c>O </c><c>   4</c></rc>
    <rc><c>O </c><c>   4</c></rc>
    <rc><c>O </c><c>   4</c></rc>
    <rc><c>O </c><c>   4</c></rc>
    <rc><c>O </c><c>   4</c></rc>
    <rc><c>O </c><c>   4</c></rc>
    <rc><c>O </c><c>   4</c></rc>
    <rc><c>O </c><c>   4</c></rc>
    <rc><c>O </c><c>   4</c></rc>
    <rc><c>O </c><c>   4</c></rc>
    <rc><c>O </c><c>   4</c></rc>
    <rc><c>O </c><c>   4</c></rc>
    <rc><c>O </c><c>   4</c></rc>
    <rc><c>O </c><c>   4</c></rc>
    <rc><c>O </c><c>   4</c></rc>
    <rc><c>O </c><c>   4</c></rc>
    <rc><c>O </c><c>   4</c></rc>
    <rc><c>O </c><c>   4</c></rc>
    <rc><c>O </c><c>   4</c></rc>
    <rc><c>O </c><c>   4</c></rc>
    <rc><c>O </c><c>   4</c></rc>
    <rc><c>O </c><c>   4</c></rc>
    <rc><c>O </c><c>   4</c></rc>
    <rc><c>O </c><c>   4</c></rc>
    <rc><c>O </c><c>   4</c></rc>
    <rc><c>O </c><c>   4</c></rc>
    <rc><c>O </c><c>   4</c></rc>
    <rc><c>O </c><c>   4</c></rc>
    <rc><c>O </c><c>   4</c></rc>
    <rc><c>O </c><c>   4</c></rc>
    <rc><c>O </c><c>   4</c></rc>
    <rc><c>O </c><c>   4</c></rc>
    <rc><c>O </c><c>   4</c></rc>
    <rc><c>O </c><c>   4</c></rc>
    <rc><c>O </c><c>   4</c></rc>
    <rc><c>O </c><c>   4</c></rc>
   </set>
  </array>
  <array name="atomtypes" >
   <dimension dim="1">type</dimension>
   <field type="int">atomspertype</field>
   <field type="string">element</field>
   <field>mass</field>
   <field>valence</field>
   <field type="string">pseudopotential</field>
   <set>
    <rc><c>  32</c><c>Sr</c><c>     87.62000000</c><c>     10.00000000</c><c>  PAW_PBE Sr_sv 07Sep2000               </c></rc>
    <rc><c>  28</c><c>Ti</c><c>     47.88000000</c><c>      4.00000000</c><c>  PAW_PBE Ti 08Apr2002                  </c></rc>
    <rc><c>   4</c><c>Fe</c><c>     55.84700000</c><c>      8.00000000</c><c>  PAW_PBE Fe 06Sep2000                  </c></rc>
    <rc><c>  94</c><c>O </c><c>     16.00000000</c><c>      6.00000000</c><c>  PAW_PBE O 08Apr2002                   </c></rc>
   </set>
  </array>
 </atominfo>
 <structure name="initialpos" >
  <crystal>
   <varray name="basis" >
    <v>      11.19218100       0.00121132       0.00000000 </v>
    <v>       0.00121145      11.18959573       0.00000000 </v>
    <v>       0.00000000       0.00000000      15.96918628 </v>
   </varray>
   <i name="volume">   1999.91668144 </i>
   <varray name="rec_basis" >
    <v>       0.08934809      -0.00000967       0.00000000 </v>
    <v>      -0.00000967       0.08936873       0.00000000 </v>
    <v>       0.00000000       0.00000000       0.06262060 </v>
   </varray>
  </crystal>
  <varray name="positions" >
   <v>       0.00057383       0.25677266       0.12639631 </v>
   <v>       0.99972217       0.25113019       0.62360929 </v>
   <v>       0.99942617       0.74322734       0.12639631 </v>
   <v>       0.00027783       0.74886981       0.62360929 </v>
   <v>       0.50010506       0.25274268       0.12528829 </v>
   <v>       0.49949726       0.25087402       0.62450647 </v>
   <v>       0.49989494       0.74725732       0.12528829 </v>
   <v>       0.50050274       0.74912598       0.62450647 </v>
   <v>       0.00010506       0.25274268       0.37471171 </v>
   <v>       0.99949726       0.25087402       0.87549353 </v>
   <v>       0.99989494       0.74725732       0.37471171 </v>
   <v>       0.00050274       0.74912598       0.87549353 </v>
   <v>       0.50057383       0.25677266       0.37360369 </v>
   <v>       0.49972217       0.25113019       0.87639071 </v>
   <v>       0.49942617       0.74322734       0.37360369 </v>
   <v>       0.50027783       0.74886981       0.87639071 </v>
   <v>       0.25641429       0.00035631       0.12588475 </v>
   <v>       0.25060526       0.99946489       0.62404292 </v>
   <v>       0.25136802       0.50025986       0.12635770 </v>
   <v>       0.24978180       0.49959712       0.62384552 </v>
   <v>       0.74358571       0.99964369       0.12588475 </v>
   <v>       0.74939474       0.00053511       0.62404292 </v>
   <v>       0.74863198       0.49974014       0.12635770 </v>
   <v>       0.75021820       0.50040288       0.62384552 </v>
   <v>       0.24358571       0.99964369       0.37411525 </v>
   <v>       0.24939474       0.00053511       0.87595708 </v>
   <v>       0.24863198       0.49974014       0.37364230 </v>
   <v>       0.25021820       0.50040288       0.87615448 </v>
   <v>       0.75641429       0.00035631       0.37411525 </v>
   <v>       0.75060526       0.99946489       0.87595708 </v>
   <v>       0.75136802       0.50025986       0.37364230 </v>
   <v>       0.74978180       0.49959712       0.87615448 </v>
   <v>       0.00000000       0.00000000       0.50166565 </v>
   <v>       0.00000000       0.50000000       0.00029435 </v>
   <v>       0.00000000       0.50000000       0.50034692 </v>
   <v>       0.50000000       0.00000000       0.99833435 </v>
   <v>       0.50000000       0.50000000       0.99965308 </v>
   <v>       0.50000000       0.50000000       0.49970565 </v>
   <v>       0.24865585       0.24815079       0.00116338 </v>
   <v>       0.25148287       0.24781944       0.49859712 </v>
   <v>       0.24851713       0.75218056       0.00140288 </v>
   <v>       0.25134415       0.75184921       0.49883662 </v>
   <v>       0.75148287       0.24781944       0.00140288 </v>
   <v>       0.74865585       0.24815079       0.49883662 </v>
   <v>       0.75134415       0.75184921       0.00116338 </v>
   <v>       0.74851713       0.75218056       0.49859712 </v>
   <v>       0.25018895       0.24647063       0.25001432 </v>
   <v>       0.24975713       0.24886451       0.74998367 </v>
   <v>       0.24981105       0.75352937       0.24998568 </v>
   <v>       0.25024287       0.75113549       0.75001633 </v>
   <v>       0.75018895       0.24647063       0.24998568 </v>
   <v>       0.74975713       0.24886451       0.75001633 </v>
   <v>       0.74981105       0.75352937       0.25001432 </v>
   <v>       0.75024287       0.75113549       0.74998367 </v>
   <v>       0.00000000       0.00000000       0.74823470 </v>
   <v>       0.00000000       0.50000000       0.24958240 </v>
   <v>       0.00000000       0.50000000       0.74937563 </v>
   <v>       0.50000000       0.00000000       0.75176530 </v>
   <v>       0.50000000       0.50000000       0.25041760 </v>
   <v>       0.50000000       0.50000000       0.75062437 </v>
   <v>       0.00000000       0.00000000       0.25880527 </v>
   <v>       0.00000000       0.00000000       0.99102288 </v>
   <v>       0.50000000       0.00000000       0.50897712 </v>
   <v>       0.50000000       0.00000000       0.24119473 </v>
   <v>       0.00000000       0.00000000       0.62482435 </v>
   <v>       0.00000000       0.50000000       0.12414518 </v>
   <v>       0.00000000       0.50000000       0.62549744 </v>
   <v>       0.50000000       0.00000000       0.12316581 </v>
   <v>       0.50000000       0.00000000       0.62705604 </v>
   <v>       0.50000000       0.50000000       0.12507153 </v>
   <v>       0.50000000       0.50000000       0.62514736 </v>
   <v>       0.00000000       0.00000000       0.37683419 </v>
   <v>       0.00000000       0.00000000       0.87294396 </v>
   <v>       0.00000000       0.50000000       0.37492847 </v>
   <v>       0.00000000       0.50000000       0.87485264 </v>
   <v>       0.50000000       0.00000000       0.87517565 </v>
   <v>       0.50000000       0.50000000       0.37585482 </v>
   <v>       0.50000000       0.50000000       0.87450256 </v>
   <v>       0.23903446       0.25138529       0.37419536 </v>
   <v>       0.24493044       0.24555670       0.87572697 </v>
   <v>       0.24010362       0.74946395       0.37429123 </v>
   <v>       0.24374034       0.75364130       0.87580114 </v>
   <v>       0.75989638       0.25053605       0.37429123 </v>
   <v>       0.75625966       0.24635870       0.87580114 </v>
   <v>       0.76096554       0.74861471       0.37419536 </v>
   <v>       0.75506956       0.75444330       0.87572697 </v>
   <v>       0.25989638       0.25053605       0.12570877 </v>
   <v>       0.25625966       0.24635870       0.62419886 </v>
   <v>       0.26096554       0.74861471       0.12580464 </v>
   <v>       0.25506956       0.75444330       0.62427303 </v>
   <v>       0.73903446       0.25138529       0.12580464 </v>
   <v>       0.74493044       0.24555670       0.62427303 </v>
   <v>       0.74010362       0.74946395       0.12570877 </v>
   <v>       0.74374034       0.75364130       0.62419886 </v>
   <v>       0.11355926       0.13302567       0.23923340 </v>
   <v>       0.36661012       0.11216008       0.26121769 </v>
   <v>       0.61355926       0.13302567       0.26076660 </v>
   <v>       0.86661012       0.11216008       0.23878231 </v>
   <v>       0.13682512       0.38643297       0.24783984 </v>
   <v>       0.38689317       0.36324725       0.25169577 </v>
   <v>       0.63682512       0.38643297       0.25216016 </v>
   <v>       0.88689317       0.36324725       0.24830423 </v>
   <v>       0.11310683       0.63675275       0.24830423 </v>
   <v>       0.36317488       0.61356703       0.25216016 </v>
   <v>       0.61310683       0.63675275       0.25169577 </v>
   <v>       0.86317488       0.61356703       0.24783984 </v>
   <v>       0.13338988       0.88783992       0.23878231 </v>
   <v>       0.38644074       0.86697433       0.26076660 </v>
   <v>       0.63338988       0.88783992       0.26121769 </v>
   <v>       0.88644074       0.86697433       0.23923340 </v>
   <v>       0.13948712       0.10971339       0.50144543 </v>
   <v>       0.38996804       0.13642033       0.48866791 </v>
   <v>       0.63682593       0.10975330       0.48938721 </v>
   <v>       0.88962509       0.13935409       0.50118558 </v>
   <v>       0.11039082       0.36006864       0.50169756 </v>
   <v>       0.36083189       0.38839314       0.49878863 </v>
   <v>       0.61091449       0.36081301       0.49929850 </v>
   <v>       0.86015504       0.38951321       0.50121355 </v>
   <v>       0.13984496       0.61048679       0.50121355 </v>
   <v>       0.38908551       0.63918699       0.49929850 </v>
   <v>       0.63916811       0.61160686       0.49878863 </v>
   <v>       0.88960918       0.63993136       0.50169756 </v>
   <v>       0.11037491       0.86064591       0.50118558 </v>
   <v>       0.36317407       0.89024670       0.48938721 </v>
   <v>       0.61003196       0.86357967       0.48866791 </v>
   <v>       0.86051288       0.89028661       0.50144543 </v>
   <v>       0.10758673       0.14212720       0.74804760 </v>
   <v>       0.35770405       0.10734124       0.75155738 </v>
   <v>       0.60758673       0.14212720       0.75195240 </v>
   <v>       0.85770405       0.10734124       0.74844262 </v>
   <v>       0.14172065       0.39086997       0.74912609 </v>
   <v>       0.39103648       0.35810057       0.75133967 </v>
   <v>       0.64172065       0.39086997       0.75087391 </v>
   <v>       0.89103648       0.35810057       0.74866033 </v>
   <v>       0.10896352       0.64189943       0.74866033 </v>
   <v>       0.35827935       0.60913003       0.75087391 </v>
   <v>       0.60896352       0.64189943       0.75133967 </v>
   <v>       0.85827935       0.60913003       0.74912609 </v>
   <v>       0.14229595       0.89265876       0.74844262 </v>
   <v>       0.39241327       0.85787280       0.75195240 </v>
   <v>       0.64229595       0.89265876       0.75155738 </v>
   <v>       0.89241327       0.85787280       0.74804760 </v>
   <v>       0.13682593       0.10975330       0.01061279 </v>
   <v>       0.38962509       0.13935409       0.99881442 </v>
   <v>       0.63948712       0.10971339       0.99855457 </v>
   <v>       0.88996804       0.13642033       0.01133209 </v>
   <v>       0.11091449       0.36081301       0.00070150 </v>
   <v>       0.36015504       0.38951321       0.99878645 </v>
   <v>       0.61039082       0.36006864       0.99830244 </v>
   <v>       0.86083189       0.38839314       0.00121137 </v>
   <v>       0.13916811       0.61160686       0.00121137 </v>
   <v>       0.38960918       0.63993136       0.99830244 </v>
   <v>       0.63984496       0.61048679       0.99878645 </v>
   <v>       0.88908551       0.63918699       0.00070150 </v>
   <v>       0.11003196       0.86357967       0.01133209 </v>
   <v>       0.36051288       0.89028661       0.99855457 </v>
   <v>       0.61037491       0.86064591       0.99881442 </v>
   <v>       0.86317407       0.89024670       0.01061279 </v>
  </varray>
 </structure>
 <calculation>
  <scstep>
   <time name="dav">  102.67  102.67</time>
   <time name="total">  105.02  105.11</time>
   <energy>
    <i name="alphaZ">   5648.37414259 </i>
    <i name="ewald"> -61364.54399193 </i>
    <i name="hartreedc"> -15163.29130961 </i>
    <i name="XCdc">   2852.86420470 </i>
    <i name="pawpsdc"> 111586.72731893 </i>
    <i name="pawaedc">-110335.49179301 </i>
    <i name="eentropy">     -0.00000000 </i>
    <i name="bandstr">  -7028.22248494 </i>
    <i name="atom">  72650.08363186 </i>
    <i name="e_fr_energy">  -1153.50028141 </i>
    <i name="e_wo_entrp">  -1153.50028141 </i>
    <i name="e_0_energy">  -1153.50028141 </i>
   </energy>
  </scstep>
  <scstep>
   <time name="diag">   16.55   16.55</time>
   <time name="diis">   14.92   14.93</time>
   <time name="orth">    9.48    9.48</time>
   <time name="total">   43.29   43.32</time>
   <energy>
    <i name="e_fr_energy">  -1153.50028054 </i>
    <i name="e_wo_entrp">  -1153.50028054 </i>
    <i name="e_0_energy">  -1153.50028054 </i>
   </energy>
  </scstep>
  <scstep>
   <time name="diag">   16.56   16.56</time>
   <time name="diis">   14.11   14.11</time>
   <time name="orth">    9.42    9.42</time>
   <time name="total">   42.43   42.43</time>
   <energy>
    <i name="e_fr_energy">  -1153.50028128 </i>
    <i name="e_wo_entrp">  -1153.50028128 </i>
    <i name="e_0_energy">  -1153.50028128 </i>
   </energy>
  </scstep>
  <scstep>
   <time name="diag">   16.53   16.53</time>
   <time name="diis">   12.69   12.69</time>
   <time name="orth">    9.45    9.45</time>
   <time name="total">   41.00   41.03</time>
   <energy>
    <i name="e_fr_energy">  -1153.50028145 </i>
    <i name="e_wo_entrp">  -1153.50028145 </i>
    <i name="e_0_energy">  -1153.50028145 </i>
   </energy>
  </scstep>
  <scstep>
   <time name="diag">   16.54   16.53</time>
   <time name="diis">   12.07   12.08</time>
   <time name="orth">    9.43    9.44</time>
   <time name="total">   40.37   40.48</time>
   <energy>
    <i name="e_fr_energy">  -1153.50028159 </i>
    <i name="e_wo_entrp">  -1153.50028159 </i>
    <i name="e_0_energy">  -1153.50028159 </i>
   </energy>
  </scstep>
  <scstep>
   <time name="diag">   16.53   16.55</time>
   <time name="diis">   11.70   11.70</time>
   <time name="orth">    9.45    9.45</time>
   <time name="total">   40.02   40.07</time>
   <energy>
    <i name="e_fr_energy">  -1153.50028159 </i>
    <i name="e_wo_entrp">  -1153.50028159 </i>
    <i name="e_0_energy">  -1153.50028159 </i>
   </energy>
  </scstep>
  <scstep>
   <time name="diag">   16.58   16.58</time>
   <time name="diis">   11.29   11.29</time>
   <time name="orth">    9.39    9.39</time>
   <time name="total">   39.62   39.67</time>
   <energy>
    <i name="e_fr_energy">  -1153.50028162 </i>
    <i name="e_wo_entrp">  -1153.50028162 </i>
    <i name="e_0_energy">  -1153.50028162 </i>
   </energy>
  </scstep>
  <scstep>
   <time name="diag">   16.55   16.56</time>
   <time name="diis">   11.18   11.19</time>
   <time name="orth">    9.43    9.43</time>
   <time name="total">   37.73   37.84</time>
   <energy>
    <i name="alphaZ">   5648.37414259 </i>
    <i name="ewald"> -61364.54399193 </i>
    <i name="hartreedc"> -15163.29242232 </i>
    <i name="XCdc">   2852.86616910 </i>
    <i name="pawpsdc"> 111586.41982825 </i>
    <i name="pawaedc">-110335.18588671 </i>
    <i name="eentropy">     -0.00000000 </i>
    <i name="bandstr">  -7028.22175244 </i>
    <i name="atom">  72650.08363186 </i>
    <i name="e_fr_energy">  -1153.50028161 </i>
    <i name="e_wo_entrp">  -1153.50028161 </i>
    <i name="e_0_energy">  -1153.50028161 </i>
   </energy>
  </scstep>
  <structure>
   <crystal>
    <varray name="basis" >
     <v>      11.19218100       0.00121132       0.00000000 </v>
     <v>       0.00121145      11.18959573       0.00000000 </v>
     <v>       0.00000000       0.00000000      15.96918628 </v>
    </varray>
    <i name="volume">   1999.91668144 </i>
    <varray name="rec_basis" >
     <v>       0.08934809      -0.00000967       0.00000000 </v>
     <v>      -0.00000967       0.08936873       0.00000000 </v>
     <v>       0.00000000       0.00000000       0.06262060 </v>
    </varray>
   </crystal>
   <varray name="positions" >
    <v>       0.00057383       0.25677266       0.12639631 </v>
    <v>       0.99972217       0.25113019       0.62360929 </v>
    <v>       0.99942617       0.74322734       0.12639631 </v>
    <v>       0.00027783       0.74886981       0.62360929 </v>
    <v>       0.50010506       0.25274268       0.12528829 </v>
    <v>       0.49949726       0.25087402       0.62450647 </v>
    <v>       0.49989494       0.74725732       0.12528829 </v>
    <v>       0.50050274       0.74912598       0.62450647 </v>
    <v>       0.00010506       0.25274268       0.37471171 </v>
    <v>       0.99949726       0.25087402       0.87549353 </v>
    <v>       0.99989494       0.74725732       0.37471171 </v>
    <v>       0.00050274       0.74912598       0.87549353 </v>
    <v>       0.50057383       0.25677266       0.37360369 </v>
    <v>       0.49972217       0.25113019       0.87639071 </v>
    <v>       0.49942617       0.74322734       0.37360369 </v>
    <v>       0.50027783       0.74886981       0.87639071 </v>
    <v>       0.25641429       0.00035631       0.12588475 </v>
    <v>       0.25060526       0.99946489       0.62404292 </v>
    <v>       0.25136802       0.50025986       0.12635770 </v>
    <v>       0.24978180       0.49959712       0.62384552 </v>
    <v>       0.74358571       0.99964369       0.12588475 </v>
    <v>       0.74939474       0.00053511       0.62404292 </v>
    <v>       0.74863198       0.49974014       0.12635770 </v>
    <v>       0.75021820       0.50040288       0.62384552 </v>
    <v>       0.24358571       0.99964369       0.37411525 </v>
    <v>       0.24939474       0.00053511       0.87595708 </v>
    <v>       0.24863198       0.49974014       0.37364230 </v>
    <v>       0.25021820       0.50040288       0.87615448 </v>
    <v>       0.75641429       0.00035631       0.37411525 </v>
    <v>       0.75060526       0.99946489       0.87595708 </v>
    <v>       0.75136802       0.50025986       0.37364230 </v>
    <v>       0.74978180       0.49959712       0.87615448 </v>
    <v>       0.00000000       0.00000000       0.50166565 </v>
    <v>       0.00000000       0.50000000       0.00029435 </v>
    <v>       0.00000000       0.50000000       0.50034692 </v>
    <v>       0.50000000       0.00000000       0.99833435 </v>
    <v>       0.50000000       0.50000000       0.99965308 </v>
    <v>       0.50000000       0.50000000       0.49970565 </v>
    <v>       0.24865585       0.24815079       0.00116338 </v>
    <v>       0.25148287       0.24781944       0.49859712 </v>
    <v>       0.24851713       0.75218056       0.00140288 </v>
    <v>       0.25134415       0.75184921       0.49883662 </v>
    <v>       0.75148287       0.24781944       0.00140288 </v>
    <v>       0.74865585       0.24815079       0.49883662 </v>
    <v>       0.75134415       0.75184921       0.00116338 </v>
    <v>       0.74851713       0.75218056       0.49859712 </v>
    <v>       0.25018895       0.24647063       0.25001432 </v>
    <v>       0.24975713       0.24886451       0.74998367 </v>
    <v>       0.24981105       0.75352937       0.24998568 </v>
    <v>       0.25024287       0.75113549       0.75001633 </v>
    <v>       0.75018895       0.24647063       0.24998568 </v>
    <v>       0.74975713       0.24886451       0.75001633 </v>
    <v>       0.74981105       0.75352937       0.25001432 </v>
    <v>       0.75024287       0.75113549       0.74998367 </v>
    <v>       0.00000000       0.00000000       0.74823470 </v>
    <v>       0.00000000       0.50000000       0.24958240 </v>
    <v>       0.00000000       0.50000000       0.74937563 </v>
    <v>       0.50000000       0.00000000       0.75176530 </v>
    <v>       0.50000000       0.50000000       0.25041760 </v>
    <v>       0.50000000       0.50000000       0.75062437 </v>
    <v>       0.00000000       0.00000000       0.25880527 </v>
    <v>       0.00000000       0.00000000       0.99102288 </v>
    <v>       0.50000000       0.00000000       0.50897712 </v>
    <v>       0.50000000       0.00000000       0.24119473 </v>
    <v>       0.00000000       0.00000000       0.62482435 </v>
    <v>       0.00000000       0.50000000       0.12414518 </v>
    <v>       0.00000000       0.50000000       0.62549744 </v>
    <v>       0.50000000       0.00000000       0.12316581 </v>
    <v>       0.50000000       0.00000000       0.62705604 </v>
    <v>       0.50000000       0.50000000       0.12507153 </v>
    <v>       0.50000000       0.50000000       0.62514736 </v>
    <v>       0.00000000       0.00000000       0.37683419 </v>
    <v>       0.00000000       0.00000000       0.87294396 </v>
    <v>       0.00000000       0.50000000       0.37492847 </v>
    <v>       0.00000000       0.50000000       0.87485264 </v>
    <v>       0.50000000       0.00000000       0.87517565 </v>
    <v>       0.50000000       0.50000000       0.37585482 </v>
    <v>       0.50000000       0.50000000       0.87450256 </v>
    <v>       0.23903446       0.25138529       0.37419536 </v>
    <v>       0.24493044       0.24555670       0.87572697 </v>
    <v>       0.24010362       0.74946395       0.37429123 </v>
    <v>       0.24374034       0.75364130       0.87580114 </v>
    <v>       0.75989638       0.25053605       0.37429123 </v>
    <v>       0.75625966       0.24635870       0.87580114 </v>
    <v>       0.76096554       0.74861471       0.37419536 </v>
    <v>       0.75506956       0.75444330       0.87572697 </v>
    <v>       0.25989638       0.25053605       0.12570877 </v>
    <v>       0.25625966       0.24635870       0.62419886 </v>
    <v>       0.26096554       0.74861471       0.12580464 </v>
    <v>       0.25506956       0.75444330       0.62427303 </v>
    <v>       0.73903446       0.25138529       0.12580464 </v>
    <v>       0.74493044       0.24555670       0.62427303 </v>
    <v>       0.74010362       0.74946395       0.12570877 </v>
    <v>       0.74374034       0.75364130       0.62419886 </v>
    <v>       0.11355926       0.13302567       0.23923340 </v>
    <v>       0.36661012       0.11216008       0.26121769 </v>
    <v>       0.61355926       0.13302567       0.26076660 </v>
    <v>       0.86661012       0.11216008       0.23878231 </v>
    <v>       0.13682512       0.38643297       0.24783984 </v>
    <v>       0.38689317       0.36324725       0.25169577 </v>
    <v>       0.63682512       0.38643297       0.25216016 </v>
    <v>       0.88689317       0.36324725       0.24830423 </v>
    <v>       0.11310683       0.63675275       0.24830423 </v>
    <v>       0.36317488       0.61356703       0.25216016 </v>
    <v>       0.61310683       0.63675275       0.25169577 </v>
    <v>       0.86317488       0.61356703       0.24783984 </v>
    <v>       0.13338988       0.88783992       0.23878231 </v>
    <v>       0.38644074       0.86697433       0.26076660 </v>
    <v>       0.63338988       0.88783992       0.26121769 </v>
    <v>       0.88644074       0.86697433       0.23923340 </v>
    <v>       0.13948712       0.10971339       0.50144543 </v>
    <v>       0.38996804       0.13642033       0.48866791 </v>
    <v>       0.63682593       0.10975330       0.48938721 </v>
    <v>       0.88962509       0.13935409       0.50118558 </v>
    <v>       0.11039082       0.36006864       0.50169756 </v>
    <v>       0.36083189       0.38839314       0.49878863 </v>
    <v>       0.61091449       0.36081301       0.49929850 </v>
    <v>       0.86015504       0.38951321       0.50121355 </v>
    <v>       0.13984496       0.61048679       0.50121355 </v>
    <v>       0.38908551       0.63918699       0.49929850 </v>
    <v>       0.63916811       0.61160686       0.49878863 </v>
    <v>       0.88960918       0.63993136       0.50169756 </v>
    <v>       0.11037491       0.86064591       0.50118558 </v>
    <v>       0.36317407       0.89024670       0.48938721 </v>
    <v>       0.61003196       0.86357967       0.48866791 </v>
    <v>       0.86051288       0.89028661       0.50144543 </v>
    <v>       0.10758673       0.14212720       0.74804760 </v>
    <v>       0.35770405       0.10734124       0.75155738 </v>
    <v>       0.60758673       0.14212720       0.75195240 </v>
    <v>       0.85770405       0.10734124       0.74844262 </v>
    <v>       0.14172065       0.39086997       0.74912609 </v>
    <v>       0.39103648       0.35810057       0.75133967 </v>
    <v>       0.64172065       0.39086997       0.75087391 </v>
    <v>       0.89103648       0.35810057       0.74866033 </v>
    <v>       0.10896352       0.64189943       0.74866033 </v>
    <v>       0.35827935       0.60913003       0.75087391 </v>
    <v>       0.60896352       0.64189943       0.75133967 </v>
    <v>       0.85827935       0.60913003       0.74912609 </v>
    <v>       0.14229595       0.89265876       0.74844262 </v>
    <v>       0.39241327       0.85787280       0.75195240 </v>
    <v>       0.64229595       0.89265876       0.75155738 </v>
    <v>       0.89241327       0.85787280       0.74804760 </v>
    <v>       0.13682593       0.10975330       0.01061279 </v>
    <v>       0.38962509       0.13935409       0.99881442 </v>
    <v>       0.63948712       0.10971339       0.99855457 </v>
    <v>       0.88996804       0.13642033       0.01133209 </v>
    <v>       0.11091449       0.36081301       0.00070150 </v>
    <v>       0.36015504       0.38951321       0.99878645 </v>
    <v>       0.61039082       0.36006864       0.99830244 </v>
    <v>       0.86083189       0.38839314       0.00121137 </v>
    <v>       0.13916811       0.61160686       0.00121137 </v>
    <v>       0.38960918       0.63993136       0.99830244 </v>
    <v>       0.63984496       0.61048679       0.99878645 </v>
    <v>       0.88908551       0.63918699       0.00070150 </v>
    <v>       0.11003196       0.86357967       0.01133209 </v>
    <v>       0.36051288       0.89028661       0.99855457 </v>
    <v>       0.61037491       0.86064591       0.99881442 </v>
    <v>       0.86317407       0.89024670       0.01061279 </v>
   </varray>
  </structure>
  <varray name="forces" >
   <v>       0.00228390      -0.01857280       0.00595792 </v>
   <v>      -0.00236845      -0.01055797       0.00203159 </v>
   <v>      -0.00228390       0.01857280       0.00595792 </v>
   <v>       0.00236845       0.01055797       0.00203159 </v>
   <v>      -0.00097810       0.00182224      -0.00684740 </v>
   <v>      -0.00681874       0.00723410       0.00406620 </v>
   <v>       0.00097810      -0.00182224      -0.00684740 </v>
   <v>       0.00681874      -0.00723410       0.00406620 </v>
   <v>      -0.00097810       0.00182224       0.00684740 </v>
   <v>      -0.00681874       0.00723410      -0.00406620 </v>
   <v>       0.00097810      -0.00182224       0.00684740 </v>
   <v>       0.00681874      -0.00723410      -0.00406620 </v>
   <v>       0.00228390      -0.01857280      -0.00595792 </v>
   <v>      -0.00236845      -0.01055797      -0.00203159 </v>
   <v>      -0.00228390       0.01857280      -0.00595792 </v>
   <v>       0.00236845       0.01055797      -0.00203159 </v>
   <v>      -0.00165443       0.00495785      -0.00042842 </v>
   <v>      -0.01026979      -0.00300896       0.00176168 </v>
   <v>       0.01017328      -0.00368876      -0.00102248 </v>
   <v>       0.00317276       0.00001480      -0.00208308 </v>
   <v>       0.00165443      -0.00495785      -0.00042842 </v>
   <v>       0.01026979       0.00300896       0.00176168 </v>
   <v>      -0.01017328       0.00368876      -0.00102248 </v>
   <v>      -0.00317276      -0.00001480      -0.00208308 </v>
   <v>       0.00165443      -0.00495785       0.00042842 </v>
   <v>       0.01026979       0.00300896      -0.00176168 </v>
   <v>      -0.01017328       0.00368876       0.00102248 </v>
   <v>      -0.00317276      -0.00001480       0.00208308 </v>
   <v>      -0.00165443       0.00495785       0.00042842 </v>
   <v>      -0.01026979      -0.00300896      -0.00176168 </v>
   <v>       0.01017328      -0.00368876       0.00102248 </v>
   <v>       0.00317276       0.00001480       0.00208308 </v>
   <v>      -0.00000000      -0.00000000       0.00783946 </v>
   <v>      -0.00000000      -0.00000000      -0.01480501 </v>
   <v>      -0.00000000      -0.00000000      -0.01502799 </v>
   <v>      -0.00000000      -0.00000000      -0.00783946 </v>
   <v>      -0.00000000      -0.00000000       0.01502799 </v>
   <v>      -0.00000000      -0.00000000       0.01480501 </v>
   <v>       0.01462878      -0.01150358       0.00325559 </v>
   <v>      -0.00677368      -0.00739908       0.01172627 </v>
   <v>       0.00677368       0.00739908      -0.01172627 </v>
   <v>      -0.01462878       0.01150358      -0.00325559 </v>
   <v>      -0.00677368      -0.00739908      -0.01172627 </v>
   <v>       0.01462878      -0.01150358      -0.00325559 </v>
   <v>      -0.01462878       0.01150358       0.00325559 </v>
   <v>       0.00677368       0.00739908       0.01172627 </v>
   <v>       0.00060618      -0.02173561      -0.00920480 </v>
   <v>       0.02790053       0.02369792      -0.00093588 </v>
   <v>      -0.00060618       0.02173561       0.00920480 </v>
   <v>      -0.02790053      -0.02369792       0.00093588 </v>
   <v>       0.00060618      -0.02173561       0.00920480 </v>
   <v>       0.02790053       0.02369792       0.00093588 </v>
   <v>      -0.00060618       0.02173561      -0.00920480 </v>
   <v>      -0.02790053      -0.02369792      -0.00093588 </v>
   <v>      -0.00000000      -0.00000000      -0.05345354 </v>
   <v>      -0.00000000      -0.00000000       0.03795823 </v>
   <v>      -0.00000000      -0.00000000      -0.00372193 </v>
   <v>      -0.00000000      -0.00000000       0.05345354 </v>
   <v>      -0.00000000      -0.00000000      -0.03795823 </v>
   <v>      -0.00000000      -0.00000000       0.00372193 </v>
   <v>      -0.00000000      -0.00000000      -0.01204507 </v>
   <v>      -0.00000000      -0.00000000       0.00257658 </v>
   <v>      -0.00000000      -0.00000000      -0.00257658 </v>
   <v>      -0.00000000      -0.00000000       0.01204507 </v>
   <v>      -0.00000000      -0.00000000       0.03935865 </v>
   <v>      -0.00000000      -0.00000000       0.02006353 </v>
   <v>      -0.00000000      -0.00000000      -0.00432878 </v>
   <v>      -0.00000000      -0.00000000      -0.01766523 </v>
   <v>      -0.00000000      -0.00000000      -0.00079974 </v>
   <v>      -0.00000000      -0.00000000      -0.00981644 </v>
   <v>      -0.00000000      -0.00000000      -0.00350827 </v>
   <v>      -0.00000000      -0.00000000       0.01766523 </v>
   <v>      -0.00000000      -0.00000000       0.00079974 </v>
   <v>      -0.00000000      -0.00000000       0.00981644 </v>
   <v>      -0.00000000      -0.00000000       0.00350827 </v>
   <v>      -0.00000000      -0.00000000      -0.03935865 </v>
   <v>      -0.00000000      -0.00000000      -0.02006353 </v>
   <v>      -0.00000000      -0.00000000       0.00432878 </v>
   <v>       0.00669444      -0.00138342      -0.00662545 </v>
   <v>      -0.00212765       0.01063329       0.00933598 </v>
   <v>       0.00288452      -0.00430767      -0.01266995 </v>
   <v>       0.00426908      -0.00694784       0.00824501 </v>
   <v>      -0.00288452       0.00430767      -0.01266995 </v>
   <v>      -0.00426908       0.00694784       0.00824501 </v>
   <v>      -0.00669444       0.00138342      -0.00662545 </v>
   <v>       0.00212765      -0.01063329       0.00933598 </v>
   <v>      -0.00288452       0.00430767       0.01266995 </v>
   <v>      -0.00426908       0.00694784      -0.00824501 </v>
   <v>      -0.00669444       0.00138342       0.00662545 </v>
   <v>       0.00212765      -0.01063329      -0.00933598 </v>
   <v>       0.00669444      -0.00138342       0.00662545 </v>
   <v>      -0.00212765       0.01063329      -0.00933598 </v>
   <v>       0.00288452      -0.00430767       0.01266995 </v>
   <v>       0.00426908      -0.00694784      -0.00824501 </v>
   <v>       0.00580538      -0.00330738      -0.00930759 </v>
   <v>       0.00818499       0.01868662       0.01226583 </v>
   <v>       0.00580538      -0.00330738       0.00930759 </v>
   <v>       0.00818499       0.01868662      -0.01226583 </v>
   <v>      -0.01899334      -0.00312213       0.00049841 </v>
   <v>      -0.00104616       0.02298266       0.00393100 </v>
   <v>      -0.01899334      -0.00312213      -0.00049841 </v>
   <v>      -0.00104616       0.02298266      -0.00393100 </v>
   <v>       0.00104616      -0.02298266      -0.00393100 </v>
   <v>       0.01899334       0.00312213      -0.00049841 </v>
   <v>       0.00104616      -0.02298266       0.00393100 </v>
   <v>       0.01899334       0.00312213       0.00049841 </v>
   <v>      -0.00818499      -0.01868662      -0.01226583 </v>
   <v>      -0.00580538       0.00330738       0.00930759 </v>
   <v>      -0.00818499      -0.01868662       0.01226583 </v>
   <v>      -0.00580538       0.00330738      -0.00930759 </v>
   <v>       0.00396470       0.00261109      -0.00795040 </v>
   <v>       0.01286368      -0.01274478      -0.00738964 </v>
   <v>      -0.01359718      -0.00399306       0.00043866 </v>
   <v>      -0.00387745       0.00549792      -0.00417645 </v>
   <v>       0.00510762       0.00649094      -0.00280811 </v>
   <v>      -0.00444141       0.00675159      -0.00297923 </v>
   <v>       0.00159381      -0.00173085      -0.00131274 </v>
   <v>       0.00395174       0.00574211       0.00600782 </v>
   <v>      -0.00395174      -0.00574211       0.00600782 </v>
   <v>      -0.00159381       0.00173085      -0.00131274 </v>
   <v>       0.00444141      -0.00675159      -0.00297923 </v>
   <v>      -0.00510762      -0.00649094      -0.00280811 </v>
   <v>       0.00387745      -0.00549792      -0.00417645 </v>
   <v>       0.01359718       0.00399306       0.00043866 </v>
   <v>      -0.01286368       0.01274478      -0.00738964 </v>
   <v>      -0.00396470      -0.00261109      -0.00795040 </v>
   <v>      -0.01111663      -0.00706235       0.00185415 </v>
   <v>       0.00403533      -0.00525876      -0.00222953 </v>
   <v>      -0.01111663      -0.00706235      -0.00185415 </v>
   <v>       0.00403533      -0.00525876       0.00222953 </v>
   <v>       0.00403733      -0.00551713      -0.00002998 </v>
   <v>      -0.00686014      -0.00286805      -0.00443224 </v>
   <v>       0.00403733      -0.00551713       0.00002998 </v>
   <v>      -0.00686014      -0.00286805       0.00443224 </v>
   <v>       0.00686014       0.00286805       0.00443224 </v>
   <v>      -0.00403733       0.00551713       0.00002998 </v>
   <v>       0.00686014       0.00286805      -0.00443224 </v>
   <v>      -0.00403733       0.00551713      -0.00002998 </v>
   <v>      -0.00403533       0.00525876       0.00222953 </v>
   <v>       0.01111663       0.00706235      -0.00185415 </v>
   <v>      -0.00403533       0.00525876      -0.00222953 </v>
   <v>       0.01111663       0.00706235       0.00185415 </v>
   <v>      -0.01359718      -0.00399306      -0.00043866 </v>
   <v>      -0.00387745       0.00549792       0.00417645 </v>
   <v>       0.00396470       0.00261109       0.00795040 </v>
   <v>       0.01286368      -0.01274478       0.00738964 </v>
   <v>       0.00159381      -0.00173085       0.00131274 </v>
   <v>       0.00395174       0.00574211      -0.00600782 </v>
   <v>       0.00510762       0.00649094       0.00280811 </v>
   <v>      -0.00444141       0.00675159       0.00297923 </v>
   <v>       0.00444141      -0.00675159       0.00297923 </v>
   <v>      -0.00510762      -0.00649094       0.00280811 </v>
   <v>      -0.00395174      -0.00574211      -0.00600782 </v>
   <v>      -0.00159381       0.00173085       0.00131274 </v>
   <v>      -0.01286368       0.01274478       0.00738964 </v>
   <v>      -0.00396470      -0.00261109       0.00795040 </v>
   <v>       0.00387745      -0.00549792       0.00417645 </v>
   <v>       0.01359718       0.00399306      -0.00043866 </v>
  </varray>
  <varray name="stress" >
   <v>       0.17619776       0.05954593       0.00000000 </v>
   <v>       0.05954537      -0.04811556       0.00000000 </v>
   <v>       0.00000000       0.00000000      -0.04112612 </v>
  </varray>
  <energy>
   <i name="e_fr_energy">  -1153.50028161 </i>
   <i name="e_wo_entrp">  -1153.50028161 </i>
   <i name="e_0_energy">     -0.00000000 </i>
  </energy>
  <time name="totalsc">  481.23  483.43</time>
 </calculation>
 <calculation>
  <scstep>
   <time name="dav">  142.91  142.91</time>
   <time name="total">  145.25  145.31</time>
   <energy>
    <i name="alphaZ">   5648.18696601 </i>
    <i name="ewald"> -61364.39150541 </i>
    <i name="hartreedc"> -15162.63641150 </i>
    <i name="XCdc">   2852.82023633 </i>
    <i name="pawpsdc"> 111586.35539942 </i>
    <i name="pawaedc">-110335.12251463 </i>
    <i name="eentropy">     -0.00000000 </i>
    <i name="bandstr">  -7028.79622206 </i>
    <i name="atom">  72650.08363186 </i>
    <i name="e_fr_energy">  -1153.50042000 </i>
    <i name="e_wo_entrp">  -1153.50042000 </i>
    <i name="e_0_energy">  -1153.50042000 </i>
   </energy>
  </scstep>
  <scstep>
   <time name="diag">   16.58   16.59</time>
   <time name="diis">   25.79   25.80</time>
   <time name="orth">    9.41    9.41</time>
   <time name="total">   54.14   54.15</time>
   <energy>
    <i name="e_fr_energy">  -1153.50084936 </i>
    <i name="e_wo_entrp">  -1153.50084936 </i>
    <i name="e_0_energy">  -1153.50084936 </i>
   </energy>
  </scstep>
  <scstep>
   <time name="diag">   16.59   16.58</time>
   <time name="diis">   22.05   22.06</time>
   <time name="orth">    9.40    9.40</time>
   <time name="total">   50.38   50.41</time>
   <energy>
    <i name="e_fr_energy">  -1153.50078196 </i>
    <i name="e_wo_entrp">  -1153.50078196 </i>
    <i name="e_0_energy">  -1153.50078196 </i>
   </energy>
  </scstep>
  <scstep>
   <time name="diag">   16.61   16.63</time>
   <time name="diis">   16.98   16.98</time>
   <time name="orth">    9.42    9.42</time>
   <time name="total">   45.37   45.42</time>
   <energy>
    <i name="e_fr_energy">  -1153.50068273 </i>
    <i name="e_wo_entrp">  -1153.50068273 </i>
    <i name="e_0_energy">  -1153.50068273 </i>
   </energy>
  </scstep>
  <scstep>
   <time name="diag">   16.58   16.58</time>
   <time name="diis">   16.19   16.20</time>
   <time name="orth">    9.41    9.41</time>
   <time name="total">   44.54   44.58</time>
   <energy>
    <i name="e_fr_energy">  -1153.50065872 </i>
    <i name="e_wo_entrp">  -1153.50065872 </i>
    <i name="e_0_energy">  -1153.50065872 </i>
   </energy>
  </scstep>
  <scstep>
   <time name="diag">   16.61   16.62</time>
   <time name="diis">   15.60   15.60</time>
   <time name="orth">    9.40    9.40</time>
   <time name="total">   43.96   43.98</time>
   <energy>
    <i name="e_fr_energy">  -1153.50065924 </i>
    <i name="e_wo_entrp">  -1153.50065924 </i>
    <i name="e_0_energy">  -1153.50065924 </i>
   </energy>
  </scstep>
  <scstep>
   <time name="diag">   16.57   16.58</time>
   <time name="diis">   15.01   15.02</time>
   <time name="orth">    9.41    9.41</time>
   <time name="total">   43.36   43.40</time>
   <energy>
    <i name="e_fr_energy">  -1153.50065891 </i>
    <i name="e_wo_entrp">  -1153.50065891 </i>
    <i name="e_0_energy">  -1153.50065891 </i>
   </energy>
  </scstep>
  <scstep>
   <time name="diag">   16.57   16.58</time>
   <time name="diis">   14.51   14.52</time>
   <time name="orth">    9.41    9.41</time>
   <time name="total">   41.08   41.13</time>
   <energy>
    <i name="alphaZ">   5648.18696601 </i>
    <i name="ewald"> -61364.39150541 </i>
    <i name="hartreedc"> -15163.08398805 </i>
    <i name="XCdc">   2852.85010829 </i>
    <i name="pawpsdc"> 111575.07327764 </i>
    <i name="pawaedc">-110323.84314525 </i>
    <i name="eentropy">     -0.00000000 </i>
    <i name="bandstr">  -7028.37600411 </i>
    <i name="atom">  72650.08363186 </i>
    <i name="e_fr_energy">  -1153.50065902 </i>
    <i name="e_wo_entrp">  -1153.50065902 </i>
    <i name="e_0_energy">  -1153.50065902 </i>
   </energy>
  </scstep>
  <structure>
   <crystal>
    <varray name="basis" >
     <v>      11.19293263       0.00146530       0.00000000 </v>
     <v>       0.00146548      11.18939056       0.00000000 </v>
     <v>       0.00000000       0.00000000      15.96893597 </v>
    </varray>
    <i name="volume">   1999.98295714 </i>
    <varray name="rec_basis" >
     <v>       0.08934209      -0.00001170       0.00000000 </v>
     <v>      -0.00001170       0.08937037       0.00000000 </v>
     <v>       0.00000000       0.00000000       0.06262158 </v>
    </varray>
   </crystal>
   <varray name="positions" >
    <v>       0.00058368       0.25669259       0.12641431 </v>
    <v>       0.99971197       0.25108467       0.62361543 </v>
    <v>       0.99941632       0.74330741       0.12641431 </v>
    <v>       0.00028803       0.74891533       0.62361543 </v>
    <v>       0.50010084       0.25275053       0.12526760 </v>
    <v>       0.49946787       0.25090522       0.62451875 </v>
    <v>       0.49989916       0.74724947       0.12526760 </v>
    <v>       0.50053213       0.74909478       0.62451875 </v>
    <v>       0.00010084       0.25275053       0.37473240 </v>
    <v>       0.99946787       0.25090522       0.87548125 </v>
    <v>       0.99989916       0.74724947       0.37473240 </v>
    <v>       0.00053213       0.74909478       0.87548125 </v>
    <v>       0.50058368       0.25669259       0.37358569 </v>
    <v>       0.49971197       0.25108467       0.87638457 </v>
    <v>       0.49941632       0.74330741       0.37358569 </v>
    <v>       0.50028803       0.74891533       0.87638457 </v>
    <v>       0.25640716       0.00037769       0.12588345 </v>
    <v>       0.25056099       0.99945193       0.62404824 </v>
    <v>       0.25141188       0.50024395       0.12635462 </v>
    <v>       0.24979548       0.49959718       0.62383923 </v>
    <v>       0.74359284       0.99962231       0.12588345 </v>
    <v>       0.74943901       0.00054807       0.62404824 </v>
    <v>       0.74858812       0.49975605       0.12635462 </v>
    <v>       0.75020452       0.50040282       0.62383923 </v>
    <v>       0.24359284       0.99962231       0.37411655 </v>
    <v>       0.24943901       0.00054807       0.87595176 </v>
    <v>       0.24858812       0.49975605       0.37364538 </v>
    <v>       0.25020452       0.50040282       0.87616077 </v>
    <v>       0.75640716       0.00037769       0.37411655 </v>
    <v>       0.75056099       0.99945193       0.87595176 </v>
    <v>       0.75141188       0.50024395       0.37364538 </v>
    <v>       0.74979548       0.49959718       0.87616077 </v>
    <v>      -0.00000000      -0.00000000       0.50168934 </v>
    <v>      -0.00000000       0.50000000       0.00024963 </v>
    <v>      -0.00000000       0.50000000       0.50030153 </v>
    <v>       0.50000000      -0.00000000       0.99831066 </v>
    <v>       0.50000000       0.50000000       0.99969847 </v>
    <v>       0.50000000       0.50000000       0.49975037 </v>
    <v>       0.24871892       0.24810119       0.00117321 </v>
    <v>       0.25145368       0.24778755       0.49863254 </v>
    <v>       0.24854632       0.75221245       0.00136746 </v>
    <v>       0.25128108       0.75189881       0.49882679 </v>
    <v>       0.75145368       0.24778755       0.00136746 </v>
    <v>       0.74871892       0.24810119       0.49882679 </v>
    <v>       0.75128108       0.75189881       0.00117321 </v>
    <v>       0.74854632       0.75221245       0.49863254 </v>
    <v>       0.25019157       0.24637691       0.24998651 </v>
    <v>       0.24987738       0.24896667       0.74998084 </v>
    <v>       0.24980843       0.75362309       0.25001349 </v>
    <v>       0.25012262       0.75103333       0.75001916 </v>
    <v>       0.75019157       0.24637691       0.25001349 </v>
    <v>       0.74987738       0.24896667       0.75001916 </v>
    <v>       0.74980843       0.75362309       0.24998651 </v>
    <v>       0.75012262       0.75103333       0.74998084 </v>
    <v>      -0.00000000      -0.00000000       0.74807322 </v>
    <v>      -0.00000000       0.50000000       0.24969707 </v>
    <v>      -0.00000000       0.50000000       0.74936438 </v>
    <v>       0.50000000      -0.00000000       0.75192678 </v>
    <v>       0.50000000       0.50000000       0.25030293 </v>
    <v>       0.50000000       0.50000000       0.75063562 </v>
    <v>      -0.00000000      -0.00000000       0.25876888 </v>
    <v>      -0.00000000      -0.00000000       0.99103067 </v>
    <v>       0.50000000      -0.00000000       0.50896933 </v>
    <v>       0.50000000      -0.00000000       0.24123112 </v>
    <v>      -0.00000000      -0.00000000       0.62494325 </v>
    <v>      -0.00000000       0.50000000       0.12420579 </v>
    <v>      -0.00000000       0.50000000       0.62548436 </v>
    <v>       0.50000000      -0.00000000       0.12311245 </v>
    <v>       0.50000000      -0.00000000       0.62705362 </v>
    <v>       0.50000000       0.50000000       0.12504188 </v>
    <v>       0.50000000       0.50000000       0.62513676 </v>
    <v>      -0.00000000      -0.00000000       0.37688755 </v>
    <v>      -0.00000000      -0.00000000       0.87294638 </v>
    <v>      -0.00000000       0.50000000       0.37495812 </v>
    <v>      -0.00000000       0.50000000       0.87486324 </v>
    <v>       0.50000000      -0.00000000       0.87505675 </v>
    <v>       0.50000000       0.50000000       0.37579421 </v>
    <v>       0.50000000       0.50000000       0.87451564 </v>
    <v>       0.23906332       0.25137932       0.37417535 </v>
    <v>       0.24492126       0.24560254       0.87575517 </v>
    <v>       0.24011606       0.74944537       0.37425295 </v>
    <v>       0.24375875       0.75361134       0.87582605 </v>
    <v>       0.75988394       0.25055463       0.37425295 </v>
    <v>       0.75624125       0.24638866       0.87582605 </v>
    <v>       0.76093668       0.74862068       0.37417535 </v>
    <v>       0.75507874       0.75439746       0.87575517 </v>
    <v>       0.25988394       0.25055463       0.12574705 </v>
    <v>       0.25624125       0.24638866       0.62417395 </v>
    <v>       0.26093668       0.74862068       0.12582465 </v>
    <v>       0.25507874       0.75439746       0.62424483 </v>
    <v>       0.73906332       0.25137932       0.12582465 </v>
    <v>       0.74492126       0.24560254       0.62424483 </v>
    <v>       0.74011606       0.74944537       0.12574705 </v>
    <v>       0.74375875       0.75361134       0.62417395 </v>
    <v>       0.11358429       0.13301141       0.23920528 </v>
    <v>       0.36664539       0.11224064       0.26125475 </v>
    <v>       0.61358429       0.13301141       0.26079472 </v>
    <v>       0.86664539       0.11224064       0.23874525 </v>
    <v>       0.13674325       0.38641952       0.24784134 </v>
    <v>       0.38688865       0.36334634       0.25170765 </v>
    <v>       0.63674325       0.38641952       0.25215866 </v>
    <v>       0.88688865       0.36334634       0.24829235 </v>
    <v>       0.11311135       0.63665366       0.24829235 </v>
    <v>       0.36325675       0.61358048       0.25215866 </v>
    <v>       0.61311135       0.63665366       0.25170765 </v>
    <v>       0.86325675       0.61358048       0.24784134 </v>
    <v>       0.13335461       0.88775936       0.23874525 </v>
    <v>       0.38641571       0.86698859       0.26079472 </v>
    <v>       0.63335461       0.88775936       0.26125475 </v>
    <v>       0.88641571       0.86698859       0.23920528 </v>
    <v>       0.13950421       0.10972465       0.50142141 </v>
    <v>       0.39002349       0.13636538       0.48864559 </v>
    <v>       0.63676733       0.10973609       0.48938853 </v>
    <v>       0.88960837       0.13937779       0.50117296 </v>
    <v>       0.11041283       0.36009662       0.50168907 </v>
    <v>       0.36081274       0.38842226       0.49877963 </v>
    <v>       0.61092136       0.36080555       0.49929453 </v>
    <v>       0.86017207       0.38953797       0.50123170 </v>
    <v>       0.13982793       0.61046203       0.50123170 </v>
    <v>       0.38907864       0.63919445       0.49929453 </v>
    <v>       0.63918726       0.61157774       0.49877963 </v>
    <v>       0.88958717       0.63990338       0.50168907 </v>
    <v>       0.11039163       0.86062221       0.50117296 </v>
    <v>       0.36323267       0.89026391       0.48938853 </v>
    <v>       0.60997651       0.86363462       0.48864559 </v>
    <v>       0.86049579       0.89027535       0.50142141 </v>
    <v>       0.10753881       0.14209675       0.74805321 </v>
    <v>       0.35772145       0.10731857       0.75155064 </v>
    <v>       0.60753881       0.14209675       0.75194679 </v>
    <v>       0.85772145       0.10731857       0.74844936 </v>
    <v>       0.14173806       0.39084619       0.74912600 </v>
    <v>       0.39100691       0.35808821       0.75132628 </v>
    <v>       0.64173806       0.39084619       0.75087400 </v>
    <v>       0.89100691       0.35808821       0.74867372 </v>
    <v>       0.10899309       0.64191179       0.74867372 </v>
    <v>       0.35826194       0.60915381       0.75087400 </v>
    <v>       0.60899309       0.64191179       0.75132628 </v>
    <v>       0.85826194       0.60915381       0.74912600 </v>
    <v>       0.14227855       0.89268143       0.74844936 </v>
    <v>       0.39246119       0.85790325       0.75194679 </v>
    <v>       0.64227855       0.89268143       0.75155064 </v>
    <v>       0.89246119       0.85790325       0.74805321 </v>
    <v>       0.13676733       0.10973609       0.01061147 </v>
    <v>       0.38960837       0.13937779       0.99882704 </v>
    <v>       0.63950421       0.10972465       0.99857859 </v>
    <v>       0.89002349       0.13636538       0.01135441 </v>
    <v>       0.11092136       0.36080555       0.00070547 </v>
    <v>       0.36017207       0.38953797       0.99876830 </v>
    <v>       0.61041283       0.36009662       0.99831093 </v>
    <v>       0.86081274       0.38842226       0.00122037 </v>
    <v>       0.13918726       0.61157774       0.00122037 </v>
    <v>       0.38958717       0.63990338       0.99831093 </v>
    <v>       0.63982793       0.61046203       0.99876830 </v>
    <v>       0.88907864       0.63919445       0.00070547 </v>
    <v>       0.10997651       0.86363462       0.01135441 </v>
    <v>       0.36049579       0.89027535       0.99857859 </v>
    <v>       0.61039163       0.86062221       0.99882704 </v>
    <v>       0.86323267       0.89026391       0.01061147 </v>
   </varray>
  </structure>
  <varray name="forces" >
   <v>      -0.00194941       0.00007829       0.00316486 </v>
   <v>       0.00405765      -0.00214843       0.00014009 </v>
   <v>       0.00194941      -0.00007829       0.00316486 </v>
   <v>      -0.00405765       0.00214843       0.00014009 </v>
   <v>       0.00580891       0.00587292       0.00020374 </v>
   <v>       0.00134994      -0.00670975      -0.00075387 </v>
   <v>      -0.00580891      -0.00587292       0.00020374 </v>
   <v>      -0.00134994       0.00670975      -0.00075387 </v>
   <v>       0.00580891       0.00587292      -0.00020374 </v>
   <v>       0.00134994      -0.00670975       0.00075387 </v>
   <v>      -0.00580891      -0.00587292      -0.00020374 </v>
   <v>      -0.00134994       0.00670975       0.00075387 </v>
   <v>      -0.00194941       0.00007829      -0.00316486 </v>
   <v>       0.00405765      -0.00214843      -0.00014009 </v>
   <v>       0.00194941      -0.00007829      -0.00316486 </v>
   <v>      -0.00405765       0.00214843      -0.00014009 </v>
   <v>      -0.00466159      -0.00008832      -0.00409182 </v>
   <v>       0.00838405      -0.00415953       0.00962059 </v>
   <v>      -0.00291458       0.00063563       0.00614955 </v>
   <v>       0.00241117       0.00260145      -0.01046298 </v>
   <v>       0.00466159       0.00008832      -0.00409182 </v>
   <v>      -0.00838405       0.00415953       0.00962059 </v>
   <v>       0.00291458      -0.00063563       0.00614955 </v>
   <v>      -0.00241117      -0.00260145      -0.01046298 </v>
   <v>       0.00466159       0.00008832       0.00409182 </v>
   <v>      -0.00838405       0.00415953      -0.00962059 </v>
   <v>       0.00291458      -0.00063563      -0.00614955 </v>
   <v>      -0.00241117      -0.00260145       0.01046298 </v>
   <v>      -0.00466159      -0.00008832       0.00409182 </v>
   <v>       0.00838405      -0.00415953      -0.00962059 </v>
   <v>      -0.00291458       0.00063563      -0.00614955 </v>
   <v>       0.00241117       0.00260145       0.01046298 </v>
   <v>      -0.00000000       0.00000000      -0.00475184 </v>
   <v>      -0.00000000       0.00000000       0.03457166 </v>
   <v>      -0.00000000       0.00000000       0.04713348 </v>
   <v>      -0.00000000       0.00000000       0.00475184 </v>
   <v>      -0.00000000       0.00000000      -0.04713348 </v>
   <v>      -0.00000000       0.00000000      -0.03457166 </v>
   <v>      -0.01625425       0.00179527       0.00352352 </v>
   <v>       0.01559381       0.00605075      -0.00901935 </v>
   <v>      -0.01559381      -0.00605075       0.00901935 </v>
   <v>       0.01625425      -0.00179527      -0.00352352 </v>
   <v>       0.01559381       0.00605075       0.00901935 </v>
   <v>      -0.01625425       0.00179527      -0.00352352 </v>
   <v>       0.01625425      -0.00179527       0.00352352 </v>
   <v>      -0.01559381      -0.00605075      -0.00901935 </v>
   <v>       0.00111123       0.01714263       0.02498306 </v>
   <v>      -0.01458882      -0.02966896       0.00394908 </v>
   <v>      -0.00111123      -0.01714263      -0.02498306 </v>
   <v>       0.01458882       0.02966896      -0.00394908 </v>
   <v>       0.00111123       0.01714263      -0.02498306 </v>
   <v>      -0.01458882      -0.02966896      -0.00394908 </v>
   <v>      -0.00111123      -0.01714263       0.02498306 </v>
   <v>       0.01458882       0.02966896       0.00394908 </v>
   <v>      -0.00000000       0.00000000       0.07725905 </v>
   <v>      -0.00000000       0.00000000      -0.03666691 </v>
   <v>      -0.00000000       0.00000000       0.02609374 </v>
   <v>      -0.00000000       0.00000000      -0.07725905 </v>
   <v>      -0.00000000       0.00000000       0.03666691 </v>
   <v>      -0.00000000       0.00000000      -0.02609374 </v>
   <v>      -0.00000000       0.00000000       0.00098726 </v>
[...]
       <r>   -15.7431     0.0000    32.0000 </r>
       <r>   -15.5915     0.0000    32.0000 </r>
       <r>   -15.4400     0.0000    32.0000 </r>
       <r>   -15.2884     0.0000    32.0000 </r>
       <r>   -15.1368     0.1917    32.0291 </r>
       <r>   -14.9852    23.9053    35.6529 </r>
       <r>   -14.8336    56.7179    44.2509 </r>
       <r>   -14.6820    50.4749    51.9025 </r>
       <r>   -14.5304    27.5393    56.0772 </r>
       <r>   -14.3788    25.7238    59.9768 </r>
       <r>   -14.2272    34.3092    65.1778 </r>
       <r>   -14.0756   111.3250    82.0537 </r>
       <r>   -13.9240   155.0746   105.5618 </r>
       <r>   -13.7724   111.2776   122.4306 </r>
       <r>   -13.6208    20.1296   125.4821 </r>
       <r>   -13.4693     3.4166   126.0000 </r>
       <r>   -13.3177     0.0000   126.0000 </r>
       <r>   -13.1661     0.0000   126.0000 </r>
       <r>   -13.0145     0.0000   126.0000 </r>
       <r>   -12.8629     0.0000   126.0000 </r>
       <r>   -12.7113     0.0585   126.0089 </r>
       <r>   -12.5597    21.6903   129.2969 </r>
       <r>   -12.4081   126.4358   148.4636 </r>
       <r>   -12.2565   177.1889   175.3240 </r>
       <r>   -12.1049   144.0215   197.1565 </r>
       <r>   -11.9533   120.9236   215.4876 </r>
       <r>   -11.8017    41.3301   221.7529 </r>
       <r>   -11.6502     1.6301   222.0000 </r>
       <r>   -11.4986     0.0000   222.0000 </r>
       <r>   -11.3470     0.0000   222.0000 </r>
       <r>   -11.1954     0.0000   222.0000 </r>
       <r>   -11.0438     0.0000   222.0000 </r>
       <r>   -10.8922     0.0000   222.0000 </r>
       <r>   -10.7406     0.0000   222.0000 </r>
       <r>   -10.5890     0.0000   222.0000 </r>
       <r>   -10.4374     0.0000   222.0000 </r>
       <r>   -10.2858     0.0000   222.0000 </r>
       <r>   -10.1342     0.0000   222.0000 </r>
       <r>    -9.9826     0.0000   222.0000 </r>
       <r>    -9.8310     0.0000   222.0000 </r>
       <r>    -9.6795     0.0000   222.0000 </r>
       <r>    -9.5279     0.0000   222.0000 </r>
       <r>    -9.3763     0.0000   222.0000 </r>
       <r>    -9.2247     0.0000   222.0000 </r>
       <r>    -9.0731     0.0000   222.0000 </r>
       <r>    -8.9215     0.0000   222.0000 </r>
       <r>    -8.7699     0.0000   222.0000 </r>
       <r>    -8.6183     0.0000   222.0000 </r>
       <r>    -8.4667     0.0000   222.0000 </r>
       <r>    -8.3151     0.0000   222.0000 </r>
       <r>    -8.1635     0.0000   222.0000 </r>
       <r>    -8.0119     0.0000   222.0000 </r>
       <r>    -7.8604     0.0000   222.0000 </r>
       <r>    -7.7088     0.0000   222.0000 </r>
       <r>    -7.5572     0.0000   222.0000 </r>
       <r>    -7.4056     0.0000   222.0000 </r>
       <r>    -7.2540     0.0000   222.0000 </r>
       <r>    -7.1024     0.0000   222.0000 </r>
       <r>    -6.9508     0.0000   222.0000 </r>
       <r>    -6.7992     0.0000   222.0000 </r>
       <r>    -6.6476     0.0000   222.0000 </r>
       <r>    -6.4960     0.0000   222.0000 </r>
       <r>    -6.3444     0.0000   222.0000 </r>
       <r>    -6.1928     0.0000   222.0000 </r>
       <r>    -6.0412     0.0000   222.0000 </r>
       <r>    -5.8897     0.0000   222.0000 </r>
       <r>    -5.7381     0.0000   222.0000 </r>
       <r>    -5.5865     0.0000   222.0000 </r>
       <r>    -5.4349     0.0000   222.0000 </r>
       <r>    -5.2833     0.0000   222.0000 </r>
       <r>    -5.1317     0.0000   222.0000 </r>
       <r>    -4.9801     0.0000   222.0000 </r>
       <r>    -4.8285     0.0000   222.0000 </r>
       <r>    -4.6769     0.0000   222.0000 </r>
       <r>    -4.5253     0.0000   222.0000 </r>
       <r>    -4.3737     0.0000   222.0000 </r>
       <r>    -4.2221     0.0000   222.0000 </r>
       <r>    -4.0706     0.0000   222.0000 </r>
       <r>    -3.9190     0.0000   222.0000 </r>
       <r>    -3.7674     0.0000   222.0000 </r>
       <r>    -3.6158     0.0000   222.0000 </r>
       <r>    -3.4642     0.0000   222.0000 </r>
       <r>    -3.3126     0.0000   222.0000 </r>
       <r>    -3.1610     0.0000   222.0000 </r>
       <r>    -3.0094     0.0000   222.0000 </r>
       <r>    -2.8578     0.0000   222.0000 </r>
       <r>    -2.7062     0.0000   222.0000 </r>
       <r>    -2.5546     0.0000   222.0000 </r>
       <r>    -2.4030     0.0000   222.0000 </r>
       <r>    -2.2514     2.7688   222.4197 </r>
       <r>    -2.0999    16.9610   224.9909 </r>
       <r>    -1.9483    35.5839   230.3851 </r>
       <r>    -1.7967    44.0692   237.0657 </r>
       <r>    -1.6451    63.5804   246.7039 </r>
       <r>    -1.4935    52.9359   254.7286 </r>
       <r>    -1.3419    59.0870   263.6857 </r>
       <r>    -1.1903    75.6129   275.1480 </r>
       <r>    -1.0387    65.9756   285.1494 </r>
       <r>    -0.8871    71.7590   296.0275 </r>
       <r>    -0.7355    83.2279   308.6441 </r>
       <r>    -0.5839    99.8088   323.7744 </r>
       <r>    -0.4323   135.8698   344.3711 </r>
       <r>    -0.2808    72.2918   355.3300 </r>
       <r>    -0.1292    48.0198   362.6094 </r>
       <r>     0.0224    47.7512   369.8481 </r>
       <r>     0.1740    39.2885   375.8039 </r>
       <r>     0.3256    45.6356   382.7219 </r>
       <r>     0.4772    55.1213   391.0779 </r>
       <r>     0.6288    59.6449   400.1196 </r>
       <r>     0.7804    46.4050   407.1542 </r>
       <r>     0.9320    44.8781   413.9573 </r>
       <r>     1.0836    61.8562   423.3342 </r>
       <r>     1.2352    81.5771   435.7007 </r>
       <r>     1.3868    78.9964   447.6759 </r>
       <r>     1.5384   113.9011   464.9424 </r>
       <r>     1.6899    78.2921   476.8109 </r>
       <r>     1.8415    68.8624   487.2498 </r>
       <r>     1.9931    54.6328   495.5317 </r>
       <r>     2.1447    36.5020   501.0651 </r>
       <r>     2.2963    18.5961   503.8842 </r>
       <r>     2.4479     0.7641   504.0000 </r>
       <r>     2.5995     0.0000   504.0000 </r>
       <r>     2.7511     0.0000   504.0000 </r>
       <r>     2.9027     0.0000   504.0000 </r>
       <r>     3.0543     0.0000   504.0000 </r>
       <r>     3.2059     0.0000   504.0000 </r>
       <r>     3.3575     0.0000   504.0000 </r>
       <r>     3.5090     0.0000   504.0000 </r>
       <r>     3.6606     0.0000   504.0000 </r>
       <r>     3.8122     0.0000   504.0000 </r>
       <r>     3.9638     0.0000   504.0000 </r>
       <r>     4.1154     0.0000   504.0000 </r>
       <r>     4.2670     0.0000   504.0000 </r>
       <r>     4.4186     0.4656   504.0706 </r>
       <r>     4.5702    22.5006   507.4815 </r>
       <r>     4.7218    29.3000   511.9231 </r>
       <r>     4.8734    37.6019   517.6233 </r>
       <r>     5.0250    28.5755   521.9551 </r>
       <r>     5.1766    26.0190   525.8994 </r>
       <r>     5.3282    44.8376   532.6964 </r>
       <r>     5.4797    70.7547   543.4222 </r>
       <r>     5.6313    45.1710   550.2698 </r>
       <r>     5.7829    67.5969   560.5169 </r>
       <r>     5.9345    96.5748   575.1569 </r>
       <r>     6.0861   105.1396   591.0952 </r>
       <r>     6.2377    68.8482   601.5321 </r>
       <r>     6.3893    52.0154   609.4172 </r>
       <r>     6.5409    32.0039   614.2687 </r>
       <r>     6.6925    28.5966   618.6037 </r>
       <r>     6.8441    27.4254   622.7612 </r>
       <r>     6.9957    23.0541   626.2560 </r>
       <r>     7.1473    22.2179   629.6241 </r>
       <r>     7.2988     7.4247   630.7496 </r>
       <r>     7.4504    26.2674   634.7315 </r>
       <r>     7.6020     8.6399   636.0412 </r>
       <r>     7.7536     9.2659   637.4459 </r>
       <r>     7.9052    19.2163   640.3589 </r>
       <r>     8.0568    34.3649   645.5684 </r>
       <r>     8.2084    17.1587   648.1695 </r>
       <r>     8.3600    23.6702   651.7577 </r>
       <r>     8.5116    21.7247   655.0510 </r>
       <r>     8.6632    24.1641   658.7141 </r>
       <r>     8.8148    28.3587   663.0130 </r>
       <r>     8.9664    25.5538   666.8868 </r>
       <r>     9.1180    38.0592   672.6563 </r>
       <r>     9.2695    37.1617   678.2897 </r>
       <r>     9.4211    39.7581   684.3167 </r>
       <r>     9.5727    45.0144   691.1405 </r>
       <r>     9.7243    39.9118   697.1908 </r>
       <r>     9.8759    56.0864   705.6931 </r>
       <r>    10.0275    68.2059   716.0325 </r>
       <r>    10.1791    75.3266   727.4515 </r>
       <r>    10.3307    74.4540   738.7381 </r>
       <r>    10.4823    58.3120   747.5777 </r>
       <r>    10.6339    52.8899   755.5954 </r>
       <r>    10.7855    58.2335   764.4232 </r>
       <r>    10.9371    23.5698   767.9962 </r>
       <r>    11.0886     0.0254   768.0000 </r>
       <r>    11.2402     0.0000   768.0000 </r>
       <r>    11.3918     0.0000   768.0000 </r>
       <r>    11.5434     0.0000   768.0000 </r>
       <r>    11.6950     0.0000   768.0000 </r>
       <r>    11.8466     0.0000   768.0000 </r>
       <r>    11.9982     0.0000   768.0000 </r>
       <r>    12.1498     0.0000   768.0000 </r>
       <r>    12.3014     0.0000   768.0000 </r>
       <r>    12.4530     0.0000   768.0000 </r>
       <r>    12.6046     0.0000   768.0000 </r>
       <r>    12.7562     0.0000   768.0000 </r>
       <r>    12.9078     0.0000   768.0000 </r>
      </set>
     </set>
    </array>
   </total>
  </dos>
 </calculation>
 <structure name="finalpos" >
  <crystal>
   <varray name="basis" >
    <v>      11.19320958       0.00169121       0.00000000 </v>
    <v>       0.00169135      11.18931379       0.00000000 </v>
    <v>       0.00000000       0.00000000      15.96851936 </v>
   </varray>
   <i name="volume">   1999.96653294 </i>
   <varray name="rec_basis" >
    <v>       0.08933988      -0.00001350       0.00000000 </v>
    <v>      -0.00001350       0.08937099       0.00000000 </v>
    <v>       0.00000000       0.00000000       0.06262321 </v>
   </varray>
  </crystal>
  <varray name="positions" >
   <v>       0.00057677       0.25658102       0.12647356 </v>
   <v>       0.99975188       0.25103393       0.62360988 </v>
   <v>       0.99942323       0.74341898       0.12647356 </v>
   <v>       0.00024812       0.74896607       0.62360988 </v>
   <v>       0.50016516       0.25284657       0.12523423 </v>
   <v>       0.49945332       0.25090143       0.62453025 </v>
   <v>       0.49983484       0.74715343       0.12523423 </v>
   <v>       0.50054668       0.74909857       0.62453025 </v>
   <v>       0.00016516       0.25284657       0.37476577 </v>
   <v>       0.99945332       0.25090143       0.87546975 </v>
   <v>       0.99983484       0.74715343       0.37476577 </v>
   <v>       0.00054668       0.74909857       0.87546975 </v>
   <v>       0.50057677       0.25658102       0.37352644 </v>
   <v>       0.49975188       0.25103393       0.87639012 </v>
   <v>       0.49942323       0.74341898       0.37352644 </v>
   <v>       0.50024812       0.74896607       0.87639012 </v>
   <v>       0.25636009       0.00041150       0.12585874 </v>
   <v>       0.25055894       0.99939339       0.62411054 </v>
   <v>       0.25149343       0.50021040       0.12639606 </v>
   <v>       0.24981910       0.49963145       0.62378055 </v>
   <v>       0.74363991       0.99958850       0.12585874 </v>
   <v>       0.74944106       0.00060661       0.62411054 </v>
   <v>       0.74850657       0.49978960       0.12639606 </v>
   <v>       0.75018090       0.50036855       0.62378055 </v>
   <v>       0.24363991       0.99958850       0.37414126 </v>
   <v>       0.24944106       0.00060661       0.87588946 </v>
   <v>       0.24850657       0.49978960       0.37360394 </v>
   <v>       0.25018090       0.50036855       0.87621945 </v>
   <v>       0.75636009       0.00041150       0.37414126 </v>
   <v>       0.75055894       0.99939339       0.87588946 </v>
   <v>       0.75149343       0.50021040       0.37360394 </v>
   <v>       0.74981910       0.49963145       0.87621945 </v>
   <v>      -0.00000000      -0.00000000       0.50166747 </v>
   <v>      -0.00000000       0.50000000       0.00030889 </v>
   <v>      -0.00000000       0.50000000       0.50039257 </v>
   <v>       0.50000000      -0.00000000       0.99833253 </v>
   <v>       0.50000000       0.50000000       0.99960743 </v>
   <v>       0.50000000       0.50000000       0.49969111 </v>
   <v>       0.24870000       0.24808874       0.00120953 </v>
   <v>       0.25147807       0.24781295       0.49861008 </v>
   <v>       0.24852193       0.75218705       0.00138992 </v>
   <v>       0.25130000       0.75191126       0.49879047 </v>
   <v>       0.75147807       0.24781295       0.00138992 </v>
   <v>       0.74870000       0.24808874       0.49879047 </v>
   <v>       0.75130000       0.75191126       0.00120953 </v>
   <v>       0.74852193       0.75218705       0.49861008 </v>
   <v>       0.25021348       0.24640220       0.25002924 </v>
   <v>       0.24978228       0.24891143       0.74999713 </v>
   <v>       0.24978652       0.75359780       0.24997076 </v>
   <v>       0.25021772       0.75108857       0.75000287 </v>
   <v>       0.75021348       0.24640220       0.24997076 </v>
   <v>       0.74978228       0.24891143       0.75000287 </v>
   <v>       0.74978652       0.75359780       0.25002924 </v>
   <v>       0.75021772       0.75108857       0.74999713 </v>
   <v>      -0.00000000      -0.00000000       0.74820299 </v>
   <v>      -0.00000000       0.50000000       0.24965098 </v>
   <v>      -0.00000000       0.50000000       0.74944977 </v>
   <v>       0.50000000      -0.00000000       0.75179701 </v>
   <v>       0.50000000       0.50000000       0.25034902 </v>
   <v>       0.50000000       0.50000000       0.75055023 </v>
   <v>      -0.00000000      -0.00000000       0.25877190 </v>
   <v>      -0.00000000      -0.00000000       0.99097615 </v>
   <v>       0.50000000      -0.00000000       0.50902385 </v>
   <v>       0.50000000      -0.00000000       0.24122810 </v>
   <v>      -0.00000000      -0.00000000       0.62496157 </v>
   <v>      -0.00000000       0.50000000       0.12418169 </v>
   <v>      -0.00000000       0.50000000       0.62556998 </v>
   <v>       0.50000000      -0.00000000       0.12309303 </v>
   <v>       0.50000000      -0.00000000       0.62709575 </v>
   <v>       0.50000000       0.50000000       0.12496234 </v>
   <v>       0.50000000       0.50000000       0.62515798 </v>
   <v>      -0.00000000      -0.00000000       0.37690697 </v>
   <v>      -0.00000000      -0.00000000       0.87290425 </v>
   <v>      -0.00000000       0.50000000       0.37503766 </v>
   <v>      -0.00000000       0.50000000       0.87484202 </v>
   <v>       0.50000000      -0.00000000       0.87503843 </v>
   <v>       0.50000000       0.50000000       0.37581831 </v>
   <v>       0.50000000       0.50000000       0.87443002 </v>
   <v>       0.23911900       0.25132402       0.37417367 </v>
   <v>       0.24494559       0.24574754       0.87578294 </v>
   <v>       0.24010094       0.74943546       0.37422118 </v>
   <v>       0.24382505       0.75353227       0.87586203 </v>
   <v>       0.75989906       0.25056454       0.37422118 </v>
   <v>       0.75617495       0.24646773       0.87586203 </v>
   <v>       0.76088100       0.74867598       0.37417367 </v>
   <v>       0.75505441       0.75425246       0.87578294 </v>
   <v>       0.25989906       0.25056454       0.12577882 </v>
   <v>       0.25617495       0.24646773       0.62413797 </v>
   <v>       0.26088100       0.74867598       0.12582633 </v>
   <v>       0.25505441       0.75425246       0.62421706 </v>
   <v>       0.73911900       0.25132402       0.12582633 </v>
   <v>       0.74494559       0.24574754       0.62421706 </v>
   <v>       0.74010094       0.74943546       0.12577882 </v>
   <v>       0.74382505       0.75353227       0.62413797 </v>
   <v>       0.11367485       0.13277931       0.23909998 </v>
   <v>       0.36686273       0.11242069       0.26136352 </v>
   <v>       0.61367485       0.13277931       0.26090002 </v>
   <v>       0.86686273       0.11242069       0.23863648 </v>
   <v>       0.13655213       0.38615994       0.24790116 </v>
   <v>       0.38667206       0.36351843       0.25169192 </v>
   <v>       0.63655213       0.38615994       0.25209884 </v>
   <v>       0.88667206       0.36351843       0.24830808 </v>
   <v>       0.11332794       0.63648157       0.24830808 </v>
   <v>       0.36344787       0.61384006       0.25209884 </v>
   <v>       0.61332794       0.63648157       0.25169192 </v>
   <v>       0.86344787       0.61384006       0.24790116 </v>
   <v>       0.13313727       0.88757931       0.23863648 </v>
   <v>       0.38632515       0.86722069       0.26090002 </v>
   <v>       0.63313727       0.88757931       0.26136352 </v>
   <v>       0.88632515       0.86722069       0.23909998 </v>
   <v>       0.13946050       0.10967765       0.50140244 </v>
   <v>       0.39002697       0.13634271       0.48858249 </v>
   <v>       0.63676261       0.10979368       0.48936593 </v>
   <v>       0.88964092       0.13935506       0.50117305 </v>
   <v>       0.11046500       0.36010235       0.50167402 </v>
   <v>       0.36075509       0.38847871       0.49877929 </v>
   <v>       0.61094257       0.36078880       0.49927947 </v>
   <v>       0.86018618       0.38950928       0.50127654 </v>
   <v>       0.13981382       0.61049072       0.50127654 </v>
   <v>       0.38905743       0.63921120       0.49927947 </v>
   <v>       0.63924491       0.61152129       0.49877929 </v>
   <v>       0.88953500       0.63989765       0.50167402 </v>
   <v>       0.11035908       0.86064494       0.50117305 </v>
   <v>       0.36323739       0.89020632       0.48936593 </v>
   <v>       0.60997303       0.86365729       0.48858249 </v>
   <v>       0.86053950       0.89032235       0.50140244 </v>
   <v>       0.10754166       0.14212927       0.74805002 </v>
   <v>       0.35766681       0.10736107       0.75154676 </v>
   <v>       0.60754166       0.14212927       0.75194998 </v>
   <v>       0.85766681       0.10736107       0.74845324 </v>
   <v>       0.14171975       0.39083127       0.74912977 </v>
   <v>       0.39097224       0.35809427       0.75126747 </v>
   <v>       0.64171975       0.39083127       0.75087023 </v>
   <v>       0.89097224       0.35809427       0.74873253 </v>
   <v>       0.10902776       0.64190573       0.74873253 </v>
   <v>       0.35828025       0.60916873       0.75087023 </v>
   <v>       0.60902776       0.64190573       0.75126747 </v>
   <v>       0.85828025       0.60916873       0.74912977 </v>
   <v>       0.14233319       0.89263893       0.74845324 </v>
   <v>       0.39245834       0.85787073       0.75194998 </v>
   <v>       0.64233319       0.89263893       0.75154676 </v>
   <v>       0.89245834       0.85787073       0.74805002 </v>
   <v>       0.13676261       0.10979368       0.01063407 </v>
   <v>       0.38964092       0.13935506       0.99882695 </v>
   <v>       0.63946050       0.10967765       0.99859756 </v>
   <v>       0.89002697       0.13634271       0.01141751 </v>
   <v>       0.11094257       0.36078880       0.00072053 </v>
   <v>       0.36018618       0.38950928       0.99872346 </v>
   <v>       0.61046500       0.36010235       0.99832598 </v>
   <v>       0.86075509       0.38847871       0.00122071 </v>
   <v>       0.13924491       0.61152129       0.00122071 </v>
   <v>       0.38953500       0.63989765       0.99832598 </v>
   <v>       0.63981382       0.61049072       0.99872346 </v>
   <v>       0.88905743       0.63921120       0.00072053 </v>
   <v>       0.10997303       0.86365729       0.01141751 </v>
   <v>       0.36053950       0.89032235       0.99859756 </v>
   <v>       0.61035908       0.86064494       0.99882695 </v>
   <v>       0.86323739       0.89020632       0.01063407 </v>
  </varray>
 </structure>
</modeling>
