       N       E                     dE             d eps       ncg     rms          rms(c)
DAV:   1    -0.112150632710E+04   -0.11215E+04   -0.91030E-02 13000   0.693E-01    0.264E-02
RMM:   2    -0.112150632819E+04   -0.10906E-05   -0.24029E-05  7017   0.920E-03    0.366E-02
RMM:   3    -0.112150632845E+04   -0.26116E-06   -0.77525E-06  6593   0.583E-03    0.841E-03
RMM:   4    -0.112150632910E+04   -0.64561E-06   -0.33429E-06  4122   0.277E-03    0.502E-03
RMM:   5    -0.112150632943E+04   -0.33120E-06   -0.20299E-06  4357   0.298E-03    0.555E-03
RMM:   6    -0.112150632944E+04   -0.96479E-08   -0.12879E-06  3375   0.221E-03    0.136E-03
RMM:   7    -0.112150632946E+04   -0.22512E-07   -0.57302E-07  2487   0.216E-03    0.788E-04
RMM:   8    -0.112150632949E+04   -0.27110E-07   -0.15681E-07  1841   0.185E-03
   1 F= -.11215063E+04 E0= -.11215063E+04  d E =-.112151E+04  mag=    40.0000
       N       E                     dE             d eps       ncg     rms          rms(c)
DAV:   1    -0.112150657442E+04   -0.24496E-03   -0.35950E-01 12800   0.705E-01    0.275E-01
RMM:   2    -0.112150739881E+04   -0.82439E-03   -0.10944E-02 12314   0.140E-01    0.209E-01
RMM:   3    -0.112150736397E+04    0.34846E-04   -0.57951E-04 10993   0.451E-02    0.113E-01
RMM:   4    -0.112150728222E+04    0.81749E-04   -0.25121E-04  8268   0.196E-02    0.729E-02
RMM:   5    -0.112150727260E+04    0.96140E-05   -0.59357E-05  7234   0.124E-02    0.569E-02
RMM:   6    -0.112150727578E+04   -0.31800E-05   -0.27971E-05  7092   0.737E-03    0.214E-02
RMM:   7    -0.112150727943E+04   -0.36484E-05   -0.12034E-05  6716   0.539E-03    0.155E-02
RMM:   8    -0.112150728215E+04   -0.27219E-05   -0.80809E-06  6266   0.406E-03
   2 F= -.11215073E+04 E0= -.11215073E+04  d E =-.952665E-03  mag=    40.0000
       N       E                     dE             d eps       ncg     rms          rms(c)
DAV:   1    -0.112150728801E+04   -0.85777E-05   -0.12253E-03 12520   0.418E-02    0.163E-02
RMM:   2    -0.112150729069E+04   -0.26797E-05   -0.36661E-05  6573   0.965E-03    0.132E-02
RMM:   3    -0.112150729143E+04   -0.73832E-06   -0.59933E-06  6141   0.427E-03    0.643E-03
RMM:   4    -0.112150729143E+04    0.21246E-08   -0.13444E-06  3292   0.238E-03    0.446E-03
RMM:   5    -0.112150729153E+04   -0.10397E-06   -0.69773E-07  2098   0.202E-03    0.147E-03
RMM:   6    -0.112150729168E+04   -0.14919E-06   -0.29956E-07  1538   0.202E-03    0.616E-04
RMM:   7    -0.112150729175E+04   -0.74317E-07   -0.10766E-07  1189   0.191E-03    0.406E-04
RMM:   8    -0.112150729185E+04   -0.98356E-07   -0.54335E-08  1109   0.192E-03
   3 F= -.11215073E+04 E0= -.11215073E+04  d E =-.962362E-03  mag=    40.0000
       N       E                     dE             d eps       ncg     rms          rms(c)
DAV:   1    -0.112150719185E+04    0.99905E-04   -0.38170E-01 12472   0.727E-01    0.198E-01
RMM:   2    -0.112150818728E+04   -0.99544E-03   -0.97728E-03 12344   0.132E-01    0.131E-01
RMM:   3    -0.112150822104E+04   -0.33752E-04   -0.49008E-04 10064   0.428E-02    0.758E-02
RMM:   4    -0.112150819144E+04    0.29594E-04   -0.11410E-04  7161   0.140E-02    0.431E-02
RMM:   5    -0.112150818344E+04    0.79980E-05   -0.51457E-05  7065   0.976E-03    0.371E-02
RMM:   6    -0.112150818469E+04   -0.12470E-05   -0.19224E-05  6855   0.738E-03    0.179E-02
RMM:   7    -0.112150818550E+04   -0.80944E-06   -0.90557E-06  6316   0.404E-03    0.904E-03
RMM:   8    -0.112150818573E+04   -0.23050E-06   -0.47713E-06  5310   0.380E-03
   4 F= -.11215082E+04 E0= -.11215082E+04  d E =-.893879E-03  mag=    40.0000
