<?xml version="1.0" encoding="ISO-8859-1"?>
<modeling>
 <generator>
  <i name="program" type="string">vasp </i>
  <i name="version" type="string">5.4.1  </i>
  <i name="subversion" type="string">05Feb16 (build Jan 25 2017 20:16:33) complex                          parallel </i>
  <i name="platform" type="string">BWXE6 </i>
  <i name="date" type="string">2019 07 12 </i>
  <i name="time" type="string">12:20:10 </i>
 </generator>
 <incar>
  <i type="string" name="SYSTEM"> STF</i>
  <i type="string" name="PREC">normal</i>
  <i type="string" name="ALGO"> Fast</i>
  <i type="int" name="ISPIN">     2</i>
  <i type="int" name="NELM">    40</i>
  <i type="int" name="NELMIN">     8</i>
  <i type="int" name="IBRION">     2</i>
  <i name="EDIFF">      0.00010000</i>
  <i name="EDIFFG">     -0.03000000</i>
  <i type="int" name="NSW">    30</i>
  <i type="int" name="ISIF">     3</i>
  <i name="ENCUT">    520.00000000</i>
  <i type="int" name="NBANDS">   768</i>
  <v name="MAGMOM">      0.60000000      0.60000000      0.60000000      0.60000000      0.60000000      0.60000000      0.60000000      0.60000000      0.60000000      0.60000000      0.60000000      0.60000000      0.60000000      0.60000000      0.60000000      0.60000000      0.60000000      0.60000000      0.60000000      0.60000000
      0.60000000      0.60000000      0.60000000      0.60000000      0.60000000      0.60000000      0.60000000      0.60000000      0.60000000      0.60000000      0.60000000      0.60000000      0.60000000      0.60000000      0.60000000      0.60000000      0.60000000      0.60000000      0.60000000      0.60000000
      0.60000000      0.60000000      0.60000000      0.60000000      0.60000000      0.60000000      0.60000000      0.60000000      0.60000000      0.60000000      0.60000000      0.60000000      0.60000000      0.60000000      0.60000000      0.60000000      5.00000000      5.00000000      5.00000000      5.00000000
      5.00000000      5.00000000      5.00000000      5.00000000      0.60000000      0.60000000      0.60000000      0.60000000      0.60000000      0.60000000      0.60000000      0.60000000      0.60000000      0.60000000      0.60000000      0.60000000      0.60000000      0.60000000      0.60000000      0.60000000
      0.60000000      0.60000000      0.60000000      0.60000000      0.60000000      0.60000000      0.60000000      0.60000000      0.60000000      0.60000000      0.60000000      0.60000000      0.60000000      0.60000000      0.60000000      0.60000000      0.60000000      0.60000000      0.60000000      0.60000000
      0.60000000      0.60000000      0.60000000      0.60000000      0.60000000      0.60000000      0.60000000      0.60000000      0.60000000      0.60000000      0.60000000      0.60000000      0.60000000      0.60000000      0.60000000      0.60000000      0.60000000      0.60000000      0.60000000      0.60000000
      0.60000000      0.60000000      0.60000000      0.60000000      0.60000000      0.60000000      0.60000000      0.60000000      0.60000000      0.60000000      0.60000000      0.60000000      0.60000000      0.60000000      0.60000000      0.60000000      0.60000000      0.60000000      0.60000000      0.60000000
      0.60000000      0.60000000      0.60000000      0.60000000      0.60000000      0.60000000      0.60000000      0.60000000      0.60000000      0.60000000      0.60000000      0.60000000      0.60000000      0.60000000      0.60000000      0.60000000</v>
  <i type="string" name="LREAL"> Auto</i>
  <i type="int" name="ISMEAR">     0</i>
  <i name="SIGMA">      0.05000000</i>
  <i type="int" name="LMAXMIX">     4</i>
  <v type="int" name="KPOINT_BSE">    -1     0     0     0</v>
  <i type="int" name="NELM">    40</i>
  <i type="logical" name="LDAU"> T  </i>
  <v type="int" name="LDAUTYPE">     2</v>
  <v type="int" name="LDAUL">     0     2     2     0</v>
  <v name="LDAUU">      0.00000000      3.00000000      5.00000000      0.00000000</v>
  <v name="LDAUJ">      0.00000000      0.00000000      0.00000000      0.00000000</v>
  <i type="int" name="LDAUPRINT">     1</i>
 </incar>
 <kpoints>
  <generation param="Monkhorst-Pack">
   <v type="int" name="divisions">       2        2        2 </v>
   <v name="usershift">      0.00000000       0.00000000       0.00000000 </v>
   <v name="genvec1">      0.50000000       0.00000000       0.00000000 </v>
   <v name="genvec2">      0.00000000       0.50000000       0.00000000 </v>
   <v name="genvec3">      0.00000000       0.00000000       0.50000000 </v>
   <v name="shift">      0.50000000       0.50000000       0.50000000 </v>
  </generation>
  <varray name="kpointlist" >
   <v>       0.25000000       0.25000000       0.25000000 </v>
   <v>      -0.25000000       0.25000000       0.25000000 </v>
   <v>       0.25000000      -0.25000000       0.25000000 </v>
   <v>      -0.25000000      -0.25000000       0.25000000 </v>
  </varray>
  <varray name="weights" >
   <v>       0.25000000 </v>
   <v>       0.25000000 </v>
   <v>       0.25000000 </v>
   <v>       0.25000000 </v>
  </varray>
 </kpoints>
 <parameters>
  <separator name="general" >
   <i type="string" name="SYSTEM">STF</i>
   <i type="logical" name="LCOMPAT"> F  </i>
  </separator>
  <separator name="electronic" >
   <i type="string" name="PREC">normal</i>
   <i name="ENMAX">    520.00000000</i>
   <i name="ENAUG">    605.39200000</i>
   <i name="EDIFF">      0.00010000</i>
   <i type="int" name="IALGO">    68</i>
   <i type="int" name="IWAVPR">    11</i>
   <i type="int" name="NBANDS">   768</i>
   <i name="NELECT">   1032.00000000</i>
   <i type="int" name="TURBO">     0</i>
   <i type="int" name="IRESTART">     0</i>
   <i type="int" name="NREBOOT">     0</i>
   <i type="int" name="NMIN">     0</i>
   <i name="EREF">      0.00000000</i>
   <separator name="electronic smearing" >
    <i type="int" name="ISMEAR">     0</i>
    <i name="SIGMA">      0.05000000</i>
    <i name="KSPACING">      0.50000000</i>
    <i type="logical" name="KGAMMA"> T  </i>
   </separator>
   <separator name="electronic projectors" >
    <i type="logical" name="LREAL"> T  </i>
    <v name="ROPT">     -0.00050000     -0.00050000     -0.00050000     -0.00050000</v>
    <i type="int" name="LMAXPAW">  -100</i>
    <i type="int" name="LMAXMIX">     4</i>
    <i type="logical" name="NLSPLINE"> F  </i>
   </separator>
   <separator name="electronic startup" >
    <i type="int" name="ISTART">     1</i>
    <i type="int" name="ICHARG">     0</i>
    <i type="int" name="INIWAV">     1</i>
   </separator>
   <separator name="electronic spin" >
    <i type="int" name="ISPIN">     2</i>
    <i type="logical" name="LNONCOLLINEAR"> F  </i>
    <v name="MAGMOM">      0.60000000      0.60000000      0.60000000      0.60000000      0.60000000      0.60000000      0.60000000      0.60000000      0.60000000      0.60000000      0.60000000      0.60000000      0.60000000      0.60000000      0.60000000      0.60000000      0.60000000      0.60000000      0.60000000      0.60000000
      0.60000000      0.60000000      0.60000000      0.60000000      0.60000000      0.60000000      0.60000000      0.60000000      0.60000000      0.60000000      0.60000000      0.60000000      0.60000000      0.60000000      0.60000000      0.60000000      0.60000000      0.60000000      0.60000000      0.60000000
      0.60000000      0.60000000      0.60000000      0.60000000      0.60000000      0.60000000      0.60000000      0.60000000      0.60000000      0.60000000      0.60000000      0.60000000      0.60000000      0.60000000      0.60000000      0.60000000      5.00000000      5.00000000      5.00000000      5.00000000
      5.00000000      5.00000000      5.00000000      5.00000000      0.60000000      0.60000000      0.60000000      0.60000000      0.60000000      0.60000000      0.60000000      0.60000000      0.60000000      0.60000000      0.60000000      0.60000000      0.60000000      0.60000000      0.60000000      0.60000000
      0.60000000      0.60000000      0.60000000      0.60000000      0.60000000      0.60000000      0.60000000      0.60000000      0.60000000      0.60000000      0.60000000      0.60000000      0.60000000      0.60000000      0.60000000      0.60000000      0.60000000      0.60000000      0.60000000      0.60000000
      0.60000000      0.60000000      0.60000000      0.60000000      0.60000000      0.60000000      0.60000000      0.60000000      0.60000000      0.60000000      0.60000000      0.60000000      0.60000000      0.60000000      0.60000000      0.60000000      0.60000000      0.60000000      0.60000000      0.60000000
      0.60000000      0.60000000      0.60000000      0.60000000      0.60000000      0.60000000      0.60000000      0.60000000      0.60000000      0.60000000      0.60000000      0.60000000      0.60000000      0.60000000      0.60000000      0.60000000      0.60000000      0.60000000      0.60000000      0.60000000
      0.60000000      0.60000000      0.60000000      0.60000000      0.60000000      0.60000000      0.60000000      0.60000000      0.60000000      0.60000000      0.60000000      0.60000000      0.60000000      0.60000000      0.60000000      0.60000000</v>
    <i name="NUPDOWN">     -1.00000000</i>
    <i type="logical" name="LSORBIT"> F  </i>
    <v name="SAXIS">      0.00000000      0.00000000      1.00000000</v>
    <i type="logical" name="LSPIRAL"> F  </i>
    <v name="QSPIRAL">      0.00000000      0.00000000      0.00000000</v>
    <i type="logical" name="LZEROZ"> F  </i>
   </separator>
   <separator name="electronic exchange-correlation" >
    <i type="logical" name="LASPH"> F  </i>
    <i type="logical" name="LMETAGGA"> F  </i>
   </separator>
   <separator name="electronic convergence" >
    <i type="int" name="NELM">    40</i>
    <i type="int" name="NELMDL">     0</i>
    <i type="int" name="NELMIN">     8</i>
    <i name="ENINI">    520.00000000</i>
    <separator name="electronic convergence detail" >
     <i type="logical" name="LDIAG"> T  </i>
     <i type="logical" name="LSUBROT"> F  </i>
     <i name="WEIMIN">      0.00100000</i>
     <i name="EBREAK">      0.00000003</i>
     <i name="DEPER">      0.30000000</i>
     <i type="int" name="NRMM">     4</i>
     <i name="TIME">      0.40000000</i>
    </separator>
   </separator>
   <separator name="electronic mixer" >
    <i name="AMIX">      0.40000000</i>
    <i name="BMIX">      1.00000000</i>
    <i name="AMIN">      0.10000000</i>
    <i name="AMIX_MAG">      1.60000000</i>
    <i name="BMIX_MAG">      1.00000000</i>
    <separator name="electronic mixer details" >
     <i type="int" name="IMIX">     4</i>
     <i type="logical" name="MIXFIRST"> F  </i>
     <i type="int" name="MAXMIX">   -45</i>
     <i name="WC">    100.00000000</i>
     <i type="int" name="INIMIX">     1</i>
     <i type="int" name="MIXPRE">     1</i>
     <i type="int" name="MREMOVE">     5</i>
    </separator>
   </separator>
   <separator name="electronic dipolcorrection" >
    <i type="logical" name="LDIPOL"> F  </i>
    <i type="logical" name="LMONO"> F  </i>
    <i type="int" name="IDIPOL">     0</i>
    <i name="EPSILON">      1.00000000</i>
    <v name="DIPOL">   -100.00000000   -100.00000000   -100.00000000</v>
    <i name="EFIELD">      0.00000000</i>
   </separator>
  </separator>
  <separator name="grids" >
   <i type="int" name="NGX">    64</i>
   <i type="int" name="NGY">    64</i>
   <i type="int" name="NGZ">    90</i>
   <i type="int" name="NGXF">   128</i>
   <i type="int" name="NGYF">   128</i>
   <i type="int" name="NGZF">   180</i>
   <i type="logical" name="ADDGRID"> F  </i>
  </separator>
  <separator name="ionic" >
   <i type="int" name="NSW">    30</i>
   <i type="int" name="IBRION">     2</i>
   <i type="int" name="ISIF">     3</i>
   <i name="PSTRESS">      0.00000000</i>
   <i name="EDIFFG">     -0.03000000</i>
   <i type="int" name="NFREE">     1</i>
   <i name="POTIM">      0.50000000</i>
   <i name="SMASS">     -3.00000000</i>
   <i name="SCALEE">      1.00000000</i>
  </separator>
  <separator name="ionic md" >
   <i name="TEBEG">      0.00010000</i>
   <i name="TEEND">      0.00010000</i>
   <i type="int" name="NBLOCK">     1</i>
   <i type="int" name="KBLOCK">    30</i>
   <i type="int" name="NPACO">   256</i>
   <i name="APACO">     16.00000000</i>
  </separator>
  <separator name="symmetry" >
   <i type="int" name="ISYM">     2</i>
   <i name="SYMPREC">      0.00001000</i>
  </separator>
  <separator name="dos" >
   <i type="logical" name="LORBIT"> F  </i>
   <v name="RWIGS">     -1.00000000     -1.00000000     -1.00000000     -1.00000000</v>
   <i type="int" name="NEDOS">   301</i>
   <i name="EMIN">     10.00000000</i>
   <i name="EMAX">    -10.00000000</i>
   <i name="EFERMI">      0.00000000</i>
  </separator>
  <separator name="writing" >
   <i type="int" name="NWRITE">     2</i>
   <i type="logical" name="LWAVE"> T  </i>
   <i type="logical" name="LCHARG"> T  </i>
   <i type="logical" name="LPARD"> F  </i>
   <i type="logical" name="LVTOT"> F  </i>
   <i type="logical" name="LVHAR"> F  </i>
   <i type="logical" name="LELF"> F  </i>
   <i type="logical" name="LOPTICS"> F  </i>
   <v name="STM">      0.00000000      0.00000000      0.00000000      0.00000000      0.00000000      0.00000000      0.00000000</v>
  </separator>
  <separator name="performance" >
   <i type="int" name="NPAR">     2</i>
   <i type="int" name="NSIM">     4</i>
   <i type="int" name="NBLK">    -1</i>
   <i type="logical" name="LPLANE"> T  </i>
   <i type="logical" name="LSCALAPACK"> T  </i>
   <i type="logical" name="LSCAAWARE"> F  </i>
   <i type="logical" name="LSCALU"> F  </i>
   <i type="logical" name="LASYNC"> F  </i>
   <i type="logical" name="LORBITALREAL"> F  </i>
  </separator>
  <separator name="miscellaneous" >
   <i type="int" name="IDIOT">     3</i>
   <i type="logical" name="LMUSIC"> F  </i>
   <v name="POMASS">     87.62000000     47.88000000     55.84700000     16.00000000</v>
   <v name="DARWINR">      0.00000000      0.00000000      0.00000000      0.00000000</v>
   <v name="DARWINV">      1.00000000      1.00000000      1.00000000      1.00000000</v>
   <i type="logical" name="LCORR"> T  </i>
  </separator>
  <i type="logical" name="GGA_COMPAT"> T  </i>
  <i type="logical" name="LBERRY"> F  </i>
  <i type="int" name="ICORELEVEL">     0</i>
  <i type="logical" name="LDAU"> T  </i>
  <v type="int" name="LDAUTYPE">     2</v>
  <v type="int" name="LDAUL">     0</v>
  <v name="LDAUU">      0.00000000</v>
  <v name="LDAUJ">      0.00000000</v>
  <i type="int" name="LDAUPRINT">     1</i>
  <i type="int" name="I_CONSTRAINED_M">     0</i>
  <separator name="electronic exchange-correlation" >
   <i type="string" name="GGA">--</i>
   <i type="int" name="VOSKOWN">     0</i>
   <i type="logical" name="LHFCALC"> F  </i>
   <i type="string" name="PRECFOCK"></i>
   <i type="logical" name="LSYMGRAD"> F  </i>
   <i type="logical" name="LHFONE"> F  </i>
   <i type="logical" name="LRHFCALC"> F  </i>
   <i type="logical" name="LTHOMAS"> F  </i>
   <i type="logical" name="LMODELHF"> F  </i>
   <i name="ENCUT4O">     -1.00000000</i>
   <i type="int" name="EXXOEP">     0</i>
   <i type="int" name="FOURORBIT">     0</i>
   <i name="AEXX">      0.00000000</i>
   <i name="HFALPHA">      0.00000000</i>
   <i name="MCALPHA">      0.00000000</i>
   <i name="ALDAX">      1.00000000</i>
   <i name="AGGAX">      1.00000000</i>
   <i name="ALDAC">      1.00000000</i>
   <i name="AGGAC">      1.00000000</i>
   <i type="int" name="NKREDX">     1</i>
   <i type="int" name="NKREDY">     1</i>
   <i type="int" name="NKREDZ">     1</i>
   <i type="logical" name="SHIFTRED"> F  </i>
   <i type="logical" name="ODDONLY"> F  </i>
   <i type="logical" name="EVENONLY"> F  </i>
   <i type="int" name="LMAXFOCK">     0</i>
   <i type="int" name="NMAXFOCKAE">     0</i>
   <i type="logical" name="LFOCKAEDFT"> F  </i>
   <i name="HFSCREEN">      0.00000000</i>
   <i name="HFSCREENC">      0.00000000</i>
   <i type="int" name="NBANDSGWLOW">     0</i>
  </separator>
  <separator name="vdW DFT" >
   <i type="logical" name="LUSE_VDW"> F  </i>
   <i name="Zab_VDW">     -0.84910000</i>
   <i name="PARAM1">      0.12340000</i>
   <i name="PARAM2">      1.00000000</i>
   <i name="PARAM3">      0.00000000</i>
  </separator>
  <separator name="model GW" >
   <i type="int" name="MODEL_GW">     0</i>
   <i name="MODEL_EPS0">      7.70453138</i>
   <i name="MODEL_ALPHA">      1.00000000</i>
  </separator>
  <separator name="linear response parameters" >
   <i type="logical" name="LEPSILON"> F  </i>
   <i type="logical" name="LRPA"> F  </i>
   <i type="logical" name="LNABLA"> F  </i>
   <i type="logical" name="LVEL"> F  </i>
   <i type="int" name="KINTER">     0</i>
   <i name="CSHIFT">      0.10000000</i>
   <i name="OMEGAMAX">     -1.00000000</i>
   <i name="DEG_THRESHOLD">      0.00200000</i>
  </separator>
  <separator name="orbital magnetization" >
   <i type="logical" name="NUCIND"> F  </i>
   <v name="MAGPOS">      0.00000000      0.00000000      0.00000000</v>
   <i type="logical" name="LNICSALL"> T  </i>
   <i type="logical" name="ORBITALMAG"> F  </i>
   <i type="logical" name="LMAGBLOCH"> F  </i>
   <i type="logical" name="LCHIMAG"> F  </i>
   <i type="logical" name="LGAUGE"> T  </i>
   <i type="int" name="MAGATOM">     0</i>
   <v name="MAGDIPOL">      0.00000000      0.00000000      0.00000000</v>
   <v name="AVECCONST">      0.00000000      0.00000000      0.00000000</v>
  </separator>
  <separator name="response functions" >
   <i type="logical" name="LADDER"> F  </i>
   <i type="logical" name="LFXC"> F  </i>
   <i type="logical" name="LHARTREE"> T  </i>
   <i type="int" name="IBSE">     0</i>
   <v type="int" name="KPOINT">    -1     0     0     0</v>
   <i type="logical" name="LTCTE"> F  </i>
   <i type="logical" name="LTETE"> F  </i>
   <i type="logical" name="LTRIPLET"> F  </i>
   <i type="logical" name="LFXCEPS"> F  </i>
   <i type="logical" name="LFXHEG"> F  </i>
   <i type="int" name="NATURALO">     0</i>
   <i type="logical" name="L2ORDER"> F  </i>
   <i type="logical" name="LUSEW"> F  </i>
   <i name="ENCUTGW">     -2.00000000</i>
   <i name="ENCUTGWSOFT">     -2.00000000</i>
   <i name="ENCUTLF">     -1.00000000</i>
   <i type="int" name="LMAXMP2">    -1</i>
   <i name="SCISSOR">      0.00000000</i>
   <i type="int" name="NOMEGA">     0</i>
   <i type="int" name="NOMEGAR">     0</i>
   <i type="int" name="NBANDSGW">    -1</i>
   <i type="int" name="NBANDSO">    -1</i>
   <i type="int" name="NBANDSV">    -1</i>
   <i type="int" name="NELM">    40</i>
   <i type="int" name="NELMHF">     1</i>
   <i type="int" name="DIM">     3</i>
   <i type="int" name="ANTIRES">     0</i>
   <i name="OMEGAMAX">    -30.00000000</i>
   <i name="OMEGAMIN">    -30.00000000</i>
   <i name="OMEGATL">   -200.00000000</i>
   <i type="int" name="OMEGAGRID">     0</i>
   <i name="CSHIFT">     -0.10000000</i>
   <i type="logical" name="SELFENERGY"> F  </i>
   <i type="logical" name="LSPECTRAL"> F  </i>
   <i type="logical" name="LSPECTRALGW"> F  </i>
   <i type="logical" name="LSINGLES"> F  </i>
   <i type="logical" name="LFERMIGW"> F  </i>
   <i type="logical" name="ODDONLYGW"> F  </i>
   <i type="logical" name="EVENONLYGW"> F  </i>
   <i type="int" name="NKREDLFX">     1</i>
   <i type="int" name="NKREDLFY">     1</i>
   <i type="int" name="NKREDLFZ">     1</i>
   <i type="int" name="MAXMEM">  1800</i>
   <i type="int" name="TELESCOPE">     0</i>
   <i type="int" name="TAUPAR">     1</i>
   <i type="int" name="OMEGAPAR">    -1</i>
   <i name="LAMBDA">      1.00000000</i>
  </separator>
  <separator name="External order field" >
   <i name="OFIELD_KAPPA">      0.00000000</i>
   <v name="OFIELD_K">      0.00000000      0.00000000      0.00000000</v>
   <i name="OFIELD_Q6_NEAR">      0.00000000</i>
   <i name="OFIELD_Q6_FAR">      0.00000000</i>
   <i name="OFIELD_A">      0.00000000</i>
  </separator>
 </parameters>
 <atominfo>
  <atoms>     156 </atoms>
  <types>       4 </types>
  <array name="atoms" >
   <dimension dim="1">ion</dimension>
   <field type="string">element</field>
   <field type="int">atomtype</field>
   <set>
    <rc><c>Sr</c><c>   1</c></rc>
    <rc><c>Sr</c><c>   1</c></rc>
    <rc><c>Sr</c><c>   1</c></rc>
    <rc><c>Sr</c><c>   1</c></rc>
    <rc><c>Sr</c><c>   1</c></rc>
    <rc><c>Sr</c><c>   1</c></rc>
    <rc><c>Sr</c><c>   1</c></rc>
    <rc><c>Sr</c><c>   1</c></rc>
    <rc><c>Sr</c><c>   1</c></rc>
    <rc><c>Sr</c><c>   1</c></rc>
    <rc><c>Sr</c><c>   1</c></rc>
    <rc><c>Sr</c><c>   1</c></rc>
    <rc><c>Sr</c><c>   1</c></rc>
    <rc><c>Sr</c><c>   1</c></rc>
    <rc><c>Sr</c><c>   1</c></rc>
    <rc><c>Sr</c><c>   1</c></rc>
    <rc><c>Sr</c><c>   1</c></rc>
    <rc><c>Sr</c><c>   1</c></rc>
    <rc><c>Sr</c><c>   1</c></rc>
    <rc><c>Sr</c><c>   1</c></rc>
    <rc><c>Sr</c><c>   1</c></rc>
    <rc><c>Sr</c><c>   1</c></rc>
    <rc><c>Sr</c><c>   1</c></rc>
    <rc><c>Sr</c><c>   1</c></rc>
    <rc><c>Sr</c><c>   1</c></rc>
    <rc><c>Sr</c><c>   1</c></rc>
    <rc><c>Sr</c><c>   1</c></rc>
    <rc><c>Sr</c><c>   1</c></rc>
    <rc><c>Sr</c><c>   1</c></rc>
    <rc><c>Sr</c><c>   1</c></rc>
    <rc><c>Sr</c><c>   1</c></rc>
    <rc><c>Sr</c><c>   1</c></rc>
    <rc><c>Ti</c><c>   2</c></rc>
    <rc><c>Ti</c><c>   2</c></rc>
    <rc><c>Ti</c><c>   2</c></rc>
    <rc><c>Ti</c><c>   2</c></rc>
    <rc><c>Ti</c><c>   2</c></rc>
    <rc><c>Ti</c><c>   2</c></rc>
    <rc><c>Ti</c><c>   2</c></rc>
    <rc><c>Ti</c><c>   2</c></rc>
    <rc><c>Ti</c><c>   2</c></rc>
    <rc><c>Ti</c><c>   2</c></rc>
    <rc><c>Ti</c><c>   2</c></rc>
    <rc><c>Ti</c><c>   2</c></rc>
    <rc><c>Ti</c><c>   2</c></rc>
    <rc><c>Ti</c><c>   2</c></rc>
    <rc><c>Ti</c><c>   2</c></rc>
    <rc><c>Ti</c><c>   2</c></rc>
    <rc><c>Ti</c><c>   2</c></rc>
    <rc><c>Ti</c><c>   2</c></rc>
    <rc><c>Ti</c><c>   2</c></rc>
    <rc><c>Ti</c><c>   2</c></rc>
    <rc><c>Ti</c><c>   2</c></rc>
    <rc><c>Ti</c><c>   2</c></rc>
    <rc><c>Ti</c><c>   2</c></rc>
    <rc><c>Ti</c><c>   2</c></rc>
    <rc><c>Fe</c><c>   3</c></rc>
    <rc><c>Fe</c><c>   3</c></rc>
    <rc><c>Fe</c><c>   3</c></rc>
    <rc><c>Fe</c><c>   3</c></rc>
    <rc><c>Fe</c><c>   3</c></rc>
    <rc><c>Fe</c><c>   3</c></rc>
    <rc><c>Fe</c><c>   3</c></rc>
    <rc><c>Fe</c><c>   3</c></rc>
    <rc><c>O </c><c>   4</c></rc>
    <rc><c>O </c><c>   4</c></rc>
    <rc><c>O </c><c>   4</c></rc>
    <rc><c>O </c><c>   4</c></rc>
    <rc><c>O </c><c>   4</c></rc>
    <rc><c>O </c><c>   4</c></rc>
    <rc><c>O </c><c>   4</c></rc>
    <rc><c>O </c><c>   4</c></rc>
    <rc><c>O </c><c>   4</c></rc>
    <rc><c>O </c><c>   4</c></rc>
    <rc><c>O </c><c>   4</c></rc>
    <rc><c>O </c><c>   4</c></rc>
    <rc><c>O </c><c>   4</c></rc>
    <rc><c>O </c><c>   4</c></rc>
    <rc><c>O </c><c>   4</c></rc>
    <rc><c>O </c><c>   4</c></rc>
    <rc><c>O </c><c>   4</c></rc>
    <rc><c>O </c><c>   4</c></rc>
    <rc><c>O </c><c>   4</c></rc>
    <rc><c>O </c><c>   4</c></rc>
    <rc><c>O </c><c>   4</c></rc>
    <rc><c>O </c><c>   4</c></rc>
    <rc><c>O </c><c>   4</c></rc>
    <rc><c>O </c><c>   4</c></rc>
    <rc><c>O </c><c>   4</c></rc>
    <rc><c>O </c><c>   4</c></rc>
    <rc><c>O </c><c>   4</c></rc>
    <rc><c>O </c><c>   4</c></rc>
    <rc><c>O </c><c>   4</c></rc>
    <rc><c>O </c><c>   4</c></rc>
    <rc><c>O </c><c>   4</c></rc>
    <rc><c>O </c><c>   4</c></rc>
    <rc><c>O </c><c>   4</c></rc>
    <rc><c>O </c><c>   4</c></rc>
    <rc><c>O </c><c>   4</c></rc>
    <rc><c>O </c><c>   4</c></rc>
    <rc><c>O </c><c>   4</c></rc>
    <rc><c>O </c><c>   4</c></rc>
    <rc><c>O </c><c>   4</c></rc>
    <rc><c>O </c><c>   4</c></rc>
    <rc><c>O </c><c>   4</c></rc>
    <rc><c>O </c><c>   4</c></rc>
    <rc><c>O </c><c>   4</c></rc>
    <rc><c>O </c><c>   4</c></rc>
    <rc><c>O </c><c>   4</c></rc>
    <rc><c>O </c><c>   4</c></rc>
    <rc><c>O </c><c>   4</c></rc>
    <rc><c>O </c><c>   4</c></rc>
    <rc><c>O </c><c>   4</c></rc>
    <rc><c>O </c><c>   4</c></rc>
    <rc><c>O </c><c>   4</c></rc>
    <rc><c>O </c><c>   4</c></rc>
    <rc><c>O </c><c>   4</c></rc>
    <rc><c>O </c><c>   4</c></rc>
    <rc><c>O </c><c>   4</c></rc>
    <rc><c>O </c><c>   4</c></rc>
    <rc><c>O </c><c>   4</c></rc>
    <rc><c>O </c><c>   4</c></rc>
    <rc><c>O </c><c>   4</c></rc>
    <rc><c>O </c><c>   4</c></rc>
    <rc><c>O </c><c>   4</c></rc>
    <rc><c>O </c><c>   4</c></rc>
    <rc><c>O </c><c>   4</c></rc>
    <rc><c>O </c><c>   4</c></rc>
    <rc><c>O </c><c>   4</c></rc>
    <rc><c>O </c><c>   4</c></rc>
    <rc><c>O </c><c>   4</c></rc>
    <rc><c>O </c><c>   4</c></rc>
    <rc><c>O </c><c>   4</c></rc>
    <rc><c>O </c><c>   4</c></rc>
    <rc><c>O </c><c>   4</c></rc>
    <rc><c>O </c><c>   4</c></rc>
    <rc><c>O </c><c>   4</c></rc>
    <rc><c>O </c><c>   4</c></rc>
    <rc><c>O </c><c>   4</c></rc>
    <rc><c>O </c><c>   4</c></rc>
    <rc><c>O </c><c>   4</c></rc>
    <rc><c>O </c><c>   4</c></rc>
    <rc><c>O </c><c>   4</c></rc>
    <rc><c>O </c><c>   4</c></rc>
    <rc><c>O </c><c>   4</c></rc>
    <rc><c>O </c><c>   4</c></rc>
    <rc><c>O </c><c>   4</c></rc>
    <rc><c>O </c><c>   4</c></rc>
    <rc><c>O </c><c>   4</c></rc>
    <rc><c>O </c><c>   4</c></rc>
    <rc><c>O </c><c>   4</c></rc>
    <rc><c>O </c><c>   4</c></rc>
    <rc><c>O </c><c>   4</c></rc>
    <rc><c>O </c><c>   4</c></rc>
    <rc><c>O </c><c>   4</c></rc>
    <rc><c>O </c><c>   4</c></rc>
   </set>
  </array>
  <array name="atomtypes" >
   <dimension dim="1">type</dimension>
   <field type="int">atomspertype</field>
   <field type="string">element</field>
   <field>mass</field>
   <field>valence</field>
   <field type="string">pseudopotential</field>
   <set>
    <rc><c>  32</c><c>Sr</c><c>     87.62000000</c><c>     10.00000000</c><c>  PAW_PBE Sr_sv 07Sep2000               </c></rc>
    <rc><c>  24</c><c>Ti</c><c>     47.88000000</c><c>      4.00000000</c><c>  PAW_PBE Ti 08Apr2002                  </c></rc>
    <rc><c>   8</c><c>Fe</c><c>     55.84700000</c><c>      8.00000000</c><c>  PAW_PBE Fe 06Sep2000                  </c></rc>
    <rc><c>  92</c><c>O </c><c>     16.00000000</c><c>      6.00000000</c><c>  PAW_PBE O 08Apr2002                   </c></rc>
   </set>
  </array>
 </atominfo>
 <structure name="initialpos" >
  <crystal>
   <varray name="basis" >
    <v>      11.24736214       0.00175949       0.00027853 </v>
    <v>       0.00178798      11.23531964       0.00190585 </v>
    <v>       0.00041258       0.00269050      15.85197904 </v>
   </varray>
   <i name="volume">   2003.17815969 </i>
   <varray name="rec_basis" >
    <v>       0.08890974      -0.00001415      -0.00000231 </v>
    <v>      -0.00001392       0.08900504      -0.00001511 </v>
    <v>      -0.00000156      -0.00001070       0.06308361 </v>
   </varray>
  </crystal>
  <varray name="positions" >
   <v>       0.99866874       0.24460711       0.12540874 </v>
   <v>       0.00015122       0.25105519       0.62534023 </v>
   <v>       0.01059983       0.75719932       0.12821824 </v>
   <v>       0.00258564       0.74948218       0.62302516 </v>
   <v>       0.50520615       0.24596809       0.12654687 </v>
   <v>       0.49881558       0.24726902       0.62487045 </v>
   <v>       0.48888801       0.75130319       0.11760671 </v>
   <v>       0.49501444       0.75262807       0.62703156 </v>
   <v>       0.00015218       0.25166084       0.37615265 </v>
   <v>       0.99908199       0.24313482       0.87190702 </v>
   <v>       0.01382288       0.75226440       0.37817711 </v>
   <v>       0.99921824       0.75215744       0.87171232 </v>
   <v>       0.50178016       0.24838607       0.37670832 </v>
   <v>       0.50136016       0.24582739       0.87251211 </v>
   <v>       0.48808249       0.75292662       0.38261573 </v>
   <v>       0.49960288       0.74950959       0.87218321 </v>
   <v>       0.24550661       0.00310819       0.12297743 </v>
   <v>       0.25303204       0.99788592       0.62559381 </v>
   <v>       0.26109861       0.49957370       0.13258328 </v>
   <v>       0.25192693       0.50303673       0.62212295 </v>
   <v>       0.75036058       0.00497737       0.12421803 </v>
   <v>       0.74677451       0.99925540       0.62540585 </v>
   <v>       0.74024624       0.49342161       0.12215430 </v>
   <v>       0.74995150       0.50002403       0.62635048 </v>
   <v>       0.24907021       0.99926406       0.37772254 </v>
   <v>       0.25125154       0.00035497       0.87281789 </v>
   <v>       0.25066224       0.50577008       0.37776290 </v>
   <v>       0.25926843       0.49869571       0.86819716 </v>
   <v>       0.74990037       0.00686959       0.37825831 </v>
   <v>       0.74737698       0.99818945       0.87321048 </v>
   <v>       0.75138981       0.49809181       0.37800602 </v>
   <v>       0.73953227       0.49743342       0.87265418 </v>
   <v>       0.74979954       0.25073188       0.24996864 </v>
   <v>       0.74844986       0.24820873       0.74999003 </v>
   <v>       0.74818722       0.74924961       0.49881862 </v>
   <v>       0.50328315       0.99994863       0.00005677 </v>
   <v>       0.49889897       0.99859121       0.50028053 </v>
   <v>       0.24986901       0.75082031       0.75064800 </v>
   <v>       0.99971532       0.50153932       0.49910228 </v>
   <v>       0.25036052       0.24997161       0.49955917 </v>
   <v>       0.50016100       0.49888213       0.74823527 </v>
   <v>       0.25026313       0.24950969       0.75123690 </v>
   <v>       0.74772270       0.24756079       0.99912944 </v>
   <v>       0.75081764       0.25100768       0.50072841 </v>
   <v>       0.24640111       0.24994867       0.24870125 </v>
   <v>       0.74474145       0.75270250       0.00178913 </v>
   <v>       0.50025030       0.50143964       0.49822556 </v>
   <v>       0.25553774       0.75018721       0.24975537 </v>
   <v>       0.00591710       0.49703110       0.24807578 </v>
   <v>       0.49488961       0.50002750       0.00099581 </v>
   <v>       0.00033955       0.99947419       0.99973657 </v>
   <v>       0.00243282       0.00279978       0.25083958 </v>
   <v>       0.99888801       0.99909800       0.74925246 </v>
   <v>       0.75022094       0.75039529       0.75012140 </v>
   <v>       0.00180531       0.50062906       0.75099834 </v>
   <v>       0.00076785       0.99937164       0.50019231 </v>
   <v>       0.25808005       0.76373256       0.99854188 </v>
   <v>       0.77687905       0.74368321       0.24871861 </v>
   <v>       0.97385663       0.50615647       0.00174806 </v>
   <v>       0.48630209       0.00874996       0.24927008 </v>
   <v>       0.49191801       0.48543630       0.25129256 </v>
   <v>       0.26340516       0.24164430       0.00070414 </v>
   <v>       0.49915296       0.00005574       0.75060220 </v>
   <v>       0.24960731       0.75126574       0.50182063 </v>
   <v>       0.64048399       0.61030974       0.50251834 </v>
   <v>       0.10944262       0.13889627       0.74929017 </v>
   <v>       0.25024214       0.75242496       0.62711329 </v>
   <v>       0.10984469       0.63841523       0.74761291 </v>
   <v>       0.61573474       0.13489560       0.25208733 </v>
   <v>       0.74608574       0.24972992       0.87540362 </v>
   <v>       0.10613995       0.85749355       0.99964211 </v>
   <v>       0.61419364       0.63647164       0.74945817 </v>
   <v>       0.38266642       0.63635608       0.99794859 </v>
   <v>       0.38838959       0.36215660       0.75254023 </v>
   <v>       0.39731509       0.85533685       0.24635513 </v>
   <v>       0.38495147       0.86076611       0.75539597 </v>
   <v>       0.89590118       0.35869818       0.24228770 </v>
   <v>       0.89116084       0.36325536       0.75795039 </v>
   <v>       0.89165472       0.86316401       0.25103979 </v>
   <v>       0.88909061       0.85972071       0.74982721 </v>
   <v>       0.35205008       0.10934370       0.24511661 </v>
   <v>       0.23897150       0.26021921       0.87788680 </v>
   <v>       0.36930731       0.61352812       0.25148017 </v>
   <v>       0.36369263       0.61192962       0.74904479 </v>
   <v>       0.14456576       0.39282848       0.25483884 </v>
   <v>       0.86179246       0.11195345       0.75145439 </v>
   <v>       0.86205694       0.60065764       0.23749974 </v>
   <v>       0.86414078       0.60929586       0.76128787 </v>
   <v>       0.64024692       0.11223312       0.50016959 </v>
   <v>       0.13832472       0.39036125       0.74444062 </v>
   <v>       0.14294992       0.89152838       0.24757961 </v>
   <v>       0.13711096       0.89007794       0.75199448 </v>
   <v>       0.13362355       0.61162826       0.49980211 </v>
   <v>       0.63916220       0.38817043       0.74916747 </v>
   <v>       0.10999944       0.86431351       0.50109576 </v>
   <v>       0.63993548       0.88389578       0.74841312 </v>
   <v>       0.35198196       0.39521705       0.00312604 </v>
   <v>       0.36270099       0.38785795       0.49527331 </v>
   <v>       0.36043471       0.89619341       0.00276381 </v>
   <v>       0.36381274       0.88897224       0.49765644 </v>
   <v>       0.85834959       0.38732422       0.99965129 </v>
   <v>       0.86100277       0.39004504       0.49978569 </v>
   <v>       0.60665823       0.85729442       0.99610663 </v>
   <v>       0.85885396       0.88682725       0.49184726 </v>
   <v>       0.13377068       0.11698857       0.99747750 </v>
   <v>       0.13834527       0.11206863       0.50272078 </v>
   <v>       0.88571751       0.64030562       0.48823797 </v>
   <v>       0.35843285       0.11472675       0.75454683 </v>
   <v>       0.64289181       0.10793655       0.00010500 </v>
   <v>       0.63929226       0.61062565       0.99916124 </v>
   <v>       0.64445653       0.39439646       0.25045382 </v>
   <v>       0.11100071       0.36296945       0.50141292 </v>
   <v>       0.39004931       0.35250982       0.24778964 </v>
   <v>       0.61382380       0.13949087       0.74766299 </v>
   <v>       0.61164213       0.35973798       0.49917028 </v>
   <v>       0.76104385       0.74377981       0.62382352 </v>
   <v>       0.61312679       0.85995466       0.50497264 </v>
   <v>       0.39661618       0.14052259       0.00566553 </v>
   <v>       0.38976979       0.13814184       0.49512547 </v>
   <v>       0.10644207       0.14331960       0.25010528 </v>
   <v>       0.38807240       0.63513329       0.50178819 </v>
   <v>       0.88816883       0.14018586       0.00061736 </v>
   <v>       0.88855617       0.13847974       0.49863867 </v>
   <v>       0.88900049       0.64933075       0.01286637 </v>
   <v>       0.50999621       0.50849814       0.37289480 </v>
   <v>       0.00317098       0.00192978       0.12520668 </v>
   <v>       0.99345007       0.99777014       0.62485196 </v>
   <v>       0.98939680       0.50481412       0.62560710 </v>
   <v>       0.11138526       0.63836163       0.25082325 </v>
   <v>       0.51636170       0.99268844       0.12783516 </v>
   <v>       0.49571805       0.00136038       0.62405351 </v>
   <v>       0.50819109       0.50986419       0.12779891 </v>
   <v>       0.49965261       0.49605135       0.62472010 </v>
   <v>       0.99391628       0.99781599       0.87537583 </v>
   <v>       0.71691401       0.74695402       0.36001143 </v>
   <v>       0.03216912       0.50164362       0.89013629 </v>
   <v>       0.51112047       0.99080282       0.37161320 </v>
   <v>       0.50170510       0.00308999       0.87707211 </v>
   <v>       0.03774051       0.49103364       0.11112012 </v>
   <v>       0.50191536       0.49909243       0.87511298 </v>
   <v>       0.24737871       0.24683993       0.37454321 </v>
   <v>       0.60654510       0.35872990       0.00133512 </v>
   <v>       0.24851575       0.75092671       0.37334199 </v>
   <v>       0.23886942       0.73926498       0.87772032 </v>
   <v>       0.75537836       0.25289616       0.37433690 </v>
   <v>       0.99739107       0.49667355       0.37180838 </v>
   <v>       0.85436919       0.89113563       0.00745376 </v>
   <v>       0.75244542       0.75139161       0.87808608 </v>
   <v>       0.23365334       0.25795212       0.12264680 </v>
   <v>       0.25534224       0.24999302       0.62430006 </v>
   <v>       0.24122571       0.73839822       0.12147119 </v>
   <v>       0.00447736       0.00194712       0.37463667 </v>
   <v>       0.74651142       0.24918820       0.12467387 </v>
   <v>       0.75656599       0.25343537       0.62547162 </v>
   <v>       0.71259227       0.75767616       0.13932145 </v>
   <v>       0.86139200       0.11020715       0.24913589 </v>
  </varray>
 </structure>
 <calculation>
  <scstep>
   <time name="dav">  294.23  294.22</time>
   <time name="total">  297.94  297.96</time>
   <energy>
    <i name="alphaZ">   5633.72572893 </i>
    <i name="ewald"> -61569.15076583 </i>
    <i name="hartreedc"> -15973.26154890 </i>
    <i name="XCdc">   2963.80643062 </i>
    <i name="pawpsdc"> 113005.63324625 </i>
    <i name="pawaedc">-111905.92527001 </i>
    <i name="eentropy">     -0.00000000 </i>
    <i name="bandstr">  -7059.78194486 </i>
    <i name="atom">  73783.44779670 </i>
    <i name="e_fr_energy">  -1121.50632710 </i>
    <i name="e_wo_entrp">  -1121.50632710 </i>
    <i name="e_0_energy">  -1121.50632710 </i>
   </energy>
  </scstep>
  <scstep>
   <time name="diag">   33.15   33.15</time>
   <time name="diis">   31.33   31.34</time>
   <time name="orth">   18.86   18.85</time>
   <time name="total">   87.09   87.13</time>
   <energy>
    <i name="e_fr_energy">  -1121.50632819 </i>
    <i name="e_wo_entrp">  -1121.50632819 </i>
    <i name="e_0_energy">  -1121.50632819 </i>
   </energy>
  </scstep>
  <scstep>
   <time name="diag">   33.20   33.20</time>
   <time name="diis">   30.42   30.43</time>
   <time name="orth">   18.86   18.85</time>
   <time name="total">   86.24   86.33</time>
   <energy>
    <i name="e_fr_energy">  -1121.50632845 </i>
    <i name="e_wo_entrp">  -1121.50632845 </i>
    <i name="e_0_energy">  -1121.50632845 </i>
   </energy>
  </scstep>
  <scstep>
   <time name="diag">   33.15   33.17</time>
   <time name="diis">   26.61   26.63</time>
   <time name="orth">   18.88   18.89</time>
   <time name="total">   82.38   82.46</time>
   <energy>
    <i name="e_fr_energy">  -1121.50632910 </i>
    <i name="e_wo_entrp">  -1121.50632910 </i>
    <i name="e_0_energy">  -1121.50632910 </i>
   </energy>
  </scstep>
  <scstep>
   <time name="diag">   33.17   33.17</time>
   <time name="diis">   26.89   26.89</time>
   <time name="orth">   18.84   18.83</time>
   <time name="total">   82.67   82.69</time>
   <energy>
    <i name="e_fr_energy">  -1121.50632943 </i>
    <i name="e_wo_entrp">  -1121.50632943 </i>
    <i name="e_0_energy">  -1121.50632943 </i>
   </energy>
  </scstep>
  <scstep>
   <time name="diag">   33.19   33.21</time>
   <time name="diis">   25.33   25.35</time>
   <time name="orth">   18.84   18.86</time>
   <time name="total">   81.11   81.22</time>
   <energy>
    <i name="e_fr_energy">  -1121.50632944 </i>
    <i name="e_wo_entrp">  -1121.50632944 </i>
    <i name="e_0_energy">  -1121.50632944 </i>
   </energy>
  </scstep>
  <scstep>
   <time name="diag">   33.13   33.13</time>
   <time name="diis">   23.85   23.88</time>
   <time name="orth">   18.83   18.82</time>
   <time name="total">   79.54   79.65</time>
   <energy>
    <i name="e_fr_energy">  -1121.50632946 </i>
    <i name="e_wo_entrp">  -1121.50632946 </i>
    <i name="e_0_energy">  -1121.50632946 </i>
   </energy>
  </scstep>
  <scstep>
   <time name="diag">   33.13   33.16</time>
   <time name="diis">   22.80   22.81</time>
   <time name="orth">   18.85   18.85</time>
   <time name="total">   75.36   75.44</time>
   <energy>
    <i name="alphaZ">   5633.72572893 </i>
    <i name="ewald"> -61569.15076583 </i>
    <i name="hartreedc"> -15973.22629274 </i>
    <i name="XCdc">   2963.80236902 </i>
    <i name="pawpsdc"> 113002.22580854 </i>
    <i name="pawaedc">-111902.52314907 </i>
    <i name="eentropy">     -0.00000000 </i>
    <i name="bandstr">  -7059.80782504 </i>
    <i name="atom">  73783.44779670 </i>
    <i name="e_fr_energy">  -1121.50632949 </i>
    <i name="e_wo_entrp">  -1121.50632949 </i>
    <i name="e_0_energy">  -1121.50632949 </i>
   </energy>
  </scstep>
  <structure>
   <crystal>
    <varray name="basis" >
     <v>      11.24736214       0.00175949       0.00027853 </v>
     <v>       0.00178798      11.23531964       0.00190585 </v>
     <v>       0.00041258       0.00269050      15.85197904 </v>
    </varray>
    <i name="volume">   2003.17815969 </i>
    <varray name="rec_basis" >
     <v>       0.08890974      -0.00001415      -0.00000231 </v>
     <v>      -0.00001392       0.08900504      -0.00001511 </v>
     <v>      -0.00000156      -0.00001070       0.06308361 </v>
    </varray>
   </crystal>
   <varray name="positions" >
    <v>       0.99866874       0.24460711       0.12540874 </v>
    <v>       0.00015122       0.25105519       0.62534023 </v>
    <v>       0.01059983       0.75719932       0.12821824 </v>
    <v>       0.00258564       0.74948218       0.62302516 </v>
    <v>       0.50520615       0.24596809       0.12654687 </v>
    <v>       0.49881558       0.24726902       0.62487045 </v>
    <v>       0.48888801       0.75130319       0.11760671 </v>
    <v>       0.49501444       0.75262807       0.62703156 </v>
    <v>       0.00015218       0.25166084       0.37615265 </v>
    <v>       0.99908199       0.24313482       0.87190702 </v>
    <v>       0.01382288       0.75226440       0.37817711 </v>
    <v>       0.99921824       0.75215744       0.87171232 </v>
    <v>       0.50178016       0.24838607       0.37670832 </v>
    <v>       0.50136016       0.24582739       0.87251211 </v>
    <v>       0.48808249       0.75292662       0.38261573 </v>
    <v>       0.49960288       0.74950959       0.87218321 </v>
    <v>       0.24550661       0.00310819       0.12297743 </v>
    <v>       0.25303204       0.99788592       0.62559381 </v>
    <v>       0.26109861       0.49957370       0.13258328 </v>
    <v>       0.25192693       0.50303673       0.62212295 </v>
    <v>       0.75036058       0.00497737       0.12421803 </v>
    <v>       0.74677451       0.99925540       0.62540585 </v>
    <v>       0.74024624       0.49342161       0.12215430 </v>
    <v>       0.74995150       0.50002403       0.62635048 </v>
    <v>       0.24907021       0.99926406       0.37772254 </v>
    <v>       0.25125154       0.00035497       0.87281789 </v>
    <v>       0.25066224       0.50577008       0.37776290 </v>
    <v>       0.25926843       0.49869571       0.86819716 </v>
    <v>       0.74990037       0.00686959       0.37825831 </v>
    <v>       0.74737698       0.99818945       0.87321048 </v>
    <v>       0.75138981       0.49809181       0.37800602 </v>
    <v>       0.73953227       0.49743342       0.87265418 </v>
    <v>       0.74979954       0.25073188       0.24996864 </v>
    <v>       0.74844986       0.24820873       0.74999003 </v>
    <v>       0.74818722       0.74924961       0.49881862 </v>
    <v>       0.50328315       0.99994863       0.00005677 </v>
    <v>       0.49889897       0.99859121       0.50028053 </v>
    <v>       0.24986901       0.75082031       0.75064800 </v>
    <v>       0.99971532       0.50153932       0.49910228 </v>
    <v>       0.25036052       0.24997161       0.49955917 </v>
    <v>       0.50016100       0.49888213       0.74823527 </v>
    <v>       0.25026313       0.24950969       0.75123690 </v>
    <v>       0.74772270       0.24756079       0.99912944 </v>
    <v>       0.75081764       0.25100768       0.50072841 </v>
    <v>       0.24640111       0.24994867       0.24870125 </v>
    <v>       0.74474145       0.75270250       0.00178913 </v>
    <v>       0.50025030       0.50143964       0.49822556 </v>
    <v>       0.25553774       0.75018721       0.24975537 </v>
    <v>       0.00591710       0.49703110       0.24807578 </v>
    <v>       0.49488961       0.50002750       0.00099581 </v>
    <v>       0.00033955       0.99947419       0.99973657 </v>
    <v>       0.00243282       0.00279978       0.25083958 </v>
    <v>       0.99888801       0.99909800       0.74925246 </v>
    <v>       0.75022094       0.75039529       0.75012140 </v>
    <v>       0.00180531       0.50062906       0.75099834 </v>
    <v>       0.00076785       0.99937164       0.50019231 </v>
    <v>       0.25808005       0.76373256       0.99854188 </v>
    <v>       0.77687905       0.74368321       0.24871861 </v>
    <v>       0.97385663       0.50615647       0.00174806 </v>
    <v>       0.48630209       0.00874996       0.24927008 </v>
    <v>       0.49191801       0.48543630       0.25129256 </v>
    <v>       0.26340516       0.24164430       0.00070414 </v>
    <v>       0.49915296       0.00005574       0.75060220 </v>
    <v>       0.24960731       0.75126574       0.50182063 </v>
    <v>       0.64048399       0.61030974       0.50251834 </v>
    <v>       0.10944262       0.13889627       0.74929017 </v>
    <v>       0.25024214       0.75242496       0.62711329 </v>
    <v>       0.10984469       0.63841523       0.74761291 </v>
    <v>       0.61573474       0.13489560       0.25208733 </v>
    <v>       0.74608574       0.24972992       0.87540362 </v>
    <v>       0.10613995       0.85749355       0.99964211 </v>
    <v>       0.61419364       0.63647164       0.74945817 </v>
    <v>       0.38266642       0.63635608       0.99794859 </v>
    <v>       0.38838959       0.36215660       0.75254023 </v>
    <v>       0.39731509       0.85533685       0.24635513 </v>
    <v>       0.38495147       0.86076611       0.75539597 </v>
    <v>       0.89590118       0.35869818       0.24228770 </v>
    <v>       0.89116084       0.36325536       0.75795039 </v>
    <v>       0.89165472       0.86316401       0.25103979 </v>
    <v>       0.88909061       0.85972071       0.74982721 </v>
    <v>       0.35205008       0.10934370       0.24511661 </v>
    <v>       0.23897150       0.26021921       0.87788680 </v>
    <v>       0.36930731       0.61352812       0.25148017 </v>
    <v>       0.36369263       0.61192962       0.74904479 </v>
    <v>       0.14456576       0.39282848       0.25483884 </v>
    <v>       0.86179246       0.11195345       0.75145439 </v>
    <v>       0.86205694       0.60065764       0.23749974 </v>
    <v>       0.86414078       0.60929586       0.76128787 </v>
    <v>       0.64024692       0.11223312       0.50016959 </v>
    <v>       0.13832472       0.39036125       0.74444062 </v>
    <v>       0.14294992       0.89152838       0.24757961 </v>
    <v>       0.13711096       0.89007794       0.75199448 </v>
    <v>       0.13362355       0.61162826       0.49980211 </v>
    <v>       0.63916220       0.38817043       0.74916747 </v>
    <v>       0.10999944       0.86431351       0.50109576 </v>
    <v>       0.63993548       0.88389578       0.74841312 </v>
    <v>       0.35198196       0.39521705       0.00312604 </v>
    <v>       0.36270099       0.38785795       0.49527331 </v>
    <v>       0.36043471       0.89619341       0.00276381 </v>
    <v>       0.36381274       0.88897224       0.49765644 </v>
    <v>       0.85834959       0.38732422       0.99965129 </v>
    <v>       0.86100277       0.39004504       0.49978569 </v>
    <v>       0.60665823       0.85729442       0.99610663 </v>
    <v>       0.85885396       0.88682725       0.49184726 </v>
    <v>       0.13377068       0.11698857       0.99747750 </v>
    <v>       0.13834527       0.11206863       0.50272078 </v>
    <v>       0.88571751       0.64030562       0.48823797 </v>
    <v>       0.35843285       0.11472675       0.75454683 </v>
    <v>       0.64289181       0.10793655       0.00010500 </v>
    <v>       0.63929226       0.61062565       0.99916124 </v>
    <v>       0.64445653       0.39439646       0.25045382 </v>
    <v>       0.11100071       0.36296945       0.50141292 </v>
    <v>       0.39004931       0.35250982       0.24778964 </v>
    <v>       0.61382380       0.13949087       0.74766299 </v>
    <v>       0.61164213       0.35973798       0.49917028 </v>
    <v>       0.76104385       0.74377981       0.62382352 </v>
    <v>       0.61312679       0.85995466       0.50497264 </v>
    <v>       0.39661618       0.14052259       0.00566553 </v>
    <v>       0.38976979       0.13814184       0.49512547 </v>
    <v>       0.10644207       0.14331960       0.25010528 </v>
    <v>       0.38807240       0.63513329       0.50178819 </v>
    <v>       0.88816883       0.14018586       0.00061736 </v>
    <v>       0.88855617       0.13847974       0.49863867 </v>
    <v>       0.88900049       0.64933075       0.01286637 </v>
    <v>       0.50999621       0.50849814       0.37289480 </v>
    <v>       0.00317098       0.00192978       0.12520668 </v>
    <v>       0.99345007       0.99777014       0.62485196 </v>
    <v>       0.98939680       0.50481412       0.62560710 </v>
    <v>       0.11138526       0.63836163       0.25082325 </v>
    <v>       0.51636170       0.99268844       0.12783516 </v>
    <v>       0.49571805       0.00136038       0.62405351 </v>
    <v>       0.50819109       0.50986419       0.12779891 </v>
    <v>       0.49965261       0.49605135       0.62472010 </v>
    <v>       0.99391628       0.99781599       0.87537583 </v>
    <v>       0.71691401       0.74695402       0.36001143 </v>
    <v>       0.03216912       0.50164362       0.89013629 </v>
    <v>       0.51112047       0.99080282       0.37161320 </v>
    <v>       0.50170510       0.00308999       0.87707211 </v>
    <v>       0.03774051       0.49103364       0.11112012 </v>
    <v>       0.50191536       0.49909243       0.87511298 </v>
    <v>       0.24737871       0.24683993       0.37454321 </v>
    <v>       0.60654510       0.35872990       0.00133512 </v>
    <v>       0.24851575       0.75092671       0.37334199 </v>
    <v>       0.23886942       0.73926498       0.87772032 </v>
    <v>       0.75537836       0.25289616       0.37433690 </v>
    <v>       0.99739107       0.49667355       0.37180838 </v>
    <v>       0.85436919       0.89113563       0.00745376 </v>
    <v>       0.75244542       0.75139161       0.87808608 </v>
    <v>       0.23365334       0.25795212       0.12264680 </v>
    <v>       0.25534224       0.24999302       0.62430006 </v>
    <v>       0.24122571       0.73839822       0.12147119 </v>
    <v>       0.00447736       0.00194712       0.37463667 </v>
    <v>       0.74651142       0.24918820       0.12467387 </v>
    <v>       0.75656599       0.25343537       0.62547162 </v>
    <v>       0.71259227       0.75767616       0.13932145 </v>
    <v>       0.86139200       0.11020715       0.24913589 </v>
   </varray>
  </structure>
  <varray name="forces" >
   <v>      -0.00545100      -0.00669377       0.00714220 </v>
   <v>       0.00232286       0.01410596      -0.00436384 </v>
   <v>      -0.00104556       0.00166015       0.00972151 </v>
   <v>       0.00069587      -0.00518305       0.00210774 </v>
   <v>      -0.00244577       0.00481551      -0.00148893 </v>
   <v>      -0.00258631      -0.00030957       0.00065592 </v>
   <v>       0.00746395      -0.00657407      -0.00732090 </v>
   <v>       0.00200445       0.00313355       0.00380765 </v>
   <v>       0.00408251       0.00462403      -0.00722768 </v>
   <v>      -0.01271284      -0.00551116      -0.00798206 </v>
   <v>      -0.00422703       0.00132130       0.00527005 </v>
   <v>      -0.00632422      -0.00450449      -0.00709945 </v>
   <v>      -0.00099069       0.00892884       0.01109106 </v>
   <v>      -0.00210602       0.00301692      -0.00859396 </v>
   <v>      -0.00190717      -0.00151527       0.01942297 </v>
   <v>       0.00892175      -0.00947434      -0.00708324 </v>
   <v>       0.00471417       0.00254000      -0.00171440 </v>
   <v>       0.00138815      -0.00669236       0.00799902 </v>
   <v>       0.00054905       0.00139161       0.00930181 </v>
   <v>      -0.01023133       0.00171136      -0.00352354 </v>
   <v>       0.01002389       0.00292838      -0.01165615 </v>
   <v>      -0.01116370      -0.00302229       0.00492711 </v>
   <v>       0.00247678      -0.00016912      -0.01316424 </v>
   <v>       0.00202233       0.00202090       0.00000530 </v>
   <v>      -0.00476025       0.00405263       0.01169264 </v>
   <v>       0.00136048      -0.00299726      -0.01458828 </v>
   <v>       0.00030736      -0.00477209      -0.00071425 </v>
   <v>       0.00245897      -0.00018314      -0.01084170 </v>
   <v>       0.01317502       0.00824915       0.00867914 </v>
   <v>      -0.00592742      -0.01240315       0.00767526 </v>
   <v>       0.00437943      -0.00321517      -0.00074400 </v>
   <v>      -0.00862616       0.00587662      -0.00523459 </v>
   <v>       0.00392975       0.00881724       0.04445078 </v>
   <v>       0.00888090      -0.00642077      -0.02176109 </v>
   <v>       0.00531327       0.01496396       0.00307902 </v>
   <v>       0.01065980      -0.00964246      -0.00956730 </v>
   <v>       0.01552873       0.00768573       0.00060758 </v>
   <v>       0.01115224       0.02753128      -0.01032803 </v>
   <v>      -0.01542760      -0.01126226       0.03343794 </v>
   <v>       0.00582618      -0.00219129       0.00042407 </v>
   <v>       0.00885908       0.01271842       0.02380849 </v>
   <v>       0.00805885      -0.02311998       0.00624692 </v>
   <v>      -0.00307213      -0.01026948       0.00025290 </v>
   <v>      -0.00290945      -0.01306326      -0.00443214 </v>
   <v>      -0.01851435       0.01688979      -0.00052308 </v>
   <v>      -0.01315100      -0.00811580      -0.00506781 </v>
   <v>      -0.01379819      -0.00839610      -0.00473508 </v>
   <v>      -0.01344955      -0.02811664       0.00205389 </v>
   <v>      -0.01032829       0.00144652      -0.01241267 </v>
   <v>       0.01013800       0.00577619       0.00104368 </v>
   <v>      -0.01245872      -0.00210426      -0.00752990 </v>
   <v>      -0.02395346       0.01845898       0.01538956 </v>
   <v>       0.01286509      -0.01294115      -0.00804255 </v>
   <v>      -0.00130865       0.01737753      -0.00596660 </v>
   <v>      -0.00319398      -0.01473601      -0.02147707 </v>
   <v>       0.01203139       0.01743840      -0.01642930 </v>
   <v>       0.00656206      -0.00244244       0.00468849 </v>
   <v>       0.02103004       0.00561667       0.01397857 </v>
   <v>      -0.02353989      -0.00770238      -0.00671156 </v>
   <v>      -0.00828268       0.02076795       0.00811524 </v>
   <v>      -0.00615693      -0.00478583      -0.00857529 </v>
   <v>       0.01046914      -0.01617213      -0.00291732 </v>
   <v>      -0.00039274      -0.00904328      -0.00835706 </v>
   <v>       0.00955036      -0.00049454       0.01734887 </v>
   <v>      -0.01016676       0.01365135       0.00272114 </v>
   <v>       0.00565019      -0.00806474      -0.00469432 </v>
   <v>       0.00878370      -0.00377889       0.00207850 </v>
   <v>       0.00106155      -0.00368022       0.00778306 </v>
   <v>      -0.00259387      -0.00590057      -0.00859389 </v>
   <v>      -0.01251808      -0.01129337       0.02352152 </v>
   <v>       0.00148609       0.00400238       0.00240836 </v>
   <v>       0.00336956      -0.01337630      -0.00787480 </v>
   <v>      -0.01585368      -0.00261624      -0.00269591 </v>
   <v>      -0.00776470       0.00709909       0.00659007 </v>
   <v>       0.00298247      -0.00252043      -0.00211902 </v>
   <v>      -0.01840922      -0.00500201       0.00782129 </v>
   <v>      -0.00687889       0.01169612      -0.00052357 </v>
   <v>       0.00699918       0.01206532       0.00250237 </v>
   <v>       0.00513989       0.02485389       0.00581630 </v>
   <v>      -0.01220008       0.00369285       0.01045363 </v>
   <v>      -0.00448185       0.01556365       0.00947954 </v>
   <v>      -0.01783174       0.00981772       0.00506481 </v>
   <v>       0.01119736       0.00928007       0.00044391 </v>
   <v>      -0.00240596      -0.01407443       0.01217484 </v>
   <v>       0.01766732      -0.01608924      -0.01214457 </v>
   <v>      -0.00278820       0.00167905       0.00795905 </v>
   <v>      -0.00005044       0.00122310       0.00548687 </v>
   <v>       0.00263046       0.00084116      -0.00966566 </v>
   <v>      -0.00850645       0.00249257      -0.00347120 </v>
   <v>      -0.00916289      -0.00758005       0.00228264 </v>
   <v>      -0.00223294      -0.00575782      -0.00195813 </v>
   <v>      -0.00628624      -0.00798060      -0.01275029 </v>
   <v>      -0.00233141       0.01247412       0.00554000 </v>
   <v>      -0.01674311       0.00265891       0.00010439 </v>
   <v>       0.01131605      -0.00952016       0.00114039 </v>
   <v>       0.01256940      -0.01601282      -0.00967912 </v>
   <v>      -0.00500700       0.00075787      -0.00385025 </v>
   <v>       0.01424839       0.00229728      -0.00452637 </v>
   <v>      -0.00597417       0.00573122      -0.00929818 </v>
   <v>       0.01085194      -0.00651804      -0.01283168 </v>
   <v>       0.01031439      -0.00111975      -0.00564545 </v>
   <v>       0.01100790       0.00489365      -0.00799186 </v>
   <v>      -0.01571084       0.00950575       0.00672243 </v>
   <v>      -0.00279973      -0.00871392      -0.00396232 </v>
   <v>       0.00153362       0.00177487       0.00959133 </v>
   <v>       0.00125369       0.00803065       0.01370550 </v>
   <v>       0.00494914      -0.00546124      -0.00010413 </v>
   <v>      -0.00306175       0.02199231       0.00136256 </v>
   <v>       0.00220270       0.01113176       0.00504149 </v>
   <v>       0.00307880       0.00134763       0.00658964 </v>
   <v>       0.00240688      -0.00818174      -0.00298711 </v>
   <v>       0.00273686       0.00291842       0.00433250 </v>
   <v>       0.01461335      -0.00192908       0.01131755 </v>
   <v>       0.00174766       0.00334262       0.00062155 </v>
   <v>       0.00497343       0.00895613       0.01032510 </v>
   <v>       0.00790762      -0.00093711      -0.00592554 </v>
   <v>       0.00912827      -0.00268657      -0.00266849 </v>
   <v>      -0.00190843      -0.01303542      -0.01744304 </v>
   <v>      -0.00628592      -0.01244082      -0.00439537 </v>
   <v>       0.00226118       0.00014658      -0.00947571 </v>
   <v>       0.00476725       0.00074266      -0.01207696 </v>
   <v>      -0.01251872      -0.00618097      -0.00657249 </v>
   <v>       0.00014918      -0.00383329       0.00089881 </v>
   <v>      -0.00023625      -0.00030041      -0.00521617 </v>
   <v>       0.01899019       0.00741835       0.00933080 </v>
   <v>      -0.00348902      -0.01891804       0.00116037 </v>
   <v>      -0.01192674       0.00166859      -0.01116644 </v>
   <v>      -0.00982992       0.00068067      -0.00605199 </v>
   <v>       0.00560422       0.00235100      -0.00604166 </v>
   <v>      -0.00647231      -0.00022499       0.00842947 </v>
   <v>      -0.01718371       0.00583595       0.00258801 </v>
   <v>       0.00423763       0.00583179      -0.00639270 </v>
   <v>      -0.01654874       0.00348911      -0.00800483 </v>
   <v>       0.01638358      -0.00050060       0.00500354 </v>
   <v>      -0.01968869      -0.00496394       0.00708296 </v>
   <v>       0.02320403       0.00084175       0.00247026 </v>
   <v>       0.01925192      -0.00720505      -0.00956885 </v>
   <v>       0.00060447      -0.00232994       0.00498692 </v>
   <v>       0.02686451      -0.00158605       0.00524579 </v>
   <v>       0.00119175      -0.00234364       0.00264973 </v>
   <v>      -0.00361873      -0.00466944      -0.00848309 </v>
   <v>       0.00478835      -0.00277646       0.00251470 </v>
   <v>      -0.00251534       0.01109244      -0.01561969 </v>
   <v>      -0.01549144      -0.00578487       0.00410197 </v>
   <v>      -0.01923815       0.00198299      -0.00565858 </v>
   <v>       0.01221934       0.00977957       0.02217313 </v>
   <v>       0.01751963      -0.00642326      -0.00444322 </v>
   <v>      -0.01499307      -0.00400467      -0.01601208 </v>
   <v>       0.00226956      -0.00156589      -0.00232191 </v>
   <v>       0.00862093       0.00413737       0.01907454 </v>
   <v>      -0.00230577       0.00073299       0.00556828 </v>
   <v>       0.02111828       0.00952786      -0.01191386 </v>
   <v>      -0.00031443       0.00879405      -0.01903805 </v>
   <v>      -0.00206393      -0.01226144       0.00267101 </v>
   <v>      -0.01556760       0.00665486       0.00021437 </v>
   <v>       0.01134430       0.00103920       0.00846124 </v>
  </varray>
  <varray name="stress" >
   <v>      -0.12247230      -0.08458414      -0.04875580 </v>
   <v>      -0.08458446      -0.17278588       0.01125137 </v>
   <v>      -0.04875541       0.01125136      -0.19581500 </v>
  </varray>
  <energy>
   <i name="e_fr_energy">  -1121.50632949 </i>
   <i name="e_wo_entrp">  -1121.50632949 </i>
   <i name="e_0_energy">     -0.00000000 </i>
  </energy>
  <time name="totalsc"> 1025.14 1027.37</time>
 </calculation>
 <calculation>
  <scstep>
   <time name="dav">  291.41  291.43</time>
   <time name="total">  295.10  295.15</time>
   <energy>
    <i name="alphaZ">   5634.79556262 </i>
    <i name="ewald"> -61572.61189456 </i>
    <i name="hartreedc"> -15974.60522905 </i>
    <i name="XCdc">   2964.05254872 </i>
    <i name="pawpsdc"> 113002.21810261 </i>
    <i name="pawaedc">-111902.51566248 </i>
    <i name="eentropy">     -0.00000000 </i>
    <i name="bandstr">  -7056.28779899 </i>
    <i name="atom">  73783.44779670 </i>
    <i name="e_fr_energy">  -1121.50657442 </i>
    <i name="e_wo_entrp">  -1121.50657442 </i>
    <i name="e_0_energy">  -1121.50657442 </i>
   </energy>
  </scstep>
  <scstep>
   <time name="diag">   33.15   33.16</time>
   <time name="diis">   51.59   51.59</time>
   <time name="orth">   18.86   18.85</time>
   <time name="total">  107.31  107.35</time>
   <energy>
    <i name="e_fr_energy">  -1121.50739881 </i>
    <i name="e_wo_entrp">  -1121.50739881 </i>
    <i name="e_0_energy">  -1121.50739881 </i>
   </energy>
  </scstep>
  <scstep>
   <time name="diag">   33.13   33.16</time>
   <time name="diis">   46.65   46.68</time>
   <time name="orth">   18.79   18.80</time>
   <time name="total">  102.29  102.46</time>
   <energy>
    <i name="e_fr_energy">  -1121.50736397 </i>
    <i name="e_wo_entrp">  -1121.50736397 </i>
    <i name="e_0_energy">  -1121.50736397 </i>
   </energy>
  </scstep>
  <scstep>
   <time name="diag">   33.11   33.14</time>
   <time name="diis">   36.03   36.06</time>
   <time name="orth">   18.82   18.83</time>
   <time name="total">   91.67   91.82</time>
   <energy>
    <i name="e_fr_energy">  -1121.50728222 </i>
    <i name="e_wo_entrp">  -1121.50728222 </i>
    <i name="e_0_energy">  -1121.50728222 </i>
   </energy>
  </scstep>
  <scstep>
   <time name="diag">   33.12   33.13</time>
   <time name="diis">   32.01   32.04</time>
   <time name="orth">   18.83   18.84</time>
   <time name="total">   87.66   87.77</time>
   <energy>
    <i name="e_fr_energy">  -1121.50727260 </i>
    <i name="e_wo_entrp">  -1121.50727260 </i>
    <i name="e_0_energy">  -1121.50727260 </i>
   </energy>
  </scstep>
  <scstep>
   <time name="diag">   33.13   33.15</time>
   <time name="diis">   31.54   31.56</time>
   <time name="orth">   18.85   18.85</time>
   <time name="total">   87.22   87.31</time>
   <energy>
    <i name="e_fr_energy">  -1121.50727578 </i>
    <i name="e_wo_entrp">  -1121.50727578 </i>
    <i name="e_0_energy">  -1121.50727578 </i>
   </energy>
  </scstep>
  <scstep>
   <time name="diag">   33.17   33.19</time>
   <time name="diis">   30.85   30.87</time>
   <time name="orth">   18.82   18.82</time>
   <time name="total">   86.56   86.66</time>
   <energy>
    <i name="e_fr_energy">  -1121.50727943 </i>
    <i name="e_wo_entrp">  -1121.50727943 </i>
    <i name="e_0_energy">  -1121.50727943 </i>
   </energy>
  </scstep>
  <scstep>
   <time name="diag">   33.17   33.17</time>
   <time name="diis">   30.12   30.12</time>
   <time name="orth">   18.83   18.83</time>
   <time name="total">   82.71   82.74</time>
   <energy>
    <i name="alphaZ">   5634.79556262 </i>
    <i name="ewald"> -61572.61189456 </i>
    <i name="hartreedc"> -15971.88740216 </i>
    <i name="XCdc">   2963.87274420 </i>
    <i name="pawpsdc"> 113042.65613974 </i>
    <i name="pawaedc">-111942.99584992 </i>
    <i name="eentropy">     -0.00000000 </i>
    <i name="bandstr">  -7058.78437877 </i>
    <i name="atom">  73783.44779670 </i>
    <i name="e_fr_energy">  -1121.50728215 </i>
    <i name="e_wo_entrp">  -1121.50728215 </i>
    <i name="e_0_energy">  -1121.50728215 </i>
   </energy>
  </scstep>
  <structure>
   <crystal>
    <varray name="basis" >
     <v>      11.24682947       0.00139154       0.00006649 </v>
     <v>       0.00142042      11.23456898       0.00195455 </v>
     <v>       0.00011365       0.00275927      15.85077887 </v>
    </varray>
    <i name="volume">   2002.79783223 </i>
    <varray name="rec_basis" >
     <v>       0.08891395      -0.00001124      -0.00000064 </v>
     <v>      -0.00001101       0.08901098      -0.00001549 </v>
     <v>      -0.00000037      -0.00001098       0.06308838 </v>
    </varray>
   </crystal>
   <varray name="positions" >
    <v>       0.99864536       0.24457836       0.12543048 </v>
    <v>       0.00016117       0.25111576       0.62532694 </v>
    <v>       0.01059534       0.75720644       0.12824783 </v>
    <v>       0.00258863       0.74945992       0.62303158 </v>
    <v>       0.50519566       0.24598877       0.12654233 </v>
    <v>       0.49880449       0.24726769       0.62487245 </v>
    <v>       0.48892003       0.75127496       0.11758443 </v>
    <v>       0.49502303       0.75264152       0.62704315 </v>
    <v>       0.00016969       0.25168070       0.37613065 </v>
    <v>       0.99902746       0.24311117       0.87188273 </v>
    <v>       0.01380475       0.75227008       0.37819314 </v>
    <v>       0.99919112       0.75213811       0.87169072 </v>
    <v>       0.50177590       0.24842441       0.37674207 </v>
    <v>       0.50135112       0.24584036       0.87248595 </v>
    <v>       0.48807430       0.75292010       0.38267485 </v>
    <v>       0.49964115       0.74946891       0.87216166 </v>
    <v>       0.24552683       0.00311909       0.12297222 </v>
    <v>       0.25303799       0.99785718       0.62561816 </v>
    <v>       0.26110096       0.49957967       0.13261159 </v>
    <v>       0.25188304       0.50304409       0.62211223 </v>
    <v>       0.75040357       0.00498995       0.12418256 </v>
    <v>       0.74672663       0.99924242       0.62542084 </v>
    <v>       0.74025687       0.49342089       0.12211423 </v>
    <v>       0.74996017       0.50003270       0.62635049 </v>
    <v>       0.24904979       0.99928146       0.37775812 </v>
    <v>       0.25125738       0.00034211       0.87277349 </v>
    <v>       0.25066357       0.50574959       0.37776073 </v>
    <v>       0.25927898       0.49869493       0.86816416 </v>
    <v>       0.74995688       0.00690499       0.37828472 </v>
    <v>       0.74735157       0.99813619       0.87323384 </v>
    <v>       0.75140860       0.49807801       0.37800375 </v>
    <v>       0.73949526       0.49745866       0.87263825 </v>
    <v>       0.74981638       0.25076970       0.25010391 </v>
    <v>       0.74848796       0.24818117       0.74992381 </v>
    <v>       0.74821000       0.74931386       0.49882798 </v>
    <v>       0.50332888       0.99990723       0.00002766 </v>
    <v>       0.49896557       0.99862420       0.50028238 </v>
    <v>       0.24991682       0.75093853       0.75061655 </v>
    <v>       0.99964915       0.50149095       0.49920405 </v>
    <v>       0.25038551       0.24996220       0.49956046 </v>
    <v>       0.50019899       0.49893672       0.74830772 </v>
    <v>       0.25029771       0.24941041       0.75125592 </v>
    <v>       0.74770953       0.24751670       0.99913022 </v>
    <v>       0.75080517       0.25095160       0.50071493 </v>
    <v>       0.24632168       0.25002121       0.24869965 </v>
    <v>       0.74468505       0.75266767       0.00177371 </v>
    <v>       0.50019113       0.50140360       0.49821116 </v>
    <v>       0.25548008       0.75006649       0.24976163 </v>
    <v>       0.00587280       0.49703732       0.24803800 </v>
    <v>       0.49493309       0.50005229       0.00099898 </v>
    <v>       0.00028612       0.99946517       0.99971366 </v>
    <v>       0.00233006       0.00287905       0.25088641 </v>
    <v>       0.99894320       0.99904243       0.74922799 </v>
    <v>       0.75021531       0.75046991       0.75010323 </v>
    <v>       0.00179163       0.50056581       0.75093298 </v>
    <v>       0.00081944       0.99944652       0.50014230 </v>
    <v>       0.25810819       0.76372206       0.99855615 </v>
    <v>       0.77696925       0.74370731       0.24876115 </v>
    <v>       0.97375566       0.50612341       0.00172764 </v>
    <v>       0.48626655       0.00883914       0.24929476 </v>
    <v>       0.49189161       0.48541576       0.25126647 </v>
    <v>       0.26345008       0.24157486       0.00069527 </v>
    <v>       0.49915129       0.00001692       0.75057677 </v>
    <v>       0.24964827       0.75126360       0.50187343 </v>
    <v>       0.64044037       0.61036836       0.50252661 </v>
    <v>       0.10946687       0.13886164       0.74927588 </v>
    <v>       0.25027982       0.75240873       0.62711962 </v>
    <v>       0.10984924       0.63839942       0.74763660 </v>
    <v>       0.61572362       0.13487028       0.25206118 </v>
    <v>       0.74603206       0.24968142       0.87547521 </v>
    <v>       0.10614632       0.85751074       0.99964944 </v>
    <v>       0.61420810       0.63641420       0.74943421 </v>
    <v>       0.38259842       0.63634486       0.99794039 </v>
    <v>       0.38835628       0.36218708       0.75256029 </v>
    <v>       0.39732788       0.85532603       0.24634869 </v>
    <v>       0.38487251       0.86074464       0.75541978 </v>
    <v>       0.89587167       0.35874841       0.24228610 </v>
    <v>       0.89119085       0.36330716       0.75795800 </v>
    <v>       0.89167675       0.86327072       0.25105747 </v>
    <v>       0.88903827       0.85973657       0.74985902 </v>
    <v>       0.35203085       0.10941052       0.24514545 </v>
    <v>       0.23889501       0.26026138       0.87790221 </v>
    <v>       0.36935533       0.61356795       0.25148152 </v>
    <v>       0.36368232       0.61186918       0.74908185 </v>
    <v>       0.14464155       0.39275939       0.25480189 </v>
    <v>       0.86178050       0.11196065       0.75147861 </v>
    <v>       0.86205672       0.60066289       0.23751643 </v>
    <v>       0.86415207       0.60929947       0.76125845 </v>
    <v>       0.64021043       0.11224383       0.50015903 </v>
    <v>       0.13828542       0.39032870       0.74444758 </v>
    <v>       0.14294035       0.89150366       0.24757366 </v>
    <v>       0.13708400       0.89004369       0.75195568 </v>
    <v>       0.13361354       0.61168182       0.49981896 </v>
    <v>       0.63909039       0.38818186       0.74916779 </v>
    <v>       0.11004799       0.86427262       0.50109923 </v>
    <v>       0.63998940       0.88382702       0.74838367 </v>
    <v>       0.35196048       0.39522031       0.00311432 </v>
    <v>       0.36276210       0.38786781       0.49525953 </v>
    <v>       0.36040908       0.89621803       0.00273551 </v>
    <v>       0.36385929       0.88894426       0.49761739 </v>
    <v>       0.85839383       0.38731941       0.99963410 </v>
    <v>       0.86104999       0.39006605       0.49976137 </v>
    <v>       0.60659083       0.85733525       0.99612708 </v>
    <v>       0.85884196       0.88678984       0.49183521 </v>
    <v>       0.13377725       0.11699619       0.99750669 </v>
    <v>       0.13835064       0.11210310       0.50276249 </v>
    <v>       0.88573874       0.64028217       0.48823766 </v>
    <v>       0.35841970       0.11482118       0.75455097 </v>
    <v>       0.64290125       0.10798435       0.00012033 </v>
    <v>       0.63930547       0.61063143       0.99918129 </v>
    <v>       0.64446686       0.39436133       0.25044473 </v>
    <v>       0.11101245       0.36298197       0.50142611 </v>
    <v>       0.39011199       0.35250152       0.24782409 </v>
    <v>       0.61383129       0.13950522       0.74766488 </v>
    <v>       0.61166345       0.35977643       0.49920170 </v>
    <v>       0.76107777       0.74377579       0.62380549 </v>
    <v>       0.61316594       0.85994312       0.50496452 </v>
    <v>       0.39660800       0.14046663       0.00561245 </v>
    <v>       0.38974283       0.13808843       0.49511210 </v>
    <v>       0.10645177       0.14332024       0.25007645 </v>
    <v>       0.38809285       0.63513649       0.50175144 </v>
    <v>       0.88811514       0.14015933       0.00059736 </v>
    <v>       0.88855681       0.13846328       0.49864141 </v>
    <v>       0.88899948       0.64932947       0.01285050 </v>
    <v>       0.51007766       0.50852997       0.37292320 </v>
    <v>       0.00315603       0.00184855       0.12521022 </v>
    <v>       0.99339892       0.99777732       0.62481798 </v>
    <v>       0.98935464       0.50481705       0.62558868 </v>
    <v>       0.11140930       0.63837172       0.25080486 </v>
    <v>       0.51633394       0.99268747       0.12786082 </v>
    <v>       0.49564434       0.00138545       0.62406138 </v>
    <v>       0.50820926       0.50988923       0.12777946 </v>
    <v>       0.49958162       0.49606635       0.62469574 </v>
    <v>       0.99398655       0.99781383       0.87539106 </v>
    <v>       0.71682957       0.74693271       0.36003299 </v>
    <v>       0.03226864       0.50164722       0.89014381 </v>
    <v>       0.51120305       0.99077187       0.37158408 </v>
    <v>       0.50170770       0.00307999       0.87708729 </v>
    <v>       0.03785574       0.49102680       0.11113608 </v>
    <v>       0.50192048       0.49908236       0.87512105 </v>
    <v>       0.24736320       0.24681989       0.37451740 </v>
    <v>       0.60656564       0.35871797       0.00134278 </v>
    <v>       0.24850496       0.75097436       0.37329445 </v>
    <v>       0.23880297       0.73924015       0.87773281 </v>
    <v>       0.75529584       0.25290469       0.37431968 </v>
    <v>       0.99744347       0.49671552       0.37187585 </v>
    <v>       0.85444434       0.89110804       0.00744024 </v>
    <v>       0.75238112       0.75137444       0.87803735 </v>
    <v>       0.23366307       0.25794540       0.12263974 </v>
    <v>       0.25537921       0.25001077       0.62435811 </v>
    <v>       0.24121582       0.73840137       0.12148814 </v>
    <v>       0.00456793       0.00198802       0.37460041 </v>
    <v>       0.74651007       0.24922597       0.12461593 </v>
    <v>       0.75655714       0.25338272       0.62547975 </v>
    <v>       0.71252550       0.75770474       0.13932210 </v>
    <v>       0.86144065       0.11021160       0.24916163 </v>
   </varray>
  </structure>
  <varray name="forces" >
   <v>      -0.00337309      -0.00527267      -0.00051737 </v>
   <v>       0.00815086       0.00876333       0.00063142 </v>
   <v>       0.00455074       0.00804110       0.00425378 </v>
   <v>       0.00164963      -0.00619784      -0.00093234 </v>
   <v>      -0.00064365       0.00097942      -0.00289866 </v>
   <v>      -0.00589466       0.01006676       0.00621230 </v>
   <v>      -0.00086816       0.00080361       0.00573396 </v>
   <v>       0.00480097      -0.00775435      -0.00346809 </v>
   <v>       0.01169352       0.00957418      -0.00763823 </v>
   <v>      -0.00775205      -0.00165413      -0.00173630 </v>
   <v>       0.00396159      -0.00405697       0.00770458 </v>
   <v>       0.00353009      -0.00979456       0.00010769 </v>
   <v>      -0.00458795       0.00745586       0.00172862 </v>
   <v>       0.00178240       0.00528722      -0.00075865 </v>
   <v>      -0.00305221      -0.00140650       0.00836714 </v>
   <v>       0.00346676      -0.01122714      -0.00323906 </v>
   <v>       0.00298678      -0.00143190       0.00334040 </v>
   <v>       0.00088681      -0.00182586       0.00058150 </v>
   <v>       0.00187519       0.00086783      -0.00002860 </v>
   <v>      -0.00321512       0.00146200       0.00461889 </v>
   <v>       0.00611065       0.00466897      -0.00832742 </v>
   <v>      -0.00283579      -0.00286238       0.00310586 </v>
   <v>       0.00116156      -0.00714405      -0.00822668 </v>
   <v>      -0.00774593       0.00864865      -0.00118852 </v>
   <v>       0.00002158      -0.00329169      -0.00167349 </v>
   <v>      -0.00189743      -0.00216790       0.00179796 </v>
   <v>      -0.00615106       0.00021489       0.00160380 </v>
   <v>      -0.00334307      -0.00041039      -0.00862937 </v>
   <v>       0.00543421      -0.00041448       0.00283342 </v>
   <v>      -0.00256966      -0.00485221       0.00890172 </v>
   <v>       0.00133031       0.00738329       0.00357351 </v>
   <v>       0.00088347       0.00010110      -0.00557313 </v>
   <v>      -0.02115541       0.00093516      -0.05006968 </v>
   <v>       0.00166708       0.00438039       0.02618266 </v>
   <v>      -0.00653393      -0.01747374      -0.00796544 </v>
   <v>      -0.00417772       0.00386764       0.02084062 </v>
   <v>      -0.00348070      -0.01211577      -0.01935619 </v>
   <v>      -0.01889653      -0.02902722       0.02459553 </v>
   <v>       0.00820253       0.01546610       0.00009850 </v>
   <v>      -0.00301157       0.01422473       0.00484059 </v>
   <v>      -0.01016487      -0.00415940      -0.01656795 </v>
   <v>      -0.00764088       0.02408947       0.01498891 </v>
   <v>      -0.00508032       0.00176708       0.00681988 </v>
   <v>      -0.00751519       0.01699052       0.00700063 </v>
   <v>       0.00114105      -0.00779874      -0.01454478 </v>
   <v>       0.01028069      -0.00591302       0.00707739 </v>
   <v>       0.01110805       0.00736298       0.00992883 </v>
   <v>       0.01652874       0.02105976      -0.00406554 </v>
   <v>       0.00447231       0.00422989      -0.00175227 </v>
   <v>      -0.01024132      -0.01263263       0.00346359 </v>
   <v>       0.00482300      -0.00411067       0.00853297 </v>
   <v>       0.02928193       0.00050660      -0.02734228 </v>
   <v>      -0.01309444       0.00557498      -0.00434168 </v>
   <v>       0.00149998      -0.02522390      -0.00014680 </v>
   <v>       0.01113496       0.00843664       0.00776010 </v>
   <v>      -0.00038981      -0.02064932       0.00384024 </v>
   <v>      -0.00380695      -0.00051103       0.00420814 </v>
   <v>      -0.00403341       0.00436038       0.00680416 </v>
   <v>       0.00631579      -0.00179144      -0.00546056 </v>
   <v>      -0.01101116      -0.00087231      -0.00621575 </v>
   <v>       0.00217060       0.00786510       0.00025718 </v>
   <v>       0.00103917      -0.00747892      -0.00138380 </v>
   <v>       0.00200601       0.00421982       0.00161679 </v>
   <v>       0.00498423      -0.00595259      -0.00477957 </v>
   <v>      -0.00392522       0.01361046       0.00607202 </v>
   <v>      -0.00094985      -0.01631967      -0.00590020 </v>
   <v>       0.01229896       0.00051290       0.00208780 </v>
   <v>       0.00298937      -0.00069924      -0.00134555 </v>
[...]
       <r>   -16.2165     0.0000    32.0000 </r>
       <r>   -16.0643     0.0000    32.0000 </r>
       <r>   -15.9121     0.0000    32.0000 </r>
       <r>   -15.7599     0.0000    32.0000 </r>
       <r>   -15.6077     0.0000    32.0000 </r>
       <r>   -15.4555     0.0000    32.0000 </r>
       <r>   -15.3033     0.0000    32.0000 </r>
       <r>   -15.1511     0.6935    32.1055 </r>
       <r>   -14.9989    23.4570    35.6757 </r>
       <r>   -14.8467    49.7588    43.2489 </r>
       <r>   -14.6945    51.1433    51.0329 </r>
       <r>   -14.5423    32.0982    55.9182 </r>
       <r>   -14.3901    30.8158    60.6083 </r>
       <r>   -14.2379    42.7056    67.1081 </r>
       <r>   -14.0857    98.6412    82.1212 </r>
       <r>   -13.9335   131.0995   102.0744 </r>
       <r>   -13.7813    94.2031   116.4120 </r>
       <r>   -13.6291    45.4315   123.3267 </r>
       <r>   -13.4769     4.4240   124.0000 </r>
       <r>   -13.3247     0.0000   124.0000 </r>
       <r>   -13.1725     0.0000   124.0000 </r>
       <r>   -13.0203     0.0000   124.0000 </r>
       <r>   -12.8681     0.0000   124.0000 </r>
       <r>   -12.7159     0.1361   124.0207 </r>
       <r>   -12.5637    33.4836   129.1169 </r>
       <r>   -12.4115   135.0738   149.6750 </r>
       <r>   -12.2593   162.6600   174.4317 </r>
       <r>   -12.1071   130.8267   194.3434 </r>
       <r>   -11.9549   113.0136   211.5440 </r>
       <r>   -11.8027    52.0058   219.4592 </r>
       <r>   -11.6505     3.5530   220.0000 </r>
       <r>   -11.4983     0.0000   220.0000 </r>
       <r>   -11.3461     0.0000   220.0000 </r>
       <r>   -11.1939     0.0000   220.0000 </r>
       <r>   -11.0417     0.0000   220.0000 </r>
       <r>   -10.8895     0.0000   220.0000 </r>
       <r>   -10.7373     0.0000   220.0000 </r>
       <r>   -10.5851     0.0000   220.0000 </r>
       <r>   -10.4329     0.0000   220.0000 </r>
       <r>   -10.2807     0.0000   220.0000 </r>
       <r>   -10.1285     0.0000   220.0000 </r>
       <r>    -9.9763     0.0000   220.0000 </r>
       <r>    -9.8241     0.0000   220.0000 </r>
       <r>    -9.6719     0.0000   220.0000 </r>
       <r>    -9.5197     0.0000   220.0000 </r>
       <r>    -9.3675     0.0000   220.0000 </r>
       <r>    -9.2153     0.0000   220.0000 </r>
       <r>    -9.0631     0.0000   220.0000 </r>
       <r>    -8.9109     0.0000   220.0000 </r>
       <r>    -8.7587     0.0000   220.0000 </r>
       <r>    -8.6065     0.0000   220.0000 </r>
       <r>    -8.4543     0.0000   220.0000 </r>
       <r>    -8.3021     0.0000   220.0000 </r>
       <r>    -8.1499     0.0000   220.0000 </r>
       <r>    -7.9977     0.0000   220.0000 </r>
       <r>    -7.8455     0.0000   220.0000 </r>
       <r>    -7.6933     0.0000   220.0000 </r>
       <r>    -7.5411     0.0000   220.0000 </r>
       <r>    -7.3889     0.0000   220.0000 </r>
       <r>    -7.2367     0.0000   220.0000 </r>
       <r>    -7.0845     0.0000   220.0000 </r>
       <r>    -6.9323     0.0000   220.0000 </r>
       <r>    -6.7801     0.0000   220.0000 </r>
       <r>    -6.6279     0.0000   220.0000 </r>
       <r>    -6.4757     0.0000   220.0000 </r>
       <r>    -6.3235     0.0000   220.0000 </r>
       <r>    -6.1713     0.0000   220.0000 </r>
       <r>    -6.0191     0.0000   220.0000 </r>
       <r>    -5.8669     0.0000   220.0000 </r>
       <r>    -5.7147     0.0000   220.0000 </r>
       <r>    -5.5625     0.0000   220.0000 </r>
       <r>    -5.4103     0.0000   220.0000 </r>
       <r>    -5.2581     0.0000   220.0000 </r>
       <r>    -5.1059     0.0000   220.0000 </r>
       <r>    -4.9537     0.0000   220.0000 </r>
       <r>    -4.8015     0.0000   220.0000 </r>
       <r>    -4.6493     0.0000   220.0000 </r>
       <r>    -4.4971     0.0000   220.0000 </r>
       <r>    -4.3449     0.0000   220.0000 </r>
       <r>    -4.1927     0.0000   220.0000 </r>
       <r>    -4.0405     0.0000   220.0000 </r>
       <r>    -3.8883     0.0000   220.0000 </r>
       <r>    -3.7361     0.0000   220.0000 </r>
       <r>    -3.5839     0.0000   220.0000 </r>
       <r>    -3.4317     0.0000   220.0000 </r>
       <r>    -3.2795     0.0000   220.0000 </r>
       <r>    -3.1274     0.0000   220.0000 </r>
       <r>    -2.9752     0.0000   220.0000 </r>
       <r>    -2.8230     0.0000   220.0000 </r>
       <r>    -2.6708     0.0000   220.0000 </r>
       <r>    -2.5186     0.0000   220.0000 </r>
       <r>    -2.3664     0.2576   220.0392 </r>
       <r>    -2.2142    10.5647   221.6471 </r>
       <r>    -2.0620    28.2555   225.9476 </r>
       <r>    -1.9098    34.5001   231.1985 </r>
       <r>    -1.7576    38.1382   237.0031 </r>
       <r>    -1.6054    52.7151   245.0263 </r>
       <r>    -1.4532    53.8698   253.2252 </r>
       <r>    -1.3010    56.3463   261.8010 </r>
       <r>    -1.1488    67.5378   272.0802 </r>
       <r>    -0.9966    81.8379   284.5359 </r>
       <r>    -0.8444    70.5150   295.2682 </r>
       <r>    -0.6922    85.6461   308.3035 </r>
       <r>    -0.5400   107.4091   324.6511 </r>
       <r>    -0.3878   108.8905   341.2241 </r>
       <r>    -0.2356    64.7512   351.0792 </r>
       <r>    -0.0834    52.5694   359.0802 </r>
       <r>     0.0688    49.3156   366.5860 </r>
       <r>     0.2210    47.6325   373.8356 </r>
       <r>     0.3732    49.9451   381.4372 </r>
       <r>     0.5254    57.2211   390.1462 </r>
       <r>     0.6776    58.6827   399.0776 </r>
       <r>     0.8298    39.9299   405.1549 </r>
       <r>     0.9820    53.3771   413.2789 </r>
       <r>     1.1342    59.0092   422.2600 </r>
       <r>     1.2864    88.4143   435.7166 </r>
       <r>     1.4386    93.4752   449.9435 </r>
       <r>     1.5908    85.9845   463.0302 </r>
       <r>     1.7430    78.8410   475.0298 </r>
       <r>     1.8952    63.9521   484.7632 </r>
       <r>     2.0474    34.1140   489.9553 </r>
       <r>     2.1996    29.8760   494.5024 </r>
       <r>     2.3518     9.7858   495.9918 </r>
       <r>     2.5040     0.0537   496.0000 </r>
       <r>     2.6562     0.0000   496.0000 </r>
       <r>     2.8084     0.0000   496.0000 </r>
       <r>     2.9606     0.0000   496.0000 </r>
       <r>     3.1128     0.0000   496.0000 </r>
       <r>     3.2650     0.0000   496.0000 </r>
       <r>     3.4172     0.0000   496.0000 </r>
       <r>     3.5694     0.0000   496.0000 </r>
       <r>     3.7216     0.0000   496.0000 </r>
       <r>     3.8738     0.0000   496.0000 </r>
       <r>     4.0260     0.0000   496.0000 </r>
       <r>     4.1782     0.0000   496.0000 </r>
       <r>     4.3304     0.0004   496.0001 </r>
       <r>     4.4826     7.5260   497.1455 </r>
       <r>     4.6348    34.0869   502.3335 </r>
       <r>     4.7870    45.3374   509.2338 </r>
       <r>     4.9392    31.2856   513.9954 </r>
       <r>     5.0914    47.4459   521.2167 </r>
       <r>     5.2436    52.7760   529.2491 </r>
       <r>     5.3958    66.5923   539.3844 </r>
       <r>     5.5480    62.5761   548.9085 </r>
       <r>     5.7002    62.7621   558.4608 </r>
       <r>     5.8524    71.7043   569.3741 </r>
       <r>     6.0046    93.3866   583.5875 </r>
       <r>     6.1568    86.7374   596.7888 </r>
       <r>     6.3090    61.0763   606.0846 </r>
       <r>     6.4612    33.3049   611.1536 </r>
       <r>     6.6134    21.3488   614.4028 </r>
       <r>     6.7656    18.2807   617.1851 </r>
       <r>     6.9178    24.0794   620.8500 </r>
       <r>     7.0700    19.4757   623.8142 </r>
       <r>     7.2222    17.7072   626.5092 </r>
       <r>     7.3744    16.4921   629.0193 </r>
       <r>     7.5266    12.8362   630.9729 </r>
       <r>     7.6788    15.6722   633.3582 </r>
       <r>     7.8310    20.0154   636.4046 </r>
       <r>     7.9832    21.3798   639.6586 </r>
       <r>     8.1354    25.4259   643.5284 </r>
       <r>     8.2876    25.0316   647.3382 </r>
       <r>     8.4398    24.6247   651.0860 </r>
       <r>     8.5920    18.1650   653.8507 </r>
       <r>     8.7442    26.1309   657.8278 </r>
       <r>     8.8964    30.6788   662.4971 </r>
       <r>     9.0486    34.3303   667.7222 </r>
       <r>     9.2008    35.4712   673.1208 </r>
       <r>     9.3530    36.8640   678.7315 </r>
       <r>     9.5052    38.2852   684.5585 </r>
       <r>     9.6574    44.2568   691.2943 </r>
       <r>     9.8096    53.6151   699.4545 </r>
       <r>     9.9618    61.7068   708.8462 </r>
       <r>    10.1140    70.2368   719.5362 </r>
       <r>    10.2662    67.7294   729.8445 </r>
       <r>    10.4184    59.9226   738.9647 </r>
       <r>    10.5706    55.6523   747.4349 </r>
       <r>    10.7228    57.6156   756.2040 </r>
       <r>    10.8750    55.7589   764.6904 </r>
       <r>    11.0272    21.7315   767.9979 </r>
       <r>    11.1794     0.0135   768.0000 </r>
       <r>    11.3316     0.0000   768.0000 </r>
       <r>    11.4838     0.0000   768.0000 </r>
       <r>    11.6360     0.0000   768.0000 </r>
       <r>    11.7882     0.0000   768.0000 </r>
       <r>    11.9404     0.0000   768.0000 </r>
       <r>    12.0926     0.0000   768.0000 </r>
       <r>    12.2448     0.0000   768.0000 </r>
       <r>    12.3970     0.0000   768.0000 </r>
       <r>    12.5492     0.0000   768.0000 </r>
       <r>    12.7014     0.0000   768.0000 </r>
       <r>    12.8536     0.0000   768.0000 </r>
       <r>    13.0058     0.0000   768.0000 </r>
      </set>
     </set>
    </array>
   </total>
  </dos>
 </calculation>
 <structure name="finalpos" >
  <crystal>
   <varray name="basis" >
    <v>      11.24723184       0.00108322      -0.00003011 </v>
    <v>       0.00111244      11.23481842       0.00189671 </v>
    <v>      -0.00002255       0.00267777      15.85062290 </v>
   </varray>
   <i name="volume">   2002.89426098 </i>
   <varray name="rec_basis" >
    <v>       0.08891077      -0.00000880       0.00000013 </v>
    <v>      -0.00000857       0.08900901      -0.00001504 </v>
    <v>       0.00000017      -0.00001065       0.06308901 </v>
   </varray>
  </crystal>
  <varray name="positions" >
   <v>       0.99861974       0.24454552       0.12544270 </v>
   <v>       0.00019318       0.25117978       0.62532043 </v>
   <v>       0.01060621       0.75723642       0.12827557 </v>
   <v>       0.00259609       0.74942744       0.62303325 </v>
   <v>       0.50518731       0.24600466       0.12653287 </v>
   <v>       0.49877899       0.24729964       0.62488790 </v>
   <v>       0.48893612       0.75126035       0.11758405 </v>
   <v>       0.49504415       0.75262520       0.62704262 </v>
   <v>       0.00021735       0.25172373       0.37610000 </v>
   <v>       0.99896919       0.24309211       0.87186394 </v>
   <v>       0.01380654       0.75226035       0.37822080 </v>
   <v>       0.99918664       0.75209539       0.87167835 </v>
   <v>       0.50175939       0.24847135       0.37676647 </v>
   <v>       0.50135212       0.24586510       0.87246918 </v>
   <v>       0.48805929       0.75291353       0.38273274 </v>
   <v>       0.49967555       0.74940839       0.87214084 </v>
   <v>       0.24554874       0.00312130       0.12297693 </v>
   <v>       0.25304450       0.99783467       0.62563402 </v>
   <v>       0.26110956       0.49958622       0.13262855 </v>
   <v>       0.25184625       0.50305352       0.62211675 </v>
   <v>       0.75044938       0.00501271       0.12414246 </v>
   <v>       0.74668893       0.99922651       0.62543635 </v>
   <v>       0.74026741       0.49339709       0.12207222 </v>
   <v>       0.74993999       0.50006573       0.62634764 </v>
   <v>       0.24903767       0.99928193       0.37777603 </v>
   <v>       0.25125473       0.00032765       0.87275052 </v>
   <v>       0.25064331       0.50573787       0.37776317 </v>
   <v>       0.25927519       0.49869335       0.86812423 </v>
   <v>       0.75000873       0.00692559       0.37830728 </v>
   <v>       0.74732758       0.99808819       0.87326806 </v>
   <v>       0.75142454       0.49809353       0.37801057 </v>
   <v>       0.73947753       0.49747409       0.87261613 </v>
   <v>       0.74975438       0.25079481       0.25005832 </v>
   <v>       0.74851598       0.24818106       0.74994933 </v>
   <v>       0.74819986       0.74929173       0.49881421 </v>
   <v>       0.50334193       0.99989602       0.00006071 </v>
   <v>       0.49899237       0.99860297       0.50023774 </v>
   <v>       0.24987948       0.75090924       0.75065850 </v>
   <v>       0.99963935       0.50151520       0.49926397 </v>
   <v>       0.25038823       0.25000633       0.49957351 </v>
   <v>       0.50018666       0.49895410       0.74830825 </v>
   <v>       0.25029047       0.24943501       0.75130283 </v>
   <v>       0.74768404       0.24749818       0.99914657 </v>
   <v>       0.75077565       0.25096942       0.50072297 </v>
   <v>       0.24627926       0.25003718       0.24866425 </v>
   <v>       0.74468805       0.75262622       0.00178189 </v>
   <v>       0.50019560       0.50140621       0.49822679 </v>
   <v>       0.25550313       0.75006428       0.24975191 </v>
   <v>       0.00586164       0.49705520       0.24801165 </v>
   <v>       0.49492433       0.50002475       0.00100886 </v>
   <v>       0.00027053       0.99944614       0.99972019 </v>
   <v>       0.00237132       0.00292757       0.25084762 </v>
   <v>       0.99893398       0.99902836       0.74920522 </v>
   <v>       0.75021426       0.75042658       0.75009354 </v>
   <v>       0.00182217       0.50055407       0.75091054 </v>
   <v>       0.00084467       0.99941817       0.50012337 </v>
   <v>       0.25811213       0.76371409       0.99857445 </v>
   <v>       0.77701027       0.74373534       0.24880054 </v>
   <v>       0.97371236       0.50609214       0.00170312 </v>
   <v>       0.48620941       0.00888785       0.24929390 </v>
   <v>       0.49188381       0.48543099       0.25125179 </v>
   <v>       0.26347978       0.24150929       0.00068663 </v>
   <v>       0.49916372       0.00000555       0.75056581 </v>
   <v>       0.24968905       0.75124271       0.50189309 </v>
   <v>       0.64040346       0.61044722       0.50254637 </v>
   <v>       0.10947810       0.13878639       0.74925291 </v>
   <v>       0.25034388       0.75240344       0.62712903 </v>
   <v>       0.10986092       0.63838898       0.74764540 </v>
   <v>       0.61576018       0.13487843       0.25204008 </v>
   <v>       0.74597902       0.24963063       0.87547798 </v>
   <v>       0.10615212       0.85752952       0.99965643 </v>
   <v>       0.61424001       0.63637204       0.74940412 </v>
   <v>       0.38255286       0.63631343       0.99792945 </v>
   <v>       0.38832788       0.36220560       0.75258750 </v>
   <v>       0.39733960       0.85531258       0.24634231 </v>
   <v>       0.38483453       0.86078277       0.75544727 </v>
   <v>       0.89583947       0.35880686       0.24229999 </v>
   <v>       0.89117066       0.36332389       0.75795853 </v>
   <v>       0.89165577       0.86336923       0.25109608 </v>
   <v>       0.88899238       0.85978370       0.74988634 </v>
   <v>       0.35200585       0.10949966       0.24519290 </v>
   <v>       0.23879520       0.26029019       0.87790495 </v>
   <v>       0.36943384       0.61357297       0.25148683 </v>
   <v>       0.36366526       0.61184577       0.74912684 </v>
   <v>       0.14465231       0.39274693       0.25477346 </v>
   <v>       0.86177768       0.11196433       0.75150629 </v>
   <v>       0.86206821       0.60066123       0.23753452 </v>
   <v>       0.86415374       0.60931729       0.76121909 </v>
   <v>       0.64019622       0.11227033       0.50015868 </v>
   <v>       0.13821994       0.39027553       0.74443789 </v>
   <v>       0.14289851       0.89148374       0.24757267 </v>
   <v>       0.13704765       0.89001583       0.75189256 </v>
   <v>       0.13359098       0.61173032       0.49985528 </v>
   <v>       0.63905403       0.38815705       0.74916373 </v>
   <v>       0.11007979       0.86428025       0.50110797 </v>
   <v>       0.63998087       0.88380172       0.74833939 </v>
   <v>       0.35196732       0.39523539       0.00310167 </v>
   <v>       0.36280220       0.38783010       0.49523405 </v>
   <v>       0.36039526       0.89624840       0.00269993 </v>
   <v>       0.36394359       0.88893336       0.49758687 </v>
   <v>       0.85842284       0.38729915       0.99960596 </v>
   <v>       0.86106199       0.39002145       0.49973629 </v>
   <v>       0.60656655       0.85733643       0.99613666 </v>
   <v>       0.85887053       0.88679673       0.49181056 </v>
   <v>       0.13377687       0.11699769       0.99754015 </v>
   <v>       0.13835847       0.11213592       0.50281293 </v>
   <v>       0.88574995       0.64026055       0.48824666 </v>
   <v>       0.35846925       0.11485047       0.75455783 </v>
   <v>       0.64288220       0.10799281       0.00013616 </v>
   <v>       0.63932471       0.61065129       0.99919723 </v>
   <v>       0.64448997       0.39431815       0.25043903 </v>
   <v>       0.11104768       0.36296576       0.50145223 </v>
   <v>       0.39017919       0.35248892       0.24786968 </v>
   <v>       0.61382638       0.13949142       0.74765644 </v>
   <v>       0.61174342       0.35977235       0.49924175 </v>
   <v>       0.76112621       0.74378659       0.62379900 </v>
   <v>       0.61319471       0.85998316       0.50497329 </v>
   <v>       0.39661937       0.14038658       0.00554669 </v>
   <v>       0.38970913       0.13803031       0.49509770 </v>
   <v>       0.10644319       0.14333532       0.25004623 </v>
   <v>       0.38808483       0.63515525       0.50170854 </v>
   <v>       0.88807347       0.14011000       0.00056963 </v>
   <v>       0.88853841       0.13845967       0.49862863 </v>
   <v>       0.88895993       0.64934671       0.01282953 </v>
   <v>       0.51017325       0.50855061       0.37292550 </v>
   <v>       0.00312277       0.00177844       0.12522080 </v>
   <v>       0.99333666       0.99778819       0.62477864 </v>
   <v>       0.98929317       0.50480827       0.62556773 </v>
   <v>       0.11139818       0.63832761       0.25078773 </v>
   <v>       0.51630956       0.99269150       0.12786608 </v>
   <v>       0.49556713       0.00141992       0.62408931 </v>
   <v>       0.50823819       0.50992416       0.12776381 </v>
   <v>       0.49949230       0.49607871       0.62469044 </v>
   <v>       0.99407570       0.99781345       0.87535711 </v>
   <v>       0.71675293       0.74691111       0.36004016 </v>
   <v>       0.03237511       0.50165113       0.89016649 </v>
   <v>       0.51132467       0.99075501       0.37159420 </v>
   <v>       0.50172273       0.00305533       0.87704327 </v>
   <v>       0.03794678       0.49101061       0.11115450 </v>
   <v>       0.50194820       0.49908601       0.87514103 </v>
   <v>       0.24733445       0.24680109       0.37453720 </v>
   <v>       0.60656587       0.35874659       0.00134880 </v>
   <v>       0.24848446       0.75101850       0.37327548 </v>
   <v>       0.23872389       0.73922948       0.87772302 </v>
   <v>       0.75520868       0.25291214       0.37434078 </v>
   <v>       0.99751262       0.49675138       0.37190497 </v>
   <v>       0.85447542       0.89103667       0.00741344 </v>
   <v>       0.75228138       0.75136284       0.87800071 </v>
   <v>       0.23368498       0.25794121       0.12263597 </v>
   <v>       0.25543082       0.25002486       0.62438365 </v>
   <v>       0.24120246       0.73839133       0.12149485 </v>
   <v>       0.00467616       0.00205752       0.37461738 </v>
   <v>       0.74652676       0.24927409       0.12461567 </v>
   <v>       0.75655131       0.25331567       0.62546216 </v>
   <v>       0.71247645       0.75773622       0.13934339 </v>
   <v>       0.86145869       0.11026692       0.24920689 </v>
  </varray>
 </structure>
</modeling>
