       N       E                     dE             d eps       ncg     rms          rms(c)
DAV:   1    -0.994813365649E+03   -0.99481E+03   -0.20255E-01 13504   0.106E+00    0.461E-02
RMM:   2    -0.994813369884E+03   -0.42354E-05   -0.77390E-05  7335   0.160E-02    0.535E-02
RMM:   3    -0.994813372097E+03   -0.22127E-05   -0.25618E-05  7230   0.101E-02    0.221E-02
RMM:   4    -0.994813378377E+03   -0.62804E-05   -0.17611E-05  6873   0.550E-03    0.129E-02
RMM:   5    -0.994813381056E+03   -0.26794E-05   -0.83019E-06  6767   0.486E-03    0.126E-02
RMM:   6    -0.994813381709E+03   -0.65309E-06   -0.58875E-06  5627   0.341E-03    0.514E-03
RMM:   7    -0.994813382007E+03   -0.29756E-06   -0.32173E-06  4648   0.302E-03    0.362E-03
RMM:   8    -0.994813382253E+03   -0.24558E-06   -0.21023E-06  3884   0.237E-03
   1 F= -.99481338E+03 E0= -.99481338E+03  d E =-.994813E+03  mag=   120.0000
       N       E                     dE             d eps       ncg     rms          rms(c)
DAV:   1    -0.994803220423E+03    0.10162E-01   -0.35414E+00 12400   0.222E+00    0.122E+00
RMM:   2    -0.994822427338E+03   -0.19207E-01   -0.10090E-01 12598   0.460E-01    0.748E-01
RMM:   3    -0.994825104165E+03   -0.26768E-02   -0.61416E-03 13217   0.127E-01    0.395E-01
RMM:   4    -0.994824616252E+03    0.48791E-03   -0.12138E-03 12314   0.435E-02    0.232E-01
RMM:   5    -0.994824458139E+03    0.15811E-03   -0.84773E-04 11449   0.327E-02    0.588E-02
RMM:   6    -0.994824461957E+03   -0.38181E-05   -0.59255E-05  7424   0.142E-02    0.495E-02
RMM:   7    -0.994824466008E+03   -0.40507E-05   -0.28768E-05  7377   0.725E-03    0.291E-02
RMM:   8    -0.994824467859E+03   -0.18507E-05   -0.14656E-05  7242   0.611E-03
   2 F= -.99482447E+03 E0= -.99482447E+03  d E =-.110856E-01  mag=   120.0000
       N       E                     dE             d eps       ncg     rms          rms(c)
DAV:   1    -0.994823737446E+03    0.72856E-03   -0.18761E-01 12864   0.511E-01    0.280E-01
RMM:   2    -0.994824763184E+03   -0.10257E-02   -0.54063E-03 12590   0.106E-01    0.171E-01
RMM:   3    -0.994824898651E+03   -0.13547E-03   -0.27058E-04  8987   0.294E-02    0.962E-02
RMM:   4    -0.994824880054E+03    0.18597E-04   -0.63493E-05  7363   0.124E-02    0.585E-02
RMM:   5    -0.994824871612E+03    0.84414E-05   -0.57392E-05  7251   0.927E-03    0.213E-02
RMM:   6    -0.994824873689E+03   -0.20771E-05   -0.12389E-05  6976   0.590E-03    0.105E-02
RMM:   7    -0.994824874469E+03   -0.77943E-06   -0.55168E-06  5742   0.322E-03    0.813E-03
RMM:   8    -0.994824874971E+03   -0.50201E-06   -0.26832E-06  4890   0.316E-03
   3 F= -.99482487E+03 E0= -.99482487E+03  d E =-.114927E-01  mag=   120.0000
       N       E                     dE             d eps       ncg     rms          rms(c)
DAV:   1    -0.994820136799E+03    0.47377E-02   -0.32135E+00 12352   0.215E+00    0.855E-01
RMM:   2    -0.994832771163E+03   -0.12634E-01   -0.85591E-02 12606   0.414E-01    0.507E-01
RMM:   3    -0.994834094588E+03   -0.13234E-02   -0.50929E-03 13460   0.116E-01    0.273E-01
RMM:   4    -0.994833825956E+03    0.26863E-03   -0.75092E-04 12381   0.341E-02    0.161E-01
RMM:   5    -0.994833725437E+03    0.10052E-03   -0.51729E-04 10706   0.241E-02    0.492E-02
RMM:   6    -0.994833729863E+03   -0.44255E-05   -0.53250E-05  7411   0.123E-02    0.295E-02
RMM:   7    -0.994833732269E+03   -0.24057E-05   -0.27333E-05  7263   0.680E-03    0.203E-02
RMM:   8    -0.994833733370E+03   -0.11017E-05   -0.14991E-05  7018   0.614E-03
   4 F= -.99483373E+03 E0= -.99483373E+03  d E =-.885840E-02  mag=   120.0000
       N       E                     dE             d eps       ncg     rms          rms(c)
DAV:   1    -0.994817851838E+03    0.15880E-01   -0.46590E+00 12288   0.259E+00    0.103E+00
RMM:   2    -0.994836202056E+03   -0.18350E-01   -0.12441E-01 12609   0.498E-01    0.610E-01
RMM:   3    -0.994838118976E+03   -0.19169E-02   -0.74396E-03 13624   0.140E-01    0.328E-01
RMM:   4    -0.994837732732E+03    0.38624E-03   -0.11463E-03 13720   0.410E-02    0.194E-01
RMM:   5    -0.994837587798E+03    0.14493E-03   -0.74651E-04 11427   0.283E-02    0.554E-02
RMM:   6    -0.994837592643E+03   -0.48452E-05   -0.72518E-05  7452   0.137E-02    0.367E-02
RMM:   7    -0.994837596350E+03   -0.37063E-05   -0.36506E-05  7349   0.809E-03    0.258E-02
RMM:   8    -0.994837597568E+03   -0.12181E-05   -0.20854E-05  7229   0.711E-03
   5 F= -.99483760E+03 E0= -.99483760E+03  d E =-.127226E-01  mag=   120.0000
       N       E                     dE             d eps       ncg     rms          rms(c)
DAV:   1    -0.994831276607E+03    0.63197E-02   -0.38681E+00 12416   0.234E+00    0.819E-01
RMM:   2    -0.994844313580E+03   -0.13037E-01   -0.10336E-01 12581   0.448E-01    0.501E-01
RMM:   3    -0.994845302557E+03   -0.98898E-03   -0.61580E-03 13496   0.129E-01    0.291E-01
RMM:   4    -0.994844979220E+03    0.32334E-03   -0.92330E-04 12867   0.372E-02    0.175E-01
RMM:   5    -0.994844841873E+03    0.13735E-03   -0.59253E-04 10900   0.257E-02    0.607E-02
RMM:   6    -0.994844840261E+03    0.16122E-05   -0.68257E-05  7427   0.135E-02    0.520E-02
RMM:   7    -0.994844842936E+03   -0.26751E-05   -0.32798E-05  7294   0.769E-03    0.252E-02
RMM:   8    -0.994844841724E+03    0.12118E-05   -0.18885E-05  7237   0.726E-03
   6 F= -.99484484E+03 E0= -.99484484E+03  d E =-.724416E-02  mag=   120.0000
       N       E                     dE             d eps       ncg     rms          rms(c)
DAV:   1    -0.994834598043E+03    0.10245E-01   -0.35547E+00 12384   0.224E+00    0.783E-01
RMM:   2    -0.994846591126E+03   -0.11993E-01   -0.94958E-02 12580   0.429E-01    0.479E-01
RMM:   3    -0.994847501903E+03   -0.91078E-03   -0.56195E-03 13452   0.123E-01    0.279E-01
RMM:   4    -0.994847205721E+03    0.29618E-03   -0.83521E-04 12585   0.356E-02    0.168E-01
RMM:   5    -0.994847081141E+03    0.12458E-03   -0.54246E-04 10717   0.248E-02    0.592E-02
RMM:   6    -0.994847079670E+03    0.14708E-05   -0.64766E-05  7421   0.132E-02    0.506E-02
RMM:   7    -0.994847082222E+03   -0.25518E-05   -0.31154E-05  7300   0.754E-03    0.243E-02
RMM:   8    -0.994847081029E+03    0.11924E-05   -0.17901E-05  7238   0.716E-03
   7 F= -.99484708E+03 E0= -.99484708E+03  d E =-.948346E-02  mag=   120.0000
       N       E                     dE             d eps       ncg     rms          rms(c)
DAV:   1    -0.994835512313E+03    0.11570E-01   -0.48434E+00 12752   0.257E+00    0.938E-01
RMM:   2    -0.994851533765E+03   -0.16021E-01   -0.12658E-01 12552   0.491E-01    0.574E-01
RMM:   3    -0.994852794733E+03   -0.12610E-02   -0.76989E-03 13273   0.143E-01    0.319E-01
RMM:   4    -0.994852430151E+03    0.36458E-03   -0.11381E-03 13389   0.408E-02    0.195E-01
RMM:   5    -0.994852262402E+03    0.16775E-03   -0.79569E-04 11648   0.290E-02    0.669E-02
RMM:   6    -0.994852271600E+03   -0.91977E-05   -0.95111E-05  7474   0.154E-02    0.592E-02
RMM:   7    -0.994852280044E+03   -0.84444E-05   -0.43151E-05  7353   0.923E-03    0.306E-02
RMM:   8    -0.994852287045E+03   -0.70004E-05   -0.25950E-05  7273   0.819E-03
   8 F= -.99485229E+03 E0= -.99485229E+03  d E =-.520602E-02  mag=   120.0000
       N       E                     dE             d eps       ncg     rms          rms(c)
DAV:   1    -0.994849088136E+03    0.31919E-02   -0.10770E+00 12752   0.121E+00    0.441E-01
RMM:   2    -0.994852691386E+03   -0.36032E-02   -0.28268E-02 12536   0.232E-01    0.270E-01
RMM:   3    -0.994852979828E+03   -0.28844E-03   -0.17435E-03 12678   0.686E-02    0.151E-01
RMM:   4    -0.994852897448E+03    0.82380E-04   -0.21437E-04  8510   0.195E-02    0.944E-02
RMM:   5    -0.994852862875E+03    0.34573E-04   -0.15156E-04  7458   0.152E-02    0.351E-02
RMM:   6    -0.994852868599E+03   -0.57242E-05   -0.40098E-05  7273   0.110E-02    0.451E-02
RMM:   7    -0.994852871450E+03   -0.28507E-05   -0.19360E-05  7203   0.630E-03    0.152E-02
RMM:   8    -0.994852874200E+03   -0.27506E-05   -0.11213E-05  7137   0.591E-03
   9 F= -.99485287E+03 E0= -.99485287E+03  d E =-.579317E-02  mag=   120.0000
       N       E                     dE             d eps       ncg     rms          rms(c)
DAV:   1    -0.994846284614E+03    0.65868E-02   -0.27647E+00 12680   0.194E+00    0.729E-01
RMM:   2    -0.994856076522E+03   -0.97919E-02   -0.71282E-02 12539   0.368E-01    0.429E-01
RMM:   3    -0.994857006921E+03   -0.93040E-03   -0.43967E-03 13089   0.108E-01    0.221E-01
RMM:   4    -0.994856799530E+03    0.20739E-03   -0.63884E-04 11513   0.320E-02    0.132E-01
RMM:   5    -0.994856730009E+03    0.69521E-04   -0.38545E-04  9571   0.220E-02    0.525E-02
RMM:   6    -0.994856732157E+03   -0.21484E-05   -0.49958E-05  7364   0.121E-02    0.387E-02
RMM:   7    -0.994856733550E+03   -0.13927E-05   -0.23739E-05  7242   0.671E-03    0.195E-02
RMM:   8    -0.994856732332E+03    0.12183E-05   -0.14144E-05  7174   0.644E-03
  10 F= -.99485673E+03 E0= -.99485673E+03  d E =-.385813E-02  mag=   120.0000
       N       E                     dE             d eps       ncg     rms          rms(c)
DAV:   1    -0.994848354537E+03    0.83790E-02   -0.25439E+00 12640   0.186E+00    0.698E-01
RMM:   2    -0.994857387428E+03   -0.90329E-02   -0.65731E-02 12529   0.353E-01    0.411E-01
RMM:   3    -0.994858247624E+03   -0.86020E-03   -0.40634E-03 13087   0.104E-01    0.212E-01
RMM:   4    -0.994858058611E+03    0.18901E-03   -0.58211E-04 11244   0.307E-02    0.127E-01
RMM:   5    -0.994857994696E+03    0.63915E-04   -0.35543E-04  9267   0.214E-02    0.518E-02
RMM:   6    -0.994857996807E+03   -0.21112E-05   -0.50068E-05  7361   0.123E-02    0.410E-02
RMM:   7    -0.994857998278E+03   -0.14714E-05   -0.23198E-05  7247   0.675E-03    0.191E-02
RMM:   8    -0.994857997104E+03    0.11739E-05   -0.13786E-05  7187   0.647E-03
  11 F= -.99485800E+03 E0= -.99485800E+03  d E =-.512290E-02  mag=   120.0000
       N       E                     dE             d eps       ncg     rms          rms(c)
DAV:   1    -0.994846549922E+03    0.11448E-01   -0.39925E+00 12456   0.232E+00    0.838E-01
RMM:   2    -0.994860446342E+03   -0.13896E-01   -0.10199E-01 12460   0.441E-01    0.496E-01
RMM:   3    -0.994861706668E+03   -0.12603E-02   -0.64712E-03 13130   0.133E-01    0.248E-01
RMM:   4    -0.994861422526E+03    0.28414E-03   -0.94203E-04 12597   0.380E-02    0.147E-01
RMM:   5    -0.994861313431E+03    0.10909E-03   -0.52835E-04 10471   0.244E-02    0.560E-02
RMM:   6    -0.994861315275E+03   -0.18446E-05   -0.58243E-05  7386   0.127E-02    0.385E-02
RMM:   7    -0.994861317598E+03   -0.23223E-05   -0.27616E-05  7269   0.724E-03    0.211E-02
RMM:   8    -0.994861317055E+03    0.54270E-06   -0.16012E-05  7228   0.683E-03
  12 F= -.99486132E+03 E0= -.99486132E+03  d E =-.331995E-02  mag=   120.0000
       N       E                     dE             d eps       ncg     rms          rms(c)
DAV:   1    -0.994857699004E+03    0.36186E-02   -0.10945E+00 12504   0.121E+00    0.438E-01
RMM:   2    -0.994861522057E+03   -0.38231E-02   -0.28102E-02 12456   0.231E-01    0.259E-01
RMM:   3    -0.994861868447E+03   -0.34639E-03   -0.18015E-03 12593   0.700E-02    0.130E-01
RMM:   4    -0.994861787331E+03    0.81116E-04   -0.22057E-04  8468   0.200E-02    0.787E-02
RMM:   5    -0.994861758146E+03    0.29185E-04   -0.13577E-04  7404   0.147E-02    0.402E-02
RMM:   6    -0.994861760695E+03   -0.25491E-05   -0.33088E-05  7241   0.101E-02    0.371E-02
RMM:   7    -0.994861761848E+03   -0.11533E-05   -0.15499E-05  7118   0.559E-03    0.139E-02
RMM:   8    -0.994861761609E+03    0.23910E-06   -0.85891E-06  6911   0.522E-03
  13 F= -.99486176E+03 E0= -.99486176E+03  d E =-.376451E-02  mag=   120.0000
       N       E                     dE             d eps       ncg     rms          rms(c)
DAV:   1    -0.994856308324E+03    0.54535E-02   -0.20090E+00 12400   0.165E+00    0.646E-01
RMM:   2    -0.994863304416E+03   -0.69961E-02   -0.52351E-02 12522   0.314E-01    0.378E-01
RMM:   3    -0.994863944769E+03   -0.64035E-03   -0.32110E-03 12781   0.959E-02    0.183E-01
RMM:   4    -0.994863784809E+03    0.15996E-03   -0.58284E-04 10961   0.304E-02    0.107E-01
RMM:   5    -0.994863739236E+03    0.45573E-04   -0.21363E-04  7755   0.202E-02    0.630E-02
RMM:   6    -0.994863746041E+03   -0.68056E-05   -0.53094E-05  7291   0.128E-02    0.502E-02
RMM:   7    -0.994863751835E+03   -0.57936E-05   -0.26359E-05  7226   0.749E-03    0.205E-02
RMM:   8    -0.994863756107E+03   -0.42721E-05   -0.14223E-05  7148   0.675E-03
  14 F= -.99486376E+03 E0= -.99486376E+03  d E =-.199450E-02  mag=   120.0000
