<?xml version="1.0" encoding="ISO-8859-1"?>
<modeling>
 <generator>
  <i name="program" type="string">vasp </i>
  <i name="version" type="string">5.4.1  </i>
  <i name="subversion" type="string">05Feb16 (build Jan 25 2017 20:16:33) complex                          parallel </i>
  <i name="platform" type="string">BWXE6 </i>
  <i name="date" type="string">2019 08 06 </i>
  <i name="time" type="string">15:40:59 </i>
 </generator>
 <incar>
  <i type="string" name="SYSTEM"> STF</i>
  <i type="string" name="PREC">normal</i>
  <i type="string" name="ALGO"> Fast</i>
  <i type="int" name="ISPIN">     2</i>
  <i type="int" name="NELM">    40</i>
  <i type="int" name="NELMIN">     8</i>
  <i type="int" name="IBRION">     2</i>
  <i name="EDIFF">      0.00010000</i>
  <i name="EDIFFG">     -0.03000000</i>
  <i type="int" name="NSW">    30</i>
  <i type="int" name="ISIF">     3</i>
  <i name="ENCUT">    520.00000000</i>
  <i type="int" name="NBANDS">   768</i>
  <v name="MAGMOM">      0.60000000      0.60000000      0.60000000      0.60000000      0.60000000      0.60000000      0.60000000      0.60000000      0.60000000      0.60000000      0.60000000      0.60000000      0.60000000      0.60000000      0.60000000      0.60000000      0.60000000      0.60000000      0.60000000      0.60000000
      0.60000000      0.60000000      0.60000000      0.60000000      0.60000000      0.60000000      0.60000000      0.60000000      0.60000000      0.60000000      0.60000000      0.60000000      0.60000000      0.60000000      0.60000000      0.60000000      0.60000000      0.60000000      0.60000000      0.60000000
      5.00000000      5.00000000      5.00000000      5.00000000      5.00000000      5.00000000      5.00000000      5.00000000      5.00000000      5.00000000      5.00000000      5.00000000      5.00000000      5.00000000      5.00000000      5.00000000      5.00000000      5.00000000      5.00000000      5.00000000
      5.00000000      5.00000000      5.00000000      5.00000000      0.60000000      0.60000000      0.60000000      0.60000000      0.60000000      0.60000000      0.60000000      0.60000000      0.60000000      0.60000000      0.60000000      0.60000000      0.60000000      0.60000000      0.60000000      0.60000000
      0.60000000      0.60000000      0.60000000      0.60000000      0.60000000      0.60000000      0.60000000      0.60000000      0.60000000      0.60000000      0.60000000      0.60000000      0.60000000      0.60000000      0.60000000      0.60000000      0.60000000      0.60000000      0.60000000      0.60000000
      0.60000000      0.60000000      0.60000000      0.60000000      0.60000000      0.60000000      0.60000000      0.60000000      0.60000000      0.60000000      0.60000000      0.60000000      0.60000000      0.60000000      0.60000000      0.60000000      0.60000000      0.60000000      0.60000000      0.60000000
      0.60000000      0.60000000      0.60000000      0.60000000      0.60000000      0.60000000      0.60000000      0.60000000      0.60000000      0.60000000      0.60000000      0.60000000      0.60000000      0.60000000      0.60000000      0.60000000      0.60000000      0.60000000      0.60000000      0.60000000
      0.60000000      0.60000000      0.60000000      0.60000000      0.60000000      0.60000000      0.60000000      0.60000000</v>
  <i type="string" name="LREAL"> Auto</i>
  <i type="int" name="ISMEAR">     0</i>
  <i name="SIGMA">      0.05000000</i>
  <i type="int" name="LMAXMIX">     4</i>
  <v type="int" name="KPOINT_BSE">    -1     0     0     0</v>
  <i type="int" name="NELM">    40</i>
  <i type="logical" name="LDAU"> T  </i>
  <v type="int" name="LDAUTYPE">     2</v>
  <v type="int" name="LDAUL">     0     2     2     0</v>
  <v name="LDAUU">      0.00000000      3.00000000      5.00000000      0.00000000</v>
  <v name="LDAUJ">      0.00000000      0.00000000      0.00000000      0.00000000</v>
  <i type="int" name="LDAUPRINT">     1</i>
 </incar>
 <kpoints>
  <generation param="Monkhorst-Pack">
   <v type="int" name="divisions">       2        2        2 </v>
   <v name="usershift">      0.00000000       0.00000000       0.00000000 </v>
   <v name="genvec1">      0.50000000       0.00000000       0.00000000 </v>
   <v name="genvec2">     -0.00000000       0.50000000       0.00000000 </v>
   <v name="genvec3">      0.00000000      -0.00000000       0.50000000 </v>
   <v name="shift">      0.50000000       0.50000000       0.50000000 </v>
  </generation>
  <varray name="kpointlist" >
   <v>       0.25000000       0.25000000       0.25000000 </v>
   <v>      -0.25000000       0.25000000       0.25000000 </v>
   <v>       0.25000000      -0.25000000       0.25000000 </v>
   <v>      -0.25000000      -0.25000000       0.25000000 </v>
  </varray>
  <varray name="weights" >
   <v>       0.25000000 </v>
   <v>       0.25000000 </v>
   <v>       0.25000000 </v>
   <v>       0.25000000 </v>
  </varray>
 </kpoints>
 <parameters>
  <separator name="general" >
   <i type="string" name="SYSTEM">STF</i>
   <i type="logical" name="LCOMPAT"> F  </i>
  </separator>
  <separator name="electronic" >
   <i type="string" name="PREC">normal</i>
   <i name="ENMAX">    520.00000000</i>
   <i name="ENAUG">    605.39200000</i>
   <i name="EDIFF">      0.00010000</i>
   <i type="int" name="IALGO">    68</i>
   <i type="int" name="IWAVPR">    11</i>
   <i type="int" name="NBANDS">   768</i>
   <i name="NELECT">   1048.00000000</i>
   <i type="int" name="TURBO">     0</i>
   <i type="int" name="IRESTART">     0</i>
   <i type="int" name="NREBOOT">     0</i>
   <i type="int" name="NMIN">     0</i>
   <i name="EREF">      0.00000000</i>
   <separator name="electronic smearing" >
    <i type="int" name="ISMEAR">     0</i>
    <i name="SIGMA">      0.05000000</i>
    <i name="KSPACING">      0.50000000</i>
    <i type="logical" name="KGAMMA"> T  </i>
   </separator>
   <separator name="electronic projectors" >
    <i type="logical" name="LREAL"> T  </i>
    <v name="ROPT">     -0.00050000     -0.00050000     -0.00050000     -0.00050000</v>
    <i type="int" name="LMAXPAW">  -100</i>
    <i type="int" name="LMAXMIX">     4</i>
    <i type="logical" name="NLSPLINE"> F  </i>
   </separator>
   <separator name="electronic startup" >
    <i type="int" name="ISTART">     1</i>
    <i type="int" name="ICHARG">     0</i>
    <i type="int" name="INIWAV">     1</i>
   </separator>
   <separator name="electronic spin" >
    <i type="int" name="ISPIN">     2</i>
    <i type="logical" name="LNONCOLLINEAR"> F  </i>
    <v name="MAGMOM">      0.60000000      0.60000000      0.60000000      0.60000000      0.60000000      0.60000000      0.60000000      0.60000000      0.60000000      0.60000000      0.60000000      0.60000000      0.60000000      0.60000000      0.60000000      0.60000000      0.60000000      0.60000000      0.60000000      0.60000000
      0.60000000      0.60000000      0.60000000      0.60000000      0.60000000      0.60000000      0.60000000      0.60000000      0.60000000      0.60000000      0.60000000      0.60000000      0.60000000      0.60000000      0.60000000      0.60000000      0.60000000      0.60000000      0.60000000      0.60000000
      5.00000000      5.00000000      5.00000000      5.00000000      5.00000000      5.00000000      5.00000000      5.00000000      5.00000000      5.00000000      5.00000000      5.00000000      5.00000000      5.00000000      5.00000000      5.00000000      5.00000000      5.00000000      5.00000000      5.00000000
      5.00000000      5.00000000      5.00000000      5.00000000      0.60000000      0.60000000      0.60000000      0.60000000      0.60000000      0.60000000      0.60000000      0.60000000      0.60000000      0.60000000      0.60000000      0.60000000      0.60000000      0.60000000      0.60000000      0.60000000
      0.60000000      0.60000000      0.60000000      0.60000000      0.60000000      0.60000000      0.60000000      0.60000000      0.60000000      0.60000000      0.60000000      0.60000000      0.60000000      0.60000000      0.60000000      0.60000000      0.60000000      0.60000000      0.60000000      0.60000000
      0.60000000      0.60000000      0.60000000      0.60000000      0.60000000      0.60000000      0.60000000      0.60000000      0.60000000      0.60000000      0.60000000      0.60000000      0.60000000      0.60000000      0.60000000      0.60000000      0.60000000      0.60000000      0.60000000      0.60000000
      0.60000000      0.60000000      0.60000000      0.60000000      0.60000000      0.60000000      0.60000000      0.60000000      0.60000000      0.60000000      0.60000000      0.60000000      0.60000000      0.60000000      0.60000000      0.60000000      0.60000000      0.60000000      0.60000000      0.60000000
      0.60000000      0.60000000      0.60000000      0.60000000      0.60000000      0.60000000      0.60000000      0.60000000</v>
    <i name="NUPDOWN">     -1.00000000</i>
    <i type="logical" name="LSORBIT"> F  </i>
    <v name="SAXIS">      0.00000000      0.00000000      1.00000000</v>
    <i type="logical" name="LSPIRAL"> F  </i>
    <v name="QSPIRAL">      0.00000000      0.00000000      0.00000000</v>
    <i type="logical" name="LZEROZ"> F  </i>
   </separator>
   <separator name="electronic exchange-correlation" >
    <i type="logical" name="LASPH"> F  </i>
    <i type="logical" name="LMETAGGA"> F  </i>
   </separator>
   <separator name="electronic convergence" >
    <i type="int" name="NELM">    40</i>
    <i type="int" name="NELMDL">     0</i>
    <i type="int" name="NELMIN">     8</i>
    <i name="ENINI">    520.00000000</i>
    <separator name="electronic convergence detail" >
     <i type="logical" name="LDIAG"> T  </i>
     <i type="logical" name="LSUBROT"> F  </i>
     <i name="WEIMIN">      0.00100000</i>
     <i name="EBREAK">      0.00000003</i>
     <i name="DEPER">      0.30000000</i>
     <i type="int" name="NRMM">     4</i>
     <i name="TIME">      0.40000000</i>
    </separator>
   </separator>
   <separator name="electronic mixer" >
    <i name="AMIX">      0.40000000</i>
    <i name="BMIX">      1.00000000</i>
    <i name="AMIN">      0.10000000</i>
    <i name="AMIX_MAG">      1.60000000</i>
    <i name="BMIX_MAG">      1.00000000</i>
    <separator name="electronic mixer details" >
     <i type="int" name="IMIX">     4</i>
     <i type="logical" name="MIXFIRST"> F  </i>
     <i type="int" name="MAXMIX">   -45</i>
     <i name="WC">    100.00000000</i>
     <i type="int" name="INIMIX">     1</i>
     <i type="int" name="MIXPRE">     1</i>
     <i type="int" name="MREMOVE">     5</i>
    </separator>
   </separator>
   <separator name="electronic dipolcorrection" >
    <i type="logical" name="LDIPOL"> F  </i>
    <i type="logical" name="LMONO"> F  </i>
    <i type="int" name="IDIPOL">     0</i>
    <i name="EPSILON">      1.00000000</i>
    <v name="DIPOL">   -100.00000000   -100.00000000   -100.00000000</v>
    <i name="EFIELD">      0.00000000</i>
   </separator>
  </separator>
  <separator name="grids" >
   <i type="int" name="NGX">    64</i>
   <i type="int" name="NGY">    64</i>
   <i type="int" name="NGZ">    90</i>
   <i type="int" name="NGXF">   128</i>
   <i type="int" name="NGYF">   128</i>
   <i type="int" name="NGZF">   180</i>
   <i type="logical" name="ADDGRID"> F  </i>
  </separator>
  <separator name="ionic" >
   <i type="int" name="NSW">    30</i>
   <i type="int" name="IBRION">     2</i>
   <i type="int" name="ISIF">     3</i>
   <i name="PSTRESS">      0.00000000</i>
   <i name="EDIFFG">     -0.03000000</i>
   <i type="int" name="NFREE">     1</i>
   <i name="POTIM">      0.50000000</i>
   <i name="SMASS">     -3.00000000</i>
   <i name="SCALEE">      1.00000000</i>
  </separator>
  <separator name="ionic md" >
   <i name="TEBEG">      0.00010000</i>
   <i name="TEEND">      0.00010000</i>
   <i type="int" name="NBLOCK">     1</i>
   <i type="int" name="KBLOCK">    30</i>
   <i type="int" name="NPACO">   256</i>
   <i name="APACO">     16.00000000</i>
  </separator>
  <separator name="symmetry" >
   <i type="int" name="ISYM">     2</i>
   <i name="SYMPREC">      0.00001000</i>
  </separator>
  <separator name="dos" >
   <i type="logical" name="LORBIT"> F  </i>
   <v name="RWIGS">     -1.00000000     -1.00000000     -1.00000000     -1.00000000</v>
   <i type="int" name="NEDOS">   301</i>
   <i name="EMIN">     10.00000000</i>
   <i name="EMAX">    -10.00000000</i>
   <i name="EFERMI">      0.00000000</i>
  </separator>
  <separator name="writing" >
   <i type="int" name="NWRITE">     2</i>
   <i type="logical" name="LWAVE"> T  </i>
   <i type="logical" name="LCHARG"> T  </i>
   <i type="logical" name="LPARD"> F  </i>
   <i type="logical" name="LVTOT"> F  </i>
   <i type="logical" name="LVHAR"> F  </i>
   <i type="logical" name="LELF"> F  </i>
   <i type="logical" name="LOPTICS"> F  </i>
   <v name="STM">      0.00000000      0.00000000      0.00000000      0.00000000      0.00000000      0.00000000      0.00000000</v>
  </separator>
  <separator name="performance" >
   <i type="int" name="NPAR">     2</i>
   <i type="int" name="NSIM">     4</i>
   <i type="int" name="NBLK">    -1</i>
   <i type="logical" name="LPLANE"> T  </i>
   <i type="logical" name="LSCALAPACK"> T  </i>
   <i type="logical" name="LSCAAWARE"> F  </i>
   <i type="logical" name="LSCALU"> F  </i>
   <i type="logical" name="LASYNC"> F  </i>
   <i type="logical" name="LORBITALREAL"> F  </i>
  </separator>
  <separator name="miscellaneous" >
   <i type="int" name="IDIOT">     3</i>
   <i type="logical" name="LMUSIC"> F  </i>
   <v name="POMASS">     87.62000000     47.88000000     55.84700000     16.00000000</v>
   <v name="DARWINR">      0.00000000      0.00000000      0.00000000      0.00000000</v>
   <v name="DARWINV">      1.00000000      1.00000000      1.00000000      1.00000000</v>
   <i type="logical" name="LCORR"> T  </i>
  </separator>
  <i type="logical" name="GGA_COMPAT"> T  </i>
  <i type="logical" name="LBERRY"> F  </i>
  <i type="int" name="ICORELEVEL">     0</i>
  <i type="logical" name="LDAU"> T  </i>
  <v type="int" name="LDAUTYPE">     2</v>
  <v type="int" name="LDAUL">     0</v>
  <v name="LDAUU">      0.00000000</v>
  <v name="LDAUJ">      0.00000000</v>
  <i type="int" name="LDAUPRINT">     1</i>
  <i type="int" name="I_CONSTRAINED_M">     0</i>
  <separator name="electronic exchange-correlation" >
   <i type="string" name="GGA">--</i>
   <i type="int" name="VOSKOWN">     0</i>
   <i type="logical" name="LHFCALC"> F  </i>
   <i type="string" name="PRECFOCK"></i>
   <i type="logical" name="LSYMGRAD"> F  </i>
   <i type="logical" name="LHFONE"> F  </i>
   <i type="logical" name="LRHFCALC"> F  </i>
   <i type="logical" name="LTHOMAS"> F  </i>
   <i type="logical" name="LMODELHF"> F  </i>
   <i name="ENCUT4O">     -1.00000000</i>
   <i type="int" name="EXXOEP">     0</i>
   <i type="int" name="FOURORBIT">     0</i>
   <i name="AEXX">      0.00000000</i>
   <i name="HFALPHA">      0.00000000</i>
   <i name="MCALPHA">      0.00000000</i>
   <i name="ALDAX">      1.00000000</i>
   <i name="AGGAX">      1.00000000</i>
   <i name="ALDAC">      1.00000000</i>
   <i name="AGGAC">      1.00000000</i>
   <i type="int" name="NKREDX">     1</i>
   <i type="int" name="NKREDY">     1</i>
   <i type="int" name="NKREDZ">     1</i>
   <i type="logical" name="SHIFTRED"> F  </i>
   <i type="logical" name="ODDONLY"> F  </i>
   <i type="logical" name="EVENONLY"> F  </i>
   <i type="int" name="LMAXFOCK">     0</i>
   <i type="int" name="NMAXFOCKAE">     0</i>
   <i type="logical" name="LFOCKAEDFT"> F  </i>
   <i name="HFSCREEN">      0.00000000</i>
   <i name="HFSCREENC">      0.00000000</i>
   <i type="int" name="NBANDSGWLOW">     0</i>
  </separator>
  <separator name="vdW DFT" >
   <i type="logical" name="LUSE_VDW"> F  </i>
   <i name="Zab_VDW">     -0.84910000</i>
   <i name="PARAM1">      0.12340000</i>
   <i name="PARAM2">      1.00000000</i>
   <i name="PARAM3">      0.00000000</i>
  </separator>
  <separator name="model GW" >
   <i type="int" name="MODEL_GW">     0</i>
   <i name="MODEL_EPS0">      8.16676801</i>
   <i name="MODEL_ALPHA">      1.00000000</i>
  </separator>
  <separator name="linear response parameters" >
   <i type="logical" name="LEPSILON"> F  </i>
   <i type="logical" name="LRPA"> F  </i>
   <i type="logical" name="LNABLA"> F  </i>
   <i type="logical" name="LVEL"> F  </i>
   <i type="int" name="KINTER">     0</i>
   <i name="CSHIFT">      0.10000000</i>
   <i name="OMEGAMAX">     -1.00000000</i>
   <i name="DEG_THRESHOLD">      0.00200000</i>
  </separator>
  <separator name="orbital magnetization" >
   <i type="logical" name="NUCIND"> F  </i>
   <v name="MAGPOS">      0.00000000      0.00000000      0.00000000</v>
   <i type="logical" name="LNICSALL"> T  </i>
   <i type="logical" name="ORBITALMAG"> F  </i>
   <i type="logical" name="LMAGBLOCH"> F  </i>
   <i type="logical" name="LCHIMAG"> F  </i>
   <i type="logical" name="LGAUGE"> T  </i>
   <i type="int" name="MAGATOM">     0</i>
   <v name="MAGDIPOL">      0.00000000      0.00000000      0.00000000</v>
   <v name="AVECCONST">      0.00000000      0.00000000      0.00000000</v>
  </separator>
  <separator name="response functions" >
   <i type="logical" name="LADDER"> F  </i>
   <i type="logical" name="LFXC"> F  </i>
   <i type="logical" name="LHARTREE"> T  </i>
   <i type="int" name="IBSE">     0</i>
   <v type="int" name="KPOINT">    -1     0     0     0</v>
   <i type="logical" name="LTCTE"> F  </i>
   <i type="logical" name="LTETE"> F  </i>
   <i type="logical" name="LTRIPLET"> F  </i>
   <i type="logical" name="LFXCEPS"> F  </i>
   <i type="logical" name="LFXHEG"> F  </i>
   <i type="int" name="NATURALO">     0</i>
   <i type="logical" name="L2ORDER"> F  </i>
   <i type="logical" name="LUSEW"> F  </i>
   <i name="ENCUTGW">     -2.00000000</i>
   <i name="ENCUTGWSOFT">     -2.00000000</i>
   <i name="ENCUTLF">     -1.00000000</i>
   <i type="int" name="LMAXMP2">    -1</i>
   <i name="SCISSOR">      0.00000000</i>
   <i type="int" name="NOMEGA">     0</i>
   <i type="int" name="NOMEGAR">     0</i>
   <i type="int" name="NBANDSGW">    -1</i>
   <i type="int" name="NBANDSO">    -1</i>
   <i type="int" name="NBANDSV">    -1</i>
   <i type="int" name="NELM">    40</i>
   <i type="int" name="NELMHF">     1</i>
   <i type="int" name="DIM">     3</i>
   <i type="int" name="ANTIRES">     0</i>
   <i name="OMEGAMAX">    -30.00000000</i>
   <i name="OMEGAMIN">    -30.00000000</i>
   <i name="OMEGATL">   -200.00000000</i>
   <i type="int" name="OMEGAGRID">     0</i>
   <i name="CSHIFT">     -0.10000000</i>
   <i type="logical" name="SELFENERGY"> F  </i>
   <i type="logical" name="LSPECTRAL"> F  </i>
   <i type="logical" name="LSPECTRALGW"> F  </i>
   <i type="logical" name="LSINGLES"> F  </i>
   <i type="logical" name="LFERMIGW"> F  </i>
   <i type="logical" name="ODDONLYGW"> F  </i>
   <i type="logical" name="EVENONLYGW"> F  </i>
   <i type="int" name="NKREDLFX">     1</i>
   <i type="int" name="NKREDLFY">     1</i>
   <i type="int" name="NKREDLFZ">     1</i>
   <i type="int" name="MAXMEM">  1800</i>
   <i type="int" name="TELESCOPE">     0</i>
   <i type="int" name="TAUPAR">     1</i>
   <i type="int" name="OMEGAPAR">    -1</i>
   <i name="LAMBDA">      1.00000000</i>
  </separator>
  <separator name="External order field" >
   <i name="OFIELD_KAPPA">      0.00000000</i>
   <v name="OFIELD_K">      0.00000000      0.00000000      0.00000000</v>
   <i name="OFIELD_Q6_NEAR">      0.00000000</i>
   <i name="OFIELD_Q6_FAR">      0.00000000</i>
   <i name="OFIELD_A">      0.00000000</i>
  </separator>
 </parameters>
 <atominfo>
  <atoms>     148 </atoms>
  <types>       4 </types>
  <array name="atoms" >
   <dimension dim="1">ion</dimension>
   <field type="string">element</field>
   <field type="int">atomtype</field>
   <set>
    <rc><c>Sr</c><c>   1</c></rc>
    <rc><c>Sr</c><c>   1</c></rc>
    <rc><c>Sr</c><c>   1</c></rc>
    <rc><c>Sr</c><c>   1</c></rc>
    <rc><c>Sr</c><c>   1</c></rc>
    <rc><c>Sr</c><c>   1</c></rc>
    <rc><c>Sr</c><c>   1</c></rc>
    <rc><c>Sr</c><c>   1</c></rc>
    <rc><c>Sr</c><c>   1</c></rc>
    <rc><c>Sr</c><c>   1</c></rc>
    <rc><c>Sr</c><c>   1</c></rc>
    <rc><c>Sr</c><c>   1</c></rc>
    <rc><c>Sr</c><c>   1</c></rc>
    <rc><c>Sr</c><c>   1</c></rc>
    <rc><c>Sr</c><c>   1</c></rc>
    <rc><c>Sr</c><c>   1</c></rc>
    <rc><c>Sr</c><c>   1</c></rc>
    <rc><c>Sr</c><c>   1</c></rc>
    <rc><c>Sr</c><c>   1</c></rc>
    <rc><c>Sr</c><c>   1</c></rc>
    <rc><c>Sr</c><c>   1</c></rc>
    <rc><c>Sr</c><c>   1</c></rc>
    <rc><c>Sr</c><c>   1</c></rc>
    <rc><c>Sr</c><c>   1</c></rc>
    <rc><c>Sr</c><c>   1</c></rc>
    <rc><c>Sr</c><c>   1</c></rc>
    <rc><c>Sr</c><c>   1</c></rc>
    <rc><c>Sr</c><c>   1</c></rc>
    <rc><c>Sr</c><c>   1</c></rc>
    <rc><c>Sr</c><c>   1</c></rc>
    <rc><c>Sr</c><c>   1</c></rc>
    <rc><c>Sr</c><c>   1</c></rc>
    <rc><c>Ti</c><c>   2</c></rc>
    <rc><c>Ti</c><c>   2</c></rc>
    <rc><c>Ti</c><c>   2</c></rc>
    <rc><c>Ti</c><c>   2</c></rc>
    <rc><c>Ti</c><c>   2</c></rc>
    <rc><c>Ti</c><c>   2</c></rc>
    <rc><c>Ti</c><c>   2</c></rc>
    <rc><c>Ti</c><c>   2</c></rc>
    <rc><c>Fe</c><c>   3</c></rc>
    <rc><c>Fe</c><c>   3</c></rc>
    <rc><c>Fe</c><c>   3</c></rc>
    <rc><c>Fe</c><c>   3</c></rc>
    <rc><c>Fe</c><c>   3</c></rc>
    <rc><c>Fe</c><c>   3</c></rc>
    <rc><c>Fe</c><c>   3</c></rc>
    <rc><c>Fe</c><c>   3</c></rc>
    <rc><c>Fe</c><c>   3</c></rc>
    <rc><c>Fe</c><c>   3</c></rc>
    <rc><c>Fe</c><c>   3</c></rc>
    <rc><c>Fe</c><c>   3</c></rc>
    <rc><c>Fe</c><c>   3</c></rc>
    <rc><c>Fe</c><c>   3</c></rc>
    <rc><c>Fe</c><c>   3</c></rc>
    <rc><c>Fe</c><c>   3</c></rc>
    <rc><c>Fe</c><c>   3</c></rc>
    <rc><c>Fe</c><c>   3</c></rc>
    <rc><c>Fe</c><c>   3</c></rc>
    <rc><c>Fe</c><c>   3</c></rc>
    <rc><c>Fe</c><c>   3</c></rc>
    <rc><c>Fe</c><c>   3</c></rc>
    <rc><c>Fe</c><c>   3</c></rc>
    <rc><c>Fe</c><c>   3</c></rc>
    <rc><c>O </c><c>   4</c></rc>
    <rc><c>O </c><c>   4</c></rc>
    <rc><c>O </c><c>   4</c></rc>
    <rc><c>O </c><c>   4</c></rc>
    <rc><c>O </c><c>   4</c></rc>
    <rc><c>O </c><c>   4</c></rc>
    <rc><c>O </c><c>   4</c></rc>
    <rc><c>O </c><c>   4</c></rc>
    <rc><c>O </c><c>   4</c></rc>
    <rc><c>O </c><c>   4</c></rc>
    <rc><c>O </c><c>   4</c></rc>
    <rc><c>O </c><c>   4</c></rc>
    <rc><c>O </c><c>   4</c></rc>
    <rc><c>O </c><c>   4</c></rc>
    <rc><c>O </c><c>   4</c></rc>
    <rc><c>O </c><c>   4</c></rc>
    <rc><c>O </c><c>   4</c></rc>
    <rc><c>O </c><c>   4</c></rc>
    <rc><c>O </c><c>   4</c></rc>
    <rc><c>O </c><c>   4</c></rc>
    <rc><c>O </c><c>   4</c></rc>
    <rc><c>O </c><c>   4</c></rc>
    <rc><c>O </c><c>   4</c></rc>
    <rc><c>O </c><c>   4</c></rc>
    <rc><c>O </c><c>   4</c></rc>
    <rc><c>O </c><c>   4</c></rc>
    <rc><c>O </c><c>   4</c></rc>
    <rc><c>O </c><c>   4</c></rc>
    <rc><c>O </c><c>   4</c></rc>
    <rc><c>O </c><c>   4</c></rc>
    <rc><c>O </c><c>   4</c></rc>
    <rc><c>O </c><c>   4</c></rc>
    <rc><c>O </c><c>   4</c></rc>
    <rc><c>O </c><c>   4</c></rc>
    <rc><c>O </c><c>   4</c></rc>
    <rc><c>O </c><c>   4</c></rc>
    <rc><c>O </c><c>   4</c></rc>
    <rc><c>O </c><c>   4</c></rc>
    <rc><c>O </c><c>   4</c></rc>
    <rc><c>O </c><c>   4</c></rc>
    <rc><c>O </c><c>   4</c></rc>
    <rc><c>O </c><c>   4</c></rc>
    <rc><c>O </c><c>   4</c></rc>
    <rc><c>O </c><c>   4</c></rc>
    <rc><c>O </c><c>   4</c></rc>
    <rc><c>O </c><c>   4</c></rc>
    <rc><c>O </c><c>   4</c></rc>
    <rc><c>O </c><c>   4</c></rc>
    <rc><c>O </c><c>   4</c></rc>
    <rc><c>O </c><c>   4</c></rc>
    <rc><c>O </c><c>   4</c></rc>
    <rc><c>O </c><c>   4</c></rc>
    <rc><c>O </c><c>   4</c></rc>
    <rc><c>O </c><c>   4</c></rc>
    <rc><c>O </c><c>   4</c></rc>
    <rc><c>O </c><c>   4</c></rc>
    <rc><c>O </c><c>   4</c></rc>
    <rc><c>O </c><c>   4</c></rc>
    <rc><c>O </c><c>   4</c></rc>
    <rc><c>O </c><c>   4</c></rc>
    <rc><c>O </c><c>   4</c></rc>
    <rc><c>O </c><c>   4</c></rc>
    <rc><c>O </c><c>   4</c></rc>
    <rc><c>O </c><c>   4</c></rc>
    <rc><c>O </c><c>   4</c></rc>
    <rc><c>O </c><c>   4</c></rc>
    <rc><c>O </c><c>   4</c></rc>
    <rc><c>O </c><c>   4</c></rc>
    <rc><c>O </c><c>   4</c></rc>
    <rc><c>O </c><c>   4</c></rc>
    <rc><c>O </c><c>   4</c></rc>
    <rc><c>O </c><c>   4</c></rc>
    <rc><c>O </c><c>   4</c></rc>
    <rc><c>O </c><c>   4</c></rc>
    <rc><c>O </c><c>   4</c></rc>
    <rc><c>O </c><c>   4</c></rc>
    <rc><c>O </c><c>   4</c></rc>
    <rc><c>O </c><c>   4</c></rc>
    <rc><c>O </c><c>   4</c></rc>
    <rc><c>O </c><c>   4</c></rc>
    <rc><c>O </c><c>   4</c></rc>
    <rc><c>O </c><c>   4</c></rc>
    <rc><c>O </c><c>   4</c></rc>
    <rc><c>O </c><c>   4</c></rc>
   </set>
  </array>
  <array name="atomtypes" >
   <dimension dim="1">type</dimension>
   <field type="int">atomspertype</field>
   <field type="string">element</field>
   <field>mass</field>
   <field>valence</field>
   <field type="string">pseudopotential</field>
   <set>
    <rc><c>  32</c><c>Sr</c><c>     87.62000000</c><c>     10.00000000</c><c>  PAW_PBE Sr_sv 07Sep2000               </c></rc>
    <rc><c>   8</c><c>Ti</c><c>     47.88000000</c><c>      4.00000000</c><c>  PAW_PBE Ti 08Apr2002                  </c></rc>
    <rc><c>  24</c><c>Fe</c><c>     55.84700000</c><c>      8.00000000</c><c>  PAW_PBE Fe 06Sep2000                  </c></rc>
    <rc><c>  84</c><c>O </c><c>     16.00000000</c><c>      6.00000000</c><c>  PAW_PBE O 08Apr2002                   </c></rc>
   </set>
  </array>
 </atominfo>
 <structure name="initialpos" >
  <crystal>
   <varray name="basis" >
    <v>      11.20804573      -0.00617499       0.00196722 </v>
    <v>      -0.00518823      11.34078259      -0.00755623 </v>
    <v>       0.00269280      -0.01004935      15.84849659 </v>
   </varray>
   <i name="volume">   2014.46944182 </i>
   <varray name="rec_basis" >
    <v>       0.08922165       0.00004081      -0.00001513 </v>
    <v>       0.00004857       0.08817740       0.00005590 </v>
    <v>      -0.00001105       0.00004204       0.06309750 </v>
   </varray>
  </crystal>
  <varray name="positions" >
   <v>       0.98709338       0.24839154       0.12149644 </v>
   <v>       0.99461228       0.24152625       0.60868666 </v>
   <v>       0.00769680       0.74930999       0.12141676 </v>
   <v>       0.99947634       0.74063663       0.60773214 </v>
   <v>       0.50769680       0.24930999       0.12141676 </v>
   <v>       0.49947634       0.24063663       0.60773214 </v>
   <v>       0.48709338       0.74839154       0.12149644 </v>
   <v>       0.49461228       0.74152625       0.60868666 </v>
   <v>       0.98551813       0.24785614       0.38208024 </v>
   <v>       0.00451434       0.24129379       0.89052791 </v>
   <v>       0.00610810       0.74651295       0.38069700 </v>
   <v>       0.99521447       0.74158878       0.89124590 </v>
   <v>       0.50610810       0.24651295       0.38069700 </v>
   <v>       0.49521447       0.24158878       0.89124590 </v>
   <v>       0.48551813       0.74785614       0.38208024 </v>
   <v>       0.50451434       0.74129379       0.89052791 </v>
   <v>       0.24596200       0.98799086       0.11585540 </v>
   <v>       0.25036297       0.00804620       0.61048327 </v>
   <v>       0.24705628       0.52195298       0.12480004 </v>
   <v>       0.24827984       0.50752321       0.60581728 </v>
   <v>       0.74705628       0.02195298       0.12480004 </v>
   <v>       0.74827984       0.00752321       0.60581728 </v>
   <v>       0.74596200       0.48799086       0.11585540 </v>
   <v>       0.75036297       0.50804620       0.61048327 </v>
   <v>       0.24302783       0.98968544       0.38637106 </v>
   <v>       0.24973491       0.01287111       0.88871446 </v>
   <v>       0.24799231       0.52002890       0.37829473 </v>
   <v>       0.24712389       0.50317305       0.89284829 </v>
   <v>       0.74799231       0.02002890       0.37829473 </v>
   <v>       0.74712389       0.00317305       0.89284829 </v>
   <v>       0.74302783       0.48968544       0.38637106 </v>
   <v>       0.74973491       0.51287111       0.88871446 </v>
   <v>       0.99586841       0.99882053       0.00257561 </v>
   <v>       0.49658190       0.99967161       0.00343091 </v>
   <v>       0.74416396       0.74777724       0.49427729 </v>
   <v>       0.24416396       0.24777724       0.49427729 </v>
   <v>       0.49586841       0.49882053       0.00257561 </v>
   <v>       0.99658190       0.49967161       0.00343091 </v>
   <v>       0.75032088       0.25946418       0.24945733 </v>
   <v>       0.25032088       0.75946418       0.24945733 </v>
   <v>       0.99536104       0.99955263       0.49458439 </v>
   <v>       0.74546015       0.25153529       0.50358492 </v>
   <v>       0.99469890       0.50025543       0.49218040 </v>
   <v>       0.49469890       0.00025543       0.49218040 </v>
   <v>       0.24546015       0.75153529       0.50358492 </v>
   <v>       0.49536104       0.49955263       0.49458439 </v>
   <v>       0.74534331       0.74583092       0.01788622 </v>
   <v>       0.01077331       0.49255857       0.25002607 </v>
   <v>       0.76568250       0.28509602       0.75100321 </v>
   <v>       0.24685687       0.75067006       0.99462977 </v>
   <v>       0.74685687       0.25067006       0.99462977 </v>
   <v>       0.51422215       0.46161279       0.75224072 </v>
   <v>       0.51870095       0.96338981       0.75228711 </v>
   <v>       0.26708981       0.28934969       0.74444542 </v>
   <v>       0.24534331       0.24583092       0.01788622 </v>
   <v>       0.75363981       0.77341226       0.25273232 </v>
   <v>       0.76708981       0.78934969       0.74444542 </v>
   <v>       0.99203823       0.98534340       0.25034575 </v>
   <v>       0.01422215       0.96161279       0.75224072 </v>
   <v>       0.26568250       0.78509602       0.75100321 </v>
   <v>       0.01870095       0.46338981       0.75228711 </v>
   <v>       0.51077331       0.99255857       0.25002607 </v>
   <v>       0.25363981       0.27341226       0.25273232 </v>
   <v>       0.49203823       0.48534340       0.25034575 </v>
   <v>       0.00455035       0.00121411       0.12492018 </v>
   <v>       0.97886292       0.02321144       0.64741965 </v>
   <v>       0.98491517       0.50741522       0.12629327 </v>
   <v>       0.98368539       0.52497662       0.64775459 </v>
   <v>       0.48491517       0.00741522       0.12629327 </v>
   <v>       0.48368539       0.02497662       0.64775459 </v>
   <v>       0.50455035       0.50121411       0.12492018 </v>
   <v>       0.47886292       0.52321144       0.64741965 </v>
   <v>       0.00527627       0.00978489       0.37048553 </v>
   <v>       0.98399849       0.01182567       0.86542055 </v>
   <v>       0.97954550       0.51352644       0.36806776 </v>
   <v>       0.99666713       0.51452740       0.86634245 </v>
   <v>       0.47954550       0.01352644       0.36806776 </v>
   <v>       0.49666713       0.01452740       0.86634245 </v>
   <v>       0.50527627       0.50978489       0.37048553 </v>
   <v>       0.48399849       0.51182567       0.86542055 </v>
   <v>       0.23612753       0.21853901       0.36421636 </v>
   <v>       0.23215586       0.22608735       0.84834919 </v>
   <v>       0.24681404       0.75435809       0.37393737 </v>
   <v>       0.23635270       0.72528436       0.86018887 </v>
   <v>       0.74681404       0.25435809       0.37393737 </v>
   <v>       0.73635270       0.22528436       0.86018887 </v>
   <v>       0.73612753       0.71853901       0.36421636 </v>
   <v>       0.73215586       0.72608735       0.84834919 </v>
   <v>       0.23455006       0.20950576       0.14272416 </v>
   <v>       0.23975455       0.24331364       0.63104873 </v>
   <v>       0.24613793       0.75575970       0.12179515 </v>
   <v>       0.23716867       0.72859763       0.64190547 </v>
   <v>       0.74613793       0.25575970       0.12179515 </v>
   <v>       0.73716867       0.22859763       0.64190547 </v>
   <v>       0.73455006       0.70950576       0.14272416 </v>
   <v>       0.73975455       0.74331364       0.63104873 </v>
   <v>       0.15269785       0.40222226       0.24881336 </v>
   <v>       0.40636951       0.33821222       0.25005867 </v>
   <v>       0.65129697       0.40793282       0.24872430 </v>
   <v>       0.89230734       0.36356293       0.24709376 </v>
   <v>       0.15129697       0.90793282       0.24872430 </v>
   <v>       0.39230734       0.86356293       0.24709376 </v>
   <v>       0.65269785       0.90222226       0.24881336 </v>
   <v>       0.90636951       0.83821222       0.25005867 </v>
   <v>       0.12230575       0.12349991       0.50355797 </v>
   <v>       0.37028421       0.12869373       0.50037442 </v>
   <v>       0.62172278       0.12153678       0.49781570 </v>
   <v>       0.87253019       0.12700014       0.49852293 </v>
   <v>       0.11995811       0.37209915       0.49333686 </v>
   <v>       0.36690463       0.37381756       0.49322602 </v>
   <v>       0.61960460       0.37615024       0.50840760 </v>
   <v>       0.87182127       0.37618221       0.50857668 </v>
   <v>       0.12172278       0.62153678       0.49781570 </v>
   <v>       0.37253019       0.62700014       0.49852293 </v>
   <v>       0.62230575       0.62349991       0.50355797 </v>
   <v>       0.87028421       0.62869373       0.50037442 </v>
   <v>       0.11960460       0.87615024       0.50840760 </v>
   <v>       0.37182127       0.87618221       0.50857668 </v>
   <v>       0.61995811       0.87209915       0.49333686 </v>
   <v>       0.86690463       0.87381756       0.49322602 </v>
   <v>       0.18964627       0.44056482       0.74921553 </v>
   <v>       0.43857412       0.30976439       0.75001856 </v>
   <v>       0.68551160       0.43561974       0.75112671 </v>
   <v>       0.93692535       0.31366961       0.75195101 </v>
   <v>       0.18551160       0.93561974       0.75112671 </v>
   <v>       0.43692535       0.81366961       0.75195101 </v>
   <v>       0.68964627       0.94056482       0.74921553 </v>
   <v>       0.93857412       0.80976439       0.75001856 </v>
   <v>       0.12301652       0.12146154       0.99824394 </v>
   <v>       0.37243485       0.12746795       0.99974713 </v>
   <v>       0.62251776       0.12128637       0.00185828 </v>
   <v>       0.87420003       0.12596410       0.00118352 </v>
   <v>       0.12034843       0.37149619       0.00521427 </v>
   <v>       0.36761828       0.37368798       0.00573172 </v>
   <v>       0.61949871       0.37516311       0.99000135 </v>
   <v>       0.87261696       0.37621292       0.99055483 </v>
   <v>       0.12251776       0.62128637       0.00185828 </v>
   <v>       0.37420003       0.62596410       0.00118352 </v>
   <v>       0.62301652       0.62146154       0.99824394 </v>
   <v>       0.87243485       0.62746795       0.99974713 </v>
   <v>       0.11949871       0.87516311       0.99000135 </v>
   <v>       0.37261696       0.87621292       0.99055483 </v>
   <v>       0.62034843       0.87149619       0.00521427 </v>
   <v>       0.86761828       0.87368798       0.00573172 </v>
   <v>       0.60980711       0.14603790       0.24699757 </v>
   <v>       0.87234221       0.12003782       0.24602301 </v>
   <v>       0.10980711       0.64603790       0.24699757 </v>
   <v>       0.37234221       0.62003782       0.24602301 </v>
  </varray>
 </structure>
 <calculation>
  <scstep>
   <time name="dav">  307.08  307.07</time>
   <time name="total">  310.81  310.90</time>
   <energy>
    <i name="alphaZ">   5578.35072653 </i>
    <i name="ewald"> -62599.07898794 </i>
    <i name="hartreedc"> -18979.45295576 </i>
    <i name="XCdc">   3409.33472047 </i>
    <i name="pawpsdc"> 119680.80052091 </i>
    <i name="pawaedc">-119187.60295922 </i>
    <i name="eentropy">     -0.00000000 </i>
    <i name="bandstr">  -7214.06888668 </i>
    <i name="atom">  78316.90445604 </i>
    <i name="e_fr_energy">   -994.81336565 </i>
    <i name="e_wo_entrp">   -994.81336565 </i>
    <i name="e_0_energy">   -994.81336565 </i>
   </energy>
  </scstep>
  <scstep>
   <time name="diag">   33.48   33.48</time>
   <time name="diis">   32.37   32.37</time>
   <time name="orth">   19.00   19.00</time>
   <time name="total">   88.65   88.68</time>
   <energy>
    <i name="e_fr_energy">   -994.81336988 </i>
    <i name="e_wo_entrp">   -994.81336988 </i>
    <i name="e_0_energy">   -994.81336988 </i>
   </energy>
  </scstep>
  <scstep>
   <time name="diag">   33.52   33.52</time>
   <time name="diis">   32.01   32.00</time>
   <time name="orth">   18.99   18.99</time>
   <time name="total">   88.31   88.33</time>
   <energy>
    <i name="e_fr_energy">   -994.81337210 </i>
    <i name="e_wo_entrp">   -994.81337210 </i>
    <i name="e_0_energy">   -994.81337210 </i>
   </energy>
  </scstep>
  <scstep>
   <time name="diag">   33.50   33.50</time>
   <time name="diis">   31.27   31.27</time>
   <time name="orth">   19.02   19.02</time>
   <time name="total">   87.59   87.71</time>
   <energy>
    <i name="e_fr_energy">   -994.81337838 </i>
    <i name="e_wo_entrp">   -994.81337838 </i>
    <i name="e_0_energy">   -994.81337838 </i>
   </energy>
  </scstep>
  <scstep>
   <time name="diag">   33.51   33.50</time>
   <time name="diis">   31.06   31.06</time>
   <time name="orth">   19.00   19.00</time>
   <time name="total">   87.38   87.45</time>
   <energy>
    <i name="e_fr_energy">   -994.81338106 </i>
    <i name="e_wo_entrp">   -994.81338106 </i>
    <i name="e_0_energy">   -994.81338106 </i>
   </energy>
  </scstep>
  <scstep>
   <time name="diag">   33.49   33.49</time>
   <time name="diis">   29.20   29.20</time>
   <time name="orth">   19.00   18.99</time>
   <time name="total">   85.51   85.55</time>
   <energy>
    <i name="e_fr_energy">   -994.81338171 </i>
    <i name="e_wo_entrp">   -994.81338171 </i>
    <i name="e_0_energy">   -994.81338171 </i>
   </energy>
  </scstep>
  <scstep>
   <time name="diag">   33.51   33.51</time>
   <time name="diis">   27.53   27.53</time>
   <time name="orth">   18.99   18.99</time>
   <time name="total">   83.83   83.96</time>
   <energy>
    <i name="e_fr_energy">   -994.81338201 </i>
    <i name="e_wo_entrp">   -994.81338201 </i>
    <i name="e_0_energy">   -994.81338201 </i>
   </energy>
  </scstep>
  <scstep>
   <time name="diag">   33.49   33.49</time>
   <time name="diis">   26.31   26.30</time>
   <time name="orth">   19.00   19.00</time>
   <time name="total">   79.37   79.43</time>
   <energy>
    <i name="alphaZ">   5578.35072653 </i>
    <i name="ewald"> -62599.07898794 </i>
    <i name="hartreedc"> -18979.53507945 </i>
    <i name="XCdc">   3409.33539468 </i>
    <i name="pawpsdc"> 119673.23972858 </i>
    <i name="pawaedc">-119180.02797711 </i>
    <i name="eentropy">     -0.00000000 </i>
    <i name="bandstr">  -7214.00164358 </i>
    <i name="atom">  78316.90445604 </i>
    <i name="e_fr_energy">   -994.81338225 </i>
    <i name="e_wo_entrp">   -994.81338225 </i>
    <i name="e_0_energy">   -994.81338225 </i>
   </energy>
  </scstep>
  <structure>
   <crystal>
    <varray name="basis" >
     <v>      11.20804573      -0.00617499       0.00196722 </v>
     <v>      -0.00518823      11.34078259      -0.00755623 </v>
     <v>       0.00269280      -0.01004935      15.84849659 </v>
    </varray>
    <i name="volume">   2014.46944182 </i>
    <varray name="rec_basis" >
     <v>       0.08922165       0.00004081      -0.00001513 </v>
     <v>       0.00004857       0.08817740       0.00005590 </v>
     <v>      -0.00001105       0.00004204       0.06309750 </v>
    </varray>
   </crystal>
   <varray name="positions" >
    <v>       0.98709338       0.24839154       0.12149644 </v>
    <v>       0.99461228       0.24152625       0.60868666 </v>
    <v>       0.00769680       0.74930999       0.12141676 </v>
    <v>       0.99947634       0.74063663       0.60773214 </v>
    <v>       0.50769680       0.24930999       0.12141676 </v>
    <v>       0.49947634       0.24063663       0.60773214 </v>
    <v>       0.48709338       0.74839154       0.12149644 </v>
    <v>       0.49461228       0.74152625       0.60868666 </v>
    <v>       0.98551813       0.24785614       0.38208024 </v>
    <v>       0.00451434       0.24129379       0.89052791 </v>
    <v>       0.00610810       0.74651295       0.38069700 </v>
    <v>       0.99521447       0.74158878       0.89124590 </v>
    <v>       0.50610810       0.24651295       0.38069700 </v>
    <v>       0.49521447       0.24158878       0.89124590 </v>
    <v>       0.48551813       0.74785614       0.38208024 </v>
    <v>       0.50451434       0.74129379       0.89052791 </v>
    <v>       0.24596200       0.98799086       0.11585540 </v>
    <v>       0.25036297       0.00804620       0.61048327 </v>
    <v>       0.24705628       0.52195298       0.12480004 </v>
    <v>       0.24827984       0.50752321       0.60581728 </v>
    <v>       0.74705628       0.02195298       0.12480004 </v>
    <v>       0.74827984       0.00752321       0.60581728 </v>
    <v>       0.74596200       0.48799086       0.11585540 </v>
    <v>       0.75036297       0.50804620       0.61048327 </v>
    <v>       0.24302783       0.98968544       0.38637106 </v>
    <v>       0.24973491       0.01287111       0.88871446 </v>
    <v>       0.24799231       0.52002890       0.37829473 </v>
    <v>       0.24712389       0.50317305       0.89284829 </v>
    <v>       0.74799231       0.02002890       0.37829473 </v>
    <v>       0.74712389       0.00317305       0.89284829 </v>
    <v>       0.74302783       0.48968544       0.38637106 </v>
    <v>       0.74973491       0.51287111       0.88871446 </v>
    <v>       0.99586841       0.99882053       0.00257561 </v>
    <v>       0.49658190       0.99967161       0.00343091 </v>
    <v>       0.74416396       0.74777724       0.49427729 </v>
    <v>       0.24416396       0.24777724       0.49427729 </v>
    <v>       0.49586841       0.49882053       0.00257561 </v>
    <v>       0.99658190       0.49967161       0.00343091 </v>
    <v>       0.75032088       0.25946418       0.24945733 </v>
    <v>       0.25032088       0.75946418       0.24945733 </v>
    <v>       0.99536104       0.99955263       0.49458439 </v>
    <v>       0.74546015       0.25153529       0.50358492 </v>
    <v>       0.99469890       0.50025543       0.49218040 </v>
    <v>       0.49469890       0.00025543       0.49218040 </v>
    <v>       0.24546015       0.75153529       0.50358492 </v>
    <v>       0.49536104       0.49955263       0.49458439 </v>
    <v>       0.74534331       0.74583092       0.01788622 </v>
    <v>       0.01077331       0.49255857       0.25002607 </v>
    <v>       0.76568250       0.28509602       0.75100321 </v>
    <v>       0.24685687       0.75067006       0.99462977 </v>
    <v>       0.74685687       0.25067006       0.99462977 </v>
    <v>       0.51422215       0.46161279       0.75224072 </v>
    <v>       0.51870095       0.96338981       0.75228711 </v>
    <v>       0.26708981       0.28934969       0.74444542 </v>
    <v>       0.24534331       0.24583092       0.01788622 </v>
    <v>       0.75363981       0.77341226       0.25273232 </v>
    <v>       0.76708981       0.78934969       0.74444542 </v>
    <v>       0.99203823       0.98534340       0.25034575 </v>
    <v>       0.01422215       0.96161279       0.75224072 </v>
    <v>       0.26568250       0.78509602       0.75100321 </v>
    <v>       0.01870095       0.46338981       0.75228711 </v>
    <v>       0.51077331       0.99255857       0.25002607 </v>
    <v>       0.25363981       0.27341226       0.25273232 </v>
    <v>       0.49203823       0.48534340       0.25034575 </v>
    <v>       0.00455035       0.00121411       0.12492018 </v>
    <v>       0.97886292       0.02321144       0.64741965 </v>
    <v>       0.98491517       0.50741522       0.12629327 </v>
    <v>       0.98368539       0.52497662       0.64775459 </v>
    <v>       0.48491517       0.00741522       0.12629327 </v>
    <v>       0.48368539       0.02497662       0.64775459 </v>
    <v>       0.50455035       0.50121411       0.12492018 </v>
    <v>       0.47886292       0.52321144       0.64741965 </v>
    <v>       0.00527627       0.00978489       0.37048553 </v>
    <v>       0.98399849       0.01182567       0.86542055 </v>
    <v>       0.97954550       0.51352644       0.36806776 </v>
    <v>       0.99666713       0.51452740       0.86634245 </v>
    <v>       0.47954550       0.01352644       0.36806776 </v>
    <v>       0.49666713       0.01452740       0.86634245 </v>
    <v>       0.50527627       0.50978489       0.37048553 </v>
    <v>       0.48399849       0.51182567       0.86542055 </v>
    <v>       0.23612753       0.21853901       0.36421636 </v>
    <v>       0.23215586       0.22608735       0.84834919 </v>
    <v>       0.24681404       0.75435809       0.37393737 </v>
    <v>       0.23635270       0.72528436       0.86018887 </v>
    <v>       0.74681404       0.25435809       0.37393737 </v>
    <v>       0.73635270       0.22528436       0.86018887 </v>
    <v>       0.73612753       0.71853901       0.36421636 </v>
    <v>       0.73215586       0.72608735       0.84834919 </v>
    <v>       0.23455006       0.20950576       0.14272416 </v>
    <v>       0.23975455       0.24331364       0.63104873 </v>
    <v>       0.24613793       0.75575970       0.12179515 </v>
    <v>       0.23716867       0.72859763       0.64190547 </v>
    <v>       0.74613793       0.25575970       0.12179515 </v>
    <v>       0.73716867       0.22859763       0.64190547 </v>
    <v>       0.73455006       0.70950576       0.14272416 </v>
    <v>       0.73975455       0.74331364       0.63104873 </v>
    <v>       0.15269785       0.40222226       0.24881336 </v>
    <v>       0.40636951       0.33821222       0.25005867 </v>
    <v>       0.65129697       0.40793282       0.24872430 </v>
    <v>       0.89230734       0.36356293       0.24709376 </v>
    <v>       0.15129697       0.90793282       0.24872430 </v>
    <v>       0.39230734       0.86356293       0.24709376 </v>
    <v>       0.65269785       0.90222226       0.24881336 </v>
    <v>       0.90636951       0.83821222       0.25005867 </v>
    <v>       0.12230575       0.12349991       0.50355797 </v>
    <v>       0.37028421       0.12869373       0.50037442 </v>
    <v>       0.62172278       0.12153678       0.49781570 </v>
    <v>       0.87253019       0.12700014       0.49852293 </v>
    <v>       0.11995811       0.37209915       0.49333686 </v>
    <v>       0.36690463       0.37381756       0.49322602 </v>
    <v>       0.61960460       0.37615024       0.50840760 </v>
    <v>       0.87182127       0.37618221       0.50857668 </v>
    <v>       0.12172278       0.62153678       0.49781570 </v>
    <v>       0.37253019       0.62700014       0.49852293 </v>
    <v>       0.62230575       0.62349991       0.50355797 </v>
    <v>       0.87028421       0.62869373       0.50037442 </v>
    <v>       0.11960460       0.87615024       0.50840760 </v>
    <v>       0.37182127       0.87618221       0.50857668 </v>
    <v>       0.61995811       0.87209915       0.49333686 </v>
    <v>       0.86690463       0.87381756       0.49322602 </v>
    <v>       0.18964627       0.44056482       0.74921553 </v>
    <v>       0.43857412       0.30976439       0.75001856 </v>
    <v>       0.68551160       0.43561974       0.75112671 </v>
    <v>       0.93692535       0.31366961       0.75195101 </v>
    <v>       0.18551160       0.93561974       0.75112671 </v>
    <v>       0.43692535       0.81366961       0.75195101 </v>
    <v>       0.68964627       0.94056482       0.74921553 </v>
    <v>       0.93857412       0.80976439       0.75001856 </v>
    <v>       0.12301652       0.12146154       0.99824394 </v>
    <v>       0.37243485       0.12746795       0.99974713 </v>
    <v>       0.62251776       0.12128637       0.00185828 </v>
    <v>       0.87420003       0.12596410       0.00118352 </v>
    <v>       0.12034843       0.37149619       0.00521427 </v>
    <v>       0.36761828       0.37368798       0.00573172 </v>
    <v>       0.61949871       0.37516311       0.99000135 </v>
    <v>       0.87261696       0.37621292       0.99055483 </v>
    <v>       0.12251776       0.62128637       0.00185828 </v>
    <v>       0.37420003       0.62596410       0.00118352 </v>
    <v>       0.62301652       0.62146154       0.99824394 </v>
    <v>       0.87243485       0.62746795       0.99974713 </v>
    <v>       0.11949871       0.87516311       0.99000135 </v>
    <v>       0.37261696       0.87621292       0.99055483 </v>
    <v>       0.62034843       0.87149619       0.00521427 </v>
    <v>       0.86761828       0.87368798       0.00573172 </v>
    <v>       0.60980711       0.14603790       0.24699757 </v>
    <v>       0.87234221       0.12003782       0.24602301 </v>
    <v>       0.10980711       0.64603790       0.24699757 </v>
    <v>       0.37234221       0.62003782       0.24602301 </v>
   </varray>
  </structure>
  <varray name="forces" >
   <v>      -0.02248792      -0.01664433      -0.01376517 </v>
   <v>      -0.02043207      -0.00480567      -0.04112881 </v>
   <v>       0.01922926      -0.02609244      -0.04720388 </v>
   <v>      -0.00173896       0.03810473      -0.02030157 </v>
   <v>       0.01922926      -0.02609244      -0.04720388 </v>
   <v>      -0.00173896       0.03810473      -0.02030157 </v>
   <v>      -0.02248792      -0.01664433      -0.01376517 </v>
   <v>      -0.02043207      -0.00480567      -0.04112881 </v>
   <v>       0.00190848      -0.01432434      -0.00351238 </v>
   <v>      -0.01304187      -0.01704679       0.03133335 </v>
   <v>       0.01585308       0.00378381       0.03388344 </v>
   <v>      -0.00763242       0.01573628       0.01995151 </v>
   <v>       0.01585308       0.00378381       0.03388344 </v>
   <v>      -0.00763242       0.01573628       0.01995151 </v>
   <v>       0.00190848      -0.01432434      -0.00351238 </v>
   <v>      -0.01304187      -0.01704679       0.03133335 </v>
   <v>       0.00503184      -0.02987474      -0.00885337 </v>
   <v>      -0.01864858      -0.01471934      -0.07106959 </v>
   <v>      -0.00492318      -0.02820192      -0.01761506 </v>
   <v>      -0.02911549       0.00409108      -0.01894259 </v>
   <v>      -0.00492318      -0.02820192      -0.01761506 </v>
   <v>      -0.02911549       0.00409108      -0.01894259 </v>
   <v>       0.00503184      -0.02987474      -0.00885337 </v>
   <v>      -0.01864858      -0.01471934      -0.07106959 </v>
   <v>       0.00021593       0.00796093      -0.01747725 </v>
   <v>      -0.04589725      -0.03819885       0.05382329 </v>
   <v>       0.01788367      -0.01936108       0.03146749 </v>
   <v>      -0.00240685      -0.02327571       0.01295972 </v>
   <v>       0.01788367      -0.01936108       0.03146749 </v>
   <v>      -0.00240685      -0.02327571       0.01295972 </v>
   <v>       0.00021593       0.00796093      -0.01747725 </v>
   <v>      -0.04589725      -0.03819885       0.05382329 </v>
   <v>       0.02854587      -0.01560991      -0.05974291 </v>
   <v>       0.00158134      -0.00458900      -0.01453689 </v>
   <v>      -0.02379198      -0.03790440      -0.04348904 </v>
   <v>      -0.02379198      -0.03790440      -0.04348904 </v>
   <v>       0.02854587      -0.01560991      -0.05974291 </v>
   <v>       0.00158134      -0.00458900      -0.01453689 </v>
   <v>      -0.06590204      -0.06319748       0.00367683 </v>
   <v>      -0.06590204      -0.06319748       0.00367683 </v>
   <v>       0.00869687       0.02890566      -0.04476699 </v>
   <v>       0.01269628      -0.00895221      -0.05420719 </v>
   <v>      -0.00920720       0.02099029      -0.03667024 </v>
   <v>      -0.00920720       0.02099029      -0.03667024 </v>
   <v>       0.01269628      -0.00895221      -0.05420719 </v>
   <v>       0.00869687       0.02890566      -0.04476699 </v>
   <v>      -0.02886630       0.00960084       0.05692435 </v>
   <v>       0.06464692      -0.00944326       0.01231811 </v>
   <v>       0.05757978      -0.03460179       0.07199462 </v>
   <v>       0.00097008       0.00590177       0.01710723 </v>
   <v>       0.00097008       0.00590177       0.01710723 </v>
   <v>      -0.01513592       0.02983178       0.03878422 </v>
   <v>      -0.00716923       0.04184713       0.07517023 </v>
   <v>      -0.00473182       0.02754104      -0.02966881 </v>
   <v>      -0.02886630       0.00960084       0.05692435 </v>
   <v>      -0.07092029       0.01261875      -0.02686452 </v>
   <v>      -0.00473182       0.02754104      -0.02966881 </v>
   <v>      -0.00303911      -0.03277445       0.07806269 </v>
   <v>      -0.01513592       0.02983178       0.03878422 </v>
   <v>       0.05757978      -0.03460179       0.07199462 </v>
   <v>      -0.00716923       0.04184713       0.07517023 </v>
   <v>       0.06464692      -0.00944326       0.01231811 </v>
   <v>      -0.07092029       0.01261875      -0.02686452 </v>
   <v>      -0.00303911      -0.03277445       0.07806269 </v>
   <v>      -0.00818316       0.04237766       0.07517744 </v>
   <v>       0.03325780       0.02439891      -0.03955643 </v>
   <v>      -0.00145727       0.05086280       0.02132699 </v>
   <v>       0.01033012       0.04006976      -0.02592991 </v>
   <v>      -0.00145727       0.05086280       0.02132699 </v>
   <v>       0.01033012       0.04006976      -0.02592991 </v>
   <v>      -0.00818316       0.04237766       0.07517744 </v>
   <v>       0.03325780       0.02439891      -0.03955643 </v>
   <v>       0.00347441       0.02257259      -0.05618625 </v>
   <v>       0.00816235       0.00916005      -0.01371613 </v>
   <v>      -0.00952632       0.04772059      -0.00442410 </v>
   <v>       0.00579116       0.02035910      -0.01009510 </v>
   <v>      -0.00952632       0.04772059      -0.00442410 </v>
   <v>       0.00579116       0.02035910      -0.01009510 </v>
   <v>       0.00347441       0.02257259      -0.05618625 </v>
   <v>       0.00816235       0.00916005      -0.01371613 </v>
   <v>      -0.01870301      -0.02127753      -0.01988942 </v>
   <v>      -0.03521875      -0.08684704       0.01634475 </v>
   <v>       0.01295850       0.03642207      -0.01496781 </v>
   <v>       0.02128271      -0.00787336      -0.02034222 </v>
   <v>       0.01295850       0.03642207      -0.01496781 </v>
   <v>       0.02128271      -0.00787336      -0.02034222 </v>
   <v>      -0.01870301      -0.02127753      -0.01988942 </v>
   <v>      -0.03521875      -0.08684704       0.01634475 </v>
   <v>       0.00104627       0.00744979       0.07642481 </v>
   <v>       0.01694978      -0.01495300      -0.04510820 </v>
   <v>       0.01988921       0.02613278       0.05104321 </v>
   <v>       0.02637802      -0.01119298      -0.02021798 </v>
   <v>       0.01988921       0.02613278       0.05104321 </v>
   <v>       0.02637802      -0.01119298      -0.02021798 </v>
   <v>       0.00104627       0.00744979       0.07642481 </v>
   <v>       0.01694978      -0.01495300      -0.04510820 </v>
   <v>       0.00770343       0.03263871       0.02474761 </v>
   <v>       0.02982571       0.02490366      -0.01181780 </v>
   <v>      -0.00482113      -0.01126973      -0.01332246 </v>
   <v>       0.06089112      -0.02600516      -0.00309477 </v>
   <v>      -0.00482113      -0.01126973      -0.01332246 </v>
   <v>       0.06089112      -0.02600516      -0.00309477 </v>
   <v>       0.00770343       0.03263871       0.02474761 </v>
   <v>       0.02982571       0.02490366      -0.01181780 </v>
   <v>       0.02716516       0.01372832       0.02331907 </v>
   <v>       0.02219192       0.02440179       0.00638890 </v>
   <v>      -0.00684667      -0.02831997       0.01424252 </v>
   <v>       0.00607978      -0.00270416      -0.01295152 </v>
   <v>      -0.04478641       0.01808222       0.00664997 </v>
   <v>       0.00042224      -0.00007920       0.02850854 </v>
   <v>      -0.04400794      -0.02288307       0.00516427 </v>
   <v>      -0.01074787       0.05473499      -0.02897767 </v>
   <v>      -0.00684667      -0.02831997       0.01424252 </v>
   <v>       0.00607978      -0.00270416      -0.01295152 </v>
   <v>       0.02716516       0.01372832       0.02331907 </v>
   <v>       0.02219192       0.02440179       0.00638890 </v>
   <v>      -0.04400794      -0.02288307       0.00516427 </v>
   <v>      -0.01074787       0.05473499      -0.02897767 </v>
   <v>      -0.04478641       0.01808222       0.00664997 </v>
   <v>       0.00042224      -0.00007920       0.02850854 </v>
   <v>       0.04131770      -0.02287867      -0.00667990 </v>
   <v>       0.02987239      -0.02549620      -0.01308529 </v>
   <v>       0.02277408      -0.01329872      -0.02578102 </v>
   <v>      -0.02906732       0.00277191      -0.00455433 </v>
   <v>       0.02277408      -0.01329872      -0.02578102 </v>
   <v>      -0.02906732       0.00277191      -0.00455433 </v>
   <v>       0.04131770      -0.02287867      -0.00667990 </v>
   <v>       0.02987239      -0.02549620      -0.01308529 </v>
   <v>       0.01370219      -0.00414519       0.00667643 </v>
   <v>       0.00473360       0.03887009       0.00424807 </v>
   <v>       0.01526671      -0.03489760       0.01753360 </v>
   <v>       0.01693829       0.00606618       0.02240442 </v>
   <v>      -0.00243593       0.01895654       0.02375194 </v>
   <v>      -0.00608751      -0.03459706      -0.03175160 </v>
   <v>      -0.01095386      -0.02230703       0.01958951 </v>
   <v>      -0.02961984       0.00886043       0.01974111 </v>
   <v>       0.01526671      -0.03489760       0.01753360 </v>
   <v>       0.01693829       0.00606618       0.02240442 </v>
   <v>       0.01370219      -0.00414519       0.00667643 </v>
   <v>       0.00473360       0.03887009       0.00424807 </v>
   <v>      -0.01095386      -0.02230703       0.01958951 </v>
   <v>      -0.02961984       0.00886043       0.01974111 </v>
   <v>      -0.00243593       0.01895654       0.02375194 </v>
   <v>      -0.00608751      -0.03459706      -0.03175160 </v>
   <v>      -0.01679905       0.03849103      -0.00820162 </v>
   <v>      -0.01889350      -0.02630272      -0.00027243 </v>
   <v>      -0.01679905       0.03849103      -0.00820162 </v>
   <v>      -0.01889350      -0.02630272      -0.00027243 </v>
  </varray>
  <varray name="stress" >
   <v>      -0.95078586       0.16605344       0.00213098 </v>
   <v>       0.16605361       0.02745647      -0.17113967 </v>
   <v>       0.00213080      -0.17113940       0.28909921 </v>
  </varray>
  <energy>
   <i name="e_fr_energy">   -994.81338225 </i>
   <i name="e_wo_entrp">   -994.81338225 </i>
   <i name="e_0_energy">     -0.00000000 </i>
  </energy>
  <time name="totalsc"> 1063.93 1065.98</time>
 </calculation>
 <calculation>
  <scstep>
   <time name="dav">  286.51  286.50</time>
   <time name="total">  290.29  290.39</time>
   <energy>
    <i name="alphaZ">   5579.80144594 </i>
    <i name="ewald"> -62596.50745562 </i>
    <i name="hartreedc"> -18989.14917467 </i>
    <i name="XCdc">   3409.72163297 </i>
    <i name="pawpsdc"> 119673.24716166 </i>
    <i name="pawaedc">-119180.03496802 </i>
    <i name="eentropy">     -0.00000000 </i>
    <i name="bandstr">  -7208.78631873 </i>
    <i name="atom">  78316.90445604 </i>
    <i name="e_fr_energy">   -994.80322042 </i>
    <i name="e_wo_entrp">   -994.80322042 </i>
    <i name="e_0_energy">   -994.80322042 </i>
   </energy>
  </scstep>
  <scstep>
   <time name="diag">   33.43   33.43</time>
   <time name="diis">   52.71   52.71</time>
   <time name="orth">   19.02   19.02</time>
   <time name="total">  108.92  108.97</time>
   <energy>
    <i name="e_fr_energy">   -994.82242734 </i>
    <i name="e_wo_entrp">   -994.82242734 </i>
    <i name="e_0_energy">   -994.82242734 </i>
   </energy>
  </scstep>
  <scstep>
   <time name="diag">   33.42   33.42</time>
   <time name="diis">   55.21   55.21</time>
   <time name="orth">   18.97   18.97</time>
   <time name="total">  111.37  111.44</time>
   <energy>
    <i name="e_fr_energy">   -994.82510417 </i>
    <i name="e_wo_entrp">   -994.82510417 </i>
    <i name="e_0_energy">   -994.82510417 </i>
   </energy>
  </scstep>
  <scstep>
   <time name="diag">   33.44   33.44</time>
   <time name="diis">   51.80   51.79</time>
   <time name="orth">   18.96   18.96</time>
   <time name="total">  107.97  107.98</time>
   <energy>
    <i name="e_fr_energy">   -994.82461625 </i>
    <i name="e_wo_entrp">   -994.82461625 </i>
    <i name="e_0_energy">   -994.82461625 </i>
   </energy>
  </scstep>
  <scstep>
   <time name="diag">   33.40   33.40</time>
   <time name="diis">   48.25   48.25</time>
   <time name="orth">   18.97   18.97</time>
   <time name="total">  104.39  104.49</time>
   <energy>
    <i name="e_fr_energy">   -994.82445814 </i>
    <i name="e_wo_entrp">   -994.82445814 </i>
    <i name="e_0_energy">   -994.82445814 </i>
   </energy>
  </scstep>
  <scstep>
   <time name="diag">   33.42   33.42</time>
   <time name="diis">   32.72   32.72</time>
   <time name="orth">   18.98   18.98</time>
   <time name="total">   88.89   88.98</time>
   <energy>
    <i name="e_fr_energy">   -994.82446196 </i>
    <i name="e_wo_entrp">   -994.82446196 </i>
    <i name="e_0_energy">   -994.82446196 </i>
   </energy>
  </scstep>
  <scstep>
   <time name="diag">   33.47   33.47</time>
   <time name="diis">   32.54   32.54</time>
   <time name="orth">   18.98   18.98</time>
   <time name="total">   88.83   88.89</time>
   <energy>
    <i name="e_fr_energy">   -994.82446601 </i>
    <i name="e_wo_entrp">   -994.82446601 </i>
    <i name="e_0_energy">   -994.82446601 </i>
   </energy>
  </scstep>
  <scstep>
   <time name="diag">   33.49   33.48</time>
   <time name="diis">   32.14   32.14</time>
   <time name="orth">   18.97   18.96</time>
   <time name="total">   85.17   85.23</time>
   <energy>
    <i name="alphaZ">   5579.80144594 </i>
    <i name="ewald"> -62596.50745562 </i>
    <i name="hartreedc"> -18984.75131051 </i>
    <i name="XCdc">   3409.43393171 </i>
    <i name="pawpsdc"> 119751.00068201 </i>
    <i name="pawaedc">-119257.81505441 </i>
    <i name="eentropy">     -0.00000000 </i>
    <i name="bandstr">  -7212.89116303 </i>
    <i name="atom">  78316.90445604 </i>
    <i name="e_fr_energy">   -994.82446786 </i>
    <i name="e_wo_entrp">   -994.82446786 </i>
    <i name="e_0_energy">   -994.82446786 </i>
   </energy>
  </scstep>
  <structure>
   <crystal>
    <varray name="basis" >
     <v>      11.20367782      -0.00541242       0.00197768 </v>
     <v>      -0.00441441      11.34091038      -0.00835258 </v>
     <v>       0.00270490      -0.01116090      15.85037512 </v>
    </varray>
    <i name="volume">   2013.94569023 </i>
    <varray name="rec_basis" >
     <v>       0.08925642       0.00003473      -0.00001521 </v>
     <v>       0.00004259       0.08817640       0.00006208 </v>
     <v>      -0.00001111       0.00004646       0.06309002 </v>
    </varray>
   </crystal>
   <varray name="positions" >
    <v>       0.98699656       0.24832065       0.12145452 </v>
    <v>       0.99452435       0.24150565       0.60856147 </v>
    <v>       0.00777955       0.74919891       0.12127301 </v>
    <v>       0.99946895       0.74079867       0.60767042 </v>
    <v>       0.50777955       0.24919891       0.12127301 </v>
    <v>       0.49946895       0.24079867       0.60767042 </v>
    <v>       0.48699656       0.74832065       0.12145452 </v>
    <v>       0.49452435       0.74150565       0.60856147 </v>
    <v>       0.98552632       0.24779520       0.38206952 </v>
    <v>       0.00445814       0.24122133       0.89062327 </v>
    <v>       0.00617632       0.74652917       0.38080014 </v>
    <v>       0.99518163       0.74165575       0.89130667 </v>
    <v>       0.50617632       0.24652917       0.38080014 </v>
    <v>       0.49518163       0.24165575       0.89130667 </v>
    <v>       0.48552632       0.74779520       0.38206952 </v>
    <v>       0.50445814       0.74122133       0.89062327 </v>
    <v>       0.24598361       0.98786376       0.11582839 </v>
    <v>       0.25028272       0.00798335       0.61026691 </v>
    <v>       0.24703505       0.52183296       0.12474637 </v>
    <v>       0.24815454       0.50754050       0.60575964 </v>
    <v>       0.74703505       0.02183296       0.12474637 </v>
    <v>       0.74815454       0.00754050       0.60575964 </v>
    <v>       0.74598361       0.48786376       0.11582839 </v>
    <v>       0.75028272       0.50798335       0.61026691 </v>
    <v>       0.24302879       0.98971926       0.38631787 </v>
    <v>       0.24953724       0.01270865       0.88887825 </v>
    <v>       0.24806923       0.51994667       0.37839047 </v>
    <v>       0.24711348       0.50307407       0.89288769 </v>
    <v>       0.74806923       0.01994667       0.37839047 </v>
    <v>       0.74711348       0.00307407       0.89288769 </v>
    <v>       0.74302879       0.48971926       0.38631787 </v>
    <v>       0.74953724       0.51270865       0.88887825 </v>
    <v>       0.99599130       0.99875403       0.00239371 </v>
    <v>       0.49658871       0.99965205       0.00338665 </v>
    <v>       0.74406151       0.74761582       0.49414485 </v>
    <v>       0.24406151       0.24761582       0.49414485 </v>
    <v>       0.49599130       0.49875403       0.00239371 </v>
    <v>       0.99658871       0.49965205       0.00338665 </v>
    <v>       0.75003709       0.25919520       0.24946843 </v>
    <v>       0.25003709       0.75919520       0.24946843 </v>
    <v>       0.99539856       0.99967549       0.49444817 </v>
    <v>       0.74551483       0.25149709       0.50341988 </v>
    <v>       0.99465934       0.50034460       0.49206882 </v>
    <v>       0.49465934       0.00034460       0.49206882 </v>
    <v>       0.24551483       0.75149709       0.50341988 </v>
    <v>       0.49539856       0.49967549       0.49444817 </v>
    <v>       0.74521904       0.74587185       0.01805953 </v>
    <v>       0.01105154       0.49251858       0.25006352 </v>
    <v>       0.76593022       0.28494915       0.75122226 </v>
    <v>       0.24686104       0.75069521       0.99468186 </v>
    <v>       0.74686104       0.25069521       0.99468186 </v>
    <v>       0.51415703       0.46173976       0.75235884 </v>
    <v>       0.51867012       0.96356801       0.75251601 </v>
    <v>       0.26706951       0.28946676       0.74435516 </v>
    <v>       0.24521904       0.24587185       0.01805953 </v>
    <v>       0.75333459       0.77346570       0.25265061 </v>
    <v>       0.76706951       0.78946676       0.74435516 </v>
    <v>       0.99202503       0.98520419       0.25058330 </v>
    <v>       0.01415703       0.96173976       0.75235884 </v>
    <v>       0.26593022       0.78494915       0.75122226 </v>
    <v>       0.01867012       0.46356801       0.75251601 </v>
    <v>       0.51105154       0.99251858       0.25006352 </v>
    <v>       0.25333459       0.27346570       0.25265061 </v>
    <v>       0.49202503       0.48520419       0.25058330 </v>
    <v>       0.00451516       0.00139456       0.12514911 </v>
    <v>       0.97900615       0.02331520       0.64729927 </v>
    <v>       0.98490898       0.50763164       0.12635829 </v>
    <v>       0.98372995       0.52514702       0.64767574 </v>
    <v>       0.48490898       0.00763164       0.12635829 </v>
    <v>       0.48372995       0.02514702       0.64767574 </v>
    <v>       0.50451516       0.50139456       0.12514911 </v>
    <v>       0.47900615       0.52331520       0.64729927 </v>
    <v>       0.00529131       0.00988077       0.37031455 </v>
    <v>       0.98403365       0.01186462       0.86537881 </v>
    <v>       0.97950459       0.51372940       0.36805440 </v>
    <v>       0.99669210       0.51461400       0.86631176 </v>
    <v>       0.47950459       0.01372940       0.36805440 </v>
    <v>       0.49669210       0.01461400       0.86631176 </v>
    <v>       0.50529131       0.50988077       0.37031455 </v>
    <v>       0.48403365       0.51186462       0.86537881 </v>
    <v>       0.23604700       0.21844840       0.36415579 </v>
    <v>       0.23200409       0.22571787       0.84839879 </v>
    <v>       0.24686990       0.75451302       0.37389188 </v>
    <v>       0.23644430       0.72525086       0.86012692 </v>
    <v>       0.74686990       0.25451302       0.37389188 </v>
    <v>       0.73644430       0.22525086       0.86012692 </v>
    <v>       0.73604700       0.71844840       0.36415579 </v>
    <v>       0.73200409       0.72571787       0.84839879 </v>
    <v>       0.23455453       0.20953766       0.14295681 </v>
    <v>       0.23982751       0.24324995       0.63091138 </v>
    <v>       0.24622356       0.75587105       0.12195057 </v>
    <v>       0.23728220       0.72855002       0.64184389 </v>
    <v>       0.74622356       0.25587105       0.12195057 </v>
    <v>       0.73728220       0.22855002       0.64184389 </v>
    <v>       0.73455453       0.70953766       0.14295681 </v>
    <v>       0.73982751       0.74324995       0.63091138 </v>
    <v>       0.15273106       0.40236119       0.24888875 </v>
    <v>       0.40649795       0.33831819       0.25002273 </v>
    <v>       0.65127620       0.40788484       0.24868373 </v>
    <v>       0.89256938       0.36345244       0.24708426 </v>
    <v>       0.15127620       0.90788484       0.24868373 </v>
    <v>       0.39256938       0.86345244       0.24708426 </v>
    <v>       0.65273106       0.90236119       0.24888875 </v>
    <v>       0.90649795       0.83831819       0.25002273 </v>
    <v>       0.12242268       0.12355844       0.50362896 </v>
    <v>       0.37037978       0.12879760       0.50039391 </v>
    <v>       0.62169324       0.12141633       0.49785900 </v>
    <v>       0.87255636       0.12698862       0.49848349 </v>
    <v>       0.11976536       0.37217598       0.49335716 </v>
    <v>       0.36690643       0.37381731       0.49331280 </v>
    <v>       0.61941513       0.37605281       0.50842330 </v>
    <v>       0.87177514       0.37641495       0.50848859 </v>
    <v>       0.12169324       0.62141633       0.49785900 </v>
    <v>       0.37255636       0.62698862       0.49848349 </v>
    <v>       0.62242268       0.62355844       0.50362896 </v>
    <v>       0.87037978       0.62879760       0.50039391 </v>
    <v>       0.11941513       0.87605281       0.50842330 </v>
    <v>       0.37177514       0.87641495       0.50848859 </v>
    <v>       0.61976536       0.87217598       0.49335716 </v>
    <v>       0.86690643       0.87381731       0.49331280 </v>
    <v>       0.18982408       0.44046757       0.74919513 </v>
    <v>       0.43870265       0.30965597       0.74997866 </v>
    <v>       0.68560961       0.43556316       0.75104819 </v>
    <v>       0.93680025       0.31368132       0.75193717 </v>
    <v>       0.18560961       0.93556316       0.75104819 </v>
    <v>       0.43680025       0.81368132       0.75193717 </v>
    <v>       0.68982408       0.94046757       0.74919513 </v>
    <v>       0.93870265       0.80965597       0.74997866 </v>
    <v>       0.12307549       0.12144395       0.99826424 </v>
    <v>       0.37245530       0.12763332       0.99976014 </v>
    <v>       0.62258339       0.12113800       0.00191157 </v>
    <v>       0.87427293       0.12599001       0.00125172 </v>
    <v>       0.12033797       0.37157689       0.00528661 </v>
    <v>       0.36759203       0.37354071       0.00563500 </v>
    <v>       0.61945150       0.37506824       0.99006095 </v>
    <v>       0.87248947       0.37625060       0.99061496 </v>
    <v>       0.12258339       0.62113800       0.00191157 </v>
    <v>       0.37427293       0.62599001       0.00125172 </v>
    <v>       0.62307549       0.62144395       0.99826424 </v>
    <v>       0.87245530       0.62763332       0.99976014 </v>
    <v>       0.11945150       0.87506824       0.99006095 </v>
    <v>       0.37248947       0.87625060       0.99061496 </v>
    <v>       0.62033797       0.87157689       0.00528661 </v>
    <v>       0.86759203       0.87354071       0.00563500 </v>
    <v>       0.60973488       0.14620158       0.24697269 </v>
    <v>       0.87226083       0.11992588       0.24602214 </v>
    <v>       0.10973488       0.64620158       0.24697269 </v>
    <v>       0.37226083       0.61992588       0.24602214 </v>
   </varray>
  </structure>
  <varray name="forces" >
   <v>      -0.02970039      -0.02864812       0.01669443 </v>
   <v>      -0.02269984       0.01495418      -0.01935613 </v>
   <v>       0.00018415      -0.01351775      -0.01554686 </v>
   <v>       0.00001836       0.03535405      -0.00861786 </v>
   <v>       0.00018415      -0.01351775      -0.01554686 </v>
   <v>       0.00001836       0.03535405      -0.00861786 </v>
   <v>      -0.02970039      -0.02864812       0.01669443 </v>
   <v>      -0.02269984       0.01495418      -0.01935613 </v>
   <v>      -0.00647495       0.00037818      -0.02145556 </v>
   <v>      -0.00677389      -0.01062556       0.01017553 </v>
   <v>       0.00153628       0.00176719       0.02454189 </v>
   <v>      -0.02292873       0.00434391       0.00067124 </v>
   <v>       0.00153628       0.00176719       0.02454189 </v>
   <v>      -0.02292873       0.00434391       0.00067124 </v>
   <v>      -0.00647495       0.00037818      -0.02145556 </v>
   <v>      -0.00677389      -0.01062556       0.01017553 </v>
   <v>       0.00446595      -0.02579372       0.02488658 </v>
   <v>      -0.02163289      -0.02036819      -0.02805025 </v>
   <v>       0.01922223      -0.02264880      -0.00710216 </v>
   <v>      -0.03013437       0.00306739      -0.01788362 </v>
   <v>       0.01922223      -0.02264880      -0.00710216 </v>
   <v>      -0.03013437       0.00306739      -0.01788362 </v>
   <v>       0.00446595      -0.02579372       0.02488658 </v>
   <v>      -0.02163289      -0.02036819      -0.02805025 </v>
   <v>       0.01431452      -0.00227978      -0.03142134 </v>
   <v>      -0.03059975      -0.02299998       0.01852201 </v>
   <v>       0.01797904      -0.02436868       0.02830098 </v>
   <v>      -0.00285559      -0.02082177       0.00840381 </v>
   <v>       0.01797904      -0.02436868       0.02830098 </v>
   <v>      -0.00285559      -0.02082177       0.00840381 </v>
   <v>       0.01431452      -0.00227978      -0.03142134 </v>
   <v>      -0.03059975      -0.02299998       0.01852201 </v>
   <v>      -0.01162307       0.00451092       0.06946984 </v>
   <v>      -0.01731912       0.01604768       0.03517710 </v>
   <v>       0.00373751       0.02002361      -0.02127073 </v>
   <v>       0.00373751       0.02002361      -0.02127073 </v>
   <v>      -0.01162307       0.00451092       0.06946984 </v>
   <v>      -0.01731912       0.01604768       0.03517710 </v>
   <v>       0.00021519      -0.01619473       0.01262378 </v>
   <v>       0.00021519      -0.01619473       0.01262378 </v>
   <v>      -0.00391800      -0.00697652      -0.02489328 </v>
   <v>      -0.00262839       0.00244497      -0.02643195 </v>
   <v>      -0.00269516       0.01326980      -0.02234637 </v>
   <v>      -0.00269516       0.01326980      -0.02234637 </v>
   <v>      -0.00262839       0.00244497      -0.02643195 </v>
   <v>      -0.00391800      -0.00697652      -0.02489328 </v>
   <v>      -0.00735545      -0.00392316       0.04134537 </v>
   <v>      -0.02274980      -0.00505438       0.01338161 </v>
   <v>       0.00701599      -0.01600621      -0.04994837 </v>
   <v>       0.01162599      -0.01928221       0.02868812 </v>
   <v>       0.01162599      -0.01928221       0.02868812 </v>
   <v>       0.00934486       0.01208944      -0.05731448 </v>
   <v>      -0.01533243       0.03097807      -0.05462166 </v>
   <v>       0.00070234      -0.03897495       0.00590809 </v>
   <v>      -0.00735545      -0.00392316       0.04134537 </v>
   <v>       0.02215557       0.02039430       0.02579775 </v>
   <v>       0.00070234      -0.03897495       0.00590809 </v>
   <v>       0.00130713      -0.00380889      -0.02366960 </v>
   <v>       0.00934486       0.01208944      -0.05731448 </v>
   <v>       0.00701599      -0.01600621      -0.04994837 </v>
   <v>      -0.01533243       0.03097807      -0.05462166 </v>
   <v>      -0.02274980      -0.00505438       0.01338161 </v>
   <v>       0.02215557       0.02039430       0.02579775 </v>
   <v>       0.00130713      -0.00380889      -0.02366960 </v>
   <v>      -0.00437442       0.03451733      -0.04052146 </v>
   <v>       0.03825421       0.00515006       0.00978839 </v>
   <v>       0.00636019       0.04526979      -0.01660294 </v>
   <v>       0.02892779       0.00781755       0.05018126 </v>
   <v>       0.00636019       0.04526979      -0.01660294 </v>
   <v>       0.02892779       0.00781755       0.05018126 </v>
   <v>      -0.00437442       0.03451733      -0.04052146 </v>
   <v>       0.03825421       0.00515006       0.00978839 </v>
   <v>       0.00933106       0.03404036       0.02366637 </v>
   <v>       0.00107292       0.01264862       0.03275003 </v>
   <v>      -0.00384183       0.04996244      -0.01545935 </v>
   <v>       0.00494682       0.02242355       0.03287682 </v>
   <v>      -0.00384183       0.04996244      -0.01545935 </v>
   <v>       0.00494682       0.02242355       0.03287682 </v>
   <v>       0.00933106       0.03404036       0.02366637 </v>
   <v>       0.00107292       0.01264862       0.03275003 </v>
   <v>      -0.02109675      -0.01233184      -0.02413428 </v>
   <v>      -0.02260160      -0.04663624      -0.04380097 </v>
   <v>       0.00175722       0.02058447       0.00859802 </v>
   <v>       0.01200973      -0.02854341       0.04874943 </v>
   <v>       0.00175722       0.02058447       0.00859802 </v>
   <v>       0.01200973      -0.02854341       0.04874943 </v>
   <v>      -0.02109675      -0.01233184      -0.02413428 </v>
   <v>      -0.02260160      -0.04663624      -0.04380097 </v>
   <v>      -0.01185441      -0.00955728       0.00452577 </v>
   <v>       0.01638528      -0.00325227      -0.01593673 </v>
   <v>       0.00890124       0.01373718      -0.00778507 </v>
   <v>       0.03499629       0.00184218       0.01540964 </v>
   <v>       0.00890124       0.01373718      -0.00778507 </v>
   <v>       0.03499629       0.00184218       0.01540964 </v>
   <v>      -0.01185441      -0.00955728       0.00452577 </v>
   <v>       0.01638528      -0.00325227      -0.01593673 </v>
   <v>       0.03734450       0.03639044       0.02075241 </v>
   <v>      -0.03789115      -0.03080297      -0.00405952 </v>
   <v>       0.01530883      -0.02181954      -0.00408165 </v>
   <v>       0.04606817      -0.03338328      -0.00061713 </v>
   <v>       0.01530883      -0.02181954      -0.00408165 </v>
   <v>       0.04606817      -0.03338328      -0.00061713 </v>
   <v>       0.03734450       0.03639044       0.02075241 </v>
   <v>      -0.03789115      -0.03080297      -0.00405952 </v>
   <v>      -0.00241706      -0.01059836      -0.00074978 </v>
   <v>       0.00943100       0.02691260      -0.00775774 </v>
   <v>       0.01563114      -0.00311371      -0.00134149 </v>
   <v>       0.01088916       0.00240966      -0.02576483 </v>
   <v>      -0.01624951      -0.01003261      -0.00835390 </v>
[...]
       <r>   -17.7767     0.0000    32.0000 </r>
       <r>   -17.6221     0.0000    32.0000 </r>
       <r>   -17.4676     0.0000    32.0000 </r>
       <r>   -17.3130     0.0000    32.0000 </r>
       <r>   -17.1584     0.0000    32.0000 </r>
       <r>   -17.0039     0.0000    32.0000 </r>
       <r>   -16.8493     0.0000    32.0000 </r>
       <r>   -16.6948     0.0000    32.0000 </r>
       <r>   -16.5402     0.0000    32.0000 </r>
       <r>   -16.3856     0.0000    32.0000 </r>
       <r>   -16.2311     0.0000    32.0000 </r>
       <r>   -16.0765     0.0000    32.0000 </r>
       <r>   -15.9220     0.0000    32.0000 </r>
       <r>   -15.7674     0.0000    32.0000 </r>
       <r>   -15.6128     0.0000    32.0000 </r>
       <r>   -15.4583     0.0000    32.0000 </r>
       <r>   -15.3037     1.1684    32.1806 </r>
       <r>   -15.1492    12.8140    34.1611 </r>
       <r>   -14.9946    28.0225    38.4923 </r>
       <r>   -14.8400    50.4393    46.2882 </r>
       <r>   -14.6855    43.1128    52.9517 </r>
       <r>   -14.5309    42.9747    59.5939 </r>
       <r>   -14.3764    39.4010    65.6837 </r>
       <r>   -14.2218    58.7337    74.7616 </r>
       <r>   -14.0672    71.9944    85.8890 </r>
       <r>   -13.9127    71.9185    97.0048 </r>
       <r>   -13.7581    51.1180   104.9056 </r>
       <r>   -13.6036    49.7150   112.5896 </r>
       <r>   -13.4490    20.8379   115.8103 </r>
       <r>   -13.2944     1.2276   116.0000 </r>
       <r>   -13.1399     0.0000   116.0000 </r>
       <r>   -12.9853     0.0000   116.0000 </r>
       <r>   -12.8308     5.6930   116.8799 </r>
       <r>   -12.6762    51.6659   124.8654 </r>
       <r>   -12.5216    74.4064   136.3657 </r>
       <r>   -12.3671   103.9763   152.4362 </r>
       <r>   -12.2125   109.6482   169.3835 </r>
       <r>   -12.0580   105.4376   185.6799 </r>
       <r>   -11.9034    77.9970   197.7352 </r>
       <r>   -11.7488    54.5667   206.1690 </r>
       <r>   -11.5943    36.2517   211.7720 </r>
       <r>   -11.4397     1.4749   212.0000 </r>
       <r>   -11.2852     0.0000   212.0000 </r>
       <r>   -11.1306     0.0000   212.0000 </r>
       <r>   -10.9760     0.0000   212.0000 </r>
       <r>   -10.8215     0.0000   212.0000 </r>
       <r>   -10.6669     0.0000   212.0000 </r>
       <r>   -10.5124     0.0000   212.0000 </r>
       <r>   -10.3578     0.0000   212.0000 </r>
       <r>   -10.2032     0.0000   212.0000 </r>
       <r>   -10.0487     0.0000   212.0000 </r>
       <r>    -9.8941     0.0000   212.0000 </r>
       <r>    -9.7396     0.0000   212.0000 </r>
       <r>    -9.5850     0.0000   212.0000 </r>
       <r>    -9.4304     0.0000   212.0000 </r>
       <r>    -9.2759     0.0000   212.0000 </r>
       <r>    -9.1213     0.0000   212.0000 </r>
       <r>    -8.9668     0.0000   212.0000 </r>
       <r>    -8.8122     0.0000   212.0000 </r>
       <r>    -8.6576     0.0000   212.0000 </r>
       <r>    -8.5031     0.0000   212.0000 </r>
       <r>    -8.3485     0.0000   212.0000 </r>
       <r>    -8.1939     0.0000   212.0000 </r>
       <r>    -8.0394     0.0000   212.0000 </r>
       <r>    -7.8848     0.0000   212.0000 </r>
       <r>    -7.7303     0.0000   212.0000 </r>
       <r>    -7.5757     0.0000   212.0000 </r>
       <r>    -7.4211     0.0000   212.0000 </r>
       <r>    -7.2666     0.0000   212.0000 </r>
       <r>    -7.1120     0.0000   212.0000 </r>
       <r>    -6.9575     0.0000   212.0000 </r>
       <r>    -6.8029     0.0000   212.0000 </r>
       <r>    -6.6483     0.0000   212.0000 </r>
       <r>    -6.4938     0.0000   212.0000 </r>
       <r>    -6.3392     0.0000   212.0000 </r>
       <r>    -6.1847     0.0000   212.0000 </r>
       <r>    -6.0301     0.0000   212.0000 </r>
       <r>    -5.8755     0.0000   212.0000 </r>
       <r>    -5.7210     0.0000   212.0000 </r>
       <r>    -5.5664     0.0000   212.0000 </r>
       <r>    -5.4119     0.0000   212.0000 </r>
       <r>    -5.2573     0.0000   212.0000 </r>
       <r>    -5.1027     0.0000   212.0000 </r>
       <r>    -4.9482     0.0000   212.0000 </r>
       <r>    -4.7936     0.0000   212.0000 </r>
       <r>    -4.6391     0.0000   212.0000 </r>
       <r>    -4.4845     0.0000   212.0000 </r>
       <r>    -4.3299     0.0000   212.0000 </r>
       <r>    -4.1754     0.0000   212.0000 </r>
       <r>    -4.0208     0.0000   212.0000 </r>
       <r>    -3.8663     0.0000   212.0000 </r>
       <r>    -3.7117     0.0000   212.0000 </r>
       <r>    -3.5571     0.0000   212.0000 </r>
       <r>    -3.4026     0.0000   212.0000 </r>
       <r>    -3.2480     0.0000   212.0000 </r>
       <r>    -3.0935     0.0000   212.0000 </r>
       <r>    -2.9389     0.0000   212.0000 </r>
       <r>    -2.7843     0.0008   212.0001 </r>
       <r>    -2.6298     4.9213   212.7608 </r>
       <r>    -2.4752     7.7192   213.9538 </r>
       <r>    -2.3207    13.8697   216.0975 </r>
       <r>    -2.1661    22.1242   219.5171 </r>
       <r>    -2.0115    18.1890   222.3284 </r>
       <r>    -1.8570    19.0225   225.2685 </r>
       <r>    -1.7024    27.5425   229.5254 </r>
       <r>    -1.5479    38.5183   235.4788 </r>
       <r>    -1.3933    49.0436   243.0590 </r>
       <r>    -1.2387    47.1928   250.3531 </r>
       <r>    -1.0842    70.6574   261.2740 </r>
       <r>    -0.9296    84.4013   274.3190 </r>
       <r>    -0.7751    75.8243   286.0385 </r>
       <r>    -0.6205    87.9521   299.6323 </r>
       <r>    -0.4659    80.7110   312.1070 </r>
       <r>    -0.3114    67.3637   322.5188 </r>
       <r>    -0.1568    72.1971   333.6776 </r>
       <r>    -0.0023    66.3278   343.9292 </r>
       <r>     0.1523    62.4328   353.5788 </r>
       <r>     0.3069    52.9742   361.7665 </r>
       <r>     0.4614    51.7020   369.7576 </r>
       <r>     0.6160    63.0903   379.5088 </r>
       <r>     0.7705    47.9726   386.9235 </r>
       <r>     0.9251    63.8837   396.7974 </r>
       <r>     1.0797    64.6986   406.7972 </r>
       <r>     1.2342    70.2954   417.6620 </r>
       <r>     1.3888    73.9962   429.0989 </r>
       <r>     1.5433    74.8705   440.6709 </r>
       <r>     1.6979    69.2416   451.3729 </r>
       <r>     1.8525    42.6251   457.9610 </r>
       <r>     2.0070    14.3450   460.1782 </r>
       <r>     2.1616    16.7318   462.7643 </r>
       <r>     2.3161     7.9459   463.9924 </r>
       <r>     2.4707     0.0493   464.0000 </r>
       <r>     2.6253     0.0000   464.0000 </r>
       <r>     2.7798     0.0000   464.0000 </r>
       <r>     2.9344     0.0000   464.0000 </r>
       <r>     3.0889     0.0000   464.0000 </r>
       <r>     3.2435     0.0000   464.0000 </r>
       <r>     3.3981     0.0000   464.0000 </r>
       <r>     3.5526     0.0000   464.0000 </r>
       <r>     3.7072     0.0000   464.0000 </r>
       <r>     3.8617     0.0000   464.0000 </r>
       <r>     4.0163     0.0013   464.0002 </r>
       <r>     4.1709     5.9663   464.9223 </r>
       <r>     4.3254    40.2079   471.1369 </r>
       <r>     4.4800    68.2052   481.6787 </r>
       <r>     4.6345    68.6684   492.2921 </r>
       <r>     4.7891    74.0572   503.7384 </r>
       <r>     4.9437    71.5153   514.7918 </r>
       <r>     5.0982    75.8668   526.5177 </r>
       <r>     5.2528    80.5710   538.9708 </r>
       <r>     5.4073    79.4945   551.2575 </r>
       <r>     5.5619    82.4416   563.9997 </r>
       <r>     5.7165    84.6807   577.0879 </r>
       <r>     5.8710    95.9967   591.9252 </r>
       <r>     6.0256    60.6362   601.2971 </r>
       <r>     6.1801    23.6989   604.9600 </r>
       <r>     6.3347     6.5823   605.9774 </r>
       <r>     6.4893     2.3893   606.3467 </r>
       <r>     6.6438    10.6991   608.0003 </r>
       <r>     6.7984     7.5907   609.1736 </r>
       <r>     6.9529     8.3561   610.4651 </r>
       <r>     7.1075    16.1928   612.9678 </r>
       <r>     7.2621    16.9479   615.5873 </r>
       <r>     7.4166     6.4312   616.5813 </r>
       <r>     7.5712    17.0687   619.2195 </r>
       <r>     7.7257    16.9770   621.8434 </r>
       <r>     7.8803    20.4755   625.0081 </r>
       <r>     8.0349    24.0052   628.7184 </r>
       <r>     8.1894    20.2746   631.8520 </r>
       <r>     8.3440    25.8613   635.8491 </r>
       <r>     8.4985    21.3631   639.1510 </r>
       <r>     8.6531    15.4942   641.5458 </r>
       <r>     8.8077    27.6695   645.8224 </r>
       <r>     8.9622    36.4501   651.4562 </r>
       <r>     9.1168    37.5461   657.2593 </r>
       <r>     9.2713    42.2504   663.7895 </r>
       <r>     9.4259    44.7142   670.7006 </r>
       <r>     9.5805    46.7959   677.9333 </r>
       <r>     9.7350    47.4169   685.2621 </r>
       <r>     9.8896    44.7090   692.1723 </r>
       <r>    10.0441    47.0732   699.4479 </r>
       <r>    10.1987    52.8127   707.6107 </r>
       <r>    10.3533    59.4276   716.7958 </r>
       <r>    10.5078    51.1741   724.7053 </r>
       <r>    10.6624    46.1655   731.8406 </r>
       <r>    10.8169    56.2338   740.5321 </r>
       <r>    10.9715    53.0807   748.7363 </r>
       <r>    11.1261    54.4508   757.1522 </r>
       <r>    11.2806    52.7148   765.2998 </r>
       <r>    11.4352    17.4617   767.9987 </r>
       <r>    11.5897     0.0086   768.0000 </r>
       <r>    11.7443     0.0000   768.0000 </r>
       <r>    11.8989     0.0000   768.0000 </r>
       <r>    12.0534     0.0000   768.0000 </r>
       <r>    12.2080     0.0000   768.0000 </r>
       <r>    12.3625     0.0000   768.0000 </r>
       <r>    12.5171     0.0000   768.0000 </r>
       <r>    12.6717     0.0000   768.0000 </r>
       <r>    12.8262     0.0000   768.0000 </r>
       <r>    12.9808     0.0000   768.0000 </r>
       <r>    13.1353     0.0000   768.0000 </r>
       <r>    13.2899     0.0000   768.0000 </r>
       <r>    13.4445     0.0000   768.0000 </r>
      </set>
     </set>
    </array>
   </total>
  </dos>
 </calculation>
 <structure name="finalpos" >
  <crystal>
   <varray name="basis" >
    <v>      11.19728013      -0.00431843       0.00213162 </v>
    <v>      -0.00330397      11.34147289      -0.01000337 </v>
    <v>       0.00291945      -0.01345692      15.86592867 </v>
   </varray>
   <i name="volume">   2014.87037340 </i>
   <varray name="rec_basis" >
    <v>       0.08930742       0.00002600      -0.00001641 </v>
    <v>       0.00003399       0.08817205       0.00007478 </v>
    <v>      -0.00001198       0.00005559       0.06302819 </v>
   </varray>
  </crystal>
  <varray name="positions" >
   <v>       0.98597782       0.24659707       0.12170637 </v>
   <v>       0.99323596       0.24248064       0.60803581 </v>
   <v>       0.00805641       0.74835176       0.12127824 </v>
   <v>       0.99928411       0.74166951       0.60740959 </v>
   <v>       0.50805641       0.24835176       0.12127824 </v>
   <v>       0.49928411       0.24166951       0.60740959 </v>
   <v>       0.48597782       0.74659707       0.12170637 </v>
   <v>       0.49323596       0.74248064       0.60803581 </v>
   <v>       0.98565508       0.24724262       0.38118400 </v>
   <v>       0.00440872       0.24068306       0.89074491 </v>
   <v>       0.00610548       0.74703986       0.38086775 </v>
   <v>       0.99450237       0.74146966       0.89143458 </v>
   <v>       0.50610548       0.24703986       0.38086775 </v>
   <v>       0.49450237       0.24146966       0.89143458 </v>
   <v>       0.48565508       0.74724262       0.38118400 </v>
   <v>       0.50440872       0.74068306       0.89074491 </v>
   <v>       0.24620308       0.98702432       0.11653516 </v>
   <v>       0.24960630       0.00767295       0.60984801 </v>
   <v>       0.24748154       0.52051456       0.12466180 </v>
   <v>       0.24725047       0.50812421       0.60570489 </v>
   <v>       0.74748154       0.02051456       0.12466180 </v>
   <v>       0.74725047       0.00812421       0.60570489 </v>
   <v>       0.74620308       0.48702432       0.11653516 </v>
   <v>       0.74960630       0.50767295       0.60984801 </v>
   <v>       0.24318895       0.99004199       0.38535396 </v>
   <v>       0.24852378       0.01163225       0.88923030 </v>
   <v>       0.24879495       0.51918403       0.37894370 </v>
   <v>       0.24720987       0.50243537       0.89319642 </v>
   <v>       0.74879495       0.01918403       0.37894370 </v>
   <v>       0.74720987       0.00243537       0.89319642 </v>
   <v>       0.74318895       0.49004199       0.38535396 </v>
   <v>       0.74852378       0.51163225       0.88923030 </v>
   <v>       0.99592744       0.99835563       0.00293546 </v>
   <v>       0.49629327      -0.00029672       0.00399723 </v>
   <v>       0.74357059       0.74789441       0.49420131 </v>
   <v>       0.24357059       0.24789441       0.49420131 </v>
   <v>       0.49592744       0.49835563       0.00293546 </v>
   <v>       0.99629327       0.49970328       0.00399723 </v>
   <v>       0.74955061       0.25791537       0.24958720 </v>
   <v>       0.24955061       0.75791537       0.24958720 </v>
   <v>       0.99535654       0.00005139       0.49402904 </v>
   <v>       0.74540512       0.25181646       0.50228354 </v>
   <v>       0.99424764       0.50113270       0.49069524 </v>
   <v>       0.49424764       0.00113270       0.49069524 </v>
   <v>       0.24540512       0.75181646       0.50228354 </v>
   <v>       0.49535654       0.50005139       0.49402904 </v>
   <v>       0.74470498       0.74530890       0.01997354 </v>
   <v>       0.01108908       0.49225231       0.24996887 </v>
   <v>       0.76705701       0.28443263       0.75122141 </v>
   <v>       0.24690979       0.75004459       0.99520557 </v>
   <v>       0.74690979       0.25004459       0.99520557 </v>
   <v>       0.51474316       0.46198420       0.75211270 </v>
   <v>       0.51916157       0.96452128       0.75292255 </v>
   <v>       0.26708246       0.28874544       0.74354542 </v>
   <v>       0.24470498       0.24530890       0.01997354 </v>
   <v>       0.75323984       0.77421402       0.25318611 </v>
   <v>       0.76708246       0.78874544       0.74354542 </v>
   <v>       0.99185794       0.98469345       0.25057150 </v>
   <v>       0.01474316       0.96198420       0.75211270 </v>
   <v>       0.26705701       0.78443263       0.75122141 </v>
   <v>       0.01916157       0.46452128       0.75292255 </v>
   <v>       0.51108908       0.99225231       0.24996887 </v>
   <v>       0.25323984       0.27421402       0.25318611 </v>
   <v>       0.49185794       0.48469345       0.25057150 </v>
   <v>       0.00368371       0.00232524       0.12544722 </v>
   <v>       0.98082753       0.02362471       0.64693494 </v>
   <v>       0.98453604       0.50970536       0.12693703 </v>
   <v>       0.98493759       0.52665415       0.64851489 </v>
   <v>       0.48453604       0.00970536       0.12693703 </v>
   <v>       0.48493759       0.02665415       0.64851489 </v>
   <v>       0.50368371       0.50232524       0.12544722 </v>
   <v>       0.48082753       0.52362471       0.64693494 </v>
   <v>       0.00576910       0.01088594       0.36996506 </v>
   <v>       0.98525286       0.01168512       0.86572615 </v>
   <v>       0.97884070       0.51660591       0.36714925 </v>
   <v>       0.99748149       0.51493821       0.86711683 </v>
   <v>       0.47884070       0.01660591       0.36714925 </v>
   <v>       0.49748149       0.01493821       0.86711683 </v>
   <v>       0.50576910       0.51088594       0.36996506 </v>
   <v>       0.48525286       0.51168512       0.86572615 </v>
   <v>       0.23490279       0.21851108       0.36394398 </v>
   <v>       0.23029307       0.22211563       0.84580295 </v>
   <v>       0.24679236       0.75496295       0.37376089 </v>
   <v>       0.23791789       0.72486319       0.86054705 </v>
   <v>       0.74679236       0.25496295       0.37376089 </v>
   <v>       0.73791789       0.22486319       0.86054705 </v>
   <v>       0.73490279       0.71851108       0.36394398 </v>
   <v>       0.73029307       0.72211563       0.84580295 </v>
   <v>       0.23306627       0.20927518       0.14398561 </v>
   <v>       0.24070146       0.24378150       0.62966008 </v>
   <v>       0.24704885       0.75541569       0.12220132 </v>
   <v>       0.23984984       0.72900898       0.64147915 </v>
   <v>       0.74704885       0.25541569       0.12220132 </v>
   <v>       0.73984984       0.22900898       0.64147915 </v>
   <v>       0.73306627       0.70927518       0.14398561 </v>
   <v>       0.74070146       0.74378150       0.62966008 </v>
   <v>       0.15509674       0.40526417       0.24978619 </v>
   <v>       0.40680255       0.33767664       0.24991964 </v>
   <v>       0.65193243       0.40791021       0.24841705 </v>
   <v>       0.89505593       0.36110326       0.24734400 </v>
   <v>       0.15193243       0.90791021       0.24841705 </v>
   <v>       0.39505593       0.86110326       0.24734400 </v>
   <v>       0.65509674       0.90526417       0.24978619 </v>
   <v>       0.90680255       0.83767664       0.24991964 </v>
   <v>       0.12273156       0.12313216       0.50356921 </v>
   <v>       0.37091585       0.13005381       0.50007035 </v>
   <v>       0.62215088       0.12116360       0.49772050 </v>
   <v>       0.87295099       0.12780545       0.49796393 </v>
   <v>       0.11817764       0.37185966       0.49264484 </v>
   <v>       0.36557253       0.37524318       0.49267303 </v>
   <v>       0.61804623       0.37525677       0.50756759 </v>
   <v>       0.87043241       0.37829521       0.50710177 </v>
   <v>       0.12215088       0.62116360       0.49772050 </v>
   <v>       0.37295099       0.62780545       0.49796393 </v>
   <v>       0.62273156       0.62313216       0.50356921 </v>
   <v>       0.87091585       0.63005381       0.50007035 </v>
   <v>       0.11804623       0.87525677       0.50756759 </v>
   <v>       0.37043241       0.87829521       0.50710177 </v>
   <v>       0.61817764       0.87185966       0.49264484 </v>
   <v>       0.86557253       0.87524318       0.49267303 </v>
   <v>       0.19035420       0.44018944       0.74940626 </v>
   <v>       0.43878272       0.31018798       0.75007610 </v>
   <v>       0.68596515       0.43437725       0.75089194 </v>
   <v>       0.93770304       0.31463298       0.75217644 </v>
   <v>       0.18596515       0.93437725       0.75089194 </v>
   <v>       0.43770304       0.81463298       0.75217644 </v>
   <v>       0.69035420       0.94018944       0.74940626 </v>
   <v>       0.93878272       0.81018798       0.75007610 </v>
   <v>       0.12343712       0.12072852       0.99879988 </v>
   <v>       0.37237721       0.12826019       0.00018033 </v>
   <v>       0.62323854       0.12028852       0.00232534 </v>
   <v>       0.87469868       0.12588377       0.00139063 </v>
   <v>       0.11976019       0.37092526       0.00662498 </v>
   <v>       0.36682124       0.37354765       0.00534037 </v>
   <v>       0.61855714       0.37377555       0.99122970 </v>
   <v>       0.87187177       0.37676272       0.99154044 </v>
   <v>       0.12323854       0.62028852       0.00232534 </v>
   <v>       0.37469868       0.62588377       0.00139063 </v>
   <v>       0.62343712       0.62072852       0.99879988 </v>
   <v>       0.87237721       0.62826019       0.00018033 </v>
   <v>       0.11855714       0.87377555       0.99122970 </v>
   <v>       0.37187177       0.87676272       0.99154044 </v>
   <v>       0.61976019       0.87092526       0.00662498 </v>
   <v>       0.86682124       0.87354765       0.00534037 </v>
   <v>       0.60896941       0.14809475       0.24693449 </v>
   <v>       0.87001437       0.11799252       0.24656044 </v>
   <v>       0.10896941       0.64809475       0.24693449 </v>
   <v>       0.37001437       0.61799252       0.24656044 </v>
  </varray>
 </structure>
</modeling>
