<?xml version="1.0" encoding="ISO-8859-1"?>
<modeling>
 <generator>
  <i name="program" type="string">vasp </i>
  <i name="version" type="string">5.4.1  </i>
  <i name="subversion" type="string">05Feb16 (build Jan 25 2017 20:16:33) complex                          parallel </i>
  <i name="platform" type="string">BWXE6 </i>
  <i name="date" type="string">2019 06 25 </i>
  <i name="time" type="string">10:08:57 </i>
 </generator>
 <incar>
  <i type="string" name="SYSTEM"> STF</i>
  <i type="string" name="PREC">normal</i>
  <i type="string" name="ALGO"> Fast</i>
  <i type="int" name="ISPIN">     2</i>
  <i type="int" name="NELM">    40</i>
  <i type="int" name="NELMIN">     8</i>
  <i type="int" name="IBRION">     2</i>
  <i name="EDIFF">      0.00010000</i>
  <i name="EDIFFG">     -0.03000000</i>
  <i type="int" name="NSW">    30</i>
  <i type="int" name="ISIF">     3</i>
  <i name="ENCUT">    520.00000000</i>
  <i type="int" name="NBANDS">   768</i>
  <v name="MAGMOM">      0.60000000      0.60000000      0.60000000      0.60000000      0.60000000      0.60000000      0.60000000      0.60000000      0.60000000      0.60000000      0.60000000      0.60000000      0.60000000      0.60000000      0.60000000      0.60000000      0.60000000      0.60000000      0.60000000      0.60000000
      0.60000000      0.60000000      0.60000000      0.60000000      0.60000000      0.60000000      0.60000000      0.60000000      0.60000000      0.60000000      0.60000000      0.60000000      0.60000000      0.60000000      0.60000000      0.60000000      0.60000000      0.60000000      0.60000000      0.60000000
      0.60000000      0.60000000      0.60000000      0.60000000      0.60000000      0.60000000      0.60000000      0.60000000      0.60000000      0.60000000      0.60000000      0.60000000      0.60000000      0.60000000      0.60000000      0.60000000      5.00000000      5.00000000      5.00000000      5.00000000
      5.00000000      5.00000000      5.00000000      5.00000000      0.60000000      0.60000000      0.60000000      0.60000000      0.60000000      0.60000000      0.60000000      0.60000000      0.60000000      0.60000000      0.60000000      0.60000000      0.60000000      0.60000000      0.60000000      0.60000000
      0.60000000      0.60000000      0.60000000      0.60000000      0.60000000      0.60000000      0.60000000      0.60000000      0.60000000      0.60000000      0.60000000      0.60000000      0.60000000      0.60000000      0.60000000      0.60000000      0.60000000      0.60000000      0.60000000      0.60000000
      0.60000000      0.60000000      0.60000000      0.60000000      0.60000000      0.60000000      0.60000000      0.60000000      0.60000000      0.60000000      0.60000000      0.60000000      0.60000000      0.60000000      0.60000000      0.60000000      0.60000000      0.60000000      0.60000000      0.60000000
      0.60000000      0.60000000      0.60000000      0.60000000      0.60000000      0.60000000      0.60000000      0.60000000      0.60000000      0.60000000      0.60000000      0.60000000      0.60000000      0.60000000      0.60000000      0.60000000      0.60000000      0.60000000      0.60000000      0.60000000
      0.60000000      0.60000000      0.60000000      0.60000000      0.60000000      0.60000000      0.60000000      0.60000000      0.60000000      0.60000000      0.60000000      0.60000000      0.60000000      0.60000000      0.60000000      0.60000000</v>
  <i type="string" name="LREAL"> Auto</i>
  <i type="int" name="ISMEAR">     0</i>
  <i name="SIGMA">      0.05000000</i>
  <i type="int" name="LMAXMIX">     4</i>
  <v type="int" name="KPOINT_BSE">    -1     0     0     0</v>
  <i type="int" name="NELM">    40</i>
  <i type="logical" name="LDAU"> T  </i>
  <v type="int" name="LDAUTYPE">     2</v>
  <v type="int" name="LDAUL">     0     2     2     0</v>
  <v name="LDAUU">      0.00000000      3.00000000      5.00000000      0.00000000</v>
  <v name="LDAUJ">      0.00000000      0.00000000      0.00000000      0.00000000</v>
  <i type="int" name="LDAUPRINT">     1</i>
 </incar>
 <kpoints>
  <generation param="Monkhorst-Pack">
   <v type="int" name="divisions">       2        2        2 </v>
   <v name="usershift">      0.00000000       0.00000000       0.00000000 </v>
   <v name="genvec1">      0.50000000       0.00000000       0.00000000 </v>
   <v name="genvec2">     -0.00000000       0.50000000       0.00000000 </v>
   <v name="genvec3">      0.00000000       0.00000000       0.50000000 </v>
   <v name="shift">      0.50000000       0.50000000       0.50000000 </v>
  </generation>
  <varray name="kpointlist" >
   <v>       0.25000000       0.25000000       0.25000000 </v>
   <v>      -0.25000000       0.25000000       0.25000000 </v>
   <v>       0.25000000      -0.25000000       0.25000000 </v>
   <v>      -0.25000000      -0.25000000       0.25000000 </v>
  </varray>
  <varray name="weights" >
   <v>       0.25000000 </v>
   <v>       0.25000000 </v>
   <v>       0.25000000 </v>
   <v>       0.25000000 </v>
  </varray>
 </kpoints>
 <parameters>
  <separator name="general" >
   <i type="string" name="SYSTEM">STF</i>
   <i type="logical" name="LCOMPAT"> F  </i>
  </separator>
  <separator name="electronic" >
   <i type="string" name="PREC">normal</i>
   <i name="ENMAX">    520.00000000</i>
   <i name="ENAUG">    605.39200000</i>
   <i name="EDIFF">      0.00010000</i>
   <i type="int" name="IALGO">    68</i>
   <i type="int" name="IWAVPR">    11</i>
   <i type="int" name="NBANDS">   768</i>
   <i name="NELECT">   1032.00000000</i>
   <i type="int" name="TURBO">     0</i>
   <i type="int" name="IRESTART">     0</i>
   <i type="int" name="NREBOOT">     0</i>
   <i type="int" name="NMIN">     0</i>
   <i name="EREF">      0.00000000</i>
   <separator name="electronic smearing" >
    <i type="int" name="ISMEAR">     0</i>
    <i name="SIGMA">      0.05000000</i>
    <i name="KSPACING">      0.50000000</i>
    <i type="logical" name="KGAMMA"> T  </i>
   </separator>
   <separator name="electronic projectors" >
    <i type="logical" name="LREAL"> T  </i>
    <v name="ROPT">     -0.00050000     -0.00050000     -0.00050000     -0.00050000</v>
    <i type="int" name="LMAXPAW">  -100</i>
    <i type="int" name="LMAXMIX">     4</i>
    <i type="logical" name="NLSPLINE"> F  </i>
   </separator>
   <separator name="electronic startup" >
    <i type="int" name="ISTART">     1</i>
    <i type="int" name="ICHARG">     0</i>
    <i type="int" name="INIWAV">     1</i>
   </separator>
   <separator name="electronic spin" >
    <i type="int" name="ISPIN">     2</i>
    <i type="logical" name="LNONCOLLINEAR"> F  </i>
    <v name="MAGMOM">      0.60000000      0.60000000      0.60000000      0.60000000      0.60000000      0.60000000      0.60000000      0.60000000      0.60000000      0.60000000      0.60000000      0.60000000      0.60000000      0.60000000      0.60000000      0.60000000      0.60000000      0.60000000      0.60000000      0.60000000
      0.60000000      0.60000000      0.60000000      0.60000000      0.60000000      0.60000000      0.60000000      0.60000000      0.60000000      0.60000000      0.60000000      0.60000000      0.60000000      0.60000000      0.60000000      0.60000000      0.60000000      0.60000000      0.60000000      0.60000000
      0.60000000      0.60000000      0.60000000      0.60000000      0.60000000      0.60000000      0.60000000      0.60000000      0.60000000      0.60000000      0.60000000      0.60000000      0.60000000      0.60000000      0.60000000      0.60000000      5.00000000      5.00000000      5.00000000      5.00000000
      5.00000000      5.00000000      5.00000000      5.00000000      0.60000000      0.60000000      0.60000000      0.60000000      0.60000000      0.60000000      0.60000000      0.60000000      0.60000000      0.60000000      0.60000000      0.60000000      0.60000000      0.60000000      0.60000000      0.60000000
      0.60000000      0.60000000      0.60000000      0.60000000      0.60000000      0.60000000      0.60000000      0.60000000      0.60000000      0.60000000      0.60000000      0.60000000      0.60000000      0.60000000      0.60000000      0.60000000      0.60000000      0.60000000      0.60000000      0.60000000
      0.60000000      0.60000000      0.60000000      0.60000000      0.60000000      0.60000000      0.60000000      0.60000000      0.60000000      0.60000000      0.60000000      0.60000000      0.60000000      0.60000000      0.60000000      0.60000000      0.60000000      0.60000000      0.60000000      0.60000000
      0.60000000      0.60000000      0.60000000      0.60000000      0.60000000      0.60000000      0.60000000      0.60000000      0.60000000      0.60000000      0.60000000      0.60000000      0.60000000      0.60000000      0.60000000      0.60000000      0.60000000      0.60000000      0.60000000      0.60000000
      0.60000000      0.60000000      0.60000000      0.60000000      0.60000000      0.60000000      0.60000000      0.60000000      0.60000000      0.60000000      0.60000000      0.60000000      0.60000000      0.60000000      0.60000000      0.60000000</v>
    <i name="NUPDOWN">     -1.00000000</i>
    <i type="logical" name="LSORBIT"> F  </i>
    <v name="SAXIS">      0.00000000      0.00000000      1.00000000</v>
    <i type="logical" name="LSPIRAL"> F  </i>
    <v name="QSPIRAL">      0.00000000      0.00000000      0.00000000</v>
    <i type="logical" name="LZEROZ"> F  </i>
   </separator>
   <separator name="electronic exchange-correlation" >
    <i type="logical" name="LASPH"> F  </i>
    <i type="logical" name="LMETAGGA"> F  </i>
   </separator>
   <separator name="electronic convergence" >
    <i type="int" name="NELM">    40</i>
    <i type="int" name="NELMDL">     0</i>
    <i type="int" name="NELMIN">     8</i>
    <i name="ENINI">    520.00000000</i>
    <separator name="electronic convergence detail" >
     <i type="logical" name="LDIAG"> T  </i>
     <i type="logical" name="LSUBROT"> F  </i>
     <i name="WEIMIN">      0.00100000</i>
     <i name="EBREAK">      0.00000003</i>
     <i name="DEPER">      0.30000000</i>
     <i type="int" name="NRMM">     4</i>
     <i name="TIME">      0.40000000</i>
    </separator>
   </separator>
   <separator name="electronic mixer" >
    <i name="AMIX">      0.40000000</i>
    <i name="BMIX">      1.00000000</i>
    <i name="AMIN">      0.10000000</i>
    <i name="AMIX_MAG">      1.60000000</i>
    <i name="BMIX_MAG">      1.00000000</i>
    <separator name="electronic mixer details" >
     <i type="int" name="IMIX">     4</i>
     <i type="logical" name="MIXFIRST"> F  </i>
     <i type="int" name="MAXMIX">   -45</i>
     <i name="WC">    100.00000000</i>
     <i type="int" name="INIMIX">     1</i>
     <i type="int" name="MIXPRE">     1</i>
     <i type="int" name="MREMOVE">     5</i>
    </separator>
   </separator>
   <separator name="electronic dipolcorrection" >
    <i type="logical" name="LDIPOL"> F  </i>
    <i type="logical" name="LMONO"> F  </i>
    <i type="int" name="IDIPOL">     0</i>
    <i name="EPSILON">      1.00000000</i>
    <v name="DIPOL">   -100.00000000   -100.00000000   -100.00000000</v>
    <i name="EFIELD">      0.00000000</i>
   </separator>
  </separator>
  <separator name="grids" >
   <i type="int" name="NGX">    64</i>
   <i type="int" name="NGY">    64</i>
   <i type="int" name="NGZ">    90</i>
   <i type="int" name="NGXF">   128</i>
   <i type="int" name="NGYF">   128</i>
   <i type="int" name="NGZF">   180</i>
   <i type="logical" name="ADDGRID"> F  </i>
  </separator>
  <separator name="ionic" >
   <i type="int" name="NSW">    30</i>
   <i type="int" name="IBRION">     2</i>
   <i type="int" name="ISIF">     3</i>
   <i name="PSTRESS">      0.00000000</i>
   <i name="EDIFFG">     -0.03000000</i>
   <i type="int" name="NFREE">     1</i>
   <i name="POTIM">      0.50000000</i>
   <i name="SMASS">     -3.00000000</i>
   <i name="SCALEE">      1.00000000</i>
  </separator>
  <separator name="ionic md" >
   <i name="TEBEG">      0.00010000</i>
   <i name="TEEND">      0.00010000</i>
   <i type="int" name="NBLOCK">     1</i>
   <i type="int" name="KBLOCK">    30</i>
   <i type="int" name="NPACO">   256</i>
   <i name="APACO">     16.00000000</i>
  </separator>
  <separator name="symmetry" >
   <i type="int" name="ISYM">     2</i>
   <i name="SYMPREC">      0.00001000</i>
  </separator>
  <separator name="dos" >
   <i type="logical" name="LORBIT"> F  </i>
   <v name="RWIGS">     -1.00000000     -1.00000000     -1.00000000     -1.00000000</v>
   <i type="int" name="NEDOS">   301</i>
   <i name="EMIN">     10.00000000</i>
   <i name="EMAX">    -10.00000000</i>
   <i name="EFERMI">      0.00000000</i>
  </separator>
  <separator name="writing" >
   <i type="int" name="NWRITE">     2</i>
   <i type="logical" name="LWAVE"> T  </i>
   <i type="logical" name="LCHARG"> T  </i>
   <i type="logical" name="LPARD"> F  </i>
   <i type="logical" name="LVTOT"> F  </i>
   <i type="logical" name="LVHAR"> F  </i>
   <i type="logical" name="LELF"> F  </i>
   <i type="logical" name="LOPTICS"> F  </i>
   <v name="STM">      0.00000000      0.00000000      0.00000000      0.00000000      0.00000000      0.00000000      0.00000000</v>
  </separator>
  <separator name="performance" >
   <i type="int" name="NPAR">     2</i>
   <i type="int" name="NSIM">     4</i>
   <i type="int" name="NBLK">    -1</i>
   <i type="logical" name="LPLANE"> T  </i>
   <i type="logical" name="LSCALAPACK"> T  </i>
   <i type="logical" name="LSCAAWARE"> F  </i>
   <i type="logical" name="LSCALU"> F  </i>
   <i type="logical" name="LASYNC"> F  </i>
   <i type="logical" name="LORBITALREAL"> F  </i>
  </separator>
  <separator name="miscellaneous" >
   <i type="int" name="IDIOT">     3</i>
   <i type="logical" name="LMUSIC"> F  </i>
   <v name="POMASS">     87.62000000     47.88000000     55.84700000     16.00000000</v>
   <v name="DARWINR">      0.00000000      0.00000000      0.00000000      0.00000000</v>
   <v name="DARWINV">      1.00000000      1.00000000      1.00000000      1.00000000</v>
   <i type="logical" name="LCORR"> T  </i>
  </separator>
  <i type="logical" name="GGA_COMPAT"> T  </i>
  <i type="logical" name="LBERRY"> F  </i>
  <i type="int" name="ICORELEVEL">     0</i>
  <i type="logical" name="LDAU"> T  </i>
  <v type="int" name="LDAUTYPE">     2</v>
  <v type="int" name="LDAUL">     0</v>
  <v name="LDAUU">      0.00000000</v>
  <v name="LDAUJ">      0.00000000</v>
  <i type="int" name="LDAUPRINT">     1</i>
  <i type="int" name="I_CONSTRAINED_M">     0</i>
  <separator name="electronic exchange-correlation" >
   <i type="string" name="GGA">--</i>
   <i type="int" name="VOSKOWN">     0</i>
   <i type="logical" name="LHFCALC"> F  </i>
   <i type="string" name="PRECFOCK"></i>
   <i type="logical" name="LSYMGRAD"> F  </i>
   <i type="logical" name="LHFONE"> F  </i>
   <i type="logical" name="LRHFCALC"> F  </i>
   <i type="logical" name="LTHOMAS"> F  </i>
   <i type="logical" name="LMODELHF"> F  </i>
   <i name="ENCUT4O">     -1.00000000</i>
   <i type="int" name="EXXOEP">     0</i>
   <i type="int" name="FOURORBIT">     0</i>
   <i name="AEXX">      0.00000000</i>
   <i name="HFALPHA">      0.00000000</i>
   <i name="MCALPHA">      0.00000000</i>
   <i name="ALDAX">      1.00000000</i>
   <i name="AGGAX">      1.00000000</i>
   <i name="ALDAC">      1.00000000</i>
   <i name="AGGAC">      1.00000000</i>
   <i type="int" name="NKREDX">     1</i>
   <i type="int" name="NKREDY">     1</i>
   <i type="int" name="NKREDZ">     1</i>
   <i type="logical" name="SHIFTRED"> F  </i>
   <i type="logical" name="ODDONLY"> F  </i>
   <i type="logical" name="EVENONLY"> F  </i>
   <i type="int" name="LMAXFOCK">     0</i>
   <i type="int" name="NMAXFOCKAE">     0</i>
   <i type="logical" name="LFOCKAEDFT"> F  </i>
   <i name="HFSCREEN">      0.00000000</i>
   <i name="HFSCREENC">      0.00000000</i>
   <i type="int" name="NBANDSGWLOW">     0</i>
  </separator>
  <separator name="vdW DFT" >
   <i type="logical" name="LUSE_VDW"> F  </i>
   <i name="Zab_VDW">     -0.84910000</i>
   <i name="PARAM1">      0.12340000</i>
   <i name="PARAM2">      1.00000000</i>
   <i name="PARAM3">      0.00000000</i>
  </separator>
  <separator name="model GW" >
   <i type="int" name="MODEL_GW">     0</i>
   <i name="MODEL_EPS0">      7.71390807</i>
   <i name="MODEL_ALPHA">      1.00000000</i>
  </separator>
  <separator name="linear response parameters" >
   <i type="logical" name="LEPSILON"> F  </i>
   <i type="logical" name="LRPA"> F  </i>
   <i type="logical" name="LNABLA"> F  </i>
   <i type="logical" name="LVEL"> F  </i>
   <i type="int" name="KINTER">     0</i>
   <i name="CSHIFT">      0.10000000</i>
   <i name="OMEGAMAX">     -1.00000000</i>
   <i name="DEG_THRESHOLD">      0.00200000</i>
  </separator>
  <separator name="orbital magnetization" >
   <i type="logical" name="NUCIND"> F  </i>
   <v name="MAGPOS">      0.00000000      0.00000000      0.00000000</v>
   <i type="logical" name="LNICSALL"> T  </i>
   <i type="logical" name="ORBITALMAG"> F  </i>
   <i type="logical" name="LMAGBLOCH"> F  </i>
   <i type="logical" name="LCHIMAG"> F  </i>
   <i type="logical" name="LGAUGE"> T  </i>
   <i type="int" name="MAGATOM">     0</i>
   <v name="MAGDIPOL">      0.00000000      0.00000000      0.00000000</v>
   <v name="AVECCONST">      0.00000000      0.00000000      0.00000000</v>
  </separator>
  <separator name="response functions" >
   <i type="logical" name="LADDER"> F  </i>
   <i type="logical" name="LFXC"> F  </i>
   <i type="logical" name="LHARTREE"> T  </i>
   <i type="int" name="IBSE">     0</i>
   <v type="int" name="KPOINT">    -1     0     0     0</v>
   <i type="logical" name="LTCTE"> F  </i>
   <i type="logical" name="LTETE"> F  </i>
   <i type="logical" name="LTRIPLET"> F  </i>
   <i type="logical" name="LFXCEPS"> F  </i>
   <i type="logical" name="LFXHEG"> F  </i>
   <i type="int" name="NATURALO">     0</i>
   <i type="logical" name="L2ORDER"> F  </i>
   <i type="logical" name="LUSEW"> F  </i>
   <i name="ENCUTGW">     -2.00000000</i>
   <i name="ENCUTGWSOFT">     -2.00000000</i>
   <i name="ENCUTLF">     -1.00000000</i>
   <i type="int" name="LMAXMP2">    -1</i>
   <i name="SCISSOR">      0.00000000</i>
   <i type="int" name="NOMEGA">     0</i>
   <i type="int" name="NOMEGAR">     0</i>
   <i type="int" name="NBANDSGW">    -1</i>
   <i type="int" name="NBANDSO">    -1</i>
   <i type="int" name="NBANDSV">    -1</i>
   <i type="int" name="NELM">    40</i>
   <i type="int" name="NELMHF">     1</i>
   <i type="int" name="DIM">     3</i>
   <i type="int" name="ANTIRES">     0</i>
   <i name="OMEGAMAX">    -30.00000000</i>
   <i name="OMEGAMIN">    -30.00000000</i>
   <i name="OMEGATL">   -200.00000000</i>
   <i type="int" name="OMEGAGRID">     0</i>
   <i name="CSHIFT">     -0.10000000</i>
   <i type="logical" name="SELFENERGY"> F  </i>
   <i type="logical" name="LSPECTRAL"> F  </i>
   <i type="logical" name="LSPECTRALGW"> F  </i>
   <i type="logical" name="LSINGLES"> F  </i>
   <i type="logical" name="LFERMIGW"> F  </i>
   <i type="logical" name="ODDONLYGW"> F  </i>
   <i type="logical" name="EVENONLYGW"> F  </i>
   <i type="int" name="NKREDLFX">     1</i>
   <i type="int" name="NKREDLFY">     1</i>
   <i type="int" name="NKREDLFZ">     1</i>
   <i type="int" name="MAXMEM">  1800</i>
   <i type="int" name="TELESCOPE">     0</i>
   <i type="int" name="TAUPAR">     1</i>
   <i type="int" name="OMEGAPAR">    -1</i>
   <i name="LAMBDA">      1.00000000</i>
  </separator>
  <separator name="External order field" >
   <i name="OFIELD_KAPPA">      0.00000000</i>
   <v name="OFIELD_K">      0.00000000      0.00000000      0.00000000</v>
   <i name="OFIELD_Q6_NEAR">      0.00000000</i>
   <i name="OFIELD_Q6_FAR">      0.00000000</i>
   <i name="OFIELD_A">      0.00000000</i>
  </separator>
 </parameters>
 <atominfo>
  <atoms>     156 </atoms>
  <types>       4 </types>
  <array name="atoms" >
   <dimension dim="1">ion</dimension>
   <field type="string">element</field>
   <field type="int">atomtype</field>
   <set>
    <rc><c>Sr</c><c>   1</c></rc>
    <rc><c>Sr</c><c>   1</c></rc>
    <rc><c>Sr</c><c>   1</c></rc>
    <rc><c>Sr</c><c>   1</c></rc>
    <rc><c>Sr</c><c>   1</c></rc>
    <rc><c>Sr</c><c>   1</c></rc>
    <rc><c>Sr</c><c>   1</c></rc>
    <rc><c>Sr</c><c>   1</c></rc>
    <rc><c>Sr</c><c>   1</c></rc>
    <rc><c>Sr</c><c>   1</c></rc>
    <rc><c>Sr</c><c>   1</c></rc>
    <rc><c>Sr</c><c>   1</c></rc>
    <rc><c>Sr</c><c>   1</c></rc>
    <rc><c>Sr</c><c>   1</c></rc>
    <rc><c>Sr</c><c>   1</c></rc>
    <rc><c>Sr</c><c>   1</c></rc>
    <rc><c>Sr</c><c>   1</c></rc>
    <rc><c>Sr</c><c>   1</c></rc>
    <rc><c>Sr</c><c>   1</c></rc>
    <rc><c>Sr</c><c>   1</c></rc>
    <rc><c>Sr</c><c>   1</c></rc>
    <rc><c>Sr</c><c>   1</c></rc>
    <rc><c>Sr</c><c>   1</c></rc>
    <rc><c>Sr</c><c>   1</c></rc>
    <rc><c>Sr</c><c>   1</c></rc>
    <rc><c>Sr</c><c>   1</c></rc>
    <rc><c>Sr</c><c>   1</c></rc>
    <rc><c>Sr</c><c>   1</c></rc>
    <rc><c>Sr</c><c>   1</c></rc>
    <rc><c>Sr</c><c>   1</c></rc>
    <rc><c>Sr</c><c>   1</c></rc>
    <rc><c>Sr</c><c>   1</c></rc>
    <rc><c>Ti</c><c>   2</c></rc>
    <rc><c>Ti</c><c>   2</c></rc>
    <rc><c>Ti</c><c>   2</c></rc>
    <rc><c>Ti</c><c>   2</c></rc>
    <rc><c>Ti</c><c>   2</c></rc>
    <rc><c>Ti</c><c>   2</c></rc>
    <rc><c>Ti</c><c>   2</c></rc>
    <rc><c>Ti</c><c>   2</c></rc>
    <rc><c>Ti</c><c>   2</c></rc>
    <rc><c>Ti</c><c>   2</c></rc>
    <rc><c>Ti</c><c>   2</c></rc>
    <rc><c>Ti</c><c>   2</c></rc>
    <rc><c>Ti</c><c>   2</c></rc>
    <rc><c>Ti</c><c>   2</c></rc>
    <rc><c>Ti</c><c>   2</c></rc>
    <rc><c>Ti</c><c>   2</c></rc>
    <rc><c>Ti</c><c>   2</c></rc>
    <rc><c>Ti</c><c>   2</c></rc>
    <rc><c>Ti</c><c>   2</c></rc>
    <rc><c>Ti</c><c>   2</c></rc>
    <rc><c>Ti</c><c>   2</c></rc>
    <rc><c>Ti</c><c>   2</c></rc>
    <rc><c>Ti</c><c>   2</c></rc>
    <rc><c>Ti</c><c>   2</c></rc>
    <rc><c>Fe</c><c>   3</c></rc>
    <rc><c>Fe</c><c>   3</c></rc>
    <rc><c>Fe</c><c>   3</c></rc>
    <rc><c>Fe</c><c>   3</c></rc>
    <rc><c>Fe</c><c>   3</c></rc>
    <rc><c>Fe</c><c>   3</c></rc>
    <rc><c>Fe</c><c>   3</c></rc>
    <rc><c>Fe</c><c>   3</c></rc>
    <rc><c>O </c><c>   4</c></rc>
    <rc><c>O </c><c>   4</c></rc>
    <rc><c>O </c><c>   4</c></rc>
    <rc><c>O </c><c>   4</c></rc>
    <rc><c>O </c><c>   4</c></rc>
    <rc><c>O </c><c>   4</c></rc>
    <rc><c>O </c><c>   4</c></rc>
    <rc><c>O </c><c>   4</c></rc>
    <rc><c>O </c><c>   4</c></rc>
    <rc><c>O </c><c>   4</c></rc>
    <rc><c>O </c><c>   4</c></rc>
    <rc><c>O </c><c>   4</c></rc>
    <rc><c>O </c><c>   4</c></rc>
    <rc><c>O </c><c>   4</c></rc>
    <rc><c>O </c><c>   4</c></rc>
    <rc><c>O </c><c>   4</c></rc>
    <rc><c>O </c><c>   4</c></rc>
    <rc><c>O </c><c>   4</c></rc>
    <rc><c>O </c><c>   4</c></rc>
    <rc><c>O </c><c>   4</c></rc>
    <rc><c>O </c><c>   4</c></rc>
    <rc><c>O </c><c>   4</c></rc>
    <rc><c>O </c><c>   4</c></rc>
    <rc><c>O </c><c>   4</c></rc>
    <rc><c>O </c><c>   4</c></rc>
    <rc><c>O </c><c>   4</c></rc>
    <rc><c>O </c><c>   4</c></rc>
    <rc><c>O </c><c>   4</c></rc>
    <rc><c>O </c><c>   4</c></rc>
    <rc><c>O </c><c>   4</c></rc>
    <rc><c>O </c><c>   4</c></rc>
    <rc><c>O </c><c>   4</c></rc>
    <rc><c>O </c><c>   4</c></rc>
    <rc><c>O </c><c>   4</c></rc>
    <rc><c>O </c><c>   4</c></rc>
    <rc><c>O </c><c>   4</c></rc>
    <rc><c>O </c><c>   4</c></rc>
    <rc><c>O </c><c>   4</c></rc>
    <rc><c>O </c><c>   4</c></rc>
    <rc><c>O </c><c>   4</c></rc>
    <rc><c>O </c><c>   4</c></rc>
    <rc><c>O </c><c>   4</c></rc>
    <rc><c>O </c><c>   4</c></rc>
    <rc><c>O </c><c>   4</c></rc>
    <rc><c>O </c><c>   4</c></rc>
    <rc><c>O </c><c>   4</c></rc>
    <rc><c>O </c><c>   4</c></rc>
    <rc><c>O </c><c>   4</c></rc>
    <rc><c>O </c><c>   4</c></rc>
    <rc><c>O </c><c>   4</c></rc>
    <rc><c>O </c><c>   4</c></rc>
    <rc><c>O </c><c>   4</c></rc>
    <rc><c>O </c><c>   4</c></rc>
    <rc><c>O </c><c>   4</c></rc>
    <rc><c>O </c><c>   4</c></rc>
    <rc><c>O </c><c>   4</c></rc>
    <rc><c>O </c><c>   4</c></rc>
    <rc><c>O </c><c>   4</c></rc>
    <rc><c>O </c><c>   4</c></rc>
    <rc><c>O </c><c>   4</c></rc>
    <rc><c>O </c><c>   4</c></rc>
    <rc><c>O </c><c>   4</c></rc>
    <rc><c>O </c><c>   4</c></rc>
    <rc><c>O </c><c>   4</c></rc>
    <rc><c>O </c><c>   4</c></rc>
    <rc><c>O </c><c>   4</c></rc>
    <rc><c>O </c><c>   4</c></rc>
    <rc><c>O </c><c>   4</c></rc>
    <rc><c>O </c><c>   4</c></rc>
    <rc><c>O </c><c>   4</c></rc>
    <rc><c>O </c><c>   4</c></rc>
    <rc><c>O </c><c>   4</c></rc>
    <rc><c>O </c><c>   4</c></rc>
    <rc><c>O </c><c>   4</c></rc>
    <rc><c>O </c><c>   4</c></rc>
    <rc><c>O </c><c>   4</c></rc>
    <rc><c>O </c><c>   4</c></rc>
    <rc><c>O </c><c>   4</c></rc>
    <rc><c>O </c><c>   4</c></rc>
    <rc><c>O </c><c>   4</c></rc>
    <rc><c>O </c><c>   4</c></rc>
    <rc><c>O </c><c>   4</c></rc>
    <rc><c>O </c><c>   4</c></rc>
    <rc><c>O </c><c>   4</c></rc>
    <rc><c>O </c><c>   4</c></rc>
    <rc><c>O </c><c>   4</c></rc>
    <rc><c>O </c><c>   4</c></rc>
    <rc><c>O </c><c>   4</c></rc>
    <rc><c>O </c><c>   4</c></rc>
    <rc><c>O </c><c>   4</c></rc>
    <rc><c>O </c><c>   4</c></rc>
    <rc><c>O </c><c>   4</c></rc>
   </set>
  </array>
  <array name="atomtypes" >
   <dimension dim="1">type</dimension>
   <field type="int">atomspertype</field>
   <field type="string">element</field>
   <field>mass</field>
   <field>valence</field>
   <field type="string">pseudopotential</field>
   <set>
    <rc><c>  32</c><c>Sr</c><c>     87.62000000</c><c>     10.00000000</c><c>  PAW_PBE Sr_sv 07Sep2000               </c></rc>
    <rc><c>  24</c><c>Ti</c><c>     47.88000000</c><c>      4.00000000</c><c>  PAW_PBE Ti 08Apr2002                  </c></rc>
    <rc><c>   8</c><c>Fe</c><c>     55.84700000</c><c>      8.00000000</c><c>  PAW_PBE Fe 06Sep2000                  </c></rc>
    <rc><c>  92</c><c>O </c><c>     16.00000000</c><c>      6.00000000</c><c>  PAW_PBE O 08Apr2002                   </c></rc>
   </set>
  </array>
 </atominfo>
 <structure name="initialpos" >
  <crystal>
   <varray name="basis" >
    <v>      11.24137564       0.00467886      -0.00223847 </v>
    <v>       0.00468110      11.23618643      -0.00372795 </v>
    <v>      -0.00317364      -0.00524731      15.87850282 </v>
   </varray>
   <i name="volume">   2005.61609923 </i>
   <varray name="rec_basis" >
    <v>       0.08895710      -0.00003705       0.00001777 </v>
    <v>      -0.00003704       0.08899819       0.00002940 </v>
    <v>       0.00001253       0.00002089       0.06297824 </v>
   </varray>
  </crystal>
  <varray name="positions" >
   <v>       0.00677385       0.25141046       0.12513167 </v>
   <v>       0.99837045       0.24781020       0.62192348 </v>
   <v>       0.00179827       0.74773627       0.12013145 </v>
   <v>       0.99864131       0.75459081       0.61879498 </v>
   <v>       0.48912444       0.25686754       0.12472576 </v>
   <v>       0.49897806       0.25097926       0.62170692 </v>
   <v>       0.49764535       0.74114116       0.11988227 </v>
   <v>       0.50086085       0.74970629       0.62033698 </v>
   <v>       0.00645296       0.24355903       0.38036839 </v>
   <v>       0.00111804       0.25120268       0.87728727 </v>
   <v>       0.00265749       0.75664567       0.38513562 </v>
   <v>       0.00114305       0.74690123       0.87215029 </v>
   <v>       0.49269584       0.24718734       0.38152957 </v>
   <v>       0.49834758       0.25008634       0.87040514 </v>
   <v>       0.49328477       0.75177414       0.38339029 </v>
   <v>       0.50320982       0.74652349       0.87286036 </v>
   <v>       0.23841510       0.00568832       0.12617364 </v>
   <v>       0.24725924       0.99753791       0.61919864 </v>
   <v>       0.24220610       0.49708226       0.12487043 </v>
   <v>       0.24687866       0.50293369       0.62175103 </v>
   <v>       0.76325295       0.99828225       0.12240110 </v>
   <v>       0.75268046       0.99676075       0.62140886 </v>
   <v>       0.75272053       0.49700544       0.11697785 </v>
   <v>       0.75062921       0.50172923       0.62218202 </v>
   <v>       0.23917265       0.99884974       0.38303044 </v>
   <v>       0.24415457       0.99956733       0.87152326 </v>
   <v>       0.24356022       0.50251839       0.37933022 </v>
   <v>       0.24568671       0.49952317       0.87418398 </v>
   <v>       0.75841602       0.99889059       0.38658307 </v>
   <v>       0.75767047       0.99486894       0.87002865 </v>
   <v>       0.75321173       0.50336640       0.38362732 </v>
   <v>       0.75545024       0.50080502       0.87302152 </v>
   <v>       0.99915704       0.99987339       0.99981532 </v>
   <v>       0.99743470       0.50264991       0.49854698 </v>
   <v>       0.49177001       0.99426587       0.00239653 </v>
   <v>       0.50099525       0.99851335       0.49976126 </v>
   <v>       0.49997831       0.49693571       0.99461388 </v>
   <v>       0.24873490       0.25324492       0.00095683 </v>
   <v>       0.24956339       0.25039393       0.49781084 </v>
   <v>       0.24633936       0.74327080       0.00034420 </v>
   <v>       0.74840006       0.24988546       0.49928457 </v>
   <v>       0.75359897       0.74631499       0.99868776 </v>
   <v>       0.24985870       0.25075630       0.74871796 </v>
   <v>       0.24367273       0.74809073       0.25169354 </v>
   <v>       0.25116342       0.74998520       0.74794977 </v>
   <v>       0.75897194       0.25745681       0.25049295 </v>
   <v>       0.74849694       0.24957598       0.75138504 </v>
   <v>       0.74392453       0.76394451       0.25156921 </v>
   <v>       0.74864341       0.74941628       0.74635122 </v>
   <v>       0.00173141       0.00072839       0.25080824 </v>
   <v>       0.00003393       0.00030337       0.74737591 </v>
   <v>       0.00013981       0.49849612       0.75000295 </v>
   <v>       0.49072783       0.99562748       0.24765551 </v>
   <v>       0.50086836       0.99976227       0.74864601 </v>
   <v>       0.49928997       0.49975389       0.24217358 </v>
   <v>       0.49992553       0.49954303       0.74931255 </v>
   <v>       0.99935817       0.99847926       0.50210093 </v>
   <v>       0.99951737       0.50117754       0.00074619 </v>
   <v>       0.49843939       0.50118860       0.50759202 </v>
   <v>       0.25044422       0.75042644       0.49948572 </v>
   <v>       0.75642187       0.25948129       0.99968037 </v>
   <v>       0.74965003       0.74845184       0.49831918 </v>
   <v>       0.25117213       0.25044809       0.25266543 </v>
   <v>       0.01388874       0.49384796       0.25084631 </v>
   <v>       0.11190696       0.13456576       0.24558684 </v>
   <v>       0.11153360       0.13981799       0.74976734 </v>
   <v>       0.11253974       0.64052242       0.24710328 </v>
   <v>       0.11130841       0.63917599       0.74276612 </v>
   <v>       0.60897549       0.13954811       0.74067015 </v>
   <v>       0.62716744       0.62207465       0.25922806 </v>
   <v>       0.60892822       0.63927891       0.75062927 </v>
   <v>       0.38627365       0.37685319       0.26664044 </v>
   <v>       0.38990006       0.36084882       0.75235338 </v>
   <v>       0.39095972       0.86763737       0.24218715 </v>
   <v>       0.39027221       0.86388777       0.76238196 </v>
   <v>       0.87851719       0.36988458       0.25195575 </v>
   <v>       0.88675250       0.35943702       0.76044762 </v>
   <v>       0.89393899       0.85117699       0.24508289 </v>
   <v>       0.88712911       0.86073559       0.75239308 </v>
   <v>       0.38195097       0.12442970       0.24499070 </v>
   <v>       0.36196564       0.11078541       0.75229568 </v>
   <v>       0.37749445       0.61951910       0.26411224 </v>
   <v>       0.36090497       0.61010530       0.75393514 </v>
   <v>       0.85546523       0.10818293       0.24845933 </v>
   <v>       0.85940212       0.11161443       0.74954968 </v>
   <v>       0.85997258       0.61076199       0.74896035 </v>
   <v>       0.13808964       0.38507626       0.25048410 </v>
   <v>       0.14025656       0.38914432       0.75009029 </v>
   <v>       0.14172553       0.88993529       0.24503449 </v>
   <v>       0.13931880       0.88913126       0.74858816 </v>
   <v>       0.62369891       0.37345450       0.25642677 </v>
   <v>       0.63932232       0.38976076       0.75283492 </v>
   <v>       0.64459096       0.89688897       0.24953735 </v>
   <v>       0.63861581       0.89077662       0.75165476 </v>
   <v>       0.36061521       0.39135371       0.99965924 </v>
   <v>       0.37289300       0.37949959       0.48770640 </v>
   <v>       0.36573100       0.89022944       0.00588206 </v>
   <v>       0.37483696       0.88249483       0.48928734 </v>
   <v>       0.86260473       0.38645226       0.99913319 </v>
   <v>       0.87033635       0.37493558       0.48718462 </v>
   <v>       0.86794267       0.88000732       0.00182892 </v>
   <v>       0.87061126       0.87674825       0.50076389 </v>
   <v>       0.13550795       0.11538281       0.00142538 </v>
   <v>       0.12812567       0.12436814       0.50426151 </v>
   <v>       0.13794191       0.61282953       0.00515804 </v>
   <v>       0.12503596       0.62057930       0.50482266 </v>
   <v>       0.62754559       0.12147456       0.51045810 </v>
   <v>       0.63451032       0.61284047       0.00285922 </v>
   <v>       0.62253294       0.61968343       0.48594592 </v>
   <v>       0.11304833       0.36322872       0.00537701 </v>
   <v>       0.12052443       0.37303408       0.49239088 </v>
   <v>       0.11755497       0.86497556       0.00395503 </v>
   <v>       0.12380287       0.87282704       0.50360602 </v>
   <v>       0.60738256       0.35775394       0.00334104 </v>
   <v>       0.61925599       0.37332581       0.48698171 </v>
   <v>       0.62080082       0.87325996       0.00948651 </v>
   <v>       0.62078260       0.87267942       0.49200855 </v>
   <v>       0.39727033       0.14125658       0.00163034 </v>
   <v>       0.38070822       0.12872263       0.50187164 </v>
   <v>       0.39054247       0.63960446       0.99629745 </v>
   <v>       0.37820164       0.62446381       0.48789832 </v>
   <v>       0.87223555       0.12696523       0.00221877 </v>
   <v>       0.87565856       0.13071364       0.49866490 </v>
   <v>       0.88444475       0.63643458       0.99474088 </v>
   <v>       0.87495772       0.62346459       0.50871354 </v>
   <v>       0.99931107       0.00164251       0.12398679 </v>
   <v>       0.99566513       0.00069971       0.62767247 </v>
   <v>       0.98091805       0.51203922       0.13152401 </v>
   <v>       0.99404052       0.48357382       0.62481197 </v>
   <v>       0.53213526       0.02942434       0.12571473 </v>
   <v>       0.49300741       0.98703003       0.62549154 </v>
   <v>       0.49239817       0.50263669       0.12587388 </v>
   <v>       0.49951261       0.49811532       0.62675252 </v>
   <v>       0.00146165       0.99987910       0.37239331 </v>
   <v>       0.00140430       0.00034423       0.87597330 </v>
   <v>       0.98751342       0.51981244       0.37065914 </v>
   <v>       0.00679504       0.50420573       0.87361272 </v>
   <v>       0.51581825       0.01684608       0.36740886 </v>
   <v>       0.52060632       0.01330951       0.88306073 </v>
   <v>       0.50356564       0.49906779       0.87523087 </v>
   <v>       0.24690221       0.23518887       0.37513872 </v>
   <v>       0.24864954       0.25018560       0.87621638 </v>
   <v>       0.24463344       0.75643502       0.37181859 </v>
   <v>       0.24386597       0.74938268       0.87675318 </v>
   <v>       0.73151124       0.22635810       0.36882416 </v>
   <v>       0.73302660       0.23343721       0.87808932 </v>
   <v>       0.77112901       0.73767622       0.36833904 </v>
   <v>       0.74315109       0.75053594       0.87638407 </v>
   <v>       0.25572448       0.25338454       0.12515730 </v>
   <v>       0.25456193       0.25766519       0.62454323 </v>
   <v>       0.26147528       0.74144131       0.12592870 </v>
   <v>       0.26709188       0.75374617       0.62657085 </v>
   <v>       0.72713423       0.23374193       0.12906928 </v>
   <v>       0.75315446       0.26450300       0.62396760 </v>
   <v>       0.75714832       0.72962226       0.13080596 </v>
   <v>       0.74008693       0.75064709       0.62567916 </v>
  </varray>
 </structure>
 <calculation>
  <scstep>
   <time name="dav">  602.51  602.56</time>
   <time name="total">  609.74  609.91</time>
   <energy>
    <i name="alphaZ">   5626.87761741 </i>
    <i name="ewald"> -61198.43378625 </i>
    <i name="hartreedc"> -16335.58104181 </i>
    <i name="XCdc">   2962.98008767 </i>
    <i name="pawpsdc"> 112381.53959597 </i>
    <i name="pawaedc">-111281.33073576 </i>
    <i name="eentropy">     -0.00000000 </i>
    <i name="bandstr">  -7058.97478197 </i>
    <i name="atom">  73783.44779670 </i>
    <i name="e_fr_energy">  -1119.47524805 </i>
    <i name="e_wo_entrp">  -1119.47524805 </i>
    <i name="e_0_energy">  -1119.47524805 </i>
   </energy>
  </scstep>
  <scstep>
   <time name="diag">   64.80   64.81</time>
   <time name="diis">   60.49   60.49</time>
   <time name="orth">   33.36   33.36</time>
   <time name="total">  165.91  165.95</time>
   <energy>
    <i name="e_fr_energy">  -1119.47524735 </i>
    <i name="e_wo_entrp">  -1119.47524735 </i>
    <i name="e_0_energy">  -1119.47524735 </i>
   </energy>
  </scstep>
  <scstep>
   <time name="diag">   64.78   64.83</time>
   <time name="diis">   57.31   57.31</time>
   <time name="orth">   33.31   33.31</time>
   <time name="total">  162.65  162.73</time>
   <energy>
    <i name="e_fr_energy">  -1119.47524767 </i>
    <i name="e_wo_entrp">  -1119.47524767 </i>
    <i name="e_0_energy">  -1119.47524767 </i>
   </energy>
  </scstep>
  <scstep>
   <time name="diag">   64.82   64.86</time>
   <time name="diis">   48.19   48.20</time>
   <time name="orth">   33.30   33.30</time>
   <time name="total">  153.59  153.73</time>
   <energy>
    <i name="e_fr_energy">  -1119.47524786 </i>
    <i name="e_wo_entrp">  -1119.47524786 </i>
    <i name="e_0_energy">  -1119.47524786 </i>
   </energy>
  </scstep>
  <scstep>
   <time name="diag">   64.77   64.77</time>
   <time name="diis">   48.25   48.25</time>
   <time name="orth">   33.29   33.29</time>
   <time name="total">  153.55  153.66</time>
   <energy>
    <i name="e_fr_energy">  -1119.47524791 </i>
    <i name="e_wo_entrp">  -1119.47524791 </i>
    <i name="e_0_energy">  -1119.47524791 </i>
   </energy>
  </scstep>
  <scstep>
   <time name="diag">   64.81   64.86</time>
   <time name="diis">   44.88   44.89</time>
   <time name="orth">   33.28   33.28</time>
   <time name="total">  150.24  150.34</time>
   <energy>
    <i name="e_fr_energy">  -1119.47524797 </i>
    <i name="e_wo_entrp">  -1119.47524797 </i>
    <i name="e_0_energy">  -1119.47524797 </i>
   </energy>
  </scstep>
  <scstep>
   <time name="diag">   64.72   64.71</time>
   <time name="diis">   44.26   44.28</time>
   <time name="orth">   33.21   33.21</time>
   <time name="total">  149.48  149.63</time>
   <energy>
    <i name="e_fr_energy">  -1119.47524798 </i>
    <i name="e_wo_entrp">  -1119.47524798 </i>
    <i name="e_0_energy">  -1119.47524798 </i>
   </energy>
  </scstep>
  <scstep>
   <time name="diag">   64.82   64.81</time>
   <time name="diis">   42.99   43.01</time>
   <time name="orth">   33.22   33.22</time>
   <time name="total">  142.07  142.09</time>
   <energy>
    <i name="alphaZ">   5626.87761741 </i>
    <i name="ewald"> -61198.43378625 </i>
    <i name="hartreedc"> -16335.59055602 </i>
    <i name="XCdc">   2962.97967368 </i>
    <i name="pawpsdc"> 112381.17900391 </i>
    <i name="pawaedc">-111280.97486264 </i>
    <i name="eentropy">     -0.00000000 </i>
    <i name="bandstr">  -7058.96013477 </i>
    <i name="atom">  73783.44779670 </i>
    <i name="e_fr_energy">  -1119.47524800 </i>
    <i name="e_wo_entrp">  -1119.47524800 </i>
    <i name="e_0_energy">  -1119.47524800 </i>
   </energy>
  </scstep>
  <structure>
   <crystal>
    <varray name="basis" >
     <v>      11.24137564       0.00467886      -0.00223847 </v>
     <v>       0.00468110      11.23618643      -0.00372795 </v>
     <v>      -0.00317364      -0.00524731      15.87850282 </v>
    </varray>
    <i name="volume">   2005.61609923 </i>
    <varray name="rec_basis" >
     <v>       0.08895710      -0.00003705       0.00001777 </v>
     <v>      -0.00003704       0.08899819       0.00002940 </v>
     <v>       0.00001253       0.00002089       0.06297824 </v>
    </varray>
   </crystal>
   <varray name="positions" >
    <v>       0.00677385       0.25141046       0.12513167 </v>
    <v>       0.99837045       0.24781020       0.62192348 </v>
    <v>       0.00179827       0.74773627       0.12013145 </v>
    <v>       0.99864131       0.75459081       0.61879498 </v>
    <v>       0.48912444       0.25686754       0.12472576 </v>
    <v>       0.49897806       0.25097926       0.62170692 </v>
    <v>       0.49764535       0.74114116       0.11988227 </v>
    <v>       0.50086085       0.74970629       0.62033698 </v>
    <v>       0.00645296       0.24355903       0.38036839 </v>
    <v>       0.00111804       0.25120268       0.87728727 </v>
    <v>       0.00265749       0.75664567       0.38513562 </v>
    <v>       0.00114305       0.74690123       0.87215029 </v>
    <v>       0.49269584       0.24718734       0.38152957 </v>
    <v>       0.49834758       0.25008634       0.87040514 </v>
    <v>       0.49328477       0.75177414       0.38339029 </v>
    <v>       0.50320982       0.74652349       0.87286036 </v>
    <v>       0.23841510       0.00568832       0.12617364 </v>
    <v>       0.24725924       0.99753791       0.61919864 </v>
    <v>       0.24220610       0.49708226       0.12487043 </v>
    <v>       0.24687866       0.50293369       0.62175103 </v>
    <v>       0.76325295       0.99828225       0.12240110 </v>
    <v>       0.75268046       0.99676075       0.62140886 </v>
    <v>       0.75272053       0.49700544       0.11697785 </v>
    <v>       0.75062921       0.50172923       0.62218202 </v>
    <v>       0.23917265       0.99884974       0.38303044 </v>
    <v>       0.24415457       0.99956733       0.87152326 </v>
    <v>       0.24356022       0.50251839       0.37933022 </v>
    <v>       0.24568671       0.49952317       0.87418398 </v>
    <v>       0.75841602       0.99889059       0.38658307 </v>
    <v>       0.75767047       0.99486894       0.87002865 </v>
    <v>       0.75321173       0.50336640       0.38362732 </v>
    <v>       0.75545024       0.50080502       0.87302152 </v>
    <v>       0.99915704       0.99987339       0.99981532 </v>
    <v>       0.99743470       0.50264991       0.49854698 </v>
    <v>       0.49177001       0.99426587       0.00239653 </v>
    <v>       0.50099525       0.99851335       0.49976126 </v>
    <v>       0.49997831       0.49693571       0.99461388 </v>
    <v>       0.24873490       0.25324492       0.00095683 </v>
    <v>       0.24956339       0.25039393       0.49781084 </v>
    <v>       0.24633936       0.74327080       0.00034420 </v>
    <v>       0.74840006       0.24988546       0.49928457 </v>
    <v>       0.75359897       0.74631499       0.99868776 </v>
    <v>       0.24985870       0.25075630       0.74871796 </v>
    <v>       0.24367273       0.74809073       0.25169354 </v>
    <v>       0.25116342       0.74998520       0.74794977 </v>
    <v>       0.75897194       0.25745681       0.25049295 </v>
    <v>       0.74849694       0.24957598       0.75138504 </v>
    <v>       0.74392453       0.76394451       0.25156921 </v>
    <v>       0.74864341       0.74941628       0.74635122 </v>
    <v>       0.00173141       0.00072839       0.25080824 </v>
    <v>       0.00003393       0.00030337       0.74737591 </v>
    <v>       0.00013981       0.49849612       0.75000295 </v>
    <v>       0.49072783       0.99562748       0.24765551 </v>
    <v>       0.50086836       0.99976227       0.74864601 </v>
    <v>       0.49928997       0.49975389       0.24217358 </v>
    <v>       0.49992553       0.49954303       0.74931255 </v>
    <v>       0.99935817       0.99847926       0.50210093 </v>
    <v>       0.99951737       0.50117754       0.00074619 </v>
    <v>       0.49843939       0.50118860       0.50759202 </v>
    <v>       0.25044422       0.75042644       0.49948572 </v>
    <v>       0.75642187       0.25948129       0.99968037 </v>
    <v>       0.74965003       0.74845184       0.49831918 </v>
    <v>       0.25117213       0.25044809       0.25266543 </v>
    <v>       0.01388874       0.49384796       0.25084631 </v>
    <v>       0.11190696       0.13456576       0.24558684 </v>
    <v>       0.11153360       0.13981799       0.74976734 </v>
    <v>       0.11253974       0.64052242       0.24710328 </v>
    <v>       0.11130841       0.63917599       0.74276612 </v>
    <v>       0.60897549       0.13954811       0.74067015 </v>
    <v>       0.62716744       0.62207465       0.25922806 </v>
    <v>       0.60892822       0.63927891       0.75062927 </v>
    <v>       0.38627365       0.37685319       0.26664044 </v>
    <v>       0.38990006       0.36084882       0.75235338 </v>
    <v>       0.39095972       0.86763737       0.24218715 </v>
    <v>       0.39027221       0.86388777       0.76238196 </v>
    <v>       0.87851719       0.36988458       0.25195575 </v>
    <v>       0.88675250       0.35943702       0.76044762 </v>
    <v>       0.89393899       0.85117699       0.24508289 </v>
    <v>       0.88712911       0.86073559       0.75239308 </v>
    <v>       0.38195097       0.12442970       0.24499070 </v>
    <v>       0.36196564       0.11078541       0.75229568 </v>
    <v>       0.37749445       0.61951910       0.26411224 </v>
    <v>       0.36090497       0.61010530       0.75393514 </v>
    <v>       0.85546523       0.10818293       0.24845933 </v>
    <v>       0.85940212       0.11161443       0.74954968 </v>
    <v>       0.85997258       0.61076199       0.74896035 </v>
    <v>       0.13808964       0.38507626       0.25048410 </v>
    <v>       0.14025656       0.38914432       0.75009029 </v>
    <v>       0.14172553       0.88993529       0.24503449 </v>
    <v>       0.13931880       0.88913126       0.74858816 </v>
    <v>       0.62369891       0.37345450       0.25642677 </v>
    <v>       0.63932232       0.38976076       0.75283492 </v>
    <v>       0.64459096       0.89688897       0.24953735 </v>
    <v>       0.63861581       0.89077662       0.75165476 </v>
    <v>       0.36061521       0.39135371       0.99965924 </v>
    <v>       0.37289300       0.37949959       0.48770640 </v>
    <v>       0.36573100       0.89022944       0.00588206 </v>
    <v>       0.37483696       0.88249483       0.48928734 </v>
    <v>       0.86260473       0.38645226       0.99913319 </v>
    <v>       0.87033635       0.37493558       0.48718462 </v>
    <v>       0.86794267       0.88000732       0.00182892 </v>
    <v>       0.87061126       0.87674825       0.50076389 </v>
    <v>       0.13550795       0.11538281       0.00142538 </v>
    <v>       0.12812567       0.12436814       0.50426151 </v>
    <v>       0.13794191       0.61282953       0.00515804 </v>
    <v>       0.12503596       0.62057930       0.50482266 </v>
    <v>       0.62754559       0.12147456       0.51045810 </v>
    <v>       0.63451032       0.61284047       0.00285922 </v>
    <v>       0.62253294       0.61968343       0.48594592 </v>
    <v>       0.11304833       0.36322872       0.00537701 </v>
    <v>       0.12052443       0.37303408       0.49239088 </v>
    <v>       0.11755497       0.86497556       0.00395503 </v>
    <v>       0.12380287       0.87282704       0.50360602 </v>
    <v>       0.60738256       0.35775394       0.00334104 </v>
    <v>       0.61925599       0.37332581       0.48698171 </v>
    <v>       0.62080082       0.87325996       0.00948651 </v>
    <v>       0.62078260       0.87267942       0.49200855 </v>
    <v>       0.39727033       0.14125658       0.00163034 </v>
    <v>       0.38070822       0.12872263       0.50187164 </v>
    <v>       0.39054247       0.63960446       0.99629745 </v>
    <v>       0.37820164       0.62446381       0.48789832 </v>
    <v>       0.87223555       0.12696523       0.00221877 </v>
    <v>       0.87565856       0.13071364       0.49866490 </v>
    <v>       0.88444475       0.63643458       0.99474088 </v>
    <v>       0.87495772       0.62346459       0.50871354 </v>
    <v>       0.99931107       0.00164251       0.12398679 </v>
    <v>       0.99566513       0.00069971       0.62767247 </v>
    <v>       0.98091805       0.51203922       0.13152401 </v>
    <v>       0.99404052       0.48357382       0.62481197 </v>
    <v>       0.53213526       0.02942434       0.12571473 </v>
    <v>       0.49300741       0.98703003       0.62549154 </v>
    <v>       0.49239817       0.50263669       0.12587388 </v>
    <v>       0.49951261       0.49811532       0.62675252 </v>
    <v>       0.00146165       0.99987910       0.37239331 </v>
    <v>       0.00140430       0.00034423       0.87597330 </v>
    <v>       0.98751342       0.51981244       0.37065914 </v>
    <v>       0.00679504       0.50420573       0.87361272 </v>
    <v>       0.51581825       0.01684608       0.36740886 </v>
    <v>       0.52060632       0.01330951       0.88306073 </v>
    <v>       0.50356564       0.49906779       0.87523087 </v>
    <v>       0.24690221       0.23518887       0.37513872 </v>
    <v>       0.24864954       0.25018560       0.87621638 </v>
    <v>       0.24463344       0.75643502       0.37181859 </v>
    <v>       0.24386597       0.74938268       0.87675318 </v>
    <v>       0.73151124       0.22635810       0.36882416 </v>
    <v>       0.73302660       0.23343721       0.87808932 </v>
    <v>       0.77112901       0.73767622       0.36833904 </v>
    <v>       0.74315109       0.75053594       0.87638407 </v>
    <v>       0.25572448       0.25338454       0.12515730 </v>
    <v>       0.25456193       0.25766519       0.62454323 </v>
    <v>       0.26147528       0.74144131       0.12592870 </v>
    <v>       0.26709188       0.75374617       0.62657085 </v>
    <v>       0.72713423       0.23374193       0.12906928 </v>
    <v>       0.75315446       0.26450300       0.62396760 </v>
    <v>       0.75714832       0.72962226       0.13080596 </v>
    <v>       0.74008693       0.75064709       0.62567916 </v>
   </varray>
  </structure>
  <varray name="forces" >
   <v>      -0.00365316      -0.00374292      -0.00631778 </v>
   <v>      -0.00784782       0.00081966       0.00303223 </v>
   <v>       0.00309225      -0.00755117       0.01450069 </v>
   <v>      -0.00493342       0.00083541       0.00532292 </v>
   <v>       0.01332960       0.00125436       0.00502777 </v>
   <v>      -0.00722595       0.00608437       0.00453052 </v>
   <v>      -0.00777530       0.01110147       0.00895670 </v>
   <v>       0.00489186      -0.00989062      -0.01021960 </v>
   <v>       0.00269424      -0.00213807      -0.00862167 </v>
   <v>      -0.00027517       0.00216478      -0.00282471 </v>
   <v>      -0.00359363       0.00379657      -0.01874379 </v>
   <v>       0.00096832      -0.00240927       0.00030108 </v>
   <v>       0.00513517      -0.00612394      -0.00478832 </v>
   <v>       0.00322820       0.00072382      -0.00061285 </v>
   <v>       0.00661147      -0.00330337      -0.00780795 </v>
   <v>       0.00184873      -0.01149629      -0.00491710 </v>
   <v>       0.00814125      -0.00484971      -0.00539124 </v>
   <v>       0.00700403      -0.00572413       0.00068448 </v>
   <v>      -0.00877379       0.00217366      -0.00141373 </v>
   <v>      -0.00065864       0.01178091       0.01296587 </v>
   <v>      -0.01250078       0.01469032       0.00436857 </v>
   <v>       0.00307528      -0.00951866       0.00033692 </v>
   <v>      -0.00631739       0.00129210       0.01274472 </v>
   <v>      -0.00519895       0.00000461       0.00360799 </v>
   <v>       0.00804382      -0.00747916      -0.00055676 </v>
   <v>       0.00242811       0.00436759      -0.00762198 </v>
   <v>       0.01018083      -0.00742617      -0.00888210 </v>
   <v>       0.00126863       0.00600805      -0.00047484 </v>
   <v>      -0.00066605      -0.01497189      -0.01105579 </v>
   <v>      -0.00524796       0.00372146       0.00244713 </v>
   <v>      -0.01570306       0.02080319      -0.00363676 </v>
   <v>      -0.00855998      -0.00425394       0.00669433 </v>
   <v>      -0.00782390       0.00630406      -0.01444394 </v>
   <v>      -0.01282142       0.00155212       0.01355036 </v>
   <v>       0.00155247       0.01426120       0.00265078 </v>
   <v>      -0.00957737      -0.01144352      -0.00798411 </v>
   <v>      -0.00558288      -0.01514877      -0.02130316 </v>
   <v>      -0.01430062       0.01779532      -0.00751195 </v>
   <v>       0.01331307       0.00640696      -0.00044404 </v>
   <v>      -0.00820595      -0.00904230      -0.01726489 </v>
   <v>       0.00137812       0.00497507       0.01512156 </v>
   <v>      -0.00167311       0.00434057      -0.00942356 </v>
   <v>      -0.00204098       0.01847810       0.00705225 </v>
   <v>       0.01757393      -0.00664475       0.01601006 </v>
   <v>      -0.00689381       0.00019285      -0.00038401 </v>
   <v>      -0.01443479      -0.00833134      -0.00248373 </v>
   <v>       0.00167557      -0.00931173       0.01065216 </v>
   <v>       0.01699444      -0.01411008       0.00929727 </v>
   <v>       0.01442508      -0.01316178      -0.00478507 </v>
   <v>      -0.00956426      -0.00161352       0.01886910 </v>
   <v>      -0.00014914      -0.00443811       0.00752839 </v>
   <v>      -0.00468542       0.01457512       0.00517039 </v>
   <v>       0.01407746      -0.00103876       0.02274132 </v>
   <v>      -0.00438088      -0.01057243      -0.00544436 </v>
   <v>      -0.01016660       0.00233659       0.01834564 </v>
   <v>      -0.01880084      -0.00263468       0.00486855 </v>
   <v>       0.00070705      -0.01125720      -0.01052134 </v>
   <v>      -0.01080226      -0.01157097      -0.00573811 </v>
   <v>       0.00246345       0.00213864       0.00036094 </v>
   <v>       0.01302693       0.00761737      -0.00040191 </v>
   <v>       0.00222538      -0.00347869      -0.01264392 </v>
   <v>      -0.00345979       0.00725725      -0.00167831 </v>
   <v>      -0.01283745       0.00371550       0.00889960 </v>
   <v>      -0.00784172       0.01115644      -0.00787858 </v>
   <v>       0.01909622      -0.00523367      -0.01075503 </v>
   <v>      -0.00255710      -0.00357004      -0.00208787 </v>
   <v>       0.00909433      -0.02911355      -0.00878142 </v>
   <v>       0.00782099       0.00233218      -0.01232938 </v>
   <v>       0.00899999       0.00424044      -0.00976739 </v>
   <v>      -0.00847153       0.00576887      -0.00991575 </v>
   <v>       0.00177841      -0.00760408      -0.00990416 </v>
   <v>       0.00622276      -0.00048339      -0.00022026 </v>
   <v>       0.00296693       0.00902331       0.00580986 </v>
   <v>       0.01499877       0.00799356       0.01004772 </v>
   <v>      -0.01460633       0.01099535       0.00617702 </v>
   <v>       0.00805733       0.00607897       0.00163580 </v>
   <v>      -0.01489489      -0.00062460       0.00082476 </v>
   <v>      -0.00633602       0.00660346       0.00686984 </v>
   <v>       0.00493955       0.00456279       0.00657691 </v>
   <v>      -0.00165189       0.00430576      -0.00683531 </v>
   <v>       0.00384005       0.00206535       0.00268967 </v>
   <v>       0.00919822       0.00950137       0.00484015 </v>
   <v>       0.00506662       0.00210064       0.01256692 </v>
   <v>       0.01786822       0.00929126      -0.00029947 </v>
   <v>      -0.00577426       0.01533237      -0.00475590 </v>
   <v>       0.00609703       0.00427501       0.00129410 </v>
   <v>      -0.00476326      -0.01699485       0.01044263 </v>
   <v>      -0.00339580      -0.00422191       0.00420414 </v>
   <v>      -0.01199114      -0.00544565       0.00199513 </v>
   <v>       0.00373967      -0.01050248       0.00267721 </v>
   <v>       0.00512599       0.00378710       0.00443078 </v>
   <v>       0.00357775      -0.00902644      -0.01137105 </v>
   <v>       0.00383620      -0.00483566      -0.00389073 </v>
   <v>      -0.00429720      -0.01092021       0.00142592 </v>
   <v>      -0.00578818      -0.00032742      -0.00962101 </v>
   <v>      -0.00759179       0.00190252       0.00558891 </v>
   <v>      -0.01182923      -0.00772276      -0.01094232 </v>
   <v>       0.00566270      -0.01396763       0.00092380 </v>
   <v>       0.00298083       0.00400670      -0.00183032 </v>
   <v>       0.00636737      -0.00185224       0.00566140 </v>
   <v>      -0.00667633      -0.00075647      -0.00160850 </v>
   <v>       0.00877955      -0.00024055      -0.00540902 </v>
   <v>       0.00107739      -0.00739093       0.01253008 </v>
   <v>       0.00696737      -0.00878938       0.00759840 </v>
   <v>       0.00527492       0.00875395       0.00178447 </v>
   <v>      -0.00156346      -0.00964265       0.00488024 </v>
   <v>       0.00782600       0.01808593      -0.00750180 </v>
   <v>       0.00033465       0.01227806       0.00799111 </v>
   <v>       0.00593086      -0.00032369       0.01862861 </v>
   <v>      -0.00061497       0.00466974       0.00791784 </v>
   <v>       0.00699240      -0.00319719      -0.00073831 </v>
   <v>       0.00640864       0.00556514      -0.00469932 </v>
   <v>       0.00387577      -0.00456527      -0.00063809 </v>
   <v>      -0.00470802       0.01263766       0.00564575 </v>
   <v>       0.00627563      -0.00435973       0.00588257 </v>
   <v>      -0.00399641      -0.00306080      -0.00562263 </v>
   <v>      -0.00274354       0.00258546       0.01159452 </v>
   <v>       0.00492732      -0.00632390      -0.00730094 </v>
   <v>      -0.01111067       0.01129011      -0.00958703 </v>
   <v>      -0.00385308       0.01399353      -0.00418000 </v>
   <v>      -0.00000661       0.00641743       0.00757346 </v>
   <v>       0.01409845      -0.00201545       0.00419659 </v>
   <v>       0.00137000      -0.00466401      -0.00216355 </v>
   <v>      -0.00380215      -0.00516702       0.00017649 </v>
   <v>       0.00860515      -0.00544147      -0.00675195 </v>
   <v>      -0.00223639      -0.00619584      -0.01388304 </v>
   <v>      -0.00404357      -0.00090650       0.00642009 </v>
   <v>      -0.00394245       0.00720629      -0.00302097 </v>
   <v>      -0.00883903      -0.00030016      -0.00621053 </v>
   <v>      -0.01189782      -0.01978950      -0.00978549 </v>
   <v>      -0.00426472      -0.00403050       0.01740990 </v>
   <v>       0.00774097      -0.00031126      -0.02274780 </v>
   <v>      -0.01398125      -0.00473484       0.00507059 </v>
   <v>       0.00409670       0.00001661      -0.00647945 </v>
   <v>       0.01525199       0.00509419       0.00403442 </v>
   <v>       0.01367772       0.00176602      -0.00206153 </v>
   <v>       0.00871975       0.00687416       0.01089160 </v>
   <v>      -0.00620805      -0.00366835      -0.00644062 </v>
   <v>       0.00108308      -0.00752032      -0.00078310 </v>
   <v>       0.01124384       0.00176507       0.00930336 </v>
   <v>      -0.00511591      -0.00359845      -0.00844838 </v>
   <v>      -0.01006573      -0.01150525       0.00620207 </v>
   <v>      -0.00342365      -0.01006231      -0.00963192 </v>
   <v>      -0.02705697      -0.00229261      -0.00197516 </v>
   <v>      -0.00168473       0.01714725       0.00708268 </v>
   <v>       0.00084919      -0.00159359      -0.00744474 </v>
   <v>      -0.00821756       0.01364083      -0.01452103 </v>
   <v>      -0.00774865       0.00091302       0.00548665 </v>
   <v>       0.00047215       0.00023030       0.00281353 </v>
   <v>       0.00072972       0.01024602       0.00417056 </v>
   <v>       0.00709703       0.00442029      -0.00608217 </v>
   <v>      -0.00010057      -0.00162767       0.00860600 </v>
   <v>       0.00752091       0.00139321      -0.00841448 </v>
   <v>       0.01005590      -0.00107428       0.00283261 </v>
   <v>       0.00129565       0.01732826      -0.00582255 </v>
   <v>       0.00955580      -0.00093654       0.00743625 </v>
  </varray>
  <varray name="stress" >
   <v>       0.06638144      -0.04326950      -0.02652743 </v>
   <v>      -0.04326939      -0.01139238      -0.05212203 </v>
   <v>      -0.02652721      -0.05212204      -0.10811338 </v>
  </varray>
  <energy>
   <i name="e_fr_energy">  -1119.47524800 </i>
   <i name="e_wo_entrp">  -1119.47524800 </i>
   <i name="e_0_energy">     -0.00000000 </i>
  </energy>
  <time name="totalsc"> 1953.14 1955.90</time>
 </calculation>
 <calculation>
  <scstep>
   <time name="dav">  565.05  565.10</time>
   <time name="total">  572.28  572.37</time>
   <energy>
    <i name="alphaZ">   5626.99334891 </i>
    <i name="ewald"> -61199.69800046 </i>
    <i name="hartreedc"> -16334.90718173 </i>
    <i name="XCdc">   2963.00232376 </i>
    <i name="pawpsdc"> 112381.17358343 </i>
    <i name="pawaedc">-111280.96948741 </i>
    <i name="eentropy">     -0.00000000 </i>
    <i name="bandstr">  -7058.51776352 </i>
    <i name="atom">  73783.44779670 </i>
    <i name="e_fr_energy">  -1119.47538032 </i>
    <i name="e_wo_entrp">  -1119.47538032 </i>
    <i name="e_0_energy">  -1119.47538032 </i>
   </energy>
  </scstep>
  <scstep>
   <time name="diag">   64.92   64.94</time>
   <time name="diis">  104.23  104.24</time>
   <time name="orth">   33.26   33.26</time>
   <time name="total">  209.61  209.64</time>
   <energy>
    <i name="e_fr_energy">  -1119.47610299 </i>
    <i name="e_wo_entrp">  -1119.47610299 </i>
    <i name="e_0_energy">  -1119.47610299 </i>
   </energy>
  </scstep>
  <scstep>
   <time name="diag">   64.92   64.92</time>
   <time name="diis">   85.92   85.93</time>
   <time name="orth">   33.21   33.21</time>
   <time name="total">  191.23  191.27</time>
   <energy>
    <i name="e_fr_energy">  -1119.47610178 </i>
    <i name="e_wo_entrp">  -1119.47610178 </i>
    <i name="e_0_energy">  -1119.47610178 </i>
   </energy>
  </scstep>
  <scstep>
   <time name="diag">   64.89   64.90</time>
   <time name="diis">   64.90   64.96</time>
   <time name="orth">   33.29   33.28</time>
   <time name="total">  170.27  170.40</time>
   <energy>
    <i name="e_fr_energy">  -1119.47605284 </i>
    <i name="e_wo_entrp">  -1119.47605284 </i>
    <i name="e_0_energy">  -1119.47605284 </i>
   </energy>
  </scstep>
  <scstep>
   <time name="diag">   64.87   64.88</time>
   <time name="diis">   63.57   63.57</time>
   <time name="orth">   33.28   33.27</time>
   <time name="total">  168.92  168.96</time>
   <energy>
    <i name="e_fr_energy">  -1119.47604646 </i>
    <i name="e_wo_entrp">  -1119.47604646 </i>
    <i name="e_0_energy">  -1119.47604646 </i>
   </energy>
  </scstep>
  <scstep>
   <time name="diag">   64.90   64.92</time>
   <time name="diis">   62.72   62.74</time>
   <time name="orth">   33.22   33.22</time>
   <time name="total">  168.04  168.17</time>
   <energy>
    <i name="e_fr_energy">  -1119.47604791 </i>
    <i name="e_wo_entrp">  -1119.47604791 </i>
    <i name="e_0_energy">  -1119.47604791 </i>
   </energy>
  </scstep>
  <scstep>
   <time name="diag">   64.91   64.91</time>
   <time name="diis">   59.89   59.89</time>
   <time name="orth">   33.30   33.30</time>
   <time name="total">  165.40  165.44</time>
   <energy>
    <i name="e_fr_energy">  -1119.47604867 </i>
    <i name="e_wo_entrp">  -1119.47604867 </i>
    <i name="e_0_energy">  -1119.47604867 </i>
   </energy>
  </scstep>
  <scstep>
   <time name="diag">   64.84   64.85</time>
   <time name="diis">   58.10   58.12</time>
   <time name="orth">   33.29   33.29</time>
   <time name="total">  157.27  157.36</time>
   <energy>
    <i name="alphaZ">   5626.99334891 </i>
    <i name="ewald"> -61199.69800046 </i>
    <i name="hartreedc"> -16334.55432558 </i>
    <i name="XCdc">   2962.98087246 </i>
    <i name="pawpsdc"> 112374.94213844 </i>
    <i name="pawaedc">-111274.74636468 </i>
    <i name="eentropy">     -0.00000000 </i>
    <i name="bandstr">  -7058.84151500 </i>
    <i name="atom">  73783.44779670 </i>
    <i name="e_fr_energy">  -1119.47604921 </i>
    <i name="e_wo_entrp">  -1119.47604921 </i>
    <i name="e_0_energy">  -1119.47604921 </i>
   </energy>
  </scstep>
  <structure>
   <crystal>
    <varray name="basis" >
     <v>      11.24166446       0.00449059      -0.00235391 </v>
     <v>       0.00449304      11.23613687      -0.00395456 </v>
     <v>      -0.00333669      -0.00556762      15.87783840 </v>
    </varray>
    <i name="volume">   2005.57484932 </i>
    <varray name="rec_basis" >
     <v>       0.08895482      -0.00003556       0.00001868 </v>
     <v>      -0.00003554       0.08899859       0.00003120 </v>
     <v>       0.00001318       0.00002216       0.06298088 </v>
    </varray>
   </crystal>
   <varray name="positions" >
    <v>       0.00675817       0.25139439       0.12511247 </v>
    <v>       0.99833677       0.24781373       0.62193269 </v>
    <v>       0.00181157       0.74770386       0.12017550 </v>
    <v>       0.99862014       0.75459442       0.61881115 </v>
    <v>       0.48918165       0.25687291       0.12474104 </v>
    <v>       0.49894704       0.25100541       0.62172068 </v>
    <v>       0.49761197       0.74118886       0.11990949 </v>
    <v>       0.50088186       0.74966380       0.62030592 </v>
    <v>       0.00646452       0.24354983       0.38034220 </v>
    <v>       0.00111686       0.25121197       0.87727869 </v>
    <v>       0.00264205       0.75666195       0.38507867 </v>
    <v>       0.00114721       0.74689088       0.87215120 </v>
    <v>       0.49271788       0.24716103       0.38151502 </v>
    <v>       0.49836143       0.25008944       0.87040328 </v>
    <v>       0.49331314       0.75175993       0.38336657 </v>
    <v>       0.50321777       0.74647412       0.87284541 </v>
    <v>       0.23845004       0.00566747       0.12615726 </v>
    <v>       0.24728931       0.99751333       0.61920071 </v>
    <v>       0.24216844       0.49709160       0.12486613 </v>
    <v>       0.24687582       0.50298429       0.62179043 </v>
    <v>       0.76319928       0.99834535       0.12241438 </v>
    <v>       0.75269368       0.99671988       0.62140988 </v>
    <v>       0.75269343       0.49701102       0.11701657 </v>
    <v>       0.75060691       0.50172927       0.62219298 </v>
    <v>       0.23920719       0.99881762       0.38302875 </v>
    <v>       0.24416497       0.99958607       0.87150011 </v>
    <v>       0.24360392       0.50248647       0.37930323 </v>
    <v>       0.24569214       0.49954896       0.87418254 </v>
    <v>       0.75841318       0.99882629       0.38654947 </v>
    <v>       0.75764795       0.99488494       0.87003609 </v>
    <v>       0.75314430       0.50345574       0.38361629 </v>
    <v>       0.75541352       0.50078678       0.87304185 </v>
    <v>       0.99912344       0.99990045       0.99977144 </v>
    <v>       0.99737968       0.50265662       0.49858815 </v>
    <v>       0.49177665       0.99432710       0.00240460 </v>
    <v>       0.50095417       0.99846422       0.49973699 </v>
    <v>       0.49995436       0.49687065       0.99454913 </v>
    <v>       0.24867349       0.25332134       0.00093401 </v>
    <v>       0.24962051       0.25042142       0.49780950 </v>
    <v>       0.24630415       0.74323197       0.00029173 </v>
    <v>       0.74840598       0.24990684       0.49933052 </v>
    <v>       0.75359177       0.74633362       0.99865913 </v>
    <v>       0.24984991       0.25083565       0.74873941 </v>
    <v>       0.24374818       0.74806219       0.25174218 </v>
    <v>       0.25113384       0.74998604       0.74794860 </v>
    <v>       0.75891001       0.25742106       0.25048538 </v>
    <v>       0.74850416       0.24953601       0.75141740 </v>
    <v>       0.74399749       0.76388391       0.25159745 </v>
    <v>       0.74870534       0.74935973       0.74633668 </v>
    <v>       0.00169038       0.00072150       0.25086556 </v>
    <v>       0.00003330       0.00028433       0.74739877 </v>
    <v>       0.00011968       0.49855872       0.75001867 </v>
    <v>       0.49078827       0.99562303       0.24772461 </v>
    <v>       0.50084958       0.99971687       0.74862945 </v>
    <v>       0.49924636       0.49976396       0.24222932 </v>
    <v>       0.49984486       0.49953176       0.74932733 </v>
    <v>       0.99936122       0.99843091       0.50206896 </v>
    <v>       0.99947103       0.50112787       0.00072874 </v>
    <v>       0.49844996       0.50119778       0.50759312 </v>
    <v>       0.25050011       0.75045912       0.49948452 </v>
    <v>       0.75643142       0.25946633       0.99964196 </v>
    <v>       0.74963517       0.74848300       0.49831408 </v>
    <v>       0.25111703       0.25046407       0.25269246 </v>
    <v>       0.01385506       0.49389586       0.25082238 </v>
    <v>       0.11198892       0.13454324       0.24555417 </v>
    <v>       0.11152263       0.13980267       0.74976099 </v>
    <v>       0.11257881       0.64039739       0.24707657 </v>
    <v>       0.11134196       0.63918597       0.74272867 </v>
    <v>       0.60901410       0.13956628       0.74064049 </v>
    <v>       0.62713107       0.62209942       0.25919793 </v>
    <v>       0.60893585       0.63924624       0.75059917 </v>
    <v>       0.38630036       0.37685110       0.26663977 </v>
    <v>       0.38991279       0.36088757       0.75237104 </v>
    <v>       0.39102409       0.86767168       0.24221770 </v>
    <v>       0.39020951       0.86393502       0.76240073 </v>
    <v>       0.87855176       0.36991067       0.25196073 </v>
    <v>       0.88668858       0.35943437       0.76045011 </v>
    <v>       0.89391179       0.85120536       0.24510376 </v>
    <v>       0.88715031       0.86075518       0.75241307 </v>
    <v>       0.38194387       0.12444818       0.24496993 </v>
    <v>       0.36198212       0.11079427       0.75230385 </v>
    <v>       0.37753391       0.61955988       0.26412696 </v>
    <v>       0.36092672       0.61011432       0.75397333 </v>
    <v>       0.85554190       0.10822279       0.24845844 </v>
    <v>       0.85937731       0.11168026       0.74953524 </v>
    <v>       0.85999873       0.61078033       0.74896429 </v>
    <v>       0.13806924       0.38500331       0.25051581 </v>
    <v>       0.14024200       0.38912621       0.75010306 </v>
    <v>       0.14167408       0.88991193       0.24504054 </v>
    <v>       0.13933487       0.88908616       0.74859629 </v>
    <v>       0.62372090       0.37347076       0.25644024 </v>
    <v>       0.63933768       0.38972198       0.75280037 </v>
    <v>       0.64460743       0.89686820       0.24952553 </v>
    <v>       0.63859739       0.89072974       0.75165908 </v>
    <v>       0.36059036       0.39135230       0.99963000 </v>
    <v>       0.37286043       0.37950778       0.48772338 </v>
    <v>       0.36568024       0.89019629       0.00584880 </v>
    <v>       0.37486128       0.88243485       0.48929014 </v>
    <v>       0.86261751       0.38646945       0.99912764 </v>
    <v>       0.87036368       0.37492762       0.48720182 </v>
    <v>       0.86791402       0.88000409       0.00182402 </v>
    <v>       0.87064893       0.87674720       0.50074747 </v>
    <v>       0.13551260       0.11535110       0.00146344 </v>
    <v>       0.12815559       0.12433040       0.50428459 </v>
    <v>       0.13796454       0.61286711       0.00516348 </v>
    <v>       0.12502927       0.62053791       0.50483747 </v>
    <v>       0.62757913       0.12155219       0.51043533 </v>
    <v>       0.63451174       0.61289320       0.00288352 </v>
    <v>       0.62255841       0.61968206       0.48600252 </v>
    <v>       0.11304569       0.36324879       0.00540107 </v>
    <v>       0.12055444       0.37302034       0.49238863 </v>
    <v>       0.11758246       0.86499944       0.00394076 </v>
    <v>       0.12381951       0.87280743       0.50360408 </v>
    <v>       0.60736234       0.35780821       0.00335820 </v>
    <v>       0.61928294       0.37330709       0.48699958 </v>
    <v>       0.62078367       0.87324682       0.00946942 </v>
    <v>       0.62077083       0.87269054       0.49204378 </v>
    <v>       0.39729148       0.14122940       0.00160816 </v>
    <v>       0.38066051       0.12877111       0.50184251 </v>
    <v>       0.39052591       0.63966454       0.99628476 </v>
    <v>       0.37820161       0.62449137       0.48792133 </v>
    <v>       0.87229606       0.12695656       0.00223153 </v>
    <v>       0.87566445       0.13069361       0.49865833 </v>
    <v>       0.88442844       0.63641241       0.99474141 </v>
    <v>       0.87499466       0.62344120       0.50869302 </v>
    <v>       0.99930148       0.00161589       0.12394461 </v>
    <v>       0.99564779       0.00069583       0.62769197 </v>
    <v>       0.98090111       0.51207016       0.13151484 </v>
    <v>       0.99400259       0.48357254       0.62479309 </v>
    <v>       0.53208423       0.02933938       0.12568497 </v>
    <v>       0.49298913       0.98701276       0.62554443 </v>
    <v>       0.49243137       0.50263531       0.12580477 </v>
    <v>       0.49945262       0.49809502       0.62676791 </v>
    <v>       0.00147923       0.99987916       0.37237362 </v>
    <v>       0.00146975       0.00036608       0.87598557 </v>
    <v>       0.98757211       0.51981999       0.37065289 </v>
    <v>       0.00683246       0.50423525       0.87364582 </v>
    <v>       0.51579160       0.01683033       0.36738929 </v>
    <v>       0.52061098       0.01327722       0.88305835 </v>
    <v>       0.50361390       0.49907536       0.87525914 </v>
    <v>       0.24688025       0.23517342       0.37511305 </v>
    <v>       0.24860637       0.25013623       0.87623520 </v>
    <v>       0.24461876       0.75639181       0.37178932 </v>
    <v>       0.24374985       0.74937289       0.87674716 </v>
    <v>       0.73150399       0.22643174       0.36884569 </v>
    <v>       0.73303024       0.23343036       0.87806670 </v>
    <v>       0.77109370       0.73773478       0.36829493 </v>
    <v>       0.74311784       0.75053989       0.87640074 </v>
    <v>       0.25572651       0.25338554       0.12516585 </v>
    <v>       0.25456505       0.25770919       0.62455591 </v>
    <v>       0.26150572       0.74146027       0.12591023 </v>
    <v>       0.26709146       0.75373919       0.62659699 </v>
    <v>       0.72716649       0.23374789       0.12904373 </v>
    <v>       0.75319762       0.26449838       0.62397622 </v>
    <v>       0.75715384       0.72969664       0.13078828 </v>
    <v>       0.74012795       0.75064306       0.62570176 </v>
   </varray>
  </structure>
  <varray name="forces" >
   <v>      -0.00195249      -0.00892794      -0.00137815 </v>
   <v>      -0.00480106      -0.00140992       0.00061124 </v>
   <v>       0.00657835      -0.00120026       0.00527740 </v>
   <v>       0.00094114       0.00114423       0.00243957 </v>
   <v>       0.00352522       0.00003617       0.00370889 </v>
   <v>      -0.00252221       0.00182667       0.00646505 </v>
   <v>      -0.00532004       0.00418671      -0.00402504 </v>
   <v>       0.00500263      -0.01119833      -0.00452404 </v>
   <v>       0.00387773       0.00258129      -0.00564395 </v>
   <v>       0.00015598       0.00040901      -0.00538966 </v>
   <v>       0.00263780      -0.00385843      -0.01222810 </v>
   <v>       0.00160773       0.00030362       0.00869338 </v>
   <v>       0.00429568      -0.00492037      -0.00287935 </v>
   <v>       0.00294614      -0.00695144      -0.00148714 </v>
   <v>       0.00640191      -0.00448367      -0.01063526 </v>
   <v>       0.00201276      -0.00345814       0.00243593 </v>
   <v>       0.00285684      -0.00472443      -0.00511070 </v>
   <v>       0.00108287      -0.00056717       0.00483094 </v>
   <v>      -0.00577656       0.00435109      -0.00230492 </v>
   <v>      -0.00586536       0.00842552       0.00524534 </v>
   <v>      -0.00867953       0.00437918       0.00018347 </v>
   <v>       0.00216826      -0.00062530       0.00129374 </v>
   <v>      -0.00907919       0.00548215       0.00689177 </v>
   <v>      -0.00609146      -0.00553732       0.00484584 </v>
   <v>       0.00149145       0.00207235      -0.00509146 </v>
   <v>       0.00507814       0.00229485      -0.00077620 </v>
   <v>      -0.00173811      -0.01010341      -0.00525454 </v>
   <v>       0.00025088       0.00863404       0.00300849 </v>
   <v>       0.00062526      -0.00414681      -0.00891369 </v>
   <v>      -0.00840705      -0.00258180       0.00180548 </v>
   <v>      -0.00330694       0.00707927      -0.00254792 </v>
   <v>      -0.00989961      -0.00332930       0.00755934 </v>
   <v>       0.00350234      -0.00957993       0.01707232 </v>
   <v>       0.01995996      -0.00310584      -0.00781077 </v>
   <v>      -0.02174232      -0.01871692      -0.00785175 </v>
   <v>       0.00906710       0.02010361       0.01279083 </v>
   <v>       0.01107372       0.03054658       0.03866698 </v>
   <v>      -0.00982002      -0.00821098       0.01401570 </v>
   <v>      -0.02465595       0.00349731      -0.00301479 </v>
   <v>       0.00659674       0.01020600       0.01373036 </v>
   <v>       0.01169874       0.00098860       0.01117944 </v>
   <v>      -0.00738128       0.00397940       0.00730879 </v>
   <v>      -0.00026737      -0.00845936       0.00318796 </v>
   <v>      -0.00480367      -0.00144448      -0.01996577 </v>
   <v>      -0.00362011       0.01016397       0.01017529 </v>
   <v>       0.01242203       0.01641072       0.00712865 </v>
   <v>      -0.00660553      -0.00651620      -0.00060130 </v>
   <v>      -0.00149006       0.00448745      -0.03205362 </v>
   <v>      -0.01410388       0.01024714       0.01726894 </v>
   <v>       0.01173802      -0.00166627      -0.02595495 </v>
   <v>      -0.00012676       0.00789425       0.00394181 </v>
   <v>      -0.00187349      -0.00836090      -0.01546746 </v>
   <v>       0.00453642       0.00995380      -0.01721160 </v>
   <v>       0.00632694       0.00401352       0.00963234 </v>
   <v>       0.00449818       0.00370739      -0.04039285 </v>
   <v>       0.00556670       0.00039714       0.00094099 </v>
   <v>       0.00548785       0.00555154      -0.00075153 </v>
   <v>      -0.00751581       0.00519230       0.00226436 </v>
   <v>      -0.00156312      -0.00619812       0.00547583 </v>
   <v>      -0.00409510      -0.00651291       0.00221611 </v>
   <v>       0.00415022      -0.00023852      -0.00811085 </v>
   <v>       0.00636295       0.00167661       0.00383320 </v>
   <v>      -0.01206136      -0.00478944      -0.00330531 </v>
   <v>       0.00099317      -0.00673172       0.00284284 </v>
   <v>       0.00389903      -0.01488231      -0.00553840 </v>
   <v>       0.00116012      -0.00040111      -0.00132681 </v>
   <v>       0.02139888      -0.01193372      -0.00668305 </v>
   <v>       0.00061569      -0.00672341      -0.00938645 </v>
[...]
       <r>   -16.3924     0.0000    32.0000 </r>
       <r>   -16.2392     0.0000    32.0000 </r>
       <r>   -16.0861     0.0000    32.0000 </r>
       <r>   -15.9329     0.0000    32.0000 </r>
       <r>   -15.7798     0.0000    32.0000 </r>
       <r>   -15.6266     0.0000    32.0000 </r>
       <r>   -15.4735     0.0000    32.0000 </r>
       <r>   -15.3203     0.0269    32.0041 </r>
       <r>   -15.1672     6.9605    33.0701 </r>
       <r>   -15.0140    19.9161    36.1203 </r>
       <r>   -14.8609    42.4105    42.6156 </r>
       <r>   -14.7077    48.0627    49.9765 </r>
       <r>   -14.5546    41.0621    56.2652 </r>
       <r>   -14.4014    35.8002    61.7481 </r>
       <r>   -14.2483    40.4188    67.9383 </r>
       <r>   -14.0951    76.6681    79.6802 </r>
       <r>   -13.9419   117.3347    97.6503 </r>
       <r>   -13.7888   101.5474   113.2025 </r>
       <r>   -13.6356    46.1801   120.2751 </r>
       <r>   -13.4825    13.3131   122.3140 </r>
       <r>   -13.3293     9.9202   123.8333 </r>
       <r>   -13.1762     1.0882   124.0000 </r>
       <r>   -13.0230     0.0000   124.0000 </r>
       <r>   -12.8699     0.2124   124.0325 </r>
       <r>   -12.7167    12.9295   126.0127 </r>
       <r>   -12.5636    58.9233   135.0370 </r>
       <r>   -12.4104   126.6131   154.4280 </r>
       <r>   -12.2573   144.5745   176.5699 </r>
       <r>   -12.1041   115.0673   194.1927 </r>
       <r>   -11.9510   114.8525   211.7827 </r>
       <r>   -11.7978    44.2977   218.5669 </r>
       <r>   -11.6447     9.3449   219.9981 </r>
       <r>   -11.4915     0.0121   220.0000 </r>
       <r>   -11.3384     0.0000   220.0000 </r>
       <r>   -11.1852     0.0000   220.0000 </r>
       <r>   -11.0321     0.0000   220.0000 </r>
       <r>   -10.8789     0.0000   220.0000 </r>
       <r>   -10.7257     0.0000   220.0000 </r>
       <r>   -10.5726     0.0000   220.0000 </r>
       <r>   -10.4194     0.0000   220.0000 </r>
       <r>   -10.2663     0.0000   220.0000 </r>
       <r>   -10.1131     0.0000   220.0000 </r>
       <r>    -9.9600     0.0000   220.0000 </r>
       <r>    -9.8068     0.0000   220.0000 </r>
       <r>    -9.6537     0.0000   220.0000 </r>
       <r>    -9.5005     0.0000   220.0000 </r>
       <r>    -9.3474     0.0000   220.0000 </r>
       <r>    -9.1942     0.0000   220.0000 </r>
       <r>    -9.0411     0.0000   220.0000 </r>
       <r>    -8.8879     0.0000   220.0000 </r>
       <r>    -8.7348     0.0000   220.0000 </r>
       <r>    -8.5816     0.0000   220.0000 </r>
       <r>    -8.4285     0.0000   220.0000 </r>
       <r>    -8.2753     0.0000   220.0000 </r>
       <r>    -8.1222     0.0000   220.0000 </r>
       <r>    -7.9690     0.0000   220.0000 </r>
       <r>    -7.8159     0.0000   220.0000 </r>
       <r>    -7.6627     0.0000   220.0000 </r>
       <r>    -7.5096     0.0000   220.0000 </r>
       <r>    -7.3564     0.0000   220.0000 </r>
       <r>    -7.2032     0.0000   220.0000 </r>
       <r>    -7.0501     0.0000   220.0000 </r>
       <r>    -6.8969     0.0000   220.0000 </r>
       <r>    -6.7438     0.0000   220.0000 </r>
       <r>    -6.5906     0.0000   220.0000 </r>
       <r>    -6.4375     0.0000   220.0000 </r>
       <r>    -6.2843     0.0000   220.0000 </r>
       <r>    -6.1312     0.0000   220.0000 </r>
       <r>    -5.9780     0.0000   220.0000 </r>
       <r>    -5.8249     0.0000   220.0000 </r>
       <r>    -5.6717     0.0000   220.0000 </r>
       <r>    -5.5186     0.0000   220.0000 </r>
       <r>    -5.3654     0.0000   220.0000 </r>
       <r>    -5.2123     0.0000   220.0000 </r>
       <r>    -5.0591     0.0000   220.0000 </r>
       <r>    -4.9060     0.0000   220.0000 </r>
       <r>    -4.7528     0.0000   220.0000 </r>
       <r>    -4.5997     0.0000   220.0000 </r>
       <r>    -4.4465     0.0000   220.0000 </r>
       <r>    -4.2934     0.0000   220.0000 </r>
       <r>    -4.1402     0.0000   220.0000 </r>
       <r>    -3.9871     0.0000   220.0000 </r>
       <r>    -3.8339     0.0000   220.0000 </r>
       <r>    -3.6807     0.0000   220.0000 </r>
       <r>    -3.5276     0.0000   220.0000 </r>
       <r>    -3.3744     0.0000   220.0000 </r>
       <r>    -3.2213     0.0000   220.0000 </r>
       <r>    -3.0681     0.0000   220.0000 </r>
       <r>    -2.9150     0.0000   220.0000 </r>
       <r>    -2.7618     0.0000   220.0000 </r>
       <r>    -2.6087     0.0000   220.0000 </r>
       <r>    -2.4555     0.3387   220.0519 </r>
       <r>    -2.3024    10.6532   221.6834 </r>
       <r>    -2.1492    15.5821   224.0699 </r>
       <r>    -1.9961    19.6380   227.0775 </r>
       <r>    -1.8429    35.6581   232.5386 </r>
       <r>    -1.6898    48.5581   239.9754 </r>
       <r>    -1.5366    57.5053   248.7824 </r>
       <r>    -1.3835    55.0333   257.2109 </r>
       <r>    -1.2303    62.3281   266.7566 </r>
       <r>    -1.0772    71.9399   277.7744 </r>
       <r>    -0.9240    75.5705   289.3481 </r>
       <r>    -0.7709    83.7503   302.1747 </r>
       <r>    -0.6177    87.8467   315.6286 </r>
       <r>    -0.4646   111.1250   332.6477 </r>
       <r>    -0.3114    92.0858   346.7508 </r>
       <r>    -0.1582    62.0773   356.2581 </r>
       <r>    -0.0051    49.7712   363.8806 </r>
       <r>     0.1481    48.3039   371.2785 </r>
       <r>     0.3012    46.1297   378.3434 </r>
       <r>     0.4544    49.5963   385.9391 </r>
       <r>     0.6075    54.4507   394.2784 </r>
       <r>     0.7607    49.0484   401.7903 </r>
       <r>     0.9138    50.8089   409.5717 </r>
       <r>     1.0670    63.5821   419.3095 </r>
       <r>     1.2201    71.9411   430.3274 </r>
       <r>     1.3733    78.9387   442.4171 </r>
       <r>     1.5264    85.2787   455.4777 </r>
       <r>     1.6796    79.6369   467.6742 </r>
       <r>     1.8327    61.5941   477.1075 </r>
       <r>     1.9859    55.3957   485.5915 </r>
       <r>     2.1390    38.3099   491.4587 </r>
       <r>     2.2922    21.9473   494.8200 </r>
       <r>     2.4453     4.9086   495.5718 </r>
       <r>     2.5985     2.7960   496.0000 </r>
       <r>     2.7516     0.0000   496.0000 </r>
       <r>     2.9048     0.0000   496.0000 </r>
       <r>     3.0579     0.0000   496.0000 </r>
       <r>     3.2111     0.0000   496.0000 </r>
       <r>     3.3643     0.0000   496.0000 </r>
       <r>     3.5174     0.0000   496.0000 </r>
       <r>     3.6706     0.0000   496.0000 </r>
       <r>     3.8237     0.0000   496.0000 </r>
       <r>     3.9769     0.0000   496.0000 </r>
       <r>     4.1300     0.0000   496.0000 </r>
       <r>     4.2832     0.0028   496.0004 </r>
       <r>     4.4363     4.6052   496.7057 </r>
       <r>     4.5895    18.5621   499.5486 </r>
       <r>     4.7426    34.2755   504.7979 </r>
       <r>     4.8958    36.9604   510.4585 </r>
       <r>     5.0489    29.6876   515.0052 </r>
       <r>     5.2021    44.8408   521.8727 </r>
       <r>     5.3552    60.1602   531.0863 </r>
       <r>     5.5084    77.1814   542.9069 </r>
       <r>     5.6615    62.3632   552.4579 </r>
       <r>     5.8147    75.6008   564.0364 </r>
       <r>     5.9678    96.4568   578.8089 </r>
       <r>     6.1210    89.9379   592.5831 </r>
       <r>     6.2741    67.7753   602.9630 </r>
       <r>     6.4273    47.1467   610.1837 </r>
       <r>     6.5805    29.1266   614.6445 </r>
       <r>     6.7336    17.7725   617.3663 </r>
       <r>     6.8868    18.9433   620.2676 </r>
       <r>     7.0399    20.3055   623.3774 </r>
       <r>     7.1931    20.7760   626.5593 </r>
       <r>     7.3462    15.5565   628.9418 </r>
       <r>     7.4994    18.2303   631.7338 </r>
       <r>     7.6525    11.1533   633.4420 </r>
       <r>     7.8057    17.7982   636.1678 </r>
       <r>     7.9588    17.3535   638.8255 </r>
       <r>     8.1120    24.5591   642.5868 </r>
       <r>     8.2651    24.8388   646.3909 </r>
       <r>     8.4183    26.8108   650.4971 </r>
       <r>     8.5714    22.6938   653.9727 </r>
       <r>     8.7246    25.8209   657.9272 </r>
       <r>     8.8777    29.7183   662.4786 </r>
       <r>     9.0309    34.9734   667.8349 </r>
       <r>     9.1840    42.6769   674.3709 </r>
       <r>     9.3372    36.4796   679.9579 </r>
       <r>     9.4903    40.7170   686.1938 </r>
       <r>     9.6435    50.3749   693.9088 </r>
       <r>     9.7966    51.7767   701.8385 </r>
       <r>     9.9498    64.5341   711.7221 </r>
       <r>    10.1030    68.0783   722.1484 </r>
       <r>    10.2561    64.0546   731.9585 </r>
       <r>    10.4093    57.1635   740.7132 </r>
       <r>    10.5624    54.8635   749.1157 </r>
       <r>    10.7156    56.9449   757.8369 </r>
       <r>    10.8687    49.5454   765.4249 </r>
       <r>    11.0219    16.8048   767.9986 </r>
       <r>    11.1750     0.0093   768.0000 </r>
       <r>    11.3282     0.0000   768.0000 </r>
       <r>    11.4813     0.0000   768.0000 </r>
       <r>    11.6345     0.0000   768.0000 </r>
       <r>    11.7876     0.0000   768.0000 </r>
       <r>    11.9408     0.0000   768.0000 </r>
       <r>    12.0939     0.0000   768.0000 </r>
       <r>    12.2471     0.0000   768.0000 </r>
       <r>    12.4002     0.0000   768.0000 </r>
       <r>    12.5534     0.0000   768.0000 </r>
       <r>    12.7065     0.0000   768.0000 </r>
       <r>    12.8597     0.0000   768.0000 </r>
       <r>    13.0128     0.0000   768.0000 </r>
      </set>
     </set>
    </array>
   </total>
  </dos>
 </calculation>
 <structure name="finalpos" >
  <crystal>
   <varray name="basis" >
    <v>      11.24170146       0.00426081      -0.00246742 </v>
    <v>       0.00426346      11.23599417      -0.00409848 </v>
    <v>      -0.00349685      -0.00577084      15.87769932 </v>
   </varray>
   <i name="volume">   2005.53841655 </i>
   <varray name="rec_basis" >
    <v>       0.08895452      -0.00003375       0.00001958 </v>
    <v>      -0.00003373       0.08899971       0.00003234 </v>
    <v>       0.00001381       0.00002297       0.06298143 </v>
   </varray>
  </crystal>
  <varray name="positions" >
   <v>       0.00674614       0.25136601       0.12510094 </v>
   <v>       0.99830913       0.24781205       0.62193825 </v>
   <v>       0.00183295       0.74768521       0.12020568 </v>
   <v>       0.99861181       0.75459871       0.61882309 </v>
   <v>       0.48921735       0.25687568       0.12475465 </v>
   <v>       0.49892625       0.25102247       0.62173785 </v>
   <v>       0.49758347       0.74122214       0.11991648 </v>
   <v>       0.50090338       0.74961754       0.62028325 </v>
   <v>       0.00647890       0.24355145       0.38032031 </v>
   <v>       0.00111669       0.25121733       0.87726587 </v>
   <v>       0.00264064       0.75666115       0.38503096 </v>
   <v>       0.00115317       0.74688641       0.87216564 </v>
   <v>       0.49273852       0.24713691       0.38150329 </v>
   <v>       0.49837486       0.25007503       0.87040006 </v>
   <v>       0.49334163       0.75174286       0.38333774 </v>
   <v>       0.50322634       0.74644176       0.87284214 </v>
   <v>       0.23847346       0.00564665       0.12614094 </v>
   <v>       0.24730648       0.99749990       0.61920952 </v>
   <v>       0.24213668       0.49710600       0.12486026 </v>
   <v>       0.24686121       0.50302831       0.62181820 </v>
   <v>       0.76315461       0.99838378       0.12242176 </v>
   <v>       0.75270523       0.99669826       0.62141260 </v>
   <v>       0.75265928       0.49702597       0.11704667 </v>
   <v>       0.75058206       0.50171665       0.62220625 </v>
   <v>       0.23922755       0.99880693       0.38301965 </v>
   <v>       0.24418138       0.99960041       0.87148770 </v>
   <v>       0.24361856       0.50244871       0.37928205 </v>
   <v>       0.24569507       0.49958134       0.87418676 </v>
   <v>       0.75841344       0.99878508       0.38651867 </v>
   <v>       0.75761739       0.99488676       0.87004275 </v>
   <v>       0.75310356       0.50351541       0.38360675 </v>
   <v>       0.75537300       0.50077024       0.87306407 </v>
   <v>       0.99911424       0.99989275       0.99977591 </v>
   <v>       0.99739872       0.50265638       0.49858755 </v>
   <v>       0.49173124       0.99431663       0.00239640 </v>
   <v>       0.50095296       0.99848376       0.49974472 </v>
   <v>       0.49996628       0.49690520       0.99457670 </v>
   <v>       0.24861984       0.25334239       0.00094452 </v>
   <v>       0.24959500       0.25044358       0.49780409 </v>
   <v>       0.24630443       0.74323614       0.00028650 </v>
   <v>       0.74843517       0.24992001       0.49937208 </v>
   <v>       0.75357131       0.74635231       0.99865596 </v>
   <v>       0.24984452       0.25085771       0.74875549 </v>
   <v>       0.24377631       0.74804421       0.25173560 </v>
   <v>       0.25111033       0.75000941       0.74796425 </v>
   <v>       0.75890616       0.25743959       0.25049311 </v>
   <v>       0.74849301       0.24950076       0.75143302 </v>
   <v>       0.74403162       0.76386297       0.25156107 </v>
   <v>       0.74870069       0.74935517       0.74635624 </v>
   <v>       0.00169568       0.00071427       0.25085417 </v>
   <v>       0.00003285       0.00029205       0.74741684 </v>
   <v>       0.00010496       0.49857248       0.75000269 </v>
   <v>       0.49082940       0.99564290       0.24773309 </v>
   <v>       0.50085378       0.99970215       0.74863635 </v>
   <v>       0.49923355       0.49977717       0.24219408 </v>
   <v>       0.49981559       0.49952669       0.74933649 </v>
   <v>       0.99937495       0.99841968       0.50205203 </v>
   <v>       0.99943105       0.50111505       0.00072371 </v>
   <v>       0.49845145       0.50118822       0.50760262 </v>
   <v>       0.25051845       0.75046071       0.49948760 </v>
   <v>       0.75644573       0.25945843       0.99960993 </v>
   <v>       0.74964214       0.74850203       0.49831785 </v>
   <v>       0.25106216       0.25046109       0.25270064 </v>
   <v>       0.01384039       0.49390483       0.25081520 </v>
   <v>       0.11204078       0.13449813       0.24552809 </v>
   <v>       0.11151935       0.13979363       0.74975569 </v>
   <v>       0.11264710       0.64030495       0.24705203 </v>
   <v>       0.11136096       0.63917610       0.74269403 </v>
   <v>       0.60903958       0.13956813       0.74061108 </v>
   <v>       0.62709948       0.62212084       0.25917804 </v>
   <v>       0.60894881       0.63920919       0.75056922 </v>
   <v>       0.38632999       0.37685894       0.26664598 </v>
   <v>       0.38991035       0.36091696       0.75238609 </v>
   <v>       0.39107021       0.86768732       0.24225728 </v>
   <v>       0.39014717       0.86396281       0.76241576 </v>
   <v>       0.87853627       0.36989823       0.25196260 </v>
   <v>       0.88665476       0.35946421       0.76045768 </v>
   <v>       0.89389177       0.85123288       0.24513317 </v>
   <v>       0.88715975       0.86076546       0.75243411 </v>
   <v>       0.38196688       0.12444723       0.24495571 </v>
   <v>       0.36199315       0.11082049       0.75231051 </v>
   <v>       0.37757384       0.61960135       0.26414920 </v>
   <v>       0.36094622       0.61012234       0.75401458 </v>
   <v>       0.85559825       0.10826920       0.24846270 </v>
   <v>       0.85937775       0.11171383       0.74952586 </v>
   <v>       0.86003495       0.61079322       0.74896945 </v>
   <v>       0.13803076       0.38496181       0.25054292 </v>
   <v>       0.14021598       0.38912411       0.75011848 </v>
   <v>       0.14163397       0.88986291       0.24505523 </v>
   <v>       0.13933603       0.88904884       0.74860028 </v>
   <v>       0.62373247       0.37348882       0.25645396 </v>
   <v>       0.63932155       0.38970357       0.75277349 </v>
   <v>       0.64463765       0.89683602       0.24952159 </v>
   <v>       0.63858967       0.89067636       0.75165855 </v>
   <v>       0.36056335       0.39135142       0.99959303 </v>
   <v>       0.37285046       0.37952992       0.48773673 </v>
   <v>       0.36567139       0.89020016       0.00581537 </v>
   <v>       0.37488714       0.88238713       0.48928660 </v>
   <v>       0.86261395       0.38646669       0.99911829 </v>
   <v>       0.87038557       0.37492531       0.48721702 </v>
   <v>       0.86788885       0.88001090       0.00181056 </v>
   <v>       0.87066163       0.87672408       0.50072561 </v>
   <v>       0.13552412       0.11534347       0.00149529 </v>
   <v>       0.12818946       0.12428899       0.50430562 </v>
   <v>       0.13795123       0.61286147       0.00516671 </v>
   <v>       0.12503817       0.62052588       0.50485572 </v>
   <v>       0.62756062       0.12158172       0.51041371 </v>
   <v>       0.63449876       0.61292445       0.00290110 </v>
   <v>       0.62258638       0.61969163       0.48605453 </v>
   <v>       0.11303385       0.36327228       0.00541862 </v>
   <v>       0.12058120       0.37300753       0.49238751 </v>
   <v>       0.11759450       0.86502239       0.00392242 </v>
   <v>       0.12384296       0.87278118       0.50359860 </v>
   <v>       0.60736471       0.35783742       0.00336729 </v>
   <v>       0.61929004       0.37331414       0.48701941 </v>
   <v>       0.62076978       0.87323982       0.00945328 </v>
   <v>       0.62076696       0.87270026       0.49207339 </v>
   <v>       0.39730532       0.14122745       0.00158496 </v>
   <v>       0.38065514       0.12877282       0.50181377 </v>
   <v>       0.39052303       0.63969468       0.99626002 </v>
   <v>       0.37821463       0.62451880       0.48794207 </v>
   <v>       0.87233180       0.12697712       0.00223607 </v>
   <v>       0.87567141       0.13066656       0.49864915 </v>
   <v>       0.88441903       0.63638345       0.99473770 </v>
   <v>       0.87499303       0.62345327       0.50867163 </v>
   <v>       0.99928288       0.00158833       0.12392374 </v>
   <v>       0.99562762       0.00068082       0.62770420 </v>
   <v>       0.98088129       0.51209905       0.13150025 </v>
   <v>       0.99396168       0.48357391       0.62479926 </v>
   <v>       0.53204112       0.02927052       0.12567588 </v>
   <v>       0.49297153       0.98699508       0.62555133 </v>
   <v>       0.49245496       0.50263121       0.12580749 </v>
   <v>       0.49938675       0.49807615       0.62677305 </v>
   <v>       0.00149383       0.99987574       0.37237550 </v>
   <v>       0.00152693       0.00039119       0.87597460 </v>
   <v>       0.98761579       0.51983463       0.37064977 </v>
   <v>       0.00687147       0.50426389       0.87365905 </v>
   <v>       0.51577216       0.01681283       0.36741023 </v>
   <v>       0.52062374       0.01325379       0.88304561 </v>
   <v>       0.50366193       0.49907592       0.87524814 </v>
   <v>       0.24686451       0.23515719       0.37510395 </v>
   <v>       0.24855987       0.25009560       0.87623770 </v>
   <v>       0.24460640       0.75635137       0.37178957 </v>
   <v>       0.24363389       0.74935369       0.87671612 </v>
   <v>       0.73149776       0.22649186       0.36884829 </v>
   <v>       0.73303141       0.23342307       0.87806474 </v>
   <v>       0.77106166       0.73777959       0.36830044 </v>
   <v>       0.74308817       0.75053511       0.87638713 </v>
   <v>       0.25573305       0.25339661       0.12516100 </v>
   <v>       0.25457502       0.25775687       0.62457555 </v>
   <v>       0.26153144       0.74147590       0.12591877 </v>
   <v>       0.26709823       0.75373154       0.62660826 </v>
   <v>       0.72719310       0.23374962       0.12901610 </v>
   <v>       0.75324308       0.26449702       0.62397894 </v>
   <v>       0.75716452       0.72976331       0.13079051 </v>
   <v>       0.74017616       0.75063852       0.62570238 </v>
  </varray>
 </structure>
</modeling>
