<?xml version="1.0" encoding="ISO-8859-1"?>
<modeling>
 <generator>
  <i name="program" type="string">vasp </i>
  <i name="version" type="string">5.4.1  </i>
  <i name="subversion" type="string">05Feb16 (build Jan 25 2017 20:16:33) complex                          parallel </i>
  <i name="platform" type="string">BWXE6 </i>
  <i name="date" type="string">2019 06 24 </i>
  <i name="time" type="string">06:29:16 </i>
 </generator>
 <incar>
  <i type="string" name="SYSTEM"> STF</i>
  <i type="string" name="PREC">normal</i>
  <i type="string" name="ALGO"> Fast</i>
  <i type="int" name="ISPIN">     2</i>
  <i type="int" name="NELM">    40</i>
  <i type="int" name="NELMIN">     8</i>
  <i type="int" name="IBRION">     2</i>
  <i name="EDIFF">      0.00010000</i>
  <i name="EDIFFG">     -0.03000000</i>
  <i type="int" name="NSW">    30</i>
  <i type="int" name="ISIF">     3</i>
  <i name="ENCUT">    520.00000000</i>
  <i type="int" name="NBANDS">   768</i>
  <v name="MAGMOM">      0.60000000      0.60000000      0.60000000      0.60000000      0.60000000      0.60000000      0.60000000      0.60000000      0.60000000      0.60000000      0.60000000      0.60000000      0.60000000      0.60000000      0.60000000      0.60000000      0.60000000      0.60000000      0.60000000      0.60000000
      0.60000000      0.60000000      0.60000000      0.60000000      0.60000000      0.60000000      0.60000000      0.60000000      0.60000000      0.60000000      0.60000000      0.60000000      0.60000000      0.60000000      0.60000000      0.60000000      0.60000000      0.60000000      0.60000000      0.60000000
      0.60000000      0.60000000      0.60000000      0.60000000      0.60000000      0.60000000      0.60000000      0.60000000      0.60000000      0.60000000      0.60000000      0.60000000      0.60000000      0.60000000      0.60000000      0.60000000      5.00000000      5.00000000      5.00000000      5.00000000
      5.00000000      5.00000000      5.00000000      5.00000000      0.60000000      0.60000000      0.60000000      0.60000000      0.60000000      0.60000000      0.60000000      0.60000000      0.60000000      0.60000000      0.60000000      0.60000000      0.60000000      0.60000000      0.60000000      0.60000000
      0.60000000      0.60000000      0.60000000      0.60000000      0.60000000      0.60000000      0.60000000      0.60000000      0.60000000      0.60000000      0.60000000      0.60000000      0.60000000      0.60000000      0.60000000      0.60000000      0.60000000      0.60000000      0.60000000      0.60000000
      0.60000000      0.60000000      0.60000000      0.60000000      0.60000000      0.60000000      0.60000000      0.60000000      0.60000000      0.60000000      0.60000000      0.60000000      0.60000000      0.60000000      0.60000000      0.60000000      0.60000000      0.60000000      0.60000000      0.60000000
      0.60000000      0.60000000      0.60000000      0.60000000      0.60000000      0.60000000      0.60000000      0.60000000      0.60000000      0.60000000      0.60000000      0.60000000      0.60000000      0.60000000      0.60000000      0.60000000      0.60000000      0.60000000      0.60000000      0.60000000
      0.60000000      0.60000000      0.60000000      0.60000000      0.60000000      0.60000000      0.60000000      0.60000000      0.60000000      0.60000000      0.60000000      0.60000000      0.60000000      0.60000000      0.60000000      0.60000000</v>
  <i type="string" name="LREAL"> Auto</i>
  <i type="int" name="ISMEAR">     0</i>
  <i name="SIGMA">      0.05000000</i>
  <i type="int" name="LMAXMIX">     4</i>
  <v type="int" name="KPOINT_BSE">    -1     0     0     0</v>
  <i type="int" name="NELM">    40</i>
  <i type="logical" name="LDAU"> T  </i>
  <v type="int" name="LDAUTYPE">     2</v>
  <v type="int" name="LDAUL">     0     2     2     0</v>
  <v name="LDAUU">      0.00000000      3.00000000      5.00000000      0.00000000</v>
  <v name="LDAUJ">      0.00000000      0.00000000      0.00000000      0.00000000</v>
  <i type="int" name="LDAUPRINT">     1</i>
 </incar>
 <kpoints>
  <generation param="Monkhorst-Pack">
   <v type="int" name="divisions">       2        2        2 </v>
   <v name="usershift">      0.00000000       0.00000000       0.00000000 </v>
   <v name="genvec1">      0.50000000       0.00000000      -0.00000000 </v>
   <v name="genvec2">      0.00000000       0.50000000      -0.00000000 </v>
   <v name="genvec3">      0.00000000       0.00000000       0.50000000 </v>
   <v name="shift">      0.50000000       0.50000000       0.50000000 </v>
  </generation>
  <varray name="kpointlist" >
   <v>       0.25000000       0.25000000       0.25000000 </v>
   <v>      -0.25000000       0.25000000       0.25000000 </v>
   <v>       0.25000000      -0.25000000       0.25000000 </v>
   <v>      -0.25000000      -0.25000000       0.25000000 </v>
  </varray>
  <varray name="weights" >
   <v>       0.25000000 </v>
   <v>       0.25000000 </v>
   <v>       0.25000000 </v>
   <v>       0.25000000 </v>
  </varray>
 </kpoints>
 <parameters>
  <separator name="general" >
   <i type="string" name="SYSTEM">STF</i>
   <i type="logical" name="LCOMPAT"> F  </i>
  </separator>
  <separator name="electronic" >
   <i type="string" name="PREC">normal</i>
   <i name="ENMAX">    520.00000000</i>
   <i name="ENAUG">    605.39200000</i>
   <i name="EDIFF">      0.00010000</i>
   <i type="int" name="IALGO">    68</i>
   <i type="int" name="IWAVPR">    11</i>
   <i type="int" name="NBANDS">   768</i>
   <i name="NELECT">   1032.00000000</i>
   <i type="int" name="TURBO">     0</i>
   <i type="int" name="IRESTART">     0</i>
   <i type="int" name="NREBOOT">     0</i>
   <i type="int" name="NMIN">     0</i>
   <i name="EREF">      0.00000000</i>
   <separator name="electronic smearing" >
    <i type="int" name="ISMEAR">     0</i>
    <i name="SIGMA">      0.05000000</i>
    <i name="KSPACING">      0.50000000</i>
    <i type="logical" name="KGAMMA"> T  </i>
   </separator>
   <separator name="electronic projectors" >
    <i type="logical" name="LREAL"> T  </i>
    <v name="ROPT">     -0.00050000     -0.00050000     -0.00050000     -0.00050000</v>
    <i type="int" name="LMAXPAW">  -100</i>
    <i type="int" name="LMAXMIX">     4</i>
    <i type="logical" name="NLSPLINE"> F  </i>
   </separator>
   <separator name="electronic startup" >
    <i type="int" name="ISTART">     1</i>
    <i type="int" name="ICHARG">     0</i>
    <i type="int" name="INIWAV">     1</i>
   </separator>
   <separator name="electronic spin" >
    <i type="int" name="ISPIN">     2</i>
    <i type="logical" name="LNONCOLLINEAR"> F  </i>
    <v name="MAGMOM">      0.60000000      0.60000000      0.60000000      0.60000000      0.60000000      0.60000000      0.60000000      0.60000000      0.60000000      0.60000000      0.60000000      0.60000000      0.60000000      0.60000000      0.60000000      0.60000000      0.60000000      0.60000000      0.60000000      0.60000000
      0.60000000      0.60000000      0.60000000      0.60000000      0.60000000      0.60000000      0.60000000      0.60000000      0.60000000      0.60000000      0.60000000      0.60000000      0.60000000      0.60000000      0.60000000      0.60000000      0.60000000      0.60000000      0.60000000      0.60000000
      0.60000000      0.60000000      0.60000000      0.60000000      0.60000000      0.60000000      0.60000000      0.60000000      0.60000000      0.60000000      0.60000000      0.60000000      0.60000000      0.60000000      0.60000000      0.60000000      5.00000000      5.00000000      5.00000000      5.00000000
      5.00000000      5.00000000      5.00000000      5.00000000      0.60000000      0.60000000      0.60000000      0.60000000      0.60000000      0.60000000      0.60000000      0.60000000      0.60000000      0.60000000      0.60000000      0.60000000      0.60000000      0.60000000      0.60000000      0.60000000
      0.60000000      0.60000000      0.60000000      0.60000000      0.60000000      0.60000000      0.60000000      0.60000000      0.60000000      0.60000000      0.60000000      0.60000000      0.60000000      0.60000000      0.60000000      0.60000000      0.60000000      0.60000000      0.60000000      0.60000000
      0.60000000      0.60000000      0.60000000      0.60000000      0.60000000      0.60000000      0.60000000      0.60000000      0.60000000      0.60000000      0.60000000      0.60000000      0.60000000      0.60000000      0.60000000      0.60000000      0.60000000      0.60000000      0.60000000      0.60000000
      0.60000000      0.60000000      0.60000000      0.60000000      0.60000000      0.60000000      0.60000000      0.60000000      0.60000000      0.60000000      0.60000000      0.60000000      0.60000000      0.60000000      0.60000000      0.60000000      0.60000000      0.60000000      0.60000000      0.60000000
      0.60000000      0.60000000      0.60000000      0.60000000      0.60000000      0.60000000      0.60000000      0.60000000      0.60000000      0.60000000      0.60000000      0.60000000      0.60000000      0.60000000      0.60000000      0.60000000</v>
    <i name="NUPDOWN">     -1.00000000</i>
    <i type="logical" name="LSORBIT"> F  </i>
    <v name="SAXIS">      0.00000000      0.00000000      1.00000000</v>
    <i type="logical" name="LSPIRAL"> F  </i>
    <v name="QSPIRAL">      0.00000000      0.00000000      0.00000000</v>
    <i type="logical" name="LZEROZ"> F  </i>
   </separator>
   <separator name="electronic exchange-correlation" >
    <i type="logical" name="LASPH"> F  </i>
    <i type="logical" name="LMETAGGA"> F  </i>
   </separator>
   <separator name="electronic convergence" >
    <i type="int" name="NELM">    40</i>
    <i type="int" name="NELMDL">     0</i>
    <i type="int" name="NELMIN">     8</i>
    <i name="ENINI">    520.00000000</i>
    <separator name="electronic convergence detail" >
     <i type="logical" name="LDIAG"> T  </i>
     <i type="logical" name="LSUBROT"> F  </i>
     <i name="WEIMIN">      0.00100000</i>
     <i name="EBREAK">      0.00000003</i>
     <i name="DEPER">      0.30000000</i>
     <i type="int" name="NRMM">     4</i>
     <i name="TIME">      0.40000000</i>
    </separator>
   </separator>
   <separator name="electronic mixer" >
    <i name="AMIX">      0.40000000</i>
    <i name="BMIX">      1.00000000</i>
    <i name="AMIN">      0.10000000</i>
    <i name="AMIX_MAG">      1.60000000</i>
    <i name="BMIX_MAG">      1.00000000</i>
    <separator name="electronic mixer details" >
     <i type="int" name="IMIX">     4</i>
     <i type="logical" name="MIXFIRST"> F  </i>
     <i type="int" name="MAXMIX">   -45</i>
     <i name="WC">    100.00000000</i>
     <i type="int" name="INIMIX">     1</i>
     <i type="int" name="MIXPRE">     1</i>
     <i type="int" name="MREMOVE">     5</i>
    </separator>
   </separator>
   <separator name="electronic dipolcorrection" >
    <i type="logical" name="LDIPOL"> F  </i>
    <i type="logical" name="LMONO"> F  </i>
    <i type="int" name="IDIPOL">     0</i>
    <i name="EPSILON">      1.00000000</i>
    <v name="DIPOL">   -100.00000000   -100.00000000   -100.00000000</v>
    <i name="EFIELD">      0.00000000</i>
   </separator>
  </separator>
  <separator name="grids" >
   <i type="int" name="NGX">    64</i>
   <i type="int" name="NGY">    64</i>
   <i type="int" name="NGZ">    90</i>
   <i type="int" name="NGXF">   128</i>
   <i type="int" name="NGYF">   128</i>
   <i type="int" name="NGZF">   180</i>
   <i type="logical" name="ADDGRID"> F  </i>
  </separator>
  <separator name="ionic" >
   <i type="int" name="NSW">    30</i>
   <i type="int" name="IBRION">     2</i>
   <i type="int" name="ISIF">     3</i>
   <i name="PSTRESS">      0.00000000</i>
   <i name="EDIFFG">     -0.03000000</i>
   <i type="int" name="NFREE">     1</i>
   <i name="POTIM">      0.50000000</i>
   <i name="SMASS">     -3.00000000</i>
   <i name="SCALEE">      1.00000000</i>
  </separator>
  <separator name="ionic md" >
   <i name="TEBEG">      0.00010000</i>
   <i name="TEEND">      0.00010000</i>
   <i type="int" name="NBLOCK">     1</i>
   <i type="int" name="KBLOCK">    30</i>
   <i type="int" name="NPACO">   256</i>
   <i name="APACO">     16.00000000</i>
  </separator>
  <separator name="symmetry" >
   <i type="int" name="ISYM">     2</i>
   <i name="SYMPREC">      0.00001000</i>
  </separator>
  <separator name="dos" >
   <i type="logical" name="LORBIT"> F  </i>
   <v name="RWIGS">     -1.00000000     -1.00000000     -1.00000000     -1.00000000</v>
   <i type="int" name="NEDOS">   301</i>
   <i name="EMIN">     10.00000000</i>
   <i name="EMAX">    -10.00000000</i>
   <i name="EFERMI">      0.00000000</i>
  </separator>
  <separator name="writing" >
   <i type="int" name="NWRITE">     2</i>
   <i type="logical" name="LWAVE"> T  </i>
   <i type="logical" name="LCHARG"> T  </i>
   <i type="logical" name="LPARD"> F  </i>
   <i type="logical" name="LVTOT"> F  </i>
   <i type="logical" name="LVHAR"> F  </i>
   <i type="logical" name="LELF"> F  </i>
   <i type="logical" name="LOPTICS"> F  </i>
   <v name="STM">      0.00000000      0.00000000      0.00000000      0.00000000      0.00000000      0.00000000      0.00000000</v>
  </separator>
  <separator name="performance" >
   <i type="int" name="NPAR">     2</i>
   <i type="int" name="NSIM">     4</i>
   <i type="int" name="NBLK">    -1</i>
   <i type="logical" name="LPLANE"> T  </i>
   <i type="logical" name="LSCALAPACK"> T  </i>
   <i type="logical" name="LSCAAWARE"> F  </i>
   <i type="logical" name="LSCALU"> F  </i>
   <i type="logical" name="LASYNC"> F  </i>
   <i type="logical" name="LORBITALREAL"> F  </i>
  </separator>
  <separator name="miscellaneous" >
   <i type="int" name="IDIOT">     3</i>
   <i type="logical" name="LMUSIC"> F  </i>
   <v name="POMASS">     87.62000000     47.88000000     55.84700000     16.00000000</v>
   <v name="DARWINR">      0.00000000      0.00000000      0.00000000      0.00000000</v>
   <v name="DARWINV">      1.00000000      1.00000000      1.00000000      1.00000000</v>
   <i type="logical" name="LCORR"> T  </i>
  </separator>
  <i type="logical" name="GGA_COMPAT"> T  </i>
  <i type="logical" name="LBERRY"> F  </i>
  <i type="int" name="ICORELEVEL">     0</i>
  <i type="logical" name="LDAU"> T  </i>
  <v type="int" name="LDAUTYPE">     2</v>
  <v type="int" name="LDAUL">     0</v>
  <v name="LDAUU">      0.00000000</v>
  <v name="LDAUJ">      0.00000000</v>
  <i type="int" name="LDAUPRINT">     1</i>
  <i type="int" name="I_CONSTRAINED_M">     0</i>
  <separator name="electronic exchange-correlation" >
   <i type="string" name="GGA">--</i>
   <i type="int" name="VOSKOWN">     0</i>
   <i type="logical" name="LHFCALC"> F  </i>
   <i type="string" name="PRECFOCK"></i>
   <i type="logical" name="LSYMGRAD"> F  </i>
   <i type="logical" name="LHFONE"> F  </i>
   <i type="logical" name="LRHFCALC"> F  </i>
   <i type="logical" name="LTHOMAS"> F  </i>
   <i type="logical" name="LMODELHF"> F  </i>
   <i name="ENCUT4O">     -1.00000000</i>
   <i type="int" name="EXXOEP">     0</i>
   <i type="int" name="FOURORBIT">     0</i>
   <i name="AEXX">      0.00000000</i>
   <i name="HFALPHA">      0.00000000</i>
   <i name="MCALPHA">      0.00000000</i>
   <i name="ALDAX">      1.00000000</i>
   <i name="AGGAX">      1.00000000</i>
   <i name="ALDAC">      1.00000000</i>
   <i name="AGGAC">      1.00000000</i>
   <i type="int" name="NKREDX">     1</i>
   <i type="int" name="NKREDY">     1</i>
   <i type="int" name="NKREDZ">     1</i>
   <i type="logical" name="SHIFTRED"> F  </i>
   <i type="logical" name="ODDONLY"> F  </i>
   <i type="logical" name="EVENONLY"> F  </i>
   <i type="int" name="LMAXFOCK">     0</i>
   <i type="int" name="NMAXFOCKAE">     0</i>
   <i type="logical" name="LFOCKAEDFT"> F  </i>
   <i name="HFSCREEN">      0.00000000</i>
   <i name="HFSCREENC">      0.00000000</i>
   <i type="int" name="NBANDSGWLOW">     0</i>
  </separator>
  <separator name="vdW DFT" >
   <i type="logical" name="LUSE_VDW"> F  </i>
   <i name="Zab_VDW">     -0.84910000</i>
   <i name="PARAM1">      0.12340000</i>
   <i name="PARAM2">      1.00000000</i>
   <i name="PARAM3">      0.00000000</i>
  </separator>
  <separator name="model GW" >
   <i type="int" name="MODEL_GW">     0</i>
   <i name="MODEL_EPS0">      7.71757065</i>
   <i name="MODEL_ALPHA">      1.00000000</i>
  </separator>
  <separator name="linear response parameters" >
   <i type="logical" name="LEPSILON"> F  </i>
   <i type="logical" name="LRPA"> F  </i>
   <i type="logical" name="LNABLA"> F  </i>
   <i type="logical" name="LVEL"> F  </i>
   <i type="int" name="KINTER">     0</i>
   <i name="CSHIFT">      0.10000000</i>
   <i name="OMEGAMAX">     -1.00000000</i>
   <i name="DEG_THRESHOLD">      0.00200000</i>
  </separator>
  <separator name="orbital magnetization" >
   <i type="logical" name="NUCIND"> F  </i>
   <v name="MAGPOS">      0.00000000      0.00000000      0.00000000</v>
   <i type="logical" name="LNICSALL"> T  </i>
   <i type="logical" name="ORBITALMAG"> F  </i>
   <i type="logical" name="LMAGBLOCH"> F  </i>
   <i type="logical" name="LCHIMAG"> F  </i>
   <i type="logical" name="LGAUGE"> T  </i>
   <i type="int" name="MAGATOM">     0</i>
   <v name="MAGDIPOL">      0.00000000      0.00000000      0.00000000</v>
   <v name="AVECCONST">      0.00000000      0.00000000      0.00000000</v>
  </separator>
  <separator name="response functions" >
   <i type="logical" name="LADDER"> F  </i>
   <i type="logical" name="LFXC"> F  </i>
   <i type="logical" name="LHARTREE"> T  </i>
   <i type="int" name="IBSE">     0</i>
   <v type="int" name="KPOINT">    -1     0     0     0</v>
   <i type="logical" name="LTCTE"> F  </i>
   <i type="logical" name="LTETE"> F  </i>
   <i type="logical" name="LTRIPLET"> F  </i>
   <i type="logical" name="LFXCEPS"> F  </i>
   <i type="logical" name="LFXHEG"> F  </i>
   <i type="int" name="NATURALO">     0</i>
   <i type="logical" name="L2ORDER"> F  </i>
   <i type="logical" name="LUSEW"> F  </i>
   <i name="ENCUTGW">     -2.00000000</i>
   <i name="ENCUTGWSOFT">     -2.00000000</i>
   <i name="ENCUTLF">     -1.00000000</i>
   <i type="int" name="LMAXMP2">    -1</i>
   <i name="SCISSOR">      0.00000000</i>
   <i type="int" name="NOMEGA">     0</i>
   <i type="int" name="NOMEGAR">     0</i>
   <i type="int" name="NBANDSGW">    -1</i>
   <i type="int" name="NBANDSO">    -1</i>
   <i type="int" name="NBANDSV">    -1</i>
   <i type="int" name="NELM">    40</i>
   <i type="int" name="NELMHF">     1</i>
   <i type="int" name="DIM">     3</i>
   <i type="int" name="ANTIRES">     0</i>
   <i name="OMEGAMAX">    -30.00000000</i>
   <i name="OMEGAMIN">    -30.00000000</i>
   <i name="OMEGATL">   -200.00000000</i>
   <i type="int" name="OMEGAGRID">     0</i>
   <i name="CSHIFT">     -0.10000000</i>
   <i type="logical" name="SELFENERGY"> F  </i>
   <i type="logical" name="LSPECTRAL"> F  </i>
   <i type="logical" name="LSPECTRALGW"> F  </i>
   <i type="logical" name="LSINGLES"> F  </i>
   <i type="logical" name="LFERMIGW"> F  </i>
   <i type="logical" name="ODDONLYGW"> F  </i>
   <i type="logical" name="EVENONLYGW"> F  </i>
   <i type="int" name="NKREDLFX">     1</i>
   <i type="int" name="NKREDLFY">     1</i>
   <i type="int" name="NKREDLFZ">     1</i>
   <i type="int" name="MAXMEM">  1800</i>
   <i type="int" name="TELESCOPE">     0</i>
   <i type="int" name="TAUPAR">     1</i>
   <i type="int" name="OMEGAPAR">    -1</i>
   <i name="LAMBDA">      1.00000000</i>
  </separator>
  <separator name="External order field" >
   <i name="OFIELD_KAPPA">      0.00000000</i>
   <v name="OFIELD_K">      0.00000000      0.00000000      0.00000000</v>
   <i name="OFIELD_Q6_NEAR">      0.00000000</i>
   <i name="OFIELD_Q6_FAR">      0.00000000</i>
   <i name="OFIELD_A">      0.00000000</i>
  </separator>
 </parameters>
 <atominfo>
  <atoms>     156 </atoms>
  <types>       4 </types>
  <array name="atoms" >
   <dimension dim="1">ion</dimension>
   <field type="string">element</field>
   <field type="int">atomtype</field>
   <set>
    <rc><c>Sr</c><c>   1</c></rc>
    <rc><c>Sr</c><c>   1</c></rc>
    <rc><c>Sr</c><c>   1</c></rc>
    <rc><c>Sr</c><c>   1</c></rc>
    <rc><c>Sr</c><c>   1</c></rc>
    <rc><c>Sr</c><c>   1</c></rc>
    <rc><c>Sr</c><c>   1</c></rc>
    <rc><c>Sr</c><c>   1</c></rc>
    <rc><c>Sr</c><c>   1</c></rc>
    <rc><c>Sr</c><c>   1</c></rc>
    <rc><c>Sr</c><c>   1</c></rc>
    <rc><c>Sr</c><c>   1</c></rc>
    <rc><c>Sr</c><c>   1</c></rc>
    <rc><c>Sr</c><c>   1</c></rc>
    <rc><c>Sr</c><c>   1</c></rc>
    <rc><c>Sr</c><c>   1</c></rc>
    <rc><c>Sr</c><c>   1</c></rc>
    <rc><c>Sr</c><c>   1</c></rc>
    <rc><c>Sr</c><c>   1</c></rc>
    <rc><c>Sr</c><c>   1</c></rc>
    <rc><c>Sr</c><c>   1</c></rc>
    <rc><c>Sr</c><c>   1</c></rc>
    <rc><c>Sr</c><c>   1</c></rc>
    <rc><c>Sr</c><c>   1</c></rc>
    <rc><c>Sr</c><c>   1</c></rc>
    <rc><c>Sr</c><c>   1</c></rc>
    <rc><c>Sr</c><c>   1</c></rc>
    <rc><c>Sr</c><c>   1</c></rc>
    <rc><c>Sr</c><c>   1</c></rc>
    <rc><c>Sr</c><c>   1</c></rc>
    <rc><c>Sr</c><c>   1</c></rc>
    <rc><c>Sr</c><c>   1</c></rc>
    <rc><c>Ti</c><c>   2</c></rc>
    <rc><c>Ti</c><c>   2</c></rc>
    <rc><c>Ti</c><c>   2</c></rc>
    <rc><c>Ti</c><c>   2</c></rc>
    <rc><c>Ti</c><c>   2</c></rc>
    <rc><c>Ti</c><c>   2</c></rc>
    <rc><c>Ti</c><c>   2</c></rc>
    <rc><c>Ti</c><c>   2</c></rc>
    <rc><c>Ti</c><c>   2</c></rc>
    <rc><c>Ti</c><c>   2</c></rc>
    <rc><c>Ti</c><c>   2</c></rc>
    <rc><c>Ti</c><c>   2</c></rc>
    <rc><c>Ti</c><c>   2</c></rc>
    <rc><c>Ti</c><c>   2</c></rc>
    <rc><c>Ti</c><c>   2</c></rc>
    <rc><c>Ti</c><c>   2</c></rc>
    <rc><c>Ti</c><c>   2</c></rc>
    <rc><c>Ti</c><c>   2</c></rc>
    <rc><c>Ti</c><c>   2</c></rc>
    <rc><c>Ti</c><c>   2</c></rc>
    <rc><c>Ti</c><c>   2</c></rc>
    <rc><c>Ti</c><c>   2</c></rc>
    <rc><c>Ti</c><c>   2</c></rc>
    <rc><c>Ti</c><c>   2</c></rc>
    <rc><c>Fe</c><c>   3</c></rc>
    <rc><c>Fe</c><c>   3</c></rc>
    <rc><c>Fe</c><c>   3</c></rc>
    <rc><c>Fe</c><c>   3</c></rc>
    <rc><c>Fe</c><c>   3</c></rc>
    <rc><c>Fe</c><c>   3</c></rc>
    <rc><c>Fe</c><c>   3</c></rc>
    <rc><c>Fe</c><c>   3</c></rc>
    <rc><c>O </c><c>   4</c></rc>
    <rc><c>O </c><c>   4</c></rc>
    <rc><c>O </c><c>   4</c></rc>
    <rc><c>O </c><c>   4</c></rc>
    <rc><c>O </c><c>   4</c></rc>
    <rc><c>O </c><c>   4</c></rc>
    <rc><c>O </c><c>   4</c></rc>
    <rc><c>O </c><c>   4</c></rc>
    <rc><c>O </c><c>   4</c></rc>
    <rc><c>O </c><c>   4</c></rc>
    <rc><c>O </c><c>   4</c></rc>
    <rc><c>O </c><c>   4</c></rc>
    <rc><c>O </c><c>   4</c></rc>
    <rc><c>O </c><c>   4</c></rc>
    <rc><c>O </c><c>   4</c></rc>
    <rc><c>O </c><c>   4</c></rc>
    <rc><c>O </c><c>   4</c></rc>
    <rc><c>O </c><c>   4</c></rc>
    <rc><c>O </c><c>   4</c></rc>
    <rc><c>O </c><c>   4</c></rc>
    <rc><c>O </c><c>   4</c></rc>
    <rc><c>O </c><c>   4</c></rc>
    <rc><c>O </c><c>   4</c></rc>
    <rc><c>O </c><c>   4</c></rc>
    <rc><c>O </c><c>   4</c></rc>
    <rc><c>O </c><c>   4</c></rc>
    <rc><c>O </c><c>   4</c></rc>
    <rc><c>O </c><c>   4</c></rc>
    <rc><c>O </c><c>   4</c></rc>
    <rc><c>O </c><c>   4</c></rc>
    <rc><c>O </c><c>   4</c></rc>
    <rc><c>O </c><c>   4</c></rc>
    <rc><c>O </c><c>   4</c></rc>
    <rc><c>O </c><c>   4</c></rc>
    <rc><c>O </c><c>   4</c></rc>
    <rc><c>O </c><c>   4</c></rc>
    <rc><c>O </c><c>   4</c></rc>
    <rc><c>O </c><c>   4</c></rc>
    <rc><c>O </c><c>   4</c></rc>
    <rc><c>O </c><c>   4</c></rc>
    <rc><c>O </c><c>   4</c></rc>
    <rc><c>O </c><c>   4</c></rc>
    <rc><c>O </c><c>   4</c></rc>
    <rc><c>O </c><c>   4</c></rc>
    <rc><c>O </c><c>   4</c></rc>
    <rc><c>O </c><c>   4</c></rc>
    <rc><c>O </c><c>   4</c></rc>
    <rc><c>O </c><c>   4</c></rc>
    <rc><c>O </c><c>   4</c></rc>
    <rc><c>O </c><c>   4</c></rc>
    <rc><c>O </c><c>   4</c></rc>
    <rc><c>O </c><c>   4</c></rc>
    <rc><c>O </c><c>   4</c></rc>
    <rc><c>O </c><c>   4</c></rc>
    <rc><c>O </c><c>   4</c></rc>
    <rc><c>O </c><c>   4</c></rc>
    <rc><c>O </c><c>   4</c></rc>
    <rc><c>O </c><c>   4</c></rc>
    <rc><c>O </c><c>   4</c></rc>
    <rc><c>O </c><c>   4</c></rc>
    <rc><c>O </c><c>   4</c></rc>
    <rc><c>O </c><c>   4</c></rc>
    <rc><c>O </c><c>   4</c></rc>
    <rc><c>O </c><c>   4</c></rc>
    <rc><c>O </c><c>   4</c></rc>
    <rc><c>O </c><c>   4</c></rc>
    <rc><c>O </c><c>   4</c></rc>
    <rc><c>O </c><c>   4</c></rc>
    <rc><c>O </c><c>   4</c></rc>
    <rc><c>O </c><c>   4</c></rc>
    <rc><c>O </c><c>   4</c></rc>
    <rc><c>O </c><c>   4</c></rc>
    <rc><c>O </c><c>   4</c></rc>
    <rc><c>O </c><c>   4</c></rc>
    <rc><c>O </c><c>   4</c></rc>
    <rc><c>O </c><c>   4</c></rc>
    <rc><c>O </c><c>   4</c></rc>
    <rc><c>O </c><c>   4</c></rc>
    <rc><c>O </c><c>   4</c></rc>
    <rc><c>O </c><c>   4</c></rc>
    <rc><c>O </c><c>   4</c></rc>
    <rc><c>O </c><c>   4</c></rc>
    <rc><c>O </c><c>   4</c></rc>
    <rc><c>O </c><c>   4</c></rc>
    <rc><c>O </c><c>   4</c></rc>
    <rc><c>O </c><c>   4</c></rc>
    <rc><c>O </c><c>   4</c></rc>
    <rc><c>O </c><c>   4</c></rc>
    <rc><c>O </c><c>   4</c></rc>
    <rc><c>O </c><c>   4</c></rc>
    <rc><c>O </c><c>   4</c></rc>
    <rc><c>O </c><c>   4</c></rc>
   </set>
  </array>
  <array name="atomtypes" >
   <dimension dim="1">type</dimension>
   <field type="int">atomspertype</field>
   <field type="string">element</field>
   <field>mass</field>
   <field>valence</field>
   <field type="string">pseudopotential</field>
   <set>
    <rc><c>  32</c><c>Sr</c><c>     87.62000000</c><c>     10.00000000</c><c>  PAW_PBE Sr_sv 07Sep2000               </c></rc>
    <rc><c>  24</c><c>Ti</c><c>     47.88000000</c><c>      4.00000000</c><c>  PAW_PBE Ti 08Apr2002                  </c></rc>
    <rc><c>   8</c><c>Fe</c><c>     55.84700000</c><c>      8.00000000</c><c>  PAW_PBE Fe 06Sep2000                  </c></rc>
    <rc><c>  92</c><c>O </c><c>     16.00000000</c><c>      6.00000000</c><c>  PAW_PBE O 08Apr2002                   </c></rc>
   </set>
  </array>
 </atominfo>
 <structure name="initialpos" >
  <crystal>
   <varray name="basis" >
    <v>      11.21810283       0.00216867      -0.00808398 </v>
    <v>       0.00218418      11.21133177       0.00093034 </v>
    <v>      -0.01154147       0.00132480      15.95429383 </v>
   </varray>
   <i name="volume">   2006.56836782 </i>
   <varray name="rec_basis" >
    <v>       0.08914168      -0.00001737       0.00006449 </v>
    <v>      -0.00001725       0.08919547      -0.00000742 </v>
    <v>       0.00004517      -0.00000521       0.06267908 </v>
   </varray>
  </crystal>
  <varray name="positions" >
   <v>       0.00739988       0.24633804       0.12582105 </v>
   <v>       0.00320196       0.24585516       0.62450719 </v>
   <v>       0.00265817       0.75228802       0.12184859 </v>
   <v>       0.98444726       0.75554358       0.62572594 </v>
   <v>       0.49198486       0.24910010       0.12495873 </v>
   <v>       0.49654396       0.24547753       0.62687637 </v>
   <v>       0.49629042       0.74735564       0.12467777 </v>
   <v>       0.51372973       0.75301994       0.63081407 </v>
   <v>       0.99996677       0.24834459       0.37282302 </v>
   <v>       0.00643308       0.24468385       0.87744998 </v>
   <v>       0.99404528       0.75308419       0.37486815 </v>
   <v>       0.99047312       0.75491196       0.87786182 </v>
   <v>       0.49953917       0.24452859       0.37117519 </v>
   <v>       0.49406871       0.25182276       0.87407293 </v>
   <v>       0.50640382       0.75148062       0.36803567 </v>
   <v>       0.50948387       0.74778133       0.87652705 </v>
   <v>       0.25005638       0.99232672       0.12506974 </v>
   <v>       0.24981334       0.00131821       0.62712818 </v>
   <v>       0.25560903       0.50392827       0.12250309 </v>
   <v>       0.25376447       0.49557882       0.62810286 </v>
   <v>       0.75251057       0.98927570       0.12526206 </v>
   <v>       0.75020257       0.99301975       0.62588050 </v>
   <v>       0.74397210       0.50743378       0.12135822 </v>
   <v>       0.74532628       0.51534356       0.62714144 </v>
   <v>       0.25448271       0.99898970       0.37419098 </v>
   <v>       0.24676083       0.99762890       0.87434560 </v>
   <v>       0.25378084       0.49963235       0.36965577 </v>
   <v>       0.25458339       0.49953004       0.87937029 </v>
   <v>       0.74990876       0.99813905       0.37410494 </v>
   <v>       0.75129916       0.98914627       0.87378774 </v>
   <v>       0.74604672       0.50168600       0.37792968 </v>
   <v>       0.74338116       0.51533275       0.87177384 </v>
   <v>       0.99955768       0.99890915       0.00152716 </v>
   <v>       0.99549484       0.00380555       0.49904574 </v>
   <v>       0.99885292       0.50275494       0.00078971 </v>
   <v>       0.99936022       0.50187688       0.50082407 </v>
   <v>       0.50174317       0.99844736       0.00082551 </v>
   <v>       0.50264551       0.99797125       0.49964254 </v>
   <v>       0.50199276       0.50023200       0.99932404 </v>
   <v>       0.50737632       0.48676350       0.50031403 </v>
   <v>       0.25025962       0.24911544       0.00049400 </v>
   <v>       0.24845973       0.24964108       0.49899411 </v>
   <v>       0.24864123       0.74938329       0.99717746 </v>
   <v>       0.23637082       0.75655864       0.50072262 </v>
   <v>       0.74987670       0.25008237       0.98925276 </v>
   <v>       0.75428901       0.24753353       0.50210143 </v>
   <v>       0.25343658       0.24462691       0.24991801 </v>
   <v>       0.25230379       0.25126881       0.75022002 </v>
   <v>       0.74290852       0.24805923       0.74501114 </v>
   <v>       0.00060696       0.99865202       0.24977074 </v>
   <v>       0.99862539       0.99834482       0.74985035 </v>
   <v>       0.01062474       0.49212566       0.24858588 </v>
   <v>       0.99239551       0.48526730       0.75074646 </v>
   <v>       0.49945817       0.99974473       0.24812920 </v>
   <v>       0.50213214       0.99971888       0.75144294 </v>
   <v>       0.50034572       0.50061685       0.24830221 </v>
   <v>       0.75118000       0.74922471       0.00135365 </v>
   <v>       0.75023227       0.75004842       0.49786489 </v>
   <v>       0.25128446       0.75018337       0.25043317 </v>
   <v>       0.26429485       0.75599723       0.75094030 </v>
   <v>       0.74885836       0.25128428       0.26005713 </v>
   <v>       0.74312695       0.76032506       0.24955049 </v>
   <v>       0.74919027       0.75209625       0.75093677 </v>
   <v>       0.49727424       0.50211501       0.75006585 </v>
   <v>       0.11113280       0.14249798       0.25130884 </v>
   <v>       0.11095207       0.13970271       0.74951099 </v>
   <v>       0.09757985       0.64211614       0.25441048 </v>
   <v>       0.61293044       0.13921036       0.24161333 </v>
   <v>       0.60644146       0.14359385       0.74942174 </v>
   <v>       0.61981454       0.63050311       0.24992399 </v>
   <v>       0.61388730       0.63570121       0.75106201 </v>
   <v>       0.38685911       0.35983745       0.25187493 </v>
   <v>       0.39105386       0.35583004       0.74702230 </v>
   <v>       0.39053880       0.86254559       0.25177664 </v>
   <v>       0.39338356       0.86293445       0.75467823 </v>
   <v>       0.87719686       0.37572069       0.23940349 </v>
   <v>       0.89164183       0.35611921       0.74889782 </v>
   <v>       0.89079220       0.86308732       0.24967581 </v>
   <v>       0.88632773       0.86748396       0.75091209 </v>
   <v>       0.35973771       0.11053154       0.25015408 </v>
   <v>       0.35845223       0.10925023       0.75086216 </v>
   <v>       0.36154395       0.60990396       0.24646317 </v>
   <v>       0.35054444       0.60594370       0.75634057 </v>
   <v>       0.86232086       0.12129589       0.23745331 </v>
   <v>       0.85907394       0.11194420       0.74986430 </v>
   <v>       0.88300247       0.61874153       0.74993512 </v>
   <v>       0.13953432       0.38997187       0.24847841 </v>
   <v>       0.14451407       0.39759436       0.75137750 </v>
   <v>       0.13987940       0.89139961       0.25846889 </v>
   <v>       0.13242318       0.87755255       0.74501637 </v>
   <v>       0.63426325       0.38375793       0.24627725 </v>
   <v>       0.64353296       0.38929539       0.74315909 </v>
   <v>       0.63673504       0.89102280       0.25246354 </v>
   <v>       0.63711111       0.89304955       0.74827892 </v>
   <v>       0.36245063       0.38641157       0.00151923 </v>
   <v>       0.35381985       0.39867238       0.49891772 </v>
   <v>       0.36181719       0.88731354       0.99195864 </v>
   <v>       0.36399850       0.88049774       0.50406719 </v>
   <v>       0.86059641       0.38453116       0.00677791 </v>
   <v>       0.85575382       0.39395385       0.50808952 </v>
   <v>       0.86478738       0.89020160       0.00095670 </v>
   <v>       0.86228981       0.89334081       0.49802928 </v>
   <v>       0.13851929       0.11246918       0.99930350 </v>
   <v>       0.14309561       0.10632632       0.49943448 </v>
   <v>       0.13840110       0.60931737       0.00360433 </v>
   <v>       0.14643649       0.60391207       0.49395492 </v>
   <v>       0.64219282       0.11672717       0.01363091 </v>
   <v>       0.64302106       0.10997199       0.49978244 </v>
   <v>       0.63594596       0.61060808       0.00024063 </v>
   <v>       0.62554471       0.61434029       0.49754840 </v>
   <v>       0.11056049       0.36140598       0.00383379 </v>
   <v>       0.10363020       0.35605974       0.49626061 </v>
   <v>       0.11117981       0.86278859       0.99832133 </v>
   <v>       0.10650417       0.85872585       0.49624490 </v>
   <v>       0.61837200       0.35847683       0.01529209 </v>
   <v>       0.60706612       0.35528804       0.50116581 </v>
   <v>       0.61225471       0.86421974       0.00651137 </v>
   <v>       0.61188436       0.86373839       0.49220321 </v>
   <v>       0.38884414       0.13888192       0.99884062 </v>
   <v>       0.39018054       0.14197330       0.50016659 </v>
   <v>       0.38738343       0.63671135       0.99581331 </v>
   <v>       0.88589884       0.14213620       0.01076286 </v>
   <v>       0.89495304       0.14611838       0.50091269 </v>
   <v>       0.88950452       0.63474006       0.99473859 </v>
   <v>       0.89319738       0.63790343       0.50405191 </v>
   <v>       0.00962332       0.99747954       0.12553720 </v>
   <v>       0.99990468       0.00154231       0.62326532 </v>
   <v>       0.99138435       0.51446909       0.12781953 </v>
   <v>       0.01594417       0.50847720       0.62852950 </v>
   <v>       0.49024906       0.99689064       0.12481081 </v>
   <v>       0.50059861       0.00126484       0.62479535 </v>
   <v>       0.49540749       0.50218199       0.12488094 </v>
   <v>       0.48637908       0.51570543       0.61858570 </v>
   <v>       0.99229041       0.00986558       0.37471629 </v>
   <v>       0.99918819       0.00587355       0.87576184 </v>
   <v>       0.98102078       0.50136561       0.37115566 </v>
   <v>       0.00872820       0.50115744       0.87325704 </v>
   <v>       0.49766942       0.00777667       0.37444428 </v>
   <v>       0.51124085       0.00684385       0.87673049 </v>
   <v>       0.49040687       0.50732431       0.37764642 </v>
   <v>       0.50750880       0.48744572       0.87795715 </v>
   <v>       0.25005699       0.24970143       0.37475440 </v>
   <v>       0.24815444       0.25180335       0.87511356 </v>
   <v>       0.27179258       0.73569323       0.38286040 </v>
   <v>       0.23026121       0.74198257       0.87266582 </v>
   <v>       0.75394546       0.25217926       0.37879067 </v>
   <v>       0.74638305       0.25051918       0.87409558 </v>
   <v>       0.76616852       0.73283746       0.36931246 </v>
   <v>       0.74777040       0.75278271       0.87562588 </v>
   <v>       0.25043113       0.24874761       0.12587118 </v>
   <v>       0.24672026       0.25058636       0.62397820 </v>
   <v>       0.24996722       0.75311170       0.12263390 </v>
   <v>       0.25287304       0.73356787       0.62233630 </v>
   <v>       0.74979662       0.24349188       0.62434922 </v>
   <v>       0.76530104       0.73663699       0.13021138 </v>
   <v>       0.74918022       0.75109226       0.62362390 </v>
  </varray>
 </structure>
 <calculation>
  <scstep>
   <time name="dav">  599.43  599.43</time>
   <time name="total">  606.51  606.64</time>
   <energy>
    <i name="alphaZ">   5624.20723802 </i>
    <i name="ewald"> -61332.11694416 </i>
    <i name="hartreedc"> -16196.06254670 </i>
    <i name="XCdc">   2962.87102861 </i>
    <i name="pawpsdc"> 112758.53234108 </i>
    <i name="pawaedc">-111657.85726777 </i>
    <i name="eentropy">     -0.00000000 </i>
    <i name="bandstr">  -7062.19312413 </i>
    <i name="atom">  73783.44779670 </i>
    <i name="e_fr_energy">  -1119.17147835 </i>
    <i name="e_wo_entrp">  -1119.17147835 </i>
    <i name="e_0_energy">  -1119.17147835 </i>
   </energy>
  </scstep>
  <scstep>
   <time name="diag">   64.74   64.75</time>
   <time name="diis">   63.28   63.32</time>
   <time name="orth">   33.37   33.37</time>
   <time name="total">  168.55  168.60</time>
   <energy>
    <i name="e_fr_energy">  -1119.17147849 </i>
    <i name="e_wo_entrp">  -1119.17147849 </i>
    <i name="e_0_energy">  -1119.17147849 </i>
   </energy>
  </scstep>
  <scstep>
   <time name="diag">   64.78   64.78</time>
   <time name="diis">   60.88   60.90</time>
   <time name="orth">   33.29   33.30</time>
   <time name="total">  166.08  166.17</time>
   <energy>
    <i name="e_fr_energy">  -1119.17147861 </i>
    <i name="e_wo_entrp">  -1119.17147861 </i>
    <i name="e_0_energy">  -1119.17147861 </i>
   </energy>
  </scstep>
  <scstep>
   <time name="diag">   64.80   64.81</time>
   <time name="diis">   52.00   52.00</time>
   <time name="orth">   33.32   33.32</time>
   <time name="total">  157.27  157.34</time>
   <energy>
    <i name="e_fr_energy">  -1119.17147916 </i>
    <i name="e_wo_entrp">  -1119.17147916 </i>
    <i name="e_0_energy">  -1119.17147916 </i>
   </energy>
  </scstep>
  <scstep>
   <time name="diag">   64.80   64.81</time>
   <time name="diis">   51.23   51.24</time>
   <time name="orth">   33.29   33.29</time>
   <time name="total">  156.48  156.55</time>
   <energy>
    <i name="e_fr_energy">  -1119.17147957 </i>
    <i name="e_wo_entrp">  -1119.17147957 </i>
    <i name="e_0_energy">  -1119.17147957 </i>
   </energy>
  </scstep>
  <scstep>
   <time name="diag">   64.78   64.78</time>
   <time name="diis">   47.53   47.53</time>
   <time name="orth">   33.30   33.30</time>
   <time name="total">  152.78  152.84</time>
   <energy>
    <i name="e_fr_energy">  -1119.17147986 </i>
    <i name="e_wo_entrp">  -1119.17147986 </i>
    <i name="e_0_energy">  -1119.17147986 </i>
   </energy>
  </scstep>
  <scstep>
   <time name="diag">   64.72   64.72</time>
   <time name="diis">   46.32   46.33</time>
   <time name="orth">   33.34   33.34</time>
   <time name="total">  151.54  151.56</time>
   <energy>
    <i name="e_fr_energy">  -1119.17147994 </i>
    <i name="e_wo_entrp">  -1119.17147994 </i>
    <i name="e_0_energy">  -1119.17147994 </i>
   </energy>
  </scstep>
  <scstep>
   <time name="diag">   64.64   64.66</time>
   <time name="diis">   44.95   44.96</time>
   <time name="orth">   33.34   33.34</time>
   <time name="total">  143.99  144.09</time>
   <energy>
    <i name="alphaZ">   5624.20723802 </i>
    <i name="ewald"> -61332.11694416 </i>
    <i name="hartreedc"> -16196.07547149 </i>
    <i name="XCdc">   2962.86988797 </i>
    <i name="pawpsdc"> 112757.48730813 </i>
    <i name="pawaedc">-111656.80609461 </i>
    <i name="eentropy">     -0.00000000 </i>
    <i name="bandstr">  -7062.18520054 </i>
    <i name="atom">  73783.44779670 </i>
    <i name="e_fr_energy">  -1119.17147999 </i>
    <i name="e_wo_entrp">  -1119.17147999 </i>
    <i name="e_0_energy">  -1119.17147999 </i>
   </energy>
  </scstep>
  <structure>
   <crystal>
    <varray name="basis" >
     <v>      11.21810283       0.00216867      -0.00808398 </v>
     <v>       0.00218418      11.21133177       0.00093034 </v>
     <v>      -0.01154147       0.00132480      15.95429383 </v>
    </varray>
    <i name="volume">   2006.56836782 </i>
    <varray name="rec_basis" >
     <v>       0.08914168      -0.00001737       0.00006449 </v>
     <v>      -0.00001725       0.08919547      -0.00000742 </v>
     <v>       0.00004517      -0.00000521       0.06267908 </v>
    </varray>
   </crystal>
   <varray name="positions" >
    <v>       0.00739988       0.24633804       0.12582105 </v>
    <v>       0.00320196       0.24585516       0.62450719 </v>
    <v>       0.00265817       0.75228802       0.12184859 </v>
    <v>       0.98444726       0.75554358       0.62572594 </v>
    <v>       0.49198486       0.24910010       0.12495873 </v>
    <v>       0.49654396       0.24547753       0.62687637 </v>
    <v>       0.49629042       0.74735564       0.12467777 </v>
    <v>       0.51372973       0.75301994       0.63081407 </v>
    <v>       0.99996677       0.24834459       0.37282302 </v>
    <v>       0.00643308       0.24468385       0.87744998 </v>
    <v>       0.99404528       0.75308419       0.37486815 </v>
    <v>       0.99047312       0.75491196       0.87786182 </v>
    <v>       0.49953917       0.24452859       0.37117519 </v>
    <v>       0.49406871       0.25182276       0.87407293 </v>
    <v>       0.50640382       0.75148062       0.36803567 </v>
    <v>       0.50948387       0.74778133       0.87652705 </v>
    <v>       0.25005638       0.99232672       0.12506974 </v>
    <v>       0.24981334       0.00131821       0.62712818 </v>
    <v>       0.25560903       0.50392827       0.12250309 </v>
    <v>       0.25376447       0.49557882       0.62810286 </v>
    <v>       0.75251057       0.98927570       0.12526206 </v>
    <v>       0.75020257       0.99301975       0.62588050 </v>
    <v>       0.74397210       0.50743378       0.12135822 </v>
    <v>       0.74532628       0.51534356       0.62714144 </v>
    <v>       0.25448271       0.99898970       0.37419098 </v>
    <v>       0.24676083       0.99762890       0.87434560 </v>
    <v>       0.25378084       0.49963235       0.36965577 </v>
    <v>       0.25458339       0.49953004       0.87937029 </v>
    <v>       0.74990876       0.99813905       0.37410494 </v>
    <v>       0.75129916       0.98914627       0.87378774 </v>
    <v>       0.74604672       0.50168600       0.37792968 </v>
    <v>       0.74338116       0.51533275       0.87177384 </v>
    <v>       0.99955768       0.99890915       0.00152716 </v>
    <v>       0.99549484       0.00380555       0.49904574 </v>
    <v>       0.99885292       0.50275494       0.00078971 </v>
    <v>       0.99936022       0.50187688       0.50082407 </v>
    <v>       0.50174317       0.99844736       0.00082551 </v>
    <v>       0.50264551       0.99797125       0.49964254 </v>
    <v>       0.50199276       0.50023200       0.99932404 </v>
    <v>       0.50737632       0.48676350       0.50031403 </v>
    <v>       0.25025962       0.24911544       0.00049400 </v>
    <v>       0.24845973       0.24964108       0.49899411 </v>
    <v>       0.24864123       0.74938329       0.99717746 </v>
    <v>       0.23637082       0.75655864       0.50072262 </v>
    <v>       0.74987670       0.25008237       0.98925276 </v>
    <v>       0.75428901       0.24753353       0.50210143 </v>
    <v>       0.25343658       0.24462691       0.24991801 </v>
    <v>       0.25230379       0.25126881       0.75022002 </v>
    <v>       0.74290852       0.24805923       0.74501114 </v>
    <v>       0.00060696       0.99865202       0.24977074 </v>
    <v>       0.99862539       0.99834482       0.74985035 </v>
    <v>       0.01062474       0.49212566       0.24858588 </v>
    <v>       0.99239551       0.48526730       0.75074646 </v>
    <v>       0.49945817       0.99974473       0.24812920 </v>
    <v>       0.50213214       0.99971888       0.75144294 </v>
    <v>       0.50034572       0.50061685       0.24830221 </v>
    <v>       0.75118000       0.74922471       0.00135365 </v>
    <v>       0.75023227       0.75004842       0.49786489 </v>
    <v>       0.25128446       0.75018337       0.25043317 </v>
    <v>       0.26429485       0.75599723       0.75094030 </v>
    <v>       0.74885836       0.25128428       0.26005713 </v>
    <v>       0.74312695       0.76032506       0.24955049 </v>
    <v>       0.74919027       0.75209625       0.75093677 </v>
    <v>       0.49727424       0.50211501       0.75006585 </v>
    <v>       0.11113280       0.14249798       0.25130884 </v>
    <v>       0.11095207       0.13970271       0.74951099 </v>
    <v>       0.09757985       0.64211614       0.25441048 </v>
    <v>       0.61293044       0.13921036       0.24161333 </v>
    <v>       0.60644146       0.14359385       0.74942174 </v>
    <v>       0.61981454       0.63050311       0.24992399 </v>
    <v>       0.61388730       0.63570121       0.75106201 </v>
    <v>       0.38685911       0.35983745       0.25187493 </v>
    <v>       0.39105386       0.35583004       0.74702230 </v>
    <v>       0.39053880       0.86254559       0.25177664 </v>
    <v>       0.39338356       0.86293445       0.75467823 </v>
    <v>       0.87719686       0.37572069       0.23940349 </v>
    <v>       0.89164183       0.35611921       0.74889782 </v>
    <v>       0.89079220       0.86308732       0.24967581 </v>
    <v>       0.88632773       0.86748396       0.75091209 </v>
    <v>       0.35973771       0.11053154       0.25015408 </v>
    <v>       0.35845223       0.10925023       0.75086216 </v>
    <v>       0.36154395       0.60990396       0.24646317 </v>
    <v>       0.35054444       0.60594370       0.75634057 </v>
    <v>       0.86232086       0.12129589       0.23745331 </v>
    <v>       0.85907394       0.11194420       0.74986430 </v>
    <v>       0.88300247       0.61874153       0.74993512 </v>
    <v>       0.13953432       0.38997187       0.24847841 </v>
    <v>       0.14451407       0.39759436       0.75137750 </v>
    <v>       0.13987940       0.89139961       0.25846889 </v>
    <v>       0.13242318       0.87755255       0.74501637 </v>
    <v>       0.63426325       0.38375793       0.24627725 </v>
    <v>       0.64353296       0.38929539       0.74315909 </v>
    <v>       0.63673504       0.89102280       0.25246354 </v>
    <v>       0.63711111       0.89304955       0.74827892 </v>
    <v>       0.36245063       0.38641157       0.00151923 </v>
    <v>       0.35381985       0.39867238       0.49891772 </v>
    <v>       0.36181719       0.88731354       0.99195864 </v>
    <v>       0.36399850       0.88049774       0.50406719 </v>
    <v>       0.86059641       0.38453116       0.00677791 </v>
    <v>       0.85575382       0.39395385       0.50808952 </v>
    <v>       0.86478738       0.89020160       0.00095670 </v>
    <v>       0.86228981       0.89334081       0.49802928 </v>
    <v>       0.13851929       0.11246918       0.99930350 </v>
    <v>       0.14309561       0.10632632       0.49943448 </v>
    <v>       0.13840110       0.60931737       0.00360433 </v>
    <v>       0.14643649       0.60391207       0.49395492 </v>
    <v>       0.64219282       0.11672717       0.01363091 </v>
    <v>       0.64302106       0.10997199       0.49978244 </v>
    <v>       0.63594596       0.61060808       0.00024063 </v>
    <v>       0.62554471       0.61434029       0.49754840 </v>
    <v>       0.11056049       0.36140598       0.00383379 </v>
    <v>       0.10363020       0.35605974       0.49626061 </v>
    <v>       0.11117981       0.86278859       0.99832133 </v>
    <v>       0.10650417       0.85872585       0.49624490 </v>
    <v>       0.61837200       0.35847683       0.01529209 </v>
    <v>       0.60706612       0.35528804       0.50116581 </v>
    <v>       0.61225471       0.86421974       0.00651137 </v>
    <v>       0.61188436       0.86373839       0.49220321 </v>
    <v>       0.38884414       0.13888192       0.99884062 </v>
    <v>       0.39018054       0.14197330       0.50016659 </v>
    <v>       0.38738343       0.63671135       0.99581331 </v>
    <v>       0.88589884       0.14213620       0.01076286 </v>
    <v>       0.89495304       0.14611838       0.50091269 </v>
    <v>       0.88950452       0.63474006       0.99473859 </v>
    <v>       0.89319738       0.63790343       0.50405191 </v>
    <v>       0.00962332       0.99747954       0.12553720 </v>
    <v>       0.99990468       0.00154231       0.62326532 </v>
    <v>       0.99138435       0.51446909       0.12781953 </v>
    <v>       0.01594417       0.50847720       0.62852950 </v>
    <v>       0.49024906       0.99689064       0.12481081 </v>
    <v>       0.50059861       0.00126484       0.62479535 </v>
    <v>       0.49540749       0.50218199       0.12488094 </v>
    <v>       0.48637908       0.51570543       0.61858570 </v>
    <v>       0.99229041       0.00986558       0.37471629 </v>
    <v>       0.99918819       0.00587355       0.87576184 </v>
    <v>       0.98102078       0.50136561       0.37115566 </v>
    <v>       0.00872820       0.50115744       0.87325704 </v>
    <v>       0.49766942       0.00777667       0.37444428 </v>
    <v>       0.51124085       0.00684385       0.87673049 </v>
    <v>       0.49040687       0.50732431       0.37764642 </v>
    <v>       0.50750880       0.48744572       0.87795715 </v>
    <v>       0.25005699       0.24970143       0.37475440 </v>
    <v>       0.24815444       0.25180335       0.87511356 </v>
    <v>       0.27179258       0.73569323       0.38286040 </v>
    <v>       0.23026121       0.74198257       0.87266582 </v>
    <v>       0.75394546       0.25217926       0.37879067 </v>
    <v>       0.74638305       0.25051918       0.87409558 </v>
    <v>       0.76616852       0.73283746       0.36931246 </v>
    <v>       0.74777040       0.75278271       0.87562588 </v>
    <v>       0.25043113       0.24874761       0.12587118 </v>
    <v>       0.24672026       0.25058636       0.62397820 </v>
    <v>       0.24996722       0.75311170       0.12263390 </v>
    <v>       0.25287304       0.73356787       0.62233630 </v>
    <v>       0.74979662       0.24349188       0.62434922 </v>
    <v>       0.76530104       0.73663699       0.13021138 </v>
    <v>       0.74918022       0.75109226       0.62362390 </v>
   </varray>
  </structure>
  <varray name="forces" >
   <v>      -0.00766492      -0.00877060      -0.01270577 </v>
   <v>       0.00346377       0.01511820      -0.01825029 </v>
   <v>       0.02224549      -0.00587483       0.02682208 </v>
   <v>       0.01022081       0.01238474      -0.01330141 </v>
   <v>       0.01126045       0.00195486       0.00840219 </v>
   <v>      -0.00094059      -0.00931735      -0.00915779 </v>
   <v>      -0.01010499       0.00582562       0.00572523 </v>
   <v>      -0.00217184       0.00972525      -0.00103726 </v>
   <v>      -0.00760355       0.00851491       0.02406141 </v>
   <v>      -0.00735576       0.00442635      -0.00129564 </v>
   <v>       0.02852086      -0.00994174       0.00623869 </v>
   <v>       0.01019456       0.02085094       0.00330562 </v>
   <v>       0.00046423      -0.00514592       0.00892292 </v>
   <v>      -0.00840787       0.00359338      -0.00802346 </v>
   <v>      -0.00648443       0.00767866       0.00175573 </v>
   <v>      -0.00762871      -0.00331294       0.00152165 </v>
   <v>       0.00348119      -0.01699536      -0.00385158 </v>
   <v>       0.00670885       0.00389289      -0.00436826 </v>
   <v>       0.00817084       0.00548709      -0.00267758 </v>
   <v>      -0.00425036       0.01904958      -0.01163230 </v>
   <v>      -0.01338841      -0.00597049       0.00682995 </v>
   <v>      -0.00377482      -0.01841450      -0.01407626 </v>
   <v>      -0.00110107      -0.01822804       0.00511951 </v>
   <v>       0.00828317       0.01527205       0.00064565 </v>
   <v>      -0.01236596      -0.01919985      -0.00711885 </v>
   <v>       0.00893793      -0.01487143       0.00712172 </v>
   <v>      -0.02088482       0.02332099       0.01697885 </v>
   <v>       0.01061955       0.02042649      -0.01039564 </v>
   <v>      -0.00579609      -0.00912534       0.01064682 </v>
   <v>       0.00305085      -0.01651577      -0.00624893 </v>
   <v>      -0.00492251      -0.00962786      -0.00341013 </v>
   <v>       0.00452036       0.00416753       0.01123234 </v>
   <v>      -0.01509997      -0.01473260      -0.00421908 </v>
   <v>       0.00214643      -0.01556954      -0.02564180 </v>
   <v>       0.01459076      -0.03204590      -0.00525223 </v>
   <v>       0.00347555       0.00014227      -0.00755614 </v>
   <v>      -0.00648629      -0.00658084      -0.01920674 </v>
   <v>       0.00842381      -0.00826980      -0.00479864 </v>
   <v>       0.00472623      -0.00567122       0.01178749 </v>
   <v>       0.01010455       0.00117909      -0.01157597 </v>
   <v>       0.01878371       0.02152809      -0.00208478 </v>
   <v>       0.00808067       0.02565580       0.01050922 </v>
   <v>       0.01757852      -0.01922541      -0.01093549 </v>
   <v>      -0.03616252       0.02110502      -0.02392930 </v>
   <v>       0.02920124       0.05176468       0.03332066 </v>
   <v>       0.00437429      -0.00653653      -0.03884859 </v>
   <v>      -0.01441383      -0.00168021      -0.00899643 </v>
   <v>       0.02543952       0.01957658      -0.00558446 </v>
   <v>      -0.00487197       0.00570617       0.03417614 </v>
   <v>      -0.01892466      -0.02405327       0.02925796 </v>
   <v>      -0.01179813      -0.02406853      -0.01203730 </v>
   <v>      -0.01335759       0.06013024       0.04610187 </v>
   <v>      -0.00866389       0.04795275      -0.02308929 </v>
   <v>       0.02820646      -0.03226541       0.00182551 </v>
   <v>       0.01833100      -0.01117034       0.00511910 </v>
   <v>       0.00812835       0.01697751       0.00221394 </v>
   <v>      -0.01740015      -0.00172367       0.00771715 </v>
   <v>      -0.01045632      -0.00244334      -0.00598346 </v>
   <v>      -0.01569661      -0.01029164       0.01195319 </v>
   <v>      -0.00555273      -0.02368680       0.01551573 </v>
   <v>      -0.00584781       0.00451296       0.00059725 </v>
   <v>      -0.01030805       0.01947648       0.00322519 </v>
   <v>       0.01800327       0.00637104      -0.01192765 </v>
   <v>       0.00566260       0.00047519      -0.00605440 </v>
   <v>       0.02704959      -0.02497740       0.00228096 </v>
   <v>       0.02064170      -0.01538112       0.01396373 </v>
   <v>      -0.02166308      -0.01836713      -0.01304880 </v>
   <v>       0.01458630       0.00534964       0.01008881 </v>
   <v>       0.04726505       0.03453856       0.00333413 </v>
   <v>      -0.00931121      -0.02448190       0.00186501 </v>
   <v>       0.00856156      -0.00906314       0.00544485 </v>
   <v>      -0.02361700       0.01685538      -0.01748532 </v>
   <v>      -0.02238387       0.01749976       0.01123585 </v>
   <v>      -0.01166202      -0.01100944      -0.00485904 </v>
   <v>       0.00860250      -0.00243974       0.00083755 </v>
   <v>      -0.03395082       0.01374342      -0.00482123 </v>
   <v>      -0.04478486      -0.03066878      -0.00328490 </v>
   <v>       0.00407844       0.00998626       0.00109902 </v>
   <v>       0.00932120       0.05351060      -0.00088161 </v>
   <v>       0.01214368       0.01069035       0.00385706 </v>
   <v>       0.01069675       0.02140571       0.01540385 </v>
   <v>      -0.00697371      -0.00654546      -0.02530977 </v>
   <v>      -0.00094329       0.01246337      -0.00984010 </v>
   <v>      -0.00691183       0.01006516      -0.00001860 </v>
   <v>      -0.02140393       0.04709739       0.01675703 </v>
   <v>       0.01764546      -0.01149147       0.01565678 </v>
   <v>      -0.00162150      -0.04699962      -0.00946730 </v>
   <v>      -0.01321258      -0.01114520       0.01005816 </v>
   <v>      -0.00866696      -0.01782398      -0.01941352 </v>
   <v>       0.01485971       0.02674160      -0.00463860 </v>
   <v>      -0.01858220      -0.02424309      -0.00469134 </v>
   <v>       0.00621272      -0.01789408      -0.02166598 </v>
   <v>      -0.01843256      -0.01627079      -0.00591466 </v>
   <v>      -0.01577888      -0.00278715       0.00473242 </v>
   <v>       0.02666194      -0.03379319      -0.01011237 </v>
   <v>       0.00099606      -0.01439180       0.00593072 </v>
   <v>       0.00190956      -0.00096462       0.00058585 </v>
   <v>      -0.01514225       0.00009192       0.00662572 </v>
   <v>       0.00389009      -0.01901378       0.01539892 </v>
   <v>       0.01779261      -0.01232866       0.01514163 </v>
   <v>       0.03098681      -0.00480222       0.00174546 </v>
   <v>      -0.00116053      -0.00568087       0.00506444 </v>
   <v>      -0.02960049       0.00189652      -0.00425612 </v>
   <v>      -0.01014767       0.03932471      -0.00547779 </v>
   <v>      -0.01283005      -0.01657916       0.00607228 </v>
   <v>       0.01346312       0.00311980       0.03385767 </v>
   <v>       0.00701922      -0.02108275       0.00659549 </v>
   <v>       0.00644389      -0.00827062      -0.00550751 </v>
   <v>      -0.00760642       0.01633556      -0.00756973 </v>
   <v>       0.00090579       0.01340717       0.00248304 </v>
   <v>       0.01328244       0.02217085       0.00727568 </v>
   <v>       0.02066170       0.02455518       0.00362262 </v>
   <v>      -0.00045707       0.01726500       0.00885457 </v>
   <v>       0.02863998      -0.00646772       0.00445121 </v>
   <v>       0.02352219      -0.01022455       0.00773823 </v>
   <v>       0.02489759      -0.00436595      -0.00730830 </v>
   <v>       0.00047493       0.00871186       0.00701303 </v>
   <v>      -0.00129041       0.02960581       0.01916612 </v>
   <v>      -0.01449925      -0.02122193      -0.00400171 </v>
   <v>      -0.00633493      -0.01768556       0.00512987 </v>
   <v>      -0.00255378       0.00108027      -0.00789696 </v>
   <v>       0.00081109      -0.00868564      -0.02741791 </v>
   <v>      -0.02252708       0.01798116       0.01123881 </v>
   <v>      -0.00539980      -0.01351481      -0.01390765 </v>
   <v>      -0.00688487      -0.01421050      -0.01694011 </v>
   <v>      -0.01628871       0.00615140      -0.01885639 </v>
   <v>       0.00368307       0.02426664       0.01974246 </v>
   <v>      -0.01289407       0.00679216      -0.02530797 </v>
   <v>      -0.01936395      -0.00090105      -0.00031156 </v>
   <v>       0.00105957      -0.00030268      -0.02173068 </v>
   <v>      -0.00442989       0.02067888      -0.00000370 </v>
   <v>      -0.02194563       0.00698947       0.01163895 </v>
   <v>       0.01454100      -0.00281905       0.03511707 </v>
   <v>       0.00327037       0.00996239      -0.01361527 </v>
   <v>       0.00792747      -0.01474074       0.00750920 </v>
   <v>       0.00413995       0.00445503      -0.00515630 </v>
   <v>       0.00105408      -0.00119361       0.02272006 </v>
   <v>      -0.00132022      -0.00254748       0.01399285 </v>
   <v>       0.00172057       0.01198050       0.01863464 </v>
   <v>      -0.00721822      -0.00928802      -0.02540561 </v>
   <v>       0.00000746      -0.00218693      -0.03177294 </v>
   <v>      -0.00174710       0.00178745      -0.00402597 </v>
   <v>       0.00556648       0.00038737       0.00425713 </v>
   <v>      -0.00059509      -0.00282611       0.02136992 </v>
   <v>      -0.01509687      -0.03112062      -0.01813855 </v>
   <v>       0.00706859      -0.00395288      -0.01195673 </v>
   <v>      -0.01583800       0.00819427      -0.06084673 </v>
   <v>      -0.01819884       0.00841597      -0.00131793 </v>
   <v>       0.00520387       0.00061596       0.03179282 </v>
   <v>      -0.00759890      -0.01892716      -0.00328427 </v>
   <v>       0.01058083      -0.00905899       0.01038370 </v>
   <v>       0.01092802       0.00307526       0.00819920 </v>
   <v>       0.00036662      -0.00785946       0.01704232 </v>
   <v>      -0.00100552      -0.00587797       0.02958410 </v>
   <v>       0.01200534      -0.01634215      -0.03066458 </v>
   <v>       0.00121629      -0.00734336      -0.01783677 </v>
  </varray>
  <varray name="stress" >
   <v>      -0.00997987      -0.00371337       0.05033493 </v>
   <v>      -0.00371356      -0.11739361      -0.08001981 </v>
   <v>       0.05033453      -0.08002000      -0.12105307 </v>
  </varray>
  <energy>
   <i name="e_fr_energy">  -1119.17147999 </i>
   <i name="e_wo_entrp">  -1119.17147999 </i>
   <i name="e_0_energy">     -0.00000000 </i>
  </energy>
  <time name="totalsc"> 1968.59 1972.55</time>
 </calculation>
 <calculation>
  <scstep>
   <time name="dav">  581.30  581.44</time>
   <time name="total">  588.38  588.61</time>
   <energy>
    <i name="alphaZ">   5624.74842323 </i>
    <i name="ewald"> -61334.77502628 </i>
    <i name="hartreedc"> -16195.96606115 </i>
    <i name="XCdc">   2962.99064751 </i>
    <i name="pawpsdc"> 112757.46984148 </i>
    <i name="pawaedc">-111656.78811144 </i>
    <i name="eentropy">     -0.00000000 </i>
    <i name="bandstr">  -7060.29912041 </i>
    <i name="atom">  73783.44779670 </i>
    <i name="e_fr_energy">  -1119.17161038 </i>
    <i name="e_wo_entrp">  -1119.17161038 </i>
    <i name="e_0_energy">  -1119.17161038 </i>
   </energy>
  </scstep>
  <scstep>
   <time name="diag">   64.66   64.69</time>
   <time name="diis">  104.51  104.54</time>
   <time name="orth">   33.32   33.32</time>
   <time name="total">  209.69  209.75</time>
   <energy>
    <i name="e_fr_energy">  -1119.17394877 </i>
    <i name="e_wo_entrp">  -1119.17394877 </i>
    <i name="e_0_energy">  -1119.17394877 </i>
   </energy>
  </scstep>
  <scstep>
   <time name="diag">   64.50   64.52</time>
   <time name="diis">  107.08  107.13</time>
   <time name="orth">   33.23   33.23</time>
   <time name="total">  212.02  212.13</time>
   <energy>
    <i name="e_fr_energy">  -1119.17381902 </i>
    <i name="e_wo_entrp">  -1119.17381902 </i>
    <i name="e_0_energy">  -1119.17381902 </i>
   </energy>
  </scstep>
  <scstep>
   <time name="diag">   64.58   64.59</time>
   <time name="diis">   93.94   93.96</time>
   <time name="orth">   33.23   33.23</time>
   <time name="total">  198.96  199.06</time>
   <energy>
    <i name="e_fr_energy">  -1119.17360171 </i>
    <i name="e_wo_entrp">  -1119.17360171 </i>
    <i name="e_0_energy">  -1119.17360171 </i>
   </energy>
  </scstep>
  <scstep>
   <time name="diag">   64.58   64.59</time>
   <time name="diis">   73.35   73.37</time>
   <time name="orth">   33.29   33.29</time>
   <time name="total">  178.42  178.50</time>
   <energy>
    <i name="e_fr_energy">  -1119.17354277 </i>
    <i name="e_wo_entrp">  -1119.17354277 </i>
    <i name="e_0_energy">  -1119.17354277 </i>
   </energy>
  </scstep>
  <scstep>
   <time name="diag">   64.46   64.51</time>
   <time name="diis">   64.42   64.44</time>
   <time name="orth">   33.22   33.23</time>
   <time name="total">  169.28  169.46</time>
   <energy>
    <i name="e_fr_energy">  -1119.17354275 </i>
    <i name="e_wo_entrp">  -1119.17354275 </i>
    <i name="e_0_energy">  -1119.17354275 </i>
   </energy>
  </scstep>
  <scstep>
   <time name="diag">   64.65   64.65</time>
   <time name="diis">   63.13   63.14</time>
   <time name="orth">   33.33   33.33</time>
   <time name="total">  168.23  168.35</time>
   <energy>
    <i name="e_fr_energy">  -1119.17354417 </i>
    <i name="e_wo_entrp">  -1119.17354417 </i>
    <i name="e_0_energy">  -1119.17354417 </i>
   </energy>
  </scstep>
  <scstep>
   <time name="diag">   64.55   64.63</time>
   <time name="diis">   62.80   62.80</time>
   <time name="orth">   33.37   33.37</time>
   <time name="total">  161.76  161.93</time>
   <energy>
    <i name="alphaZ">   5624.74842323 </i>
    <i name="ewald"> -61334.77502628 </i>
    <i name="hartreedc"> -16194.52852333 </i>
    <i name="XCdc">   2962.89627988 </i>
    <i name="pawpsdc"> 112754.45845085 </i>
    <i name="pawaedc">-111653.80156538 </i>
    <i name="eentropy">     -0.00000000 </i>
    <i name="bandstr">  -7061.61938126 </i>
    <i name="atom">  73783.44779670 </i>
    <i name="e_fr_energy">  -1119.17354560 </i>
    <i name="e_wo_entrp">  -1119.17354560 </i>
    <i name="e_0_energy">  -1119.17354560 </i>
   </energy>
  </scstep>
  <structure>
   <crystal>
    <varray name="basis" >
     <v>      11.21805931       0.00215269      -0.00786498 </v>
     <v>       0.00216806      11.21082200       0.00058288 </v>
     <v>      -0.01123040       0.00083030      15.95354556 </v>
    </varray>
    <i name="volume">   2006.37530583 </i>
    <varray name="rec_basis" >
     <v>       0.08914203      -0.00001724       0.00006275 </v>
     <v>      -0.00001712       0.08919953      -0.00000465 </v>
     <v>       0.00004395      -0.00000327       0.06268202 </v>
    </varray>
   </crystal>
   <varray name="positions" >
    <v>       0.00736689       0.24630031       0.12578261 </v>
    <v>       0.00321679       0.24592022       0.62445201 </v>
    <v>       0.00275392       0.75226271       0.12192975 </v>
    <v>       0.98449116       0.75559687       0.62568574 </v>
    <v>       0.49203331       0.24910850       0.12498416 </v>
    <v>       0.49653990       0.24543744       0.62684868 </v>
    <v>       0.49624698       0.74738071       0.12469505 </v>
    <v>       0.51372038       0.75306179       0.63081092 </v>
    <v>       0.99993414       0.24838122       0.37289576 </v>
    <v>       0.00640144       0.24470291       0.87744605 </v>
    <v>       0.99416796       0.75304138       0.37488708 </v>
    <v>       0.99051695       0.75500168       0.87787183 </v>
    <v>       0.49954120       0.24450644       0.37120217 </v>
    <v>       0.49403252       0.25183823       0.87404865 </v>
    <v>       0.50637594       0.75151366       0.36804097 </v>
    <v>       0.50945107       0.74776708       0.87653164 </v>
    <v>       0.25007135       0.99225359       0.12505810 </v>
    <v>       0.24984217       0.00133496       0.62711499 </v>
    <v>       0.25564416       0.50395187       0.12249501 </v>
    <v>       0.25374614       0.49566079       0.62806767 </v>
    <v>       0.75245302       0.98925001       0.12528269 </v>
    <v>       0.75018630       0.99294052       0.62583794 </v>
    <v>       0.74396739       0.50735534       0.12137370 </v>
    <v>       0.74536189       0.51540927       0.62714340 </v>
    <v>       0.25442953       0.99890709       0.37416943 </v>
    <v>       0.24679930       0.99756490       0.87436716 </v>
    <v>       0.25369106       0.49973272       0.36970706 </v>
    <v>       0.25462901       0.49961793       0.87933887 </v>
    <v>       0.74988388       0.99809979       0.37413712 </v>
    <v>       0.75131227       0.98907520       0.87376886 </v>
    <v>       0.74602555       0.50164457       0.37791936 </v>
    <v>       0.74340063       0.51535068       0.87180781 </v>
    <v>       0.99949274       0.99884577       0.00151437 </v>
    <v>       0.99550400       0.00373857       0.49896822 </v>
    <v>       0.99891567       0.50261703       0.00077387 </v>
    <v>       0.99937514       0.50187749       0.50080123 </v>
    <v>       0.50171522       0.99841906       0.00076742 </v>
    <v>       0.50268173       0.99793566       0.49962805 </v>
    <v>       0.50201313       0.50020759       0.99935970 </v>
    <v>       0.50741974       0.48676857       0.50027905 </v>
    <v>       0.25034037       0.24920806       0.00048774 </v>
    <v>       0.24849449       0.24975147       0.49902590 </v>
    <v>       0.24871680       0.74930055       0.99714444 </v>
    <v>       0.23621521       0.75664950       0.50065018 </v>
    <v>       0.75000234       0.25030508       0.98935356 </v>
    <v>       0.75430771       0.24750542       0.50198397 </v>
    <v>       0.25337457       0.24461969       0.24989077 </v>
    <v>       0.25241316       0.25135303       0.75020318 </v>
    <v>       0.74288767       0.24808377       0.74511447 </v>
    <v>       0.00052569       0.99854852       0.24985918 </v>
    <v>       0.99857464       0.99824127       0.74981393 </v>
    <v>       0.01056739       0.49238440       0.24872524 </v>
    <v>       0.99235814       0.48547366       0.75067661 </v>
    <v>       0.49957950       0.99960587       0.24813479 </v>
    <v>       0.50221100       0.99967079       0.75145847 </v>
    <v>       0.50038067       0.50068990       0.24830891 </v>
    <v>       0.75110520       0.74921730       0.00137695 </v>
    <v>       0.75018729       0.75003792       0.49784677 </v>
    <v>       0.25121701       0.75013909       0.25046928 </v>
    <v>       0.26427104       0.75589531       0.75098721 </v>
    <v>       0.74883321       0.25130371       0.26005892 </v>
    <v>       0.74308261       0.76040888       0.24956021 </v>
    <v>       0.74926764       0.75212365       0.75090074 </v>
    <v>       0.49729857       0.50211705       0.75004756 </v>
    <v>       0.11124915       0.14239048       0.25131581 </v>
    <v>       0.11104090       0.13963650       0.74955327 </v>
    <v>       0.09748666       0.64203713       0.25437098 </v>
    <v>       0.61299320       0.13923337       0.24164387 </v>
    <v>       0.60664470       0.14374243       0.74943192 </v>
    <v>       0.61977452       0.63039777       0.24992962 </v>
    <v>       0.61392414       0.63566220       0.75107850 </v>
    <v>       0.38675748       0.35991001       0.25182200 </v>
    <v>       0.39095762       0.35590536       0.74705622 </v>
    <v>       0.39048865       0.86249823       0.25176192 </v>
    <v>       0.39342056       0.86292394       0.75468078 </v>
    <v>       0.87705083       0.37577986       0.23938884 </v>
    <v>       0.89144925       0.35598728       0.74888780 </v>
    <v>       0.89080973       0.86313029       0.24967914 </v>
    <v>       0.88636776       0.86771421       0.75090943 </v>
    <v>       0.35978993       0.11057753       0.25016577 </v>
    <v>       0.35849826       0.10934232       0.75090876 </v>
    <v>       0.36151389       0.60987581       0.24638663 </v>
    <v>       0.35054034       0.60599734       0.75631081 </v>
    <v>       0.86229113       0.12133921       0.23745324 </v>
    <v>       0.85898191       0.11214687       0.74991491 </v>
    <v>       0.88307841       0.61869206       0.74998251 </v>
    <v>       0.13952735       0.38976964       0.24844979 </v>
    <v>       0.14445729       0.39754641       0.75140788 </v>
    <v>       0.13984208       0.89132293       0.25841018 </v>
    <v>       0.13248705       0.87766761       0.74500237 </v>
    <v>       0.63418335       0.38365363       0.24626303 </v>
    <v>       0.64355963       0.38921840       0.74309360 </v>
    <v>       0.63665576       0.89095281       0.25244562 </v>
    <v>       0.63704327       0.89303757       0.74829319 </v>
    <v>       0.36256529       0.38626614       0.00148872 </v>
    <v>       0.35382417       0.39861045       0.49893566 </v>
    <v>       0.36182541       0.88730939       0.99196041 </v>
    <v>       0.36393340       0.88049814       0.50408719 </v>
    <v>       0.86061320       0.38444933       0.00682449 </v>
    <v>       0.85583040       0.39390078       0.50813535 </v>
    <v>       0.86492065       0.89018091       0.00096205 </v>
    <v>       0.86228484       0.89331636       0.49804459 </v>
    <v>       0.13839198       0.11247736       0.99929056 </v>
    <v>       0.14305192       0.10649555       0.49941788 </v>
    <v>       0.13834595       0.60924604       0.00362267 </v>
    <v>       0.14649449       0.60392547       0.49405733 </v>
    <v>       0.64222305       0.11663644       0.01365087 </v>
    <v>       0.64304876       0.10993639       0.49976581 </v>
    <v>       0.63591321       0.61067839       0.00021772 </v>
    <v>       0.62554860       0.61439798       0.49755590 </v>
    <v>       0.11061761       0.36150136       0.00385581 </v>
    <v>       0.10371904       0.35616538       0.49627161 </v>
    <v>       0.11117786       0.86286288       0.99834810 </v>
    <v>       0.10662735       0.85869799       0.49625842 </v>
    <v>       0.61847319       0.35843281       0.01531554 </v>
    <v>       0.60717317       0.35526923       0.50114377 </v>
    <v>       0.61225676       0.86425722       0.00653257 </v>
    <v>       0.61187884       0.86386578       0.49226115 </v>
    <v>       0.38878179       0.13879061       0.99882849 </v>
    <v>       0.39015332       0.14189720       0.50018209 </v>
    <v>       0.38737242       0.63671600       0.99578943 </v>
    <v>       0.88590225       0.14209883       0.01067996 </v>
    <v>       0.89485618       0.14619577       0.50094662 </v>
    <v>       0.88948127       0.63468191       0.99469653 </v>
    <v>       0.89316773       0.63784229       0.50400068 </v>
    <v>       0.00955321       0.99750603       0.12548014 </v>
    <v>       0.99992056       0.00164672       0.62332502 </v>
    <v>       0.99132881       0.51449834       0.12774297 </v>
    <v>       0.01586090       0.50847334       0.62852852 </v>
    <v>       0.49025355       0.99688934       0.12474510 </v>
    <v>       0.50057954       0.00135383       0.62479532 </v>
    <v>       0.49531315       0.50221208       0.12491608 </v>
    <v>       0.48644172       0.51569327       0.61869192 </v>
    <v>       0.99230443       0.00990845       0.37467512 </v>
    <v>       0.99922232       0.00581011       0.87578457 </v>
    <v>       0.98103856       0.50138478       0.37114008 </v>
    <v>       0.00873280       0.50115230       0.87332574 </v>
    <v>       0.49766379       0.00776570       0.37448659 </v>
    <v>       0.51124830       0.00689540       0.87678684 </v>
    <v>       0.49037576       0.50728436       0.37756959 </v>
    <v>       0.50750874       0.48743632       0.87786108 </v>
    <v>       0.25004946       0.24970912       0.37474222 </v>
    <v>       0.24817839       0.25180501       0.87512644 </v>
    <v>       0.27179009       0.73568107       0.38292501 </v>
    <v>       0.23019626       0.74184868       0.87261095 </v>
    <v>       0.75397583       0.25216224       0.37875453 </v>
    <v>       0.74631474       0.25055448       0.87391155 </v>
    <v>       0.76609025       0.73287369       0.36930843 </v>
    <v>       0.74779288       0.75278534       0.87572202 </v>
    <v>       0.25039846       0.24866617       0.12586124 </v>
    <v>       0.24676580       0.25054736       0.62400962 </v>
    <v>       0.25001424       0.75312492       0.12265872 </v>
    <v>       0.25287468       0.73353405       0.62238783 </v>
    <v>       0.74979239       0.24346657       0.62443867 </v>
    <v>       0.76535259       0.73656667       0.13011868 </v>
    <v>       0.74918540       0.75106067       0.62356997 </v>
   </varray>
  </structure>
  <varray name="forces" >
   <v>       0.00234305      -0.01082694      -0.00593157 </v>
   <v>      -0.00783107       0.00931068       0.00677502 </v>
   <v>       0.01593659      -0.00368336      -0.00266715 </v>
   <v>       0.01513200       0.01303336      -0.01077542 </v>
   <v>       0.00380085      -0.00644956       0.01176306 </v>
   <v>       0.01269384      -0.00993656       0.00374541 </v>
   <v>      -0.01310847       0.00810855      -0.00085210 </v>
   <v>      -0.01004534       0.00616424       0.00437850 </v>
   <v>       0.00684523       0.00709547       0.01042485 </v>
   <v>      -0.00217206      -0.00523042      -0.01792852 </v>
   <v>       0.01129278      -0.00890824       0.00265215 </v>
   <v>       0.00663356       0.01477939       0.02193066 </v>
   <v>      -0.01132476      -0.00644502      -0.00338159 </v>
   <v>       0.00025975      -0.00123723      -0.00964300 </v>
   <v>      -0.00963610       0.00729485       0.00421219 </v>
   <v>      -0.00226448      -0.00380093      -0.00086576 </v>
   <v>      -0.00158092      -0.00137772      -0.00979448 </v>
   <v>       0.00930028       0.01165934       0.00897063 </v>
   <v>       0.00265504      -0.00411219       0.00102559 </v>
   <v>       0.00032842       0.01709727       0.00132872 </v>
   <v>      -0.00813504       0.00364623      -0.01159151 </v>
   <v>      -0.00263209       0.01141274      -0.00327157 </v>
   <v>       0.00902742      -0.01187911       0.00257251 </v>
   <v>       0.00137313      -0.00795087       0.00804430 </v>
   <v>       0.00135910       0.00318452      -0.01307485 </v>
   <v>      -0.00012972       0.00288099       0.00563055 </v>
   <v>      -0.00883196       0.00116561       0.00620892 </v>
   <v>       0.00500633       0.00995238      -0.01342100 </v>
   <v>      -0.01070254       0.00017854       0.01160401 </v>
   <v>       0.00814001       0.00317879       0.00294541 </v>
   <v>      -0.00618524      -0.01230561      -0.00553946 </v>
   <v>       0.00535862      -0.00041137       0.00419033 </v>
   <v>       0.00416059       0.01041979      -0.00989455 </v>
   <v>      -0.00023420       0.03520224       0.02458582 </v>
   <v>       0.00300064       0.01111932      -0.00803398 </v>
   <v>      -0.00249386      -0.01355698       0.01737632 </v>
   <v>       0.00517029       0.02338582       0.00208773 </v>
   <v>      -0.01427807       0.01876640       0.01014444 </v>
   <v>       0.01326442      -0.00433913      -0.01649674 </v>
   <v>       0.00960862      -0.01537004       0.01653010 </v>
   <v>      -0.00595291      -0.02767271      -0.00798175 </v>
   <v>       0.01208346      -0.00406929      -0.00261432 </v>
   <v>      -0.01668489       0.00157984       0.00708520 </v>
   <v>       0.04438382      -0.01261850       0.04298732 </v>
   <v>      -0.00100184      -0.06821493      -0.08703237 </v>
   <v>      -0.01474961       0.00214951       0.05249320 </v>
   <v>      -0.00025186      -0.00098338       0.00154438 </v>
   <v>      -0.02565751      -0.01915368       0.01186525 </v>
   <v>       0.02395752       0.00217100       0.00212371 </v>
   <v>       0.00330540       0.02966329      -0.05730459 </v>
   <v>       0.01492285       0.05863854       0.01445262 </v>
   <v>       0.00121186      -0.08467694      -0.02903071 </v>
   <v>      -0.02409434      -0.08540357       0.01100113 </v>
   <v>      -0.01934572       0.02028588      -0.01889149 </v>
   <v>       0.00158971       0.03866421       0.00026530 </v>
   <v>      -0.01924207      -0.02544497       0.00128048 </v>
   <v>       0.00692047       0.00042409       0.00580761 </v>
   <v>      -0.00682348      -0.00512061      -0.00452391 </v>
   <v>       0.01043523      -0.00205210      -0.00880811 </v>
   <v>      -0.00141467       0.00076275      -0.00516346 </v>
   <v>       0.00190916       0.00393126      -0.01345846 </v>
   <v>       0.00291789      -0.00967864      -0.02075548 </v>
   <v>       0.00020336       0.00017114       0.01337044 </v>
   <v>       0.01743380      -0.01451044      -0.00613467 </v>
   <v>      -0.00006225      -0.03993279       0.00775035 </v>
   <v>       0.01598179      -0.01293949       0.00871817 </v>
   <v>      -0.00144006       0.01373351      -0.00085299 </v>
   <v>       0.00259958      -0.01457800       0.01135566 </v>
[...]
       <r>   -16.2815     0.0000    32.0000 </r>
       <r>   -16.1291     0.0000    32.0000 </r>
       <r>   -15.9767     0.0000    32.0000 </r>
       <r>   -15.8242     0.0000    32.0000 </r>
       <r>   -15.6718     0.0000    32.0000 </r>
       <r>   -15.5194     0.0000    32.0000 </r>
       <r>   -15.3669     0.0031    32.0005 </r>
       <r>   -15.2145     6.5830    33.0039 </r>
       <r>   -15.0621    18.8696    35.8802 </r>
       <r>   -14.9096    33.7730    41.0283 </r>
       <r>   -14.7572    46.2079    48.0718 </r>
       <r>   -14.6048    43.4224    54.6908 </r>
       <r>   -14.4523    36.2735    60.2200 </r>
       <r>   -14.2999    37.8192    65.9848 </r>
       <r>   -14.1475    61.6048    75.3753 </r>
       <r>   -13.9951   108.9519    91.9830 </r>
       <r>   -13.8426   105.5718   108.0755 </r>
       <r>   -13.6902    58.3644   116.9720 </r>
       <r>   -13.5378    29.5275   121.4729 </r>
       <r>   -13.3853    14.2773   123.6492 </r>
       <r>   -13.2329     2.3011   124.0000 </r>
       <r>   -13.0805     0.0000   124.0000 </r>
       <r>   -12.9280     0.0000   124.0000 </r>
       <r>   -12.7756     0.1055   124.0161 </r>
       <r>   -12.6232    32.5794   128.9822 </r>
       <r>   -12.4707   116.7874   146.7843 </r>
       <r>   -12.3183   151.9784   169.9505 </r>
       <r>   -12.1659   123.8229   188.8250 </r>
       <r>   -12.0134   106.0396   204.9888 </r>
       <r>   -11.8610    76.7193   216.6832 </r>
       <r>   -11.7086    20.1462   219.7541 </r>
       <r>   -11.5562     1.6130   220.0000 </r>
       <r>   -11.4037     0.0000   220.0000 </r>
       <r>   -11.2513     0.0000   220.0000 </r>
       <r>   -11.0989     0.0000   220.0000 </r>
       <r>   -10.9464     0.0000   220.0000 </r>
       <r>   -10.7940     0.0000   220.0000 </r>
       <r>   -10.6416     0.0000   220.0000 </r>
       <r>   -10.4891     0.0000   220.0000 </r>
       <r>   -10.3367     0.0000   220.0000 </r>
       <r>   -10.1843     0.0000   220.0000 </r>
       <r>   -10.0318     0.0000   220.0000 </r>
       <r>    -9.8794     0.0000   220.0000 </r>
       <r>    -9.7270     0.0000   220.0000 </r>
       <r>    -9.5745     0.0000   220.0000 </r>
       <r>    -9.4221     0.0000   220.0000 </r>
       <r>    -9.2697     0.0000   220.0000 </r>
       <r>    -9.1173     0.0000   220.0000 </r>
       <r>    -8.9648     0.0000   220.0000 </r>
       <r>    -8.8124     0.0000   220.0000 </r>
       <r>    -8.6600     0.0000   220.0000 </r>
       <r>    -8.5075     0.0000   220.0000 </r>
       <r>    -8.3551     0.0000   220.0000 </r>
       <r>    -8.2027     0.0000   220.0000 </r>
       <r>    -8.0502     0.0000   220.0000 </r>
       <r>    -7.8978     0.0000   220.0000 </r>
       <r>    -7.7454     0.0000   220.0000 </r>
       <r>    -7.5929     0.0000   220.0000 </r>
       <r>    -7.4405     0.0000   220.0000 </r>
       <r>    -7.2881     0.0000   220.0000 </r>
       <r>    -7.1356     0.0000   220.0000 </r>
       <r>    -6.9832     0.0000   220.0000 </r>
       <r>    -6.8308     0.0000   220.0000 </r>
       <r>    -6.6783     0.0000   220.0000 </r>
       <r>    -6.5259     0.0000   220.0000 </r>
       <r>    -6.3735     0.0000   220.0000 </r>
       <r>    -6.2211     0.0000   220.0000 </r>
       <r>    -6.0686     0.0000   220.0000 </r>
       <r>    -5.9162     0.0000   220.0000 </r>
       <r>    -5.7638     0.0000   220.0000 </r>
       <r>    -5.6113     0.0000   220.0000 </r>
       <r>    -5.4589     0.0000   220.0000 </r>
       <r>    -5.3065     0.0000   220.0000 </r>
       <r>    -5.1540     0.0000   220.0000 </r>
       <r>    -5.0016     0.0000   220.0000 </r>
       <r>    -4.8492     0.0000   220.0000 </r>
       <r>    -4.6967     0.0000   220.0000 </r>
       <r>    -4.5443     0.0000   220.0000 </r>
       <r>    -4.3919     0.0000   220.0000 </r>
       <r>    -4.2394     0.0000   220.0000 </r>
       <r>    -4.0870     0.0000   220.0000 </r>
       <r>    -3.9346     0.0000   220.0000 </r>
       <r>    -3.7822     0.0000   220.0000 </r>
       <r>    -3.6297     0.0000   220.0000 </r>
       <r>    -3.4773     0.0000   220.0000 </r>
       <r>    -3.3249     0.0000   220.0000 </r>
       <r>    -3.1724     0.0000   220.0000 </r>
       <r>    -3.0200     0.0000   220.0000 </r>
       <r>    -2.8676     0.0000   220.0000 </r>
       <r>    -2.7151     0.0000   220.0000 </r>
       <r>    -2.5627     0.0000   220.0000 </r>
       <r>    -2.4103     0.2804   220.0427 </r>
       <r>    -2.2578    10.6637   221.6682 </r>
       <r>    -2.1054    22.5707   225.1087 </r>
       <r>    -1.9530    30.9826   229.8314 </r>
       <r>    -1.8005    40.3853   235.9874 </r>
       <r>    -1.6481    55.1753   244.3979 </r>
       <r>    -1.4957    48.6475   251.8133 </r>
       <r>    -1.3433    57.5507   260.5858 </r>
       <r>    -1.1908    66.5068   270.7235 </r>
       <r>    -1.0384    71.5151   281.6246 </r>
       <r>    -0.8860    73.5741   292.8397 </r>
       <r>    -0.7335    79.1234   304.9005 </r>
       <r>    -0.5811    90.7241   318.7297 </r>
       <r>    -0.4287   118.0808   336.7289 </r>
       <r>    -0.2762    80.6183   349.0177 </r>
       <r>    -0.1238    55.8099   357.5249 </r>
       <r>     0.0286    47.1761   364.7160 </r>
       <r>     0.1811    49.5749   372.2728 </r>
       <r>     0.3335    49.9918   379.8931 </r>
       <r>     0.4859    48.7181   387.3192 </r>
       <r>     0.6384    56.6322   395.9518 </r>
       <r>     0.7908    49.9921   403.5721 </r>
       <r>     0.9432    48.8231   411.0143 </r>
       <r>     1.0956    63.0447   420.6243 </r>
       <r>     1.2481    75.4933   432.1318 </r>
       <r>     1.4005    83.1267   444.8029 </r>
       <r>     1.5529    84.0558   457.6157 </r>
       <r>     1.7054    71.3354   468.4894 </r>
       <r>     1.8578    73.0157   479.6193 </r>
       <r>     2.0102    47.3448   486.8361 </r>
       <r>     2.1627    36.8918   492.4596 </r>
       <r>     2.3151    19.0609   495.3651 </r>
       <r>     2.4675     4.1638   495.9998 </r>
       <r>     2.6200     0.0016   496.0000 </r>
       <r>     2.7724     0.0000   496.0000 </r>
       <r>     2.9248     0.0000   496.0000 </r>
       <r>     3.0773     0.0000   496.0000 </r>
       <r>     3.2297     0.0000   496.0000 </r>
       <r>     3.3821     0.0000   496.0000 </r>
       <r>     3.5345     0.0000   496.0000 </r>
       <r>     3.6870     0.0000   496.0000 </r>
       <r>     3.8394     0.0000   496.0000 </r>
       <r>     3.9918     0.0000   496.0000 </r>
       <r>     4.1443     0.0000   496.0000 </r>
       <r>     4.2967     0.0000   496.0000 </r>
       <r>     4.4491     0.1938   496.0295 </r>
       <r>     4.6016    24.1392   499.7091 </r>
       <r>     4.7540    43.9150   506.4031 </r>
       <r>     4.9064    34.5604   511.6712 </r>
       <r>     5.0589    41.1133   517.9382 </r>
       <r>     5.2113    48.4476   525.3231 </r>
       <r>     5.3637    63.8978   535.0632 </r>
       <r>     5.5162    65.7743   545.0892 </r>
       <r>     5.6686    64.0613   554.8542 </r>
       <r>     5.8210    74.4485   566.2024 </r>
       <r>     5.9735    87.4117   579.5267 </r>
       <r>     6.1259    93.8979   593.8397 </r>
       <r>     6.2783    68.0939   604.2193 </r>
       <r>     6.4307    53.6266   612.3937 </r>
       <r>     6.5832    24.5380   616.1341 </r>
       <r>     6.7356    12.3978   618.0239 </r>
       <r>     6.8880    13.0961   620.0201 </r>
       <r>     7.0405    23.2266   623.5606 </r>
       <r>     7.1929    16.1360   626.0202 </r>
       <r>     7.3453    17.8477   628.7408 </r>
       <r>     7.4978    15.9275   631.1686 </r>
       <r>     7.6502    13.8086   633.2735 </r>
       <r>     7.8026    17.4927   635.9399 </r>
       <r>     7.9551    18.8360   638.8111 </r>
       <r>     8.1075    21.5823   642.1009 </r>
       <r>     8.2599    28.4510   646.4378 </r>
       <r>     8.4124    23.1725   649.9700 </r>
       <r>     8.5648    20.0826   653.0312 </r>
       <r>     8.7172    29.2720   657.4932 </r>
       <r>     8.8696    33.6874   662.6282 </r>
       <r>     9.0221    32.6432   667.6040 </r>
       <r>     9.1745    38.2702   673.4376 </r>
       <r>     9.3269    38.8419   679.3583 </r>
       <r>     9.4794    39.0700   685.3138 </r>
       <r>     9.6318    46.8562   692.4562 </r>
       <r>     9.7842    52.1192   700.4008 </r>
       <r>     9.9367    62.0115   709.8533 </r>
       <r>    10.0891    69.5742   720.4586 </r>
       <r>    10.2415    63.5836   730.1507 </r>
       <r>    10.3940    58.0328   738.9967 </r>
       <r>    10.5464    58.1004   747.8530 </r>
       <r>    10.6988    60.1087   757.0155 </r>
       <r>    10.8513    57.1429   765.7259 </r>
       <r>    11.0037    14.9061   767.9980 </r>
       <r>    11.1561     0.0130   768.0000 </r>
       <r>    11.3085     0.0000   768.0000 </r>
       <r>    11.4610     0.0000   768.0000 </r>
       <r>    11.6134     0.0000   768.0000 </r>
       <r>    11.7658     0.0000   768.0000 </r>
       <r>    11.9183     0.0000   768.0000 </r>
       <r>    12.0707     0.0000   768.0000 </r>
       <r>    12.2231     0.0000   768.0000 </r>
       <r>    12.3756     0.0000   768.0000 </r>
       <r>    12.5280     0.0000   768.0000 </r>
       <r>    12.6804     0.0000   768.0000 </r>
       <r>    12.8329     0.0000   768.0000 </r>
       <r>    12.9853     0.0000   768.0000 </r>
      </set>
     </set>
    </array>
   </total>
  </dos>
 </calculation>
 <structure name="finalpos" >
  <crystal>
   <varray name="basis" >
    <v>      11.22042917       0.00268112      -0.00989371 </v>
    <v>       0.00269632      11.21608597       0.00083097 </v>
    <v>      -0.01412187       0.00118272      15.94621891 </v>
   </varray>
   <i name="volume">   2006.81876480 </i>
   <varray name="rec_basis" >
    <v>       0.08912323      -0.00002143       0.00007893 </v>
    <v>      -0.00002131       0.08915767      -0.00000663 </v>
    <v>       0.00005530      -0.00000466       0.06271084 </v>
   </varray>
  </crystal>
  <varray name="positions" >
   <v>       0.00757810       0.24548568       0.12528005 </v>
   <v>       0.00340888       0.24670963       0.62423581 </v>
   <v>       0.00344615       0.75203509       0.12215509 </v>
   <v>       0.98457290       0.75649002       0.62520050 </v>
   <v>       0.49223770       0.24894146       0.12532665 </v>
   <v>       0.49689910       0.24573389       0.62714279 </v>
   <v>       0.49543927       0.74725056       0.12458939 </v>
   <v>       0.51395734       0.75324646       0.63123540 </v>
   <v>       0.00054398       0.24830779       0.37340691 </v>
   <v>       0.00672748       0.24463858       0.87720582 </v>
   <v>       0.99426787       0.75279048       0.37477173 </v>
   <v>       0.99040277       0.75558479       0.87825200 </v>
   <v>       0.49887199       0.24427140       0.37078055 </v>
   <v>       0.49362235       0.25184881       0.87386962 </v>
   <v>       0.50630459       0.75177792       0.36818108 </v>
   <v>       0.50994199       0.74737966       0.87646382 </v>
   <v>       0.24993686       0.99206217       0.12461167 </v>
   <v>       0.25032936       0.00238529       0.62741144 </v>
   <v>       0.25596072       0.50304298       0.12233908 </v>
   <v>       0.25378096       0.49590422       0.62817598 </v>
   <v>       0.75212936       0.98866926       0.12515856 </v>
   <v>       0.75035910       0.99274711       0.62568887 </v>
   <v>       0.74415354       0.50663564       0.12150014 </v>
   <v>       0.74593893       0.51590676       0.62732033 </v>
   <v>       0.25362913       0.99890845       0.37345463 </v>
   <v>       0.24715864       0.99774371       0.87448201 </v>
   <v>       0.25250232       0.49981572       0.37001950 </v>
   <v>       0.25564039       0.49976784       0.87878939 </v>
   <v>       0.74961580       0.99730526       0.37423165 </v>
   <v>       0.75182148       0.98857392       0.87386019 </v>
   <v>       0.74577306       0.50133961       0.37752373 </v>
   <v>       0.74387890       0.51572257       0.87211837 </v>
   <v>       0.99937949       0.99867841       0.00135194 </v>
   <v>       0.99557879       0.00430918       0.49897225 </v>
   <v>       0.99906105       0.50231459       0.00085354 </v>
   <v>       0.99923510       0.50225321       0.50095213 </v>
   <v>       0.50182997       0.99819477       0.00075754 </v>
   <v>       0.50242973       0.99817558       0.49979685 </v>
   <v>       0.50235617       0.49999911       0.99935576 </v>
   <v>       0.50783486       0.48688012       0.50012011 </v>
   <v>       0.25046389       0.24898454       0.00045802 </v>
   <v>       0.24889740       0.25018332       0.49903547 </v>
   <v>       0.24850995       0.74875964       0.99698869 </v>
   <v>       0.23647477       0.75718531       0.50102639 </v>
   <v>       0.74990064       0.25014618       0.98922080 </v>
   <v>       0.75428666       0.24738058       0.50193597 </v>
   <v>       0.25312652       0.24454879       0.24981590 </v>
   <v>       0.25248326       0.25167346       0.75026314 </v>
   <v>       0.74308922       0.24832528       0.74501488 </v>
   <v>       0.00023639       0.99842162       0.24974751 </v>
   <v>       0.99915421       0.99881163       0.74977918 </v>
   <v>       0.00949190       0.49204061       0.24849246 </v>
   <v>       0.99211449       0.48589399       0.75084332 </v>
   <v>       0.49946446       0.99931805       0.24813541 </v>
   <v>       0.50272114       0.00005712       0.75167242 </v>
   <v>       0.49970435       0.50058802       0.24831044 </v>
   <v>       0.75125966       0.74883819       0.00167786 </v>
   <v>       0.74999920       0.75006817       0.49778010 </v>
   <v>       0.25108709       0.74972496       0.25038425 </v>
   <v>       0.26437680       0.75620058       0.75090711 </v>
   <v>       0.74854980       0.25110579       0.26010553 </v>
   <v>       0.74281928       0.75980452       0.24941579 </v>
   <v>       0.74993844       0.75238763       0.75098882 </v>
   <v>       0.49807767       0.50216237       0.74974867 </v>
   <v>       0.11224040       0.14048653       0.25157602 </v>
   <v>       0.11186765       0.13955783       0.74994062 </v>
   <v>       0.09730789       0.64133888       0.25419708 </v>
   <v>       0.61362039       0.13798148       0.24216419 </v>
   <v>       0.60726669       0.14344514       0.74953471 </v>
   <v>       0.61974797       0.62946631       0.24995912 </v>
   <v>       0.61516047       0.63527673       0.75124604 </v>
   <v>       0.38478931       0.36085721       0.25094855 </v>
   <v>       0.39025602       0.35711548       0.74725954 </v>
   <v>       0.38937550       0.86287892       0.25193666 </v>
   <v>       0.39340419       0.86346405       0.75507105 </v>
   <v>       0.87424174       0.37789037       0.23945911 </v>
   <v>       0.89042335       0.35753408       0.74852856 </v>
   <v>       0.88997482       0.86336245       0.24992521 </v>
   <v>       0.88595104       0.86899208       0.75019777 </v>
   <v>       0.36108683       0.11154541       0.25061541 </v>
   <v>       0.35963298       0.11040629       0.75144647 </v>
   <v>       0.36083186       0.60981652       0.24653524 </v>
   <v>       0.35159031       0.60663081       0.75578874 </v>
   <v>       0.86273955       0.12223941       0.23716876 </v>
   <v>       0.86020189       0.11365012       0.75087225 </v>
   <v>       0.88416666       0.62033815       0.75075354 </v>
   <v>       0.13692916       0.38782597       0.24830177 </v>
   <v>       0.14357058       0.39709267       0.75099254 </v>
   <v>       0.13871607       0.88994126       0.25797634 </v>
   <v>       0.13303330       0.87866882       0.74466273 </v>
   <v>       0.63165083       0.38183156       0.24594460 </v>
   <v>       0.64296193       0.38891557       0.74202162 </v>
   <v>       0.63562717       0.88956792       0.25201448 </v>
   <v>       0.63691214       0.89263709       0.74814532 </v>
   <v>       0.36435381       0.38444794       0.00131401 </v>
   <v>       0.35464635       0.39829352       0.49930112 </v>
   <v>       0.36255495       0.88598994       0.99146724 </v>
   <v>       0.36404214       0.88063368       0.50454154 </v>
   <v>       0.86199614       0.38282326       0.00774411 </v>
   <v>       0.85729627       0.39301092       0.50850557 </v>
   <v>       0.86581843       0.88881351       0.00120556 </v>
   <v>       0.86292886       0.89305721       0.49814038 </v>
   <v>       0.13732250       0.11327333       0.99895206 </v>
   <v>       0.14197262       0.10825232       0.49920927 </v>
   <v>       0.13794414       0.60945923       0.00406926 </v>
   <v>       0.14617903       0.60472064       0.49502630 </v>
   <v>       0.64213678       0.11682707       0.01395208 </v>
   <v>       0.64271046       0.11031181       0.49936259 </v>
   <v>       0.63546053       0.61111420       0.00021297 </v>
   <v>       0.62490321       0.61515956       0.49707585 </v>
   <v>       0.11210136       0.36230940       0.00445782 </v>
   <v>       0.10532862       0.35785506       0.49641159 </v>
   <v>       0.11237339       0.86347653       0.99880662 </v>
   <v>       0.10710360       0.85976400       0.49634388 </v>
   <v>       0.61973690       0.35913387       0.01641286 </v>
   <v>       0.60836618       0.35609881       0.50056862 </v>
   <v>       0.61282820       0.86437883       0.00681451 </v>
   <v>       0.61228250       0.86443013       0.49321915 </v>
   <v>       0.38774916       0.13716755       0.99872785 </v>
   <v>       0.38982423       0.14157242       0.50005129 </v>
   <v>       0.38678098       0.63561534       0.99515105 </v>
   <v>       0.88555639       0.14112377       0.00905198 </v>
   <v>       0.89442367       0.14584765       0.50082644 </v>
   <v>       0.88877289       0.63349777       0.99419544 </v>
   <v>       0.89263393       0.63772846       0.50346388 </v>
   <v>       0.00861218       0.99797140       0.12538171 </v>
   <v>       0.00002428       0.00302530       0.62330394 </v>
   <v>       0.99046351       0.51479676       0.12776791 </v>
   <v>       0.01464193       0.50897160       0.62865490 </v>
   <v>       0.48999702       0.99674202       0.12481000 </v>
   <v>       0.50046114       0.00216001       0.62501110 </v>
   <v>       0.49436050       0.50269547       0.12479119 </v>
   <v>       0.48721801       0.51561420       0.61858563 </v>
   <v>       0.99227984       0.01014717       0.37457353 </v>
   <v>       0.99974221       0.00422785       0.87571036 </v>
   <v>       0.98136727       0.50164281       0.37125653 </v>
   <v>       0.00862080       0.50003192       0.87358636 </v>
   <v>       0.49754130       0.00667093       0.37461888 </v>
   <v>       0.51204243       0.00711712       0.87691087 </v>
   <v>       0.48982061       0.50704222       0.37740758 </v>
   <v>       0.50817642       0.48730576       0.87781279 </v>
   <v>       0.25037216       0.25031953       0.37474361 </v>
   <v>       0.24807224       0.25226226       0.87517719 </v>
   <v>       0.27129780       0.73532612       0.38317211 </v>
   <v>       0.22896742       0.74029154       0.87224877 </v>
   <v>       0.75469609       0.25252379       0.37864689 </v>
   <v>       0.74480448       0.25265770       0.87398652 </v>
   <v>       0.76526507       0.73330164       0.36935130 </v>
   <v>       0.74808821       0.75349281       0.87577281 </v>
   <v>       0.25019535       0.24736363       0.12574974 </v>
   <v>       0.24728144       0.25021160       0.62410982 </v>
   <v>       0.25061633       0.75270518       0.12251954 </v>
   <v>       0.25268165       0.73386698       0.62274486 </v>
   <v>       0.74966097       0.24265376       0.62426375 </v>
   <v>       0.76584570       0.73579276       0.13029542 </v>
   <v>       0.74961540       0.75068727       0.62357643 </v>
  </varray>
 </structure>
</modeling>
