       N       E                     dE             d eps       ncg     rms          rms(c)
DAV:   1    -0.108911379096E+04   -0.10891E+04   -0.27773E-02 13352   0.390E-01    0.238E-02
RMM:   2    -0.108911379136E+04   -0.40363E-06   -0.20386E-05  6748   0.859E-03    0.425E-02
RMM:   3    -0.108911379166E+04   -0.29747E-06   -0.63222E-06  6325   0.513E-03    0.825E-03
RMM:   4    -0.108911379195E+04   -0.29802E-06   -0.29934E-06  4487   0.284E-03    0.567E-03
RMM:   5    -0.108911379213E+04   -0.17132E-06   -0.18779E-06  4106   0.293E-03    0.311E-03
RMM:   6    -0.108911379227E+04   -0.14019E-06   -0.95259E-07  2762   0.204E-03    0.163E-03
RMM:   7    -0.108911379234E+04   -0.77314E-07   -0.60649E-07  2590   0.217E-03    0.843E-04
RMM:   8    -0.108911379236E+04   -0.15061E-07   -0.12307E-07  1751   0.185E-03
   1 F= -.10891138E+04 E0= -.10891138E+04  d E =-.108911E+04  mag=    50.0000
       N       E                     dE             d eps       ncg     rms          rms(c)
DAV:   1    -0.108911394919E+04   -0.15685E-03   -0.25807E-01 12896   0.600E-01    0.205E-01
RMM:   2    -0.108911463374E+04   -0.68454E-03   -0.73406E-03 12320   0.120E-01    0.152E-01
RMM:   3    -0.108911465636E+04   -0.22621E-04   -0.40564E-04  9943   0.441E-02    0.904E-02
RMM:   4    -0.108911462596E+04    0.30394E-04   -0.11401E-04  7376   0.161E-02    0.752E-02
RMM:   5    -0.108911461604E+04    0.99275E-05   -0.45521E-05  7129   0.119E-02    0.514E-02
RMM:   6    -0.108911461319E+04    0.28457E-05   -0.36289E-05  7059   0.822E-03    0.189E-02
RMM:   7    -0.108911461329E+04   -0.10421E-06   -0.10863E-05  6951   0.673E-03    0.121E-02
RMM:   8    -0.108911461343E+04   -0.13341E-06   -0.59752E-06  5759   0.333E-03
   2 F= -.10891146E+04 E0= -.10891146E+04  d E =-.821069E-03  mag=    50.0000
