<?xml version="1.0" encoding="ISO-8859-1"?>
<modeling>
 <generator>
  <i name="program" type="string">vasp </i>
  <i name="version" type="string">5.4.1  </i>
  <i name="subversion" type="string">05Feb16 (build Jan 25 2017 20:16:33) complex                          parallel </i>
  <i name="platform" type="string">BWXE6 </i>
  <i name="date" type="string">2019 07 09 </i>
  <i name="time" type="string">13:56:05 </i>
 </generator>
 <incar>
  <i type="string" name="SYSTEM"> STF</i>
  <i type="string" name="PREC">normal</i>
  <i type="string" name="ALGO"> Fast</i>
  <i type="int" name="ISPIN">     2</i>
  <i type="int" name="NELM">    40</i>
  <i type="int" name="NELMIN">     8</i>
  <i type="int" name="IBRION">     2</i>
  <i name="EDIFF">      0.00010000</i>
  <i name="EDIFFG">     -0.03000000</i>
  <i type="int" name="NSW">    30</i>
  <i type="int" name="ISIF">     3</i>
  <i name="ENCUT">    520.00000000</i>
  <i type="int" name="NBANDS">   768</i>
  <v name="MAGMOM">      0.60000000      0.60000000      0.60000000      0.60000000      0.60000000      0.60000000      0.60000000      0.60000000      0.60000000      0.60000000      0.60000000      0.60000000      0.60000000      0.60000000      0.60000000      0.60000000      0.60000000      0.60000000      0.60000000      0.60000000
      0.60000000      0.60000000      0.60000000      0.60000000      0.60000000      0.60000000      0.60000000      0.60000000      0.60000000      0.60000000      0.60000000      0.60000000      0.60000000      0.60000000      0.60000000      0.60000000      0.60000000      0.60000000      0.60000000      0.60000000
      0.60000000      0.60000000      0.60000000      0.60000000      0.60000000      0.60000000      0.60000000      0.60000000      0.60000000      0.60000000      0.60000000      0.60000000      5.00000000      5.00000000      5.00000000      5.00000000      5.00000000      5.00000000      5.00000000      5.00000000
      5.00000000      5.00000000      5.00000000      5.00000000      0.60000000      0.60000000      0.60000000      0.60000000      0.60000000      0.60000000      0.60000000      0.60000000      0.60000000      0.60000000      0.60000000      0.60000000      0.60000000      0.60000000      0.60000000      0.60000000
      0.60000000      0.60000000      0.60000000      0.60000000      0.60000000      0.60000000      0.60000000      0.60000000      0.60000000      0.60000000      0.60000000      0.60000000      0.60000000      0.60000000      0.60000000      0.60000000      0.60000000      0.60000000      0.60000000      0.60000000
      0.60000000      0.60000000      0.60000000      0.60000000      0.60000000      0.60000000      0.60000000      0.60000000      0.60000000      0.60000000      0.60000000      0.60000000      0.60000000      0.60000000      0.60000000      0.60000000      0.60000000      0.60000000      0.60000000      0.60000000
      0.60000000      0.60000000      0.60000000      0.60000000      0.60000000      0.60000000      0.60000000      0.60000000      0.60000000      0.60000000      0.60000000      0.60000000      0.60000000      0.60000000      0.60000000      0.60000000      0.60000000      0.60000000      0.60000000      0.60000000
      0.60000000      0.60000000      0.60000000      0.60000000      0.60000000      0.60000000      0.60000000      0.60000000      0.60000000      0.60000000      0.60000000      0.60000000      0.60000000      0.60000000</v>
  <i type="string" name="LREAL"> Auto</i>
  <i type="int" name="ISMEAR">     0</i>
  <i name="SIGMA">      0.05000000</i>
  <i type="int" name="LMAXMIX">     4</i>
  <v type="int" name="KPOINT_BSE">    -1     0     0     0</v>
  <i type="int" name="NELM">    40</i>
  <i type="logical" name="LDAU"> T  </i>
  <v type="int" name="LDAUTYPE">     2</v>
  <v type="int" name="LDAUL">     0     2     2     0</v>
  <v name="LDAUU">      0.00000000      3.00000000      5.00000000      0.00000000</v>
  <v name="LDAUJ">      0.00000000      0.00000000      0.00000000      0.00000000</v>
  <i type="int" name="LDAUPRINT">     1</i>
 </incar>
 <kpoints>
  <generation param="Monkhorst-Pack">
   <v type="int" name="divisions">       2        2        2 </v>
   <v name="usershift">      0.00000000       0.00000000       0.00000000 </v>
   <v name="genvec1">      0.50000000       0.00000000       0.00000000 </v>
   <v name="genvec2">      0.00000000       0.50000000       0.00000000 </v>
   <v name="genvec3">      0.00000000      -0.00000000       0.50000000 </v>
   <v name="shift">      0.50000000       0.50000000       0.50000000 </v>
  </generation>
  <varray name="kpointlist" >
   <v>       0.25000000       0.25000000       0.25000000 </v>
   <v>      -0.25000000       0.25000000       0.25000000 </v>
   <v>       0.25000000      -0.25000000       0.25000000 </v>
   <v>      -0.25000000      -0.25000000       0.25000000 </v>
  </varray>
  <varray name="weights" >
   <v>       0.25000000 </v>
   <v>       0.25000000 </v>
   <v>       0.25000000 </v>
   <v>       0.25000000 </v>
  </varray>
 </kpoints>
 <parameters>
  <separator name="general" >
   <i type="string" name="SYSTEM">STF</i>
   <i type="logical" name="LCOMPAT"> F  </i>
  </separator>
  <separator name="electronic" >
   <i type="string" name="PREC">normal</i>
   <i name="ENMAX">    520.00000000</i>
   <i name="ENAUG">    605.39200000</i>
   <i name="EDIFF">      0.00010000</i>
   <i type="int" name="IALGO">    68</i>
   <i type="int" name="IWAVPR">    11</i>
   <i type="int" name="NBANDS">   768</i>
   <i name="NELECT">   1036.00000000</i>
   <i type="int" name="TURBO">     0</i>
   <i type="int" name="IRESTART">     0</i>
   <i type="int" name="NREBOOT">     0</i>
   <i type="int" name="NMIN">     0</i>
   <i name="EREF">      0.00000000</i>
   <separator name="electronic smearing" >
    <i type="int" name="ISMEAR">     0</i>
    <i name="SIGMA">      0.05000000</i>
    <i name="KSPACING">      0.50000000</i>
    <i type="logical" name="KGAMMA"> T  </i>
   </separator>
   <separator name="electronic projectors" >
    <i type="logical" name="LREAL"> T  </i>
    <v name="ROPT">     -0.00050000     -0.00050000     -0.00050000     -0.00050000</v>
    <i type="int" name="LMAXPAW">  -100</i>
    <i type="int" name="LMAXMIX">     4</i>
    <i type="logical" name="NLSPLINE"> F  </i>
   </separator>
   <separator name="electronic startup" >
    <i type="int" name="ISTART">     1</i>
    <i type="int" name="ICHARG">     0</i>
    <i type="int" name="INIWAV">     1</i>
   </separator>
   <separator name="electronic spin" >
    <i type="int" name="ISPIN">     2</i>
    <i type="logical" name="LNONCOLLINEAR"> F  </i>
    <v name="MAGMOM">      0.60000000      0.60000000      0.60000000      0.60000000      0.60000000      0.60000000      0.60000000      0.60000000      0.60000000      0.60000000      0.60000000      0.60000000      0.60000000      0.60000000      0.60000000      0.60000000      0.60000000      0.60000000      0.60000000      0.60000000
      0.60000000      0.60000000      0.60000000      0.60000000      0.60000000      0.60000000      0.60000000      0.60000000      0.60000000      0.60000000      0.60000000      0.60000000      0.60000000      0.60000000      0.60000000      0.60000000      0.60000000      0.60000000      0.60000000      0.60000000
      0.60000000      0.60000000      0.60000000      0.60000000      0.60000000      0.60000000      0.60000000      0.60000000      0.60000000      0.60000000      0.60000000      0.60000000      5.00000000      5.00000000      5.00000000      5.00000000      5.00000000      5.00000000      5.00000000      5.00000000
      5.00000000      5.00000000      5.00000000      5.00000000      0.60000000      0.60000000      0.60000000      0.60000000      0.60000000      0.60000000      0.60000000      0.60000000      0.60000000      0.60000000      0.60000000      0.60000000      0.60000000      0.60000000      0.60000000      0.60000000
      0.60000000      0.60000000      0.60000000      0.60000000      0.60000000      0.60000000      0.60000000      0.60000000      0.60000000      0.60000000      0.60000000      0.60000000      0.60000000      0.60000000      0.60000000      0.60000000      0.60000000      0.60000000      0.60000000      0.60000000
      0.60000000      0.60000000      0.60000000      0.60000000      0.60000000      0.60000000      0.60000000      0.60000000      0.60000000      0.60000000      0.60000000      0.60000000      0.60000000      0.60000000      0.60000000      0.60000000      0.60000000      0.60000000      0.60000000      0.60000000
      0.60000000      0.60000000      0.60000000      0.60000000      0.60000000      0.60000000      0.60000000      0.60000000      0.60000000      0.60000000      0.60000000      0.60000000      0.60000000      0.60000000      0.60000000      0.60000000      0.60000000      0.60000000      0.60000000      0.60000000
      0.60000000      0.60000000      0.60000000      0.60000000      0.60000000      0.60000000      0.60000000      0.60000000      0.60000000      0.60000000      0.60000000      0.60000000      0.60000000      0.60000000</v>
    <i name="NUPDOWN">     -1.00000000</i>
    <i type="logical" name="LSORBIT"> F  </i>
    <v name="SAXIS">      0.00000000      0.00000000      1.00000000</v>
    <i type="logical" name="LSPIRAL"> F  </i>
    <v name="QSPIRAL">      0.00000000      0.00000000      0.00000000</v>
    <i type="logical" name="LZEROZ"> F  </i>
   </separator>
   <separator name="electronic exchange-correlation" >
    <i type="logical" name="LASPH"> F  </i>
    <i type="logical" name="LMETAGGA"> F  </i>
   </separator>
   <separator name="electronic convergence" >
    <i type="int" name="NELM">    40</i>
    <i type="int" name="NELMDL">     0</i>
    <i type="int" name="NELMIN">     8</i>
    <i name="ENINI">    520.00000000</i>
    <separator name="electronic convergence detail" >
     <i type="logical" name="LDIAG"> T  </i>
     <i type="logical" name="LSUBROT"> F  </i>
     <i name="WEIMIN">      0.00100000</i>
     <i name="EBREAK">      0.00000003</i>
     <i name="DEPER">      0.30000000</i>
     <i type="int" name="NRMM">     4</i>
     <i name="TIME">      0.40000000</i>
    </separator>
   </separator>
   <separator name="electronic mixer" >
    <i name="AMIX">      0.40000000</i>
    <i name="BMIX">      1.00000000</i>
    <i name="AMIN">      0.10000000</i>
    <i name="AMIX_MAG">      1.60000000</i>
    <i name="BMIX_MAG">      1.00000000</i>
    <separator name="electronic mixer details" >
     <i type="int" name="IMIX">     4</i>
     <i type="logical" name="MIXFIRST"> F  </i>
     <i type="int" name="MAXMIX">   -45</i>
     <i name="WC">    100.00000000</i>
     <i type="int" name="INIMIX">     1</i>
     <i type="int" name="MIXPRE">     1</i>
     <i type="int" name="MREMOVE">     5</i>
    </separator>
   </separator>
   <separator name="electronic dipolcorrection" >
    <i type="logical" name="LDIPOL"> F  </i>
    <i type="logical" name="LMONO"> F  </i>
    <i type="int" name="IDIPOL">     0</i>
    <i name="EPSILON">      1.00000000</i>
    <v name="DIPOL">   -100.00000000   -100.00000000   -100.00000000</v>
    <i name="EFIELD">      0.00000000</i>
   </separator>
  </separator>
  <separator name="grids" >
   <i type="int" name="NGX">    64</i>
   <i type="int" name="NGY">    64</i>
   <i type="int" name="NGZ">    90</i>
   <i type="int" name="NGXF">   128</i>
   <i type="int" name="NGYF">   128</i>
   <i type="int" name="NGZF">   180</i>
   <i type="logical" name="ADDGRID"> F  </i>
  </separator>
  <separator name="ionic" >
   <i type="int" name="NSW">    30</i>
   <i type="int" name="IBRION">     2</i>
   <i type="int" name="ISIF">     3</i>
   <i name="PSTRESS">      0.00000000</i>
   <i name="EDIFFG">     -0.03000000</i>
   <i type="int" name="NFREE">     1</i>
   <i name="POTIM">      0.50000000</i>
   <i name="SMASS">     -3.00000000</i>
   <i name="SCALEE">      1.00000000</i>
  </separator>
  <separator name="ionic md" >
   <i name="TEBEG">      0.00010000</i>
   <i name="TEEND">      0.00010000</i>
   <i type="int" name="NBLOCK">     1</i>
   <i type="int" name="KBLOCK">    30</i>
   <i type="int" name="NPACO">   256</i>
   <i name="APACO">     16.00000000</i>
  </separator>
  <separator name="symmetry" >
   <i type="int" name="ISYM">     2</i>
   <i name="SYMPREC">      0.00001000</i>
  </separator>
  <separator name="dos" >
   <i type="logical" name="LORBIT"> F  </i>
   <v name="RWIGS">     -1.00000000     -1.00000000     -1.00000000     -1.00000000</v>
   <i type="int" name="NEDOS">   301</i>
   <i name="EMIN">     10.00000000</i>
   <i name="EMAX">    -10.00000000</i>
   <i name="EFERMI">      0.00000000</i>
  </separator>
  <separator name="writing" >
   <i type="int" name="NWRITE">     2</i>
   <i type="logical" name="LWAVE"> T  </i>
   <i type="logical" name="LCHARG"> T  </i>
   <i type="logical" name="LPARD"> F  </i>
   <i type="logical" name="LVTOT"> F  </i>
   <i type="logical" name="LVHAR"> F  </i>
   <i type="logical" name="LELF"> F  </i>
   <i type="logical" name="LOPTICS"> F  </i>
   <v name="STM">      0.00000000      0.00000000      0.00000000      0.00000000      0.00000000      0.00000000      0.00000000</v>
  </separator>
  <separator name="performance" >
   <i type="int" name="NPAR">     2</i>
   <i type="int" name="NSIM">     4</i>
   <i type="int" name="NBLK">    -1</i>
   <i type="logical" name="LPLANE"> T  </i>
   <i type="logical" name="LSCALAPACK"> T  </i>
   <i type="logical" name="LSCAAWARE"> F  </i>
   <i type="logical" name="LSCALU"> F  </i>
   <i type="logical" name="LASYNC"> F  </i>
   <i type="logical" name="LORBITALREAL"> F  </i>
  </separator>
  <separator name="miscellaneous" >
   <i type="int" name="IDIOT">     3</i>
   <i type="logical" name="LMUSIC"> F  </i>
   <v name="POMASS">     87.62000000     47.88000000     55.84700000     16.00000000</v>
   <v name="DARWINR">      0.00000000      0.00000000      0.00000000      0.00000000</v>
   <v name="DARWINV">      1.00000000      1.00000000      1.00000000      1.00000000</v>
   <i type="logical" name="LCORR"> T  </i>
  </separator>
  <i type="logical" name="GGA_COMPAT"> T  </i>
  <i type="logical" name="LBERRY"> F  </i>
  <i type="int" name="ICORELEVEL">     0</i>
  <i type="logical" name="LDAU"> T  </i>
  <v type="int" name="LDAUTYPE">     2</v>
  <v type="int" name="LDAUL">     0</v>
  <v name="LDAUU">      0.00000000</v>
  <v name="LDAUJ">      0.00000000</v>
  <i type="int" name="LDAUPRINT">     1</i>
  <i type="int" name="I_CONSTRAINED_M">     0</i>
  <separator name="electronic exchange-correlation" >
   <i type="string" name="GGA">--</i>
   <i type="int" name="VOSKOWN">     0</i>
   <i type="logical" name="LHFCALC"> F  </i>
   <i type="string" name="PRECFOCK"></i>
   <i type="logical" name="LSYMGRAD"> F  </i>
   <i type="logical" name="LHFONE"> F  </i>
   <i type="logical" name="LRHFCALC"> F  </i>
   <i type="logical" name="LTHOMAS"> F  </i>
   <i type="logical" name="LMODELHF"> F  </i>
   <i name="ENCUT4O">     -1.00000000</i>
   <i type="int" name="EXXOEP">     0</i>
   <i type="int" name="FOURORBIT">     0</i>
   <i name="AEXX">      0.00000000</i>
   <i name="HFALPHA">      0.00000000</i>
   <i name="MCALPHA">      0.00000000</i>
   <i name="ALDAX">      1.00000000</i>
   <i name="AGGAX">      1.00000000</i>
   <i name="ALDAC">      1.00000000</i>
   <i name="AGGAC">      1.00000000</i>
   <i type="int" name="NKREDX">     1</i>
   <i type="int" name="NKREDY">     1</i>
   <i type="int" name="NKREDZ">     1</i>
   <i type="logical" name="SHIFTRED"> F  </i>
   <i type="logical" name="ODDONLY"> F  </i>
   <i type="logical" name="EVENONLY"> F  </i>
   <i type="int" name="LMAXFOCK">     0</i>
   <i type="int" name="NMAXFOCKAE">     0</i>
   <i type="logical" name="LFOCKAEDFT"> F  </i>
   <i name="HFSCREEN">      0.00000000</i>
   <i name="HFSCREENC">      0.00000000</i>
   <i type="int" name="NBANDSGWLOW">     0</i>
  </separator>
  <separator name="vdW DFT" >
   <i type="logical" name="LUSE_VDW"> F  </i>
   <i name="Zab_VDW">     -0.84910000</i>
   <i name="PARAM1">      0.12340000</i>
   <i name="PARAM2">      1.00000000</i>
   <i name="PARAM3">      0.00000000</i>
  </separator>
  <separator name="model GW" >
   <i type="int" name="MODEL_GW">     0</i>
   <i name="MODEL_EPS0">      7.82369851</i>
   <i name="MODEL_ALPHA">      1.00000000</i>
  </separator>
  <separator name="linear response parameters" >
   <i type="logical" name="LEPSILON"> F  </i>
   <i type="logical" name="LRPA"> F  </i>
   <i type="logical" name="LNABLA"> F  </i>
   <i type="logical" name="LVEL"> F  </i>
   <i type="int" name="KINTER">     0</i>
   <i name="CSHIFT">      0.10000000</i>
   <i name="OMEGAMAX">     -1.00000000</i>
   <i name="DEG_THRESHOLD">      0.00200000</i>
  </separator>
  <separator name="orbital magnetization" >
   <i type="logical" name="NUCIND"> F  </i>
   <v name="MAGPOS">      0.00000000      0.00000000      0.00000000</v>
   <i type="logical" name="LNICSALL"> T  </i>
   <i type="logical" name="ORBITALMAG"> F  </i>
   <i type="logical" name="LMAGBLOCH"> F  </i>
   <i type="logical" name="LCHIMAG"> F  </i>
   <i type="logical" name="LGAUGE"> T  </i>
   <i type="int" name="MAGATOM">     0</i>
   <v name="MAGDIPOL">      0.00000000      0.00000000      0.00000000</v>
   <v name="AVECCONST">      0.00000000      0.00000000      0.00000000</v>
  </separator>
  <separator name="response functions" >
   <i type="logical" name="LADDER"> F  </i>
   <i type="logical" name="LFXC"> F  </i>
   <i type="logical" name="LHARTREE"> T  </i>
   <i type="int" name="IBSE">     0</i>
   <v type="int" name="KPOINT">    -1     0     0     0</v>
   <i type="logical" name="LTCTE"> F  </i>
   <i type="logical" name="LTETE"> F  </i>
   <i type="logical" name="LTRIPLET"> F  </i>
   <i type="logical" name="LFXCEPS"> F  </i>
   <i type="logical" name="LFXHEG"> F  </i>
   <i type="int" name="NATURALO">     0</i>
   <i type="logical" name="L2ORDER"> F  </i>
   <i type="logical" name="LUSEW"> F  </i>
   <i name="ENCUTGW">     -2.00000000</i>
   <i name="ENCUTGWSOFT">     -2.00000000</i>
   <i name="ENCUTLF">     -1.00000000</i>
   <i type="int" name="LMAXMP2">    -1</i>
   <i name="SCISSOR">      0.00000000</i>
   <i type="int" name="NOMEGA">     0</i>
   <i type="int" name="NOMEGAR">     0</i>
   <i type="int" name="NBANDSGW">    -1</i>
   <i type="int" name="NBANDSO">    -1</i>
   <i type="int" name="NBANDSV">    -1</i>
   <i type="int" name="NELM">    40</i>
   <i type="int" name="NELMHF">     1</i>
   <i type="int" name="DIM">     3</i>
   <i type="int" name="ANTIRES">     0</i>
   <i name="OMEGAMAX">    -30.00000000</i>
   <i name="OMEGAMIN">    -30.00000000</i>
   <i name="OMEGATL">   -200.00000000</i>
   <i type="int" name="OMEGAGRID">     0</i>
   <i name="CSHIFT">     -0.10000000</i>
   <i type="logical" name="SELFENERGY"> F  </i>
   <i type="logical" name="LSPECTRAL"> F  </i>
   <i type="logical" name="LSPECTRALGW"> F  </i>
   <i type="logical" name="LSINGLES"> F  </i>
   <i type="logical" name="LFERMIGW"> F  </i>
   <i type="logical" name="ODDONLYGW"> F  </i>
   <i type="logical" name="EVENONLYGW"> F  </i>
   <i type="int" name="NKREDLFX">     1</i>
   <i type="int" name="NKREDLFY">     1</i>
   <i type="int" name="NKREDLFZ">     1</i>
   <i type="int" name="MAXMEM">  1800</i>
   <i type="int" name="TELESCOPE">     0</i>
   <i type="int" name="TAUPAR">     1</i>
   <i type="int" name="OMEGAPAR">    -1</i>
   <i name="LAMBDA">      1.00000000</i>
  </separator>
  <separator name="External order field" >
   <i name="OFIELD_KAPPA">      0.00000000</i>
   <v name="OFIELD_K">      0.00000000      0.00000000      0.00000000</v>
   <i name="OFIELD_Q6_NEAR">      0.00000000</i>
   <i name="OFIELD_Q6_FAR">      0.00000000</i>
   <i name="OFIELD_A">      0.00000000</i>
  </separator>
 </parameters>
 <atominfo>
  <atoms>     154 </atoms>
  <types>       4 </types>
  <array name="atoms" >
   <dimension dim="1">ion</dimension>
   <field type="string">element</field>
   <field type="int">atomtype</field>
   <set>
    <rc><c>Sr</c><c>   1</c></rc>
    <rc><c>Sr</c><c>   1</c></rc>
    <rc><c>Sr</c><c>   1</c></rc>
    <rc><c>Sr</c><c>   1</c></rc>
    <rc><c>Sr</c><c>   1</c></rc>
    <rc><c>Sr</c><c>   1</c></rc>
    <rc><c>Sr</c><c>   1</c></rc>
    <rc><c>Sr</c><c>   1</c></rc>
    <rc><c>Sr</c><c>   1</c></rc>
    <rc><c>Sr</c><c>   1</c></rc>
    <rc><c>Sr</c><c>   1</c></rc>
    <rc><c>Sr</c><c>   1</c></rc>
    <rc><c>Sr</c><c>   1</c></rc>
    <rc><c>Sr</c><c>   1</c></rc>
    <rc><c>Sr</c><c>   1</c></rc>
    <rc><c>Sr</c><c>   1</c></rc>
    <rc><c>Sr</c><c>   1</c></rc>
    <rc><c>Sr</c><c>   1</c></rc>
    <rc><c>Sr</c><c>   1</c></rc>
    <rc><c>Sr</c><c>   1</c></rc>
    <rc><c>Sr</c><c>   1</c></rc>
    <rc><c>Sr</c><c>   1</c></rc>
    <rc><c>Sr</c><c>   1</c></rc>
    <rc><c>Sr</c><c>   1</c></rc>
    <rc><c>Sr</c><c>   1</c></rc>
    <rc><c>Sr</c><c>   1</c></rc>
    <rc><c>Sr</c><c>   1</c></rc>
    <rc><c>Sr</c><c>   1</c></rc>
    <rc><c>Sr</c><c>   1</c></rc>
    <rc><c>Sr</c><c>   1</c></rc>
    <rc><c>Sr</c><c>   1</c></rc>
    <rc><c>Sr</c><c>   1</c></rc>
    <rc><c>Ti</c><c>   2</c></rc>
    <rc><c>Ti</c><c>   2</c></rc>
    <rc><c>Ti</c><c>   2</c></rc>
    <rc><c>Ti</c><c>   2</c></rc>
    <rc><c>Ti</c><c>   2</c></rc>
    <rc><c>Ti</c><c>   2</c></rc>
    <rc><c>Ti</c><c>   2</c></rc>
    <rc><c>Ti</c><c>   2</c></rc>
    <rc><c>Ti</c><c>   2</c></rc>
    <rc><c>Ti</c><c>   2</c></rc>
    <rc><c>Ti</c><c>   2</c></rc>
    <rc><c>Ti</c><c>   2</c></rc>
    <rc><c>Ti</c><c>   2</c></rc>
    <rc><c>Ti</c><c>   2</c></rc>
    <rc><c>Ti</c><c>   2</c></rc>
    <rc><c>Ti</c><c>   2</c></rc>
    <rc><c>Ti</c><c>   2</c></rc>
    <rc><c>Ti</c><c>   2</c></rc>
    <rc><c>Ti</c><c>   2</c></rc>
    <rc><c>Ti</c><c>   2</c></rc>
    <rc><c>Fe</c><c>   3</c></rc>
    <rc><c>Fe</c><c>   3</c></rc>
    <rc><c>Fe</c><c>   3</c></rc>
    <rc><c>Fe</c><c>   3</c></rc>
    <rc><c>Fe</c><c>   3</c></rc>
    <rc><c>Fe</c><c>   3</c></rc>
    <rc><c>Fe</c><c>   3</c></rc>
    <rc><c>Fe</c><c>   3</c></rc>
    <rc><c>Fe</c><c>   3</c></rc>
    <rc><c>Fe</c><c>   3</c></rc>
    <rc><c>Fe</c><c>   3</c></rc>
    <rc><c>Fe</c><c>   3</c></rc>
    <rc><c>O </c><c>   4</c></rc>
    <rc><c>O </c><c>   4</c></rc>
    <rc><c>O </c><c>   4</c></rc>
    <rc><c>O </c><c>   4</c></rc>
    <rc><c>O </c><c>   4</c></rc>
    <rc><c>O </c><c>   4</c></rc>
    <rc><c>O </c><c>   4</c></rc>
    <rc><c>O </c><c>   4</c></rc>
    <rc><c>O </c><c>   4</c></rc>
    <rc><c>O </c><c>   4</c></rc>
    <rc><c>O </c><c>   4</c></rc>
    <rc><c>O </c><c>   4</c></rc>
    <rc><c>O </c><c>   4</c></rc>
    <rc><c>O </c><c>   4</c></rc>
    <rc><c>O </c><c>   4</c></rc>
    <rc><c>O </c><c>   4</c></rc>
    <rc><c>O </c><c>   4</c></rc>
    <rc><c>O </c><c>   4</c></rc>
    <rc><c>O </c><c>   4</c></rc>
    <rc><c>O </c><c>   4</c></rc>
    <rc><c>O </c><c>   4</c></rc>
    <rc><c>O </c><c>   4</c></rc>
    <rc><c>O </c><c>   4</c></rc>
    <rc><c>O </c><c>   4</c></rc>
    <rc><c>O </c><c>   4</c></rc>
    <rc><c>O </c><c>   4</c></rc>
    <rc><c>O </c><c>   4</c></rc>
    <rc><c>O </c><c>   4</c></rc>
    <rc><c>O </c><c>   4</c></rc>
    <rc><c>O </c><c>   4</c></rc>
    <rc><c>O </c><c>   4</c></rc>
    <rc><c>O </c><c>   4</c></rc>
    <rc><c>O </c><c>   4</c></rc>
    <rc><c>O </c><c>   4</c></rc>
    <rc><c>O </c><c>   4</c></rc>
    <rc><c>O </c><c>   4</c></rc>
    <rc><c>O </c><c>   4</c></rc>
    <rc><c>O </c><c>   4</c></rc>
    <rc><c>O </c><c>   4</c></rc>
    <rc><c>O </c><c>   4</c></rc>
    <rc><c>O </c><c>   4</c></rc>
    <rc><c>O </c><c>   4</c></rc>
    <rc><c>O </c><c>   4</c></rc>
    <rc><c>O </c><c>   4</c></rc>
    <rc><c>O </c><c>   4</c></rc>
    <rc><c>O </c><c>   4</c></rc>
    <rc><c>O </c><c>   4</c></rc>
    <rc><c>O </c><c>   4</c></rc>
    <rc><c>O </c><c>   4</c></rc>
    <rc><c>O </c><c>   4</c></rc>
    <rc><c>O </c><c>   4</c></rc>
    <rc><c>O </c><c>   4</c></rc>
    <rc><c>O </c><c>   4</c></rc>
    <rc><c>O </c><c>   4</c></rc>
    <rc><c>O </c><c>   4</c></rc>
    <rc><c>O </c><c>   4</c></rc>
    <rc><c>O </c><c>   4</c></rc>
    <rc><c>O </c><c>   4</c></rc>
    <rc><c>O </c><c>   4</c></rc>
    <rc><c>O </c><c>   4</c></rc>
    <rc><c>O </c><c>   4</c></rc>
    <rc><c>O </c><c>   4</c></rc>
    <rc><c>O </c><c>   4</c></rc>
    <rc><c>O </c><c>   4</c></rc>
    <rc><c>O </c><c>   4</c></rc>
    <rc><c>O </c><c>   4</c></rc>
    <rc><c>O </c><c>   4</c></rc>
    <rc><c>O </c><c>   4</c></rc>
    <rc><c>O </c><c>   4</c></rc>
    <rc><c>O </c><c>   4</c></rc>
    <rc><c>O </c><c>   4</c></rc>
    <rc><c>O </c><c>   4</c></rc>
    <rc><c>O </c><c>   4</c></rc>
    <rc><c>O </c><c>   4</c></rc>
    <rc><c>O </c><c>   4</c></rc>
    <rc><c>O </c><c>   4</c></rc>
    <rc><c>O </c><c>   4</c></rc>
    <rc><c>O </c><c>   4</c></rc>
    <rc><c>O </c><c>   4</c></rc>
    <rc><c>O </c><c>   4</c></rc>
    <rc><c>O </c><c>   4</c></rc>
    <rc><c>O </c><c>   4</c></rc>
    <rc><c>O </c><c>   4</c></rc>
    <rc><c>O </c><c>   4</c></rc>
    <rc><c>O </c><c>   4</c></rc>
    <rc><c>O </c><c>   4</c></rc>
    <rc><c>O </c><c>   4</c></rc>
    <rc><c>O </c><c>   4</c></rc>
    <rc><c>O </c><c>   4</c></rc>
    <rc><c>O </c><c>   4</c></rc>
   </set>
  </array>
  <array name="atomtypes" >
   <dimension dim="1">type</dimension>
   <field type="int">atomspertype</field>
   <field type="string">element</field>
   <field>mass</field>
   <field>valence</field>
   <field type="string">pseudopotential</field>
   <set>
    <rc><c>  32</c><c>Sr</c><c>     87.62000000</c><c>     10.00000000</c><c>  PAW_PBE Sr_sv 07Sep2000               </c></rc>
    <rc><c>  20</c><c>Ti</c><c>     47.88000000</c><c>      4.00000000</c><c>  PAW_PBE Ti 08Apr2002                  </c></rc>
    <rc><c>  12</c><c>Fe</c><c>     55.84700000</c><c>      8.00000000</c><c>  PAW_PBE Fe 06Sep2000                  </c></rc>
    <rc><c>  90</c><c>O </c><c>     16.00000000</c><c>      6.00000000</c><c>  PAW_PBE O 08Apr2002                   </c></rc>
   </set>
  </array>
 </atominfo>
 <structure name="initialpos" >
  <crystal>
   <varray name="basis" >
    <v>      11.22276555       0.02965714       0.00847688 </v>
    <v>       0.02974450      11.20788608       0.00665793 </v>
    <v>       0.01245673       0.00968837      15.96472476 </v>
   </varray>
   <i name="volume">   2008.08261783 </i>
   <varray name="rec_basis" >
    <v>       0.08910527      -0.00023643      -0.00006938 </v>
    <v>      -0.00023574       0.08922355      -0.00005396 </v>
    <v>      -0.00004721      -0.00003708       0.06263816 </v>
   </varray>
  </crystal>
  <varray name="positions" >
   <v>       0.99896722       0.24900498       0.11858394 </v>
   <v>       0.01534609       0.24532170       0.63342019 </v>
   <v>       0.99845547       0.75046731       0.11697321 </v>
   <v>       0.01289797       0.75686227       0.63403312 </v>
   <v>       0.49920864       0.23940270       0.11627658 </v>
   <v>       0.49094661       0.25083683       0.63170684 </v>
   <v>       0.49822020       0.75628275       0.11971492 </v>
   <v>       0.48991403       0.75258463       0.63447337 </v>
   <v>       0.99580785       0.24916036       0.37436739 </v>
   <v>       0.00490173       0.24974612       0.87756846 </v>
   <v>       0.99805598       0.75465985       0.37175501 </v>
   <v>       0.00391512       0.75130268       0.87487082 </v>
   <v>       0.49850767       0.24159218       0.37192642 </v>
   <v>       0.49579535       0.25180119       0.87182308 </v>
   <v>       0.49812718       0.76021794       0.37424887 </v>
   <v>       0.49361539       0.75173042       0.87428385 </v>
   <v>       0.24718892       0.99868302       0.11859431 </v>
   <v>       0.25269529       0.00123868       0.63496350 </v>
   <v>       0.23461914       0.49979923       0.11597798 </v>
   <v>       0.25894618       0.50372502       0.63379687 </v>
   <v>       0.75287692       0.99926373       0.11911867 </v>
   <v>       0.75686394       0.99730657       0.63012368 </v>
   <v>       0.75724970       0.49834140       0.11959271 </v>
   <v>       0.74431002       0.49897122       0.63837776 </v>
   <v>       0.25590762       0.99765277       0.37274346 </v>
   <v>       0.24689051       0.00214873       0.87360120 </v>
   <v>       0.25532571       0.50165421       0.37476523 </v>
   <v>       0.24331573       0.50124315       0.86997793 </v>
   <v>       0.74298328       0.99762951       0.36458977 </v>
   <v>       0.75570506       0.00119184       0.87828112 </v>
   <v>       0.74728719       0.50318049       0.36783297 </v>
   <v>       0.75287114       0.50159417       0.87719727 </v>
   <v>       0.00980705       0.00171530       0.50067793 </v>
   <v>       0.75006169       0.25169678       0.00012805 </v>
   <v>       0.25620695       0.75161863       0.50031989 </v>
   <v>       0.74918207       0.74849496       0.00078373 </v>
   <v>       0.24945617       0.25449613       0.99987396 </v>
   <v>       0.99692812       0.99837361       0.24975599 </v>
   <v>       0.24735170       0.74736448       0.99767652 </v>
   <v>       0.74590490       0.24908049       0.24519427 </v>
   <v>       0.75112670       0.75157446       0.24535581 </v>
   <v>       0.50909582       0.50236547       0.50624219 </v>
   <v>       0.00015422       0.00150640       0.75239738 </v>
   <v>       0.50070693       0.99987389       0.99696954 </v>
   <v>       0.24712084       0.74682663       0.24951712 </v>
   <v>       0.50163164       0.50186622       0.75064466 </v>
   <v>       0.99682156       0.50012906       0.24878943 </v>
   <v>       0.99623180       0.50051019       0.74675742 </v>
   <v>       0.25836433       0.25240767       0.49831542 </v>
   <v>       0.49760375       0.99854231       0.50217577 </v>
   <v>       0.49689584       0.99963890       0.24719106 </v>
   <v>       0.50366427       0.00180153       0.74884271 </v>
   <v>       0.99779584       0.49968264       0.99614683 </v>
   <v>       0.25091801       0.25191105       0.75159464 </v>
   <v>       0.73471081       0.75773718       0.48985269 </v>
   <v>       0.74839442       0.75207091       0.76094635 </v>
   <v>       0.50017504       0.50089437       0.99127348 </v>
   <v>       0.00018620       0.00065682       0.99927713 </v>
   <v>       0.25075984       0.75120912       0.75204589 </v>
   <v>       0.75023056       0.24928560       0.75942550 </v>
   <v>       0.23489138       0.23982788       0.25252355 </v>
   <v>       0.73824245       0.23356476       0.48828502 </v>
   <v>       0.02840582       0.49807052       0.50066444 </v>
   <v>       0.50968283       0.51204834       0.26252594 </v>
   <v>       0.10985346       0.12917130       0.26554886 </v>
   <v>       0.12259702       0.12923119       0.75408759 </v>
   <v>       0.11134836       0.63344851       0.25998440 </v>
   <v>       0.11891634       0.62605418       0.74393800 </v>
   <v>       0.61522332       0.13279073       0.25233379 </v>
   <v>       0.62642940       0.13069202       0.73374985 </v>
   <v>       0.61231039       0.63960745       0.24635559 </v>
   <v>       0.62378780       0.63229052       0.73872569 </v>
   <v>       0.75428339       0.24556992       0.12606916 </v>
   <v>       0.25419808       0.23840878       0.61978850 </v>
   <v>       0.12638955       0.38293359       0.73603342 </v>
   <v>       0.87195385       0.37137605       0.24999928 </v>
   <v>       0.87506735       0.36798921       0.73628429 </v>
   <v>       0.88677668       0.86357486       0.24872248 </v>
   <v>       0.87763092       0.87103180       0.74345722 </v>
   <v>       0.50464824       0.99053243       0.37418187 </v>
   <v>       0.75769620       0.75013939       0.12536583 </v>
   <v>       0.36080041       0.58082790       0.23779085 </v>
   <v>       0.37288202       0.62201844       0.75166809 </v>
   <v>       0.88617944       0.15833555       0.51356006 </v>
   <v>       0.87097983       0.12332576       0.73940284 </v>
   <v>       0.86135811       0.61570508       0.25198154 </v>
   <v>       0.86780235       0.62540020       0.74573635 </v>
   <v>       0.12592355       0.38506225       0.26049430 </v>
   <v>       0.61457936       0.86666678       0.00613310 </v>
   <v>       0.13515482       0.88255882       0.26109508 </v>
   <v>       0.27418359       0.27251223       0.37041716 </v>
   <v>       0.59961627       0.37887081       0.22802216 </v>
   <v>       0.37639520       0.12389421       0.75777048 </v>
   <v>       0.63735982       0.88747378       0.24442796 </v>
   <v>       0.63204282       0.87760518       0.73238515 </v>
   <v>       0.37040270       0.38638096       0.01055016 </v>
   <v>       0.37234048       0.38940856       0.50598876 </v>
   <v>       0.36711583       0.88412958       0.99703786 </v>
   <v>       0.35919063       0.89129953       0.49606039 </v>
   <v>       0.86448402       0.38316060       0.00063706 </v>
   <v>       0.15001040       0.61173789       0.49770810 </v>
   <v>       0.37942574       0.37558052       0.74815621 </v>
   <v>       0.86567220       0.84536234       0.52640190 </v>
   <v>       0.13685024       0.11966503       0.00204589 </v>
   <v>       0.13953200       0.11097631       0.48574714 </v>
   <v>       0.13015526       0.61728346       0.99741642 </v>
   <v>       0.38185049       0.87453529       0.75396536 </v>
   <v>       0.63356483       0.11572875       0.00449424 </v>
   <v>       0.64099967       0.10070273       0.49989957 </v>
   <v>       0.62896527       0.61498140       0.01573484 </v>
   <v>       0.66675446       0.60410994       0.50726883 </v>
   <v>       0.11504053       0.36710060       0.00408767 </v>
   <v>       0.11238356       0.35311199       0.49720266 </v>
   <v>       0.11736759       0.86694436       0.00005642 </v>
   <v>       0.62849183       0.37610878       0.74282853 </v>
   <v>       0.86122534       0.11693848       0.25302082 </v>
   <v>       0.64191618       0.35990833       0.52637111 </v>
   <v>       0.60383101       0.85593689       0.51123219 </v>
   <v>       0.38491033       0.13444502       0.99364452 </v>
   <v>       0.39235847       0.13950911       0.49131763 </v>
   <v>       0.38335596       0.63204433       0.01025112 </v>
   <v>       0.40581744       0.64213805       0.49821493 </v>
   <v>       0.87972756       0.63236560       0.99496153 </v>
   <v>       0.51246801       0.48546300       0.38023992 </v>
   <v>       0.00450266       0.00259733       0.13020038 </v>
   <v>       0.01337807       0.00204539       0.62172318 </v>
   <v>       0.99886822       0.50396675       0.12899318 </v>
   <v>       0.96822590       0.51180103       0.60871650 </v>
   <v>       0.25441381       0.75300933       0.62153971 </v>
   <v>       0.48402993       0.00611048       0.62293927 </v>
   <v>       0.61528497       0.36807506       0.01029941 </v>
   <v>       0.49783640       0.50716813       0.62499747 </v>
   <v>       0.97022498       0.99413659       0.38265673 </v>
   <v>       0.99394136       0.00167244       0.87343277 </v>
   <v>       0.96396733       0.50534518       0.39214966 </v>
   <v>       0.11439116       0.86094287       0.49079196 </v>
   <v>       0.51984731       0.99874900       0.87301292 </v>
   <v>       0.88289830       0.13491362       0.00073039 </v>
   <v>       0.51137318       0.50347295       0.87286276 </v>
   <v>       0.12841061       0.87938082       0.75116623 </v>
   <v>       0.24794189       0.26556169       0.87740852 </v>
   <v>       0.26756912       0.73959773       0.37244838 </v>
   <v>       0.25042127       0.74461176       0.87661755 </v>
   <v>       0.74224836       0.26696446       0.37237402 </v>
   <v>       0.74389023       0.25001753       0.87742158 </v>
   <v>       0.75041533       0.75494398       0.37296707 </v>
   <v>       0.73398100       0.75042773       0.87849831 </v>
   <v>       0.25489713       0.25642748       0.13230683 </v>
   <v>       0.99610306       0.49229392       0.86827557 </v>
   <v>       0.24092632       0.75067292       0.12808921 </v>
   <v>       0.36820607       0.11820592       0.25406150 </v>
   <v>       0.38756325       0.85698222       0.24769953 </v>
   <v>       0.49198788       0.00314521       0.12438782 </v>
   <v>       0.86425055       0.88216422       0.00044801 </v>
  </varray>
 </structure>
 <calculation>
  <scstep>
   <time name="dav">  302.16  302.15</time>
   <time name="total">  305.89  306.00</time>
   <energy>
    <i name="alphaZ">   5614.31562210 </i>
    <i name="ewald"> -61660.88184728 </i>
    <i name="hartreedc"> -16882.48779132 </i>
    <i name="XCdc">   3074.10660931 </i>
    <i name="pawpsdc"> 113226.11575535 </i>
    <i name="pawaedc">-112278.77384825 </i>
    <i name="eentropy">     -0.00000000 </i>
    <i name="bandstr">  -7098.32025240 </i>
    <i name="atom">  74916.81196153 </i>
    <i name="e_fr_energy">  -1089.11379096 </i>
    <i name="e_wo_entrp">  -1089.11379096 </i>
    <i name="e_0_energy">  -1089.11379096 </i>
   </energy>
  </scstep>
  <scstep>
   <time name="diag">   33.29   33.31</time>
   <time name="diis">   30.71   30.72</time>
   <time name="orth">   18.92   18.92</time>
   <time name="total">   86.66   86.76</time>
   <energy>
    <i name="e_fr_energy">  -1089.11379136 </i>
    <i name="e_wo_entrp">  -1089.11379136 </i>
    <i name="e_0_energy">  -1089.11379136 </i>
   </energy>
  </scstep>
  <scstep>
   <time name="diag">   33.30   33.31</time>
   <time name="diis">   29.17   29.20</time>
   <time name="orth">   18.97   18.96</time>
   <time name="total">   85.17   85.26</time>
   <energy>
    <i name="e_fr_energy">  -1089.11379166 </i>
    <i name="e_wo_entrp">  -1089.11379166 </i>
    <i name="e_0_energy">  -1089.11379166 </i>
   </energy>
  </scstep>
  <scstep>
   <time name="diag">   33.25   33.28</time>
   <time name="diis">   26.29   26.30</time>
   <time name="orth">   18.94   18.94</time>
   <time name="total">   82.23   82.35</time>
   <energy>
    <i name="e_fr_energy">  -1089.11379195 </i>
    <i name="e_wo_entrp">  -1089.11379195 </i>
    <i name="e_0_energy">  -1089.11379195 </i>
   </energy>
  </scstep>
  <scstep>
   <time name="diag">   33.34   33.36</time>
   <time name="diis">   25.75   25.77</time>
   <time name="orth">   18.94   18.94</time>
   <time name="total">   81.77   81.89</time>
   <energy>
    <i name="e_fr_energy">  -1089.11379213 </i>
    <i name="e_wo_entrp">  -1089.11379213 </i>
    <i name="e_0_energy">  -1089.11379213 </i>
   </energy>
  </scstep>
  <scstep>
   <time name="diag">   33.34   33.34</time>
   <time name="diis">   23.69   23.71</time>
   <time name="orth">   18.90   18.91</time>
   <time name="total">   79.67   79.85</time>
   <energy>
    <i name="e_fr_energy">  -1089.11379227 </i>
    <i name="e_wo_entrp">  -1089.11379227 </i>
    <i name="e_0_energy">  -1089.11379227 </i>
   </energy>
  </scstep>
  <scstep>
   <time name="diag">   33.28   33.29</time>
   <time name="diis">   23.41   23.42</time>
   <time name="orth">   18.90   18.90</time>
   <time name="total">   79.32   79.46</time>
   <energy>
    <i name="e_fr_energy">  -1089.11379234 </i>
    <i name="e_wo_entrp">  -1089.11379234 </i>
    <i name="e_0_energy">  -1089.11379234 </i>
   </energy>
  </scstep>
  <scstep>
   <time name="diag">   33.31   33.33</time>
   <time name="diis">   22.20   22.21</time>
   <time name="orth">   18.92   18.92</time>
   <time name="total">   75.01   75.15</time>
   <energy>
    <i name="alphaZ">   5614.31562210 </i>
    <i name="ewald"> -61660.88184728 </i>
    <i name="hartreedc"> -16882.47936467 </i>
    <i name="XCdc">   3074.10654907 </i>
    <i name="pawpsdc"> 113225.19868820 </i>
    <i name="pawaedc">-112277.85147713 </i>
    <i name="eentropy">     -0.00000000 </i>
    <i name="bandstr">  -7098.33392417 </i>
    <i name="atom">  74916.81196153 </i>
    <i name="e_fr_energy">  -1089.11379236 </i>
    <i name="e_wo_entrp">  -1089.11379236 </i>
    <i name="e_0_energy">  -1089.11379236 </i>
   </energy>
  </scstep>
  <structure>
   <crystal>
    <varray name="basis" >
     <v>      11.22276555       0.02965714       0.00847688 </v>
     <v>       0.02974450      11.20788608       0.00665793 </v>
     <v>       0.01245673       0.00968837      15.96472476 </v>
    </varray>
    <i name="volume">   2008.08261783 </i>
    <varray name="rec_basis" >
     <v>       0.08910527      -0.00023643      -0.00006938 </v>
     <v>      -0.00023574       0.08922355      -0.00005396 </v>
     <v>      -0.00004721      -0.00003708       0.06263816 </v>
    </varray>
   </crystal>
   <varray name="positions" >
    <v>       0.99896722       0.24900498       0.11858394 </v>
    <v>       0.01534609       0.24532170       0.63342019 </v>
    <v>       0.99845547       0.75046731       0.11697321 </v>
    <v>       0.01289797       0.75686227       0.63403312 </v>
    <v>       0.49920864       0.23940270       0.11627658 </v>
    <v>       0.49094661       0.25083683       0.63170684 </v>
    <v>       0.49822020       0.75628275       0.11971492 </v>
    <v>       0.48991403       0.75258463       0.63447337 </v>
    <v>       0.99580785       0.24916036       0.37436739 </v>
    <v>       0.00490173       0.24974612       0.87756846 </v>
    <v>       0.99805598       0.75465985       0.37175501 </v>
    <v>       0.00391512       0.75130268       0.87487082 </v>
    <v>       0.49850767       0.24159218       0.37192642 </v>
    <v>       0.49579535       0.25180119       0.87182308 </v>
    <v>       0.49812718       0.76021794       0.37424887 </v>
    <v>       0.49361539       0.75173042       0.87428385 </v>
    <v>       0.24718892       0.99868302       0.11859431 </v>
    <v>       0.25269529       0.00123868       0.63496350 </v>
    <v>       0.23461914       0.49979923       0.11597798 </v>
    <v>       0.25894618       0.50372502       0.63379687 </v>
    <v>       0.75287692       0.99926373       0.11911867 </v>
    <v>       0.75686394       0.99730657       0.63012368 </v>
    <v>       0.75724970       0.49834140       0.11959271 </v>
    <v>       0.74431002       0.49897122       0.63837776 </v>
    <v>       0.25590762       0.99765277       0.37274346 </v>
    <v>       0.24689051       0.00214873       0.87360120 </v>
    <v>       0.25532571       0.50165421       0.37476523 </v>
    <v>       0.24331573       0.50124315       0.86997793 </v>
    <v>       0.74298328       0.99762951       0.36458977 </v>
    <v>       0.75570506       0.00119184       0.87828112 </v>
    <v>       0.74728719       0.50318049       0.36783297 </v>
    <v>       0.75287114       0.50159417       0.87719727 </v>
    <v>       0.00980705       0.00171530       0.50067793 </v>
    <v>       0.75006169       0.25169678       0.00012805 </v>
    <v>       0.25620695       0.75161863       0.50031989 </v>
    <v>       0.74918207       0.74849496       0.00078373 </v>
    <v>       0.24945617       0.25449613       0.99987396 </v>
    <v>       0.99692812       0.99837361       0.24975599 </v>
    <v>       0.24735170       0.74736448       0.99767652 </v>
    <v>       0.74590490       0.24908049       0.24519427 </v>
    <v>       0.75112670       0.75157446       0.24535581 </v>
    <v>       0.50909582       0.50236547       0.50624219 </v>
    <v>       0.00015422       0.00150640       0.75239738 </v>
    <v>       0.50070693       0.99987389       0.99696954 </v>
    <v>       0.24712084       0.74682663       0.24951712 </v>
    <v>       0.50163164       0.50186622       0.75064466 </v>
    <v>       0.99682156       0.50012906       0.24878943 </v>
    <v>       0.99623180       0.50051019       0.74675742 </v>
    <v>       0.25836433       0.25240767       0.49831542 </v>
    <v>       0.49760375       0.99854231       0.50217577 </v>
    <v>       0.49689584       0.99963890       0.24719106 </v>
    <v>       0.50366427       0.00180153       0.74884271 </v>
    <v>       0.99779584       0.49968264       0.99614683 </v>
    <v>       0.25091801       0.25191105       0.75159464 </v>
    <v>       0.73471081       0.75773718       0.48985269 </v>
    <v>       0.74839442       0.75207091       0.76094635 </v>
    <v>       0.50017504       0.50089437       0.99127348 </v>
    <v>       0.00018620       0.00065682       0.99927713 </v>
    <v>       0.25075984       0.75120912       0.75204589 </v>
    <v>       0.75023056       0.24928560       0.75942550 </v>
    <v>       0.23489138       0.23982788       0.25252355 </v>
    <v>       0.73824245       0.23356476       0.48828502 </v>
    <v>       0.02840582       0.49807052       0.50066444 </v>
    <v>       0.50968283       0.51204834       0.26252594 </v>
    <v>       0.10985346       0.12917130       0.26554886 </v>
    <v>       0.12259702       0.12923119       0.75408759 </v>
    <v>       0.11134836       0.63344851       0.25998440 </v>
    <v>       0.11891634       0.62605418       0.74393800 </v>
    <v>       0.61522332       0.13279073       0.25233379 </v>
    <v>       0.62642940       0.13069202       0.73374985 </v>
    <v>       0.61231039       0.63960745       0.24635559 </v>
    <v>       0.62378780       0.63229052       0.73872569 </v>
    <v>       0.75428339       0.24556992       0.12606916 </v>
    <v>       0.25419808       0.23840878       0.61978850 </v>
    <v>       0.12638955       0.38293359       0.73603342 </v>
    <v>       0.87195385       0.37137605       0.24999928 </v>
    <v>       0.87506735       0.36798921       0.73628429 </v>
    <v>       0.88677668       0.86357486       0.24872248 </v>
    <v>       0.87763092       0.87103180       0.74345722 </v>
    <v>       0.50464824       0.99053243       0.37418187 </v>
    <v>       0.75769620       0.75013939       0.12536583 </v>
    <v>       0.36080041       0.58082790       0.23779085 </v>
    <v>       0.37288202       0.62201844       0.75166809 </v>
    <v>       0.88617944       0.15833555       0.51356006 </v>
    <v>       0.87097983       0.12332576       0.73940284 </v>
    <v>       0.86135811       0.61570508       0.25198154 </v>
    <v>       0.86780235       0.62540020       0.74573635 </v>
    <v>       0.12592355       0.38506225       0.26049430 </v>
    <v>       0.61457936       0.86666678       0.00613310 </v>
    <v>       0.13515482       0.88255882       0.26109508 </v>
    <v>       0.27418359       0.27251223       0.37041716 </v>
    <v>       0.59961627       0.37887081       0.22802216 </v>
    <v>       0.37639520       0.12389421       0.75777048 </v>
    <v>       0.63735982       0.88747378       0.24442796 </v>
    <v>       0.63204282       0.87760518       0.73238515 </v>
    <v>       0.37040270       0.38638096       0.01055016 </v>
    <v>       0.37234048       0.38940856       0.50598876 </v>
    <v>       0.36711583       0.88412958       0.99703786 </v>
    <v>       0.35919063       0.89129953       0.49606039 </v>
    <v>       0.86448402       0.38316060       0.00063706 </v>
    <v>       0.15001040       0.61173789       0.49770810 </v>
    <v>       0.37942574       0.37558052       0.74815621 </v>
    <v>       0.86567220       0.84536234       0.52640190 </v>
    <v>       0.13685024       0.11966503       0.00204589 </v>
    <v>       0.13953200       0.11097631       0.48574714 </v>
    <v>       0.13015526       0.61728346       0.99741642 </v>
    <v>       0.38185049       0.87453529       0.75396536 </v>
    <v>       0.63356483       0.11572875       0.00449424 </v>
    <v>       0.64099967       0.10070273       0.49989957 </v>
    <v>       0.62896527       0.61498140       0.01573484 </v>
    <v>       0.66675446       0.60410994       0.50726883 </v>
    <v>       0.11504053       0.36710060       0.00408767 </v>
    <v>       0.11238356       0.35311199       0.49720266 </v>
    <v>       0.11736759       0.86694436       0.00005642 </v>
    <v>       0.62849183       0.37610878       0.74282853 </v>
    <v>       0.86122534       0.11693848       0.25302082 </v>
    <v>       0.64191618       0.35990833       0.52637111 </v>
    <v>       0.60383101       0.85593689       0.51123219 </v>
    <v>       0.38491033       0.13444502       0.99364452 </v>
    <v>       0.39235847       0.13950911       0.49131763 </v>
    <v>       0.38335596       0.63204433       0.01025112 </v>
    <v>       0.40581744       0.64213805       0.49821493 </v>
    <v>       0.87972756       0.63236560       0.99496153 </v>
    <v>       0.51246801       0.48546300       0.38023992 </v>
    <v>       0.00450266       0.00259733       0.13020038 </v>
    <v>       0.01337807       0.00204539       0.62172318 </v>
    <v>       0.99886822       0.50396675       0.12899318 </v>
    <v>       0.96822590       0.51180103       0.60871650 </v>
    <v>       0.25441381       0.75300933       0.62153971 </v>
    <v>       0.48402993       0.00611048       0.62293927 </v>
    <v>       0.61528497       0.36807506       0.01029941 </v>
    <v>       0.49783640       0.50716813       0.62499747 </v>
    <v>       0.97022498       0.99413659       0.38265673 </v>
    <v>       0.99394136       0.00167244       0.87343277 </v>
    <v>       0.96396733       0.50534518       0.39214966 </v>
    <v>       0.11439116       0.86094287       0.49079196 </v>
    <v>       0.51984731       0.99874900       0.87301292 </v>
    <v>       0.88289830       0.13491362       0.00073039 </v>
    <v>       0.51137318       0.50347295       0.87286276 </v>
    <v>       0.12841061       0.87938082       0.75116623 </v>
    <v>       0.24794189       0.26556169       0.87740852 </v>
    <v>       0.26756912       0.73959773       0.37244838 </v>
    <v>       0.25042127       0.74461176       0.87661755 </v>
    <v>       0.74224836       0.26696446       0.37237402 </v>
    <v>       0.74389023       0.25001753       0.87742158 </v>
    <v>       0.75041533       0.75494398       0.37296707 </v>
    <v>       0.73398100       0.75042773       0.87849831 </v>
    <v>       0.25489713       0.25642748       0.13230683 </v>
    <v>       0.99610306       0.49229392       0.86827557 </v>
    <v>       0.24092632       0.75067292       0.12808921 </v>
    <v>       0.36820607       0.11820592       0.25406150 </v>
    <v>       0.38756325       0.85698222       0.24769953 </v>
    <v>       0.49198788       0.00314521       0.12438782 </v>
    <v>       0.86425055       0.88216422       0.00044801 </v>
   </varray>
  </structure>
  <varray name="forces" >
   <v>       0.00232581       0.00480668       0.00138605 </v>
   <v>       0.00310540      -0.00378724       0.00168420 </v>
   <v>       0.00024016      -0.00312920       0.00087319 </v>
   <v>      -0.00061880       0.00027095      -0.01717700 </v>
   <v>       0.00049863       0.01013850      -0.00175567 </v>
   <v>       0.00085141      -0.00475158      -0.00675673 </v>
   <v>      -0.00976392      -0.00085837       0.00682119 </v>
   <v>       0.00871164       0.00182226      -0.00028599 </v>
   <v>       0.00854920      -0.00450609       0.00230858 </v>
   <v>       0.00148232       0.00432418      -0.00516375 </v>
   <v>      -0.00106038      -0.00618357       0.00455039 </v>
   <v>      -0.00333608      -0.00359068      -0.00427071 </v>
   <v>      -0.00244240       0.00954016       0.00554711 </v>
   <v>      -0.00067252      -0.00142918       0.00914062 </v>
   <v>      -0.00037371      -0.01243684      -0.00000587 </v>
   <v>       0.00142548      -0.00032439       0.00671055 </v>
   <v>      -0.00292035      -0.00384404       0.00336838 </v>
   <v>       0.00833979       0.00126260      -0.01490299 </v>
   <v>      -0.00542912      -0.00060404      -0.00319826 </v>
   <v>      -0.00924268      -0.00527768      -0.01203470 </v>
   <v>       0.00746075       0.00335946      -0.00074115 </v>
   <v>      -0.00754375      -0.00263767      -0.00385263 </v>
   <v>      -0.00181723       0.00512881      -0.00127975 </v>
   <v>      -0.00145829       0.00030605       0.00499884 </v>
   <v>       0.00382766       0.01721699      -0.00654216 </v>
   <v>      -0.00017586      -0.00186027       0.00406977 </v>
   <v>      -0.01403322       0.00536132      -0.00057809 </v>
   <v>      -0.00329754       0.00361285       0.01099249 </v>
   <v>       0.01409020      -0.00534281       0.00751397 </v>
   <v>       0.00415693       0.00070873       0.00148301 </v>
   <v>       0.00970059      -0.00332532      -0.00159220 </v>
   <v>       0.00688833       0.00078124       0.00217744 </v>
   <v>      -0.01440052      -0.00712873      -0.01175445 </v>
   <v>      -0.00458777       0.01330624       0.01079835 </v>
   <v>       0.00460012       0.00024075      -0.00649825 </v>
   <v>       0.00838299       0.00234076      -0.00392567 </v>
   <v>      -0.00325100       0.00497812      -0.00376990 </v>
   <v>       0.01988602       0.00594214       0.00884854 </v>
   <v>      -0.00182078       0.00709800      -0.00293231 </v>
   <v>       0.00732893       0.00283161       0.00163775 </v>
   <v>      -0.00714702       0.00937679       0.00612710 </v>
   <v>      -0.00425847      -0.00219318      -0.02586322 </v>
   <v>      -0.02408378      -0.00884928       0.02718914 </v>
   <v>      -0.00555150       0.00386797       0.00140624 </v>
   <v>       0.00007718       0.00969676      -0.00393155 </v>
   <v>      -0.00633622       0.00147618      -0.01555937 </v>
   <v>       0.00789132       0.00238851      -0.00494069 </v>
   <v>       0.00435644       0.00749600       0.00103700 </v>
   <v>       0.00546428      -0.00502310      -0.01165961 </v>
   <v>      -0.01025755       0.00589445      -0.00426394 </v>
   <v>      -0.00356001      -0.00819051       0.00081147 </v>
   <v>      -0.00350465      -0.00901773      -0.01154837 </v>
   <v>       0.00479982      -0.00068880       0.00434184 </v>
   <v>      -0.00471517      -0.00336329      -0.00495945 </v>
   <v>      -0.00011412       0.02072753       0.00810414 </v>
   <v>      -0.00156196       0.00937599       0.00352900 </v>
   <v>      -0.00338749      -0.00637822      -0.00131346 </v>
   <v>       0.00905925       0.00439210       0.00586202 </v>
   <v>      -0.00604474      -0.00122148      -0.00097839 </v>
   <v>       0.00981884      -0.00218251      -0.00849489 </v>
   <v>       0.00726294       0.00251609      -0.00276040 </v>
   <v>       0.01525472      -0.00193590      -0.00614462 </v>
   <v>      -0.00101907       0.00119215       0.00007248 </v>
   <v>      -0.00059442      -0.00671177       0.00291399 </v>
   <v>       0.00402372       0.00209655       0.00353836 </v>
   <v>       0.00138421       0.01285702      -0.01175987 </v>
   <v>       0.00886075      -0.00912761       0.00456814 </v>
   <v>      -0.00530416      -0.00045001       0.01195648 </v>
   <v>       0.01647376      -0.00094490      -0.00358884 </v>
   <v>       0.00832253       0.00501644       0.01269461 </v>
   <v>      -0.00442318      -0.00196583      -0.00157252 </v>
   <v>       0.00044965      -0.01843114       0.01271840 </v>
   <v>       0.00155216       0.00697767       0.00099604 </v>
   <v>       0.00563812      -0.00546371       0.00881834 </v>
   <v>       0.00798086      -0.01156964       0.00149954 </v>
   <v>      -0.00726547      -0.00812185      -0.00539493 </v>
   <v>       0.00117515       0.00063029      -0.00032709 </v>
   <v>      -0.00950526       0.00065309      -0.00626964 </v>
   <v>       0.00325966      -0.00700129      -0.00450798 </v>
   <v>       0.00318508      -0.00108536      -0.01593619 </v>
   <v>       0.00410783      -0.01805838      -0.00677098 </v>
   <v>       0.01045503       0.00674619       0.00625566 </v>
   <v>      -0.00004370      -0.00959995       0.00297339 </v>
   <v>      -0.01210935       0.00506718      -0.00478152 </v>
   <v>      -0.00482544       0.00282532       0.00445363 </v>
   <v>      -0.00375506       0.01969454       0.01238058 </v>
   <v>      -0.00992455      -0.00799591       0.00787792 </v>
   <v>      -0.00159766      -0.00383712      -0.02155947 </v>
   <v>       0.01006262      -0.00293994       0.01475428 </v>
   <v>      -0.01549651      -0.00614000       0.00000489 </v>
   <v>      -0.01251972       0.00910631      -0.00303605 </v>
   <v>       0.00979846      -0.00936185       0.00838707 </v>
   <v>      -0.01387879       0.00872981       0.01242819 </v>
   <v>      -0.00914652       0.00130018      -0.01613824 </v>
   <v>      -0.00867874      -0.00605723      -0.01332618 </v>
   <v>       0.02008588       0.00104734       0.00735830 </v>
   <v>      -0.00657210      -0.01191160       0.00960925 </v>
   <v>      -0.00214950       0.00411102       0.00396509 </v>
   <v>      -0.01236405      -0.01251800       0.00662647 </v>
   <v>       0.00154202       0.00280787      -0.00328502 </v>
   <v>       0.00562435       0.00629514       0.00784584 </v>
   <v>      -0.00194418      -0.01326627      -0.00890818 </v>
   <v>      -0.00112980       0.00360604      -0.00772019 </v>
   <v>      -0.00694072       0.00018737      -0.00095637 </v>
   <v>      -0.00627359       0.00064937       0.00309766 </v>
   <v>       0.00588519       0.00461672      -0.00428449 </v>
   <v>       0.00238950      -0.00231791      -0.00814056 </v>
   <v>      -0.00518204       0.00616472      -0.01220348 </v>
   <v>       0.01059549       0.00036847       0.00263755 </v>
   <v>      -0.00196525       0.00053713      -0.00704763 </v>
   <v>      -0.00352952      -0.00943166       0.00466947 </v>
   <v>      -0.00643861       0.00430125       0.00061358 </v>
   <v>       0.01315271      -0.00247392       0.02109953 </v>
   <v>       0.00199341      -0.00274428      -0.00501277 </v>
   <v>       0.00876619       0.00090706      -0.00988337 </v>
   <v>       0.00962575       0.00216480      -0.00159928 </v>
   <v>      -0.00986154       0.01226856      -0.00408951 </v>
   <v>      -0.00391858       0.00662434       0.00549828 </v>
   <v>      -0.00207365      -0.01274991      -0.00783046 </v>
   <v>      -0.00545388      -0.00455748      -0.01240830 </v>
   <v>       0.00317851      -0.00561289       0.00250978 </v>
   <v>      -0.00655023      -0.01130250      -0.00142763 </v>
   <v>       0.00260793       0.00198394      -0.01343839 </v>
   <v>      -0.00869079       0.00080515      -0.00578409 </v>
   <v>       0.00020781       0.01233622       0.00739545 </v>
   <v>      -0.00760806       0.00748083       0.00356241 </v>
   <v>      -0.00648887       0.01056185       0.02018636 </v>
   <v>       0.00292230       0.01043080       0.02188814 </v>
   <v>      -0.00025644      -0.00080516       0.00113935 </v>
   <v>       0.00932038       0.00528658       0.01280222 </v>
   <v>      -0.00450271       0.00908454       0.00752476 </v>
   <v>       0.01302560      -0.00460004       0.01082152 </v>
   <v>       0.00786821      -0.00187948      -0.00194377 </v>
   <v>       0.00196271      -0.00137910      -0.00240203 </v>
   <v>      -0.00540301      -0.00976142      -0.00415144 </v>
   <v>      -0.00199058       0.00760609       0.01029262 </v>
   <v>       0.00257235      -0.01770348       0.00007703 </v>
   <v>       0.00177011       0.00786551      -0.01499663 </v>
   <v>      -0.00386923      -0.00786106       0.01136815 </v>
   <v>       0.01013126      -0.00724143      -0.00411294 </v>
   <v>       0.00039838       0.00302752      -0.00751721 </v>
   <v>      -0.00828620      -0.00167046       0.00106317 </v>
   <v>      -0.00119574       0.00386797       0.00415823 </v>
   <v>      -0.00597858       0.00308506       0.01092981 </v>
   <v>      -0.00371581       0.00121519      -0.00699704 </v>
   <v>      -0.01604509      -0.00332884      -0.01403616 </v>
   <v>       0.00505728       0.00020946      -0.00852799 </v>
   <v>      -0.00215651      -0.00494537       0.00750581 </v>
   <v>       0.01084432      -0.01305119       0.00093707 </v>
   <v>       0.00587505      -0.00024660       0.01074303 </v>
   <v>       0.01130150      -0.00140821       0.00773592 </v>
   <v>       0.00369742       0.01035676       0.00647761 </v>
   <v>       0.00093811       0.00438338      -0.00934319 </v>
   <v>      -0.00851542      -0.00203016      -0.00029599 </v>
  </varray>
  <varray name="stress" >
   <v>       0.05950046       0.01402693      -0.02451087 </v>
   <v>       0.01402712       0.13161497       0.00728368 </v>
   <v>      -0.02451143       0.00728386       0.00405314 </v>
  </varray>
  <energy>
   <i name="e_fr_energy">  -1089.11379236 </i>
   <i name="e_wo_entrp">  -1089.11379236 </i>
   <i name="e_0_energy">     -0.00000000 </i>
  </energy>
  <time name="totalsc"> 1027.88 1030.56</time>
 </calculation>
 <calculation>
  <scstep>
   <time name="dav">  294.23  294.25</time>
   <time name="total">  297.97  298.06</time>
   <energy>
    <i name="alphaZ">   5613.88543075 </i>
    <i name="ewald"> -61659.63544078 </i>
    <i name="hartreedc"> -16881.76861978 </i>
    <i name="XCdc">   3074.00317874 </i>
    <i name="pawpsdc"> 113225.19880012 </i>
    <i name="pawaedc">-112277.85160545 </i>
    <i name="eentropy">     -0.00000000 </i>
    <i name="bandstr">  -7099.75765433 </i>
    <i name="atom">  74916.81196153 </i>
    <i name="e_fr_energy">  -1089.11394919 </i>
    <i name="e_wo_entrp">  -1089.11394919 </i>
    <i name="e_0_energy">  -1089.11394919 </i>
   </energy>
  </scstep>
  <scstep>
   <time name="diag">   33.31   33.31</time>
   <time name="diis">   51.92   51.92</time>
   <time name="orth">   18.97   18.97</time>
   <time name="total">  107.96  107.97</time>
   <energy>
    <i name="e_fr_energy">  -1089.11463374 </i>
    <i name="e_wo_entrp">  -1089.11463374 </i>
    <i name="e_0_energy">  -1089.11463374 </i>
   </energy>
  </scstep>
  <scstep>
   <time name="diag">   33.27   33.29</time>
   <time name="diis">   42.71   42.71</time>
   <time name="orth">   18.96   18.96</time>
   <time name="total">   98.69   98.76</time>
   <energy>
    <i name="e_fr_energy">  -1089.11465636 </i>
    <i name="e_wo_entrp">  -1089.11465636 </i>
    <i name="e_0_energy">  -1089.11465636 </i>
   </energy>
  </scstep>
  <scstep>
   <time name="diag">   33.33   33.33</time>
   <time name="diis">   32.77   32.77</time>
   <time name="orth">   18.97   18.97</time>
   <time name="total">   88.82   88.88</time>
   <energy>
    <i name="e_fr_energy">  -1089.11462596 </i>
    <i name="e_wo_entrp">  -1089.11462596 </i>
    <i name="e_0_energy">  -1089.11462596 </i>
   </energy>
  </scstep>
  <scstep>
   <time name="diag">   33.27   33.29</time>
   <time name="diis">   31.77   31.79</time>
   <time name="orth">   18.94   18.94</time>
   <time name="total">   87.74   87.87</time>
   <energy>
    <i name="e_fr_energy">  -1089.11461604 </i>
    <i name="e_wo_entrp">  -1089.11461604 </i>
    <i name="e_0_energy">  -1089.11461604 </i>
   </energy>
  </scstep>
  <scstep>
   <time name="diag">   33.27   33.29</time>
   <time name="diis">   31.57   31.58</time>
   <time name="orth">   18.93   18.93</time>
   <time name="total">   87.55   87.59</time>
   <energy>
    <i name="e_fr_energy">  -1089.11461319 </i>
    <i name="e_wo_entrp">  -1089.11461319 </i>
    <i name="e_0_energy">  -1089.11461319 </i>
   </energy>
  </scstep>
  <scstep>
   <time name="diag">   33.29   33.32</time>
   <time name="diis">   31.13   31.16</time>
   <time name="orth">   18.94   18.94</time>
   <time name="total">   87.10   87.20</time>
   <energy>
    <i name="e_fr_energy">  -1089.11461329 </i>
    <i name="e_wo_entrp">  -1089.11461329 </i>
    <i name="e_0_energy">  -1089.11461329 </i>
   </energy>
  </scstep>
  <scstep>
   <time name="diag">   33.35   33.35</time>
   <time name="diis">   29.21   29.21</time>
   <time name="orth">   18.92   18.92</time>
   <time name="total">   82.05   82.15</time>
   <energy>
    <i name="alphaZ">   5613.88543075 </i>
    <i name="ewald"> -61659.63544078 </i>
    <i name="hartreedc"> -16882.94441320 </i>
    <i name="XCdc">   3074.07709545 </i>
    <i name="pawpsdc"> 113202.68728757 </i>
    <i name="pawaedc">-112255.32244916 </i>
    <i name="eentropy">     -0.00000000 </i>
    <i name="bandstr">  -7098.67408558 </i>
    <i name="atom">  74916.81196153 </i>
    <i name="e_fr_energy">  -1089.11461343 </i>
    <i name="e_wo_entrp">  -1089.11461343 </i>
    <i name="e_0_energy">  -1089.11461343 </i>
   </energy>
  </scstep>
  <structure>
   <crystal>
    <varray name="basis" >
     <v>      11.22302782       0.02972050       0.00836897 </v>
     <v>       0.02980686      11.20846544       0.00668970 </v>
     <v>       0.01230344       0.00973460      15.96475008 </v>
    </varray>
    <i name="volume">   2008.23649695 </i>
    <varray name="rec_basis" >
     <v>       0.08910319      -0.00023691      -0.00006852 </v>
     <v>      -0.00023623       0.08921894      -0.00005422 </v>
     <v>      -0.00004661      -0.00003726       0.06263806 </v>
    </varray>
   </crystal>
   <varray name="positions" >
    <v>       0.99897716       0.24902564       0.11858811 </v>
    <v>       0.01535947       0.24530535       0.63342528 </v>
    <v>       0.99845654       0.75045383       0.11697585 </v>
    <v>       0.01289537       0.75686349       0.63398122 </v>
    <v>       0.49921067       0.23944634       0.11627125 </v>
    <v>       0.49095035       0.25081639       0.63168642 </v>
    <v>       0.49817821       0.75627915       0.11973555 </v>
    <v>       0.48995146       0.75259237       0.63447249 </v>
    <v>       0.99584464       0.24914086       0.37437436 </v>
    <v>       0.00490807       0.24976473       0.87755285 </v>
    <v>       0.99805148       0.75463324       0.37176878 </v>
    <v>       0.00390084       0.75128727       0.87485793 </v>
    <v>       0.49849704       0.24163326       0.37194318 </v>
    <v>       0.49579245       0.25179502       0.87185071 </v>
    <v>       0.49812571       0.76016441       0.37424887 </v>
    <v>       0.49362150       0.75172899       0.87430413 </v>
    <v>       0.24717640       0.99866650       0.11860450 </v>
    <v>       0.25273117       0.00124406       0.63491844 </v>
    <v>       0.23459582       0.49979670       0.11596833 </v>
    <v>       0.25890655       0.50370244       0.63376054 </v>
    <v>       0.75290895       0.99927810       0.11911640 </v>
    <v>       0.75683155       0.99729531       0.63011206 </v>
    <v>       0.75724183       0.49836350       0.11958884 </v>
    <v>       0.74430373       0.49897254       0.63839287 </v>
    <v>       0.25592390       0.99772685       0.37272365 </v>
    <v>       0.24688976       0.00214071       0.87361350 </v>
    <v>       0.25526533       0.50167745       0.37476350 </v>
    <v>       0.24330148       0.50125871       0.87001115 </v>
    <v>       0.74304388       0.99760633       0.36461246 </v>
    <v>       0.75572291       0.00119484       0.87828559 </v>
    <v>       0.74732893       0.50316607       0.36782815 </v>
    <v>       0.75290073       0.50159745       0.87720383 </v>
    <v>       0.00974527       0.00168481       0.50064245 </v>
    <v>       0.75004178       0.25175408       0.00016067 </v>
    <v>       0.25622674       0.75161963       0.50030024 </v>
    <v>       0.74921809       0.74850495       0.00077185 </v>
    <v>       0.24944215       0.25451760       0.99986257 </v>
    <v>       0.99701351       0.99839894       0.24978268 </v>
    <v>       0.24734381       0.74739506       0.99766766 </v>
    <v>       0.74593637       0.24909260       0.24519920 </v>
    <v>       0.75109585       0.75161488       0.24537432 </v>
    <v>       0.50907763       0.50235614       0.50616405 </v>
    <v>       0.00005070       0.00146851       0.75247961 </v>
    <v>       0.50068302       0.99989060       0.99697380 </v>
    <v>       0.24712108       0.74686837       0.24950522 </v>
    <v>       0.50160443       0.50187269       0.75059765 </v>
    <v>       0.99685547       0.50013927       0.24877448 </v>
    <v>       0.99625044       0.50054240       0.74676053 </v>
    <v>       0.25838791       0.25238602       0.49828018 </v>
    <v>       0.49755960       0.99856781       0.50216290 </v>
    <v>       0.49688063       0.99960368       0.24719354 </v>
    <v>       0.50364934       0.00176278       0.74880783 </v>
    <v>       0.99781646       0.49967961       0.99615994 </v>
    <v>       0.25089779       0.25189664       0.75157967 </v>
    <v>       0.73471006       0.75782638       0.48987714 </v>
    <v>       0.74838759       0.75211128       0.76095700 </v>
    <v>       0.50016055       0.50086695       0.99126953 </v>
    <v>       0.00022508       0.00067561       0.99929481 </v>
    <v>       0.25073388       0.75120393       0.75204295 </v>
    <v>       0.75027282       0.24927612       0.75939982 </v>
    <v>       0.23492258       0.23983863       0.25251519 </v>
    <v>       0.73830806       0.23355627       0.48826643 </v>
    <v>       0.02840142       0.49807566       0.50066466 </v>
    <v>       0.50968034       0.51201945       0.26253476 </v>
    <v>       0.10987072       0.12918027       0.26555954 </v>
    <v>       0.12260286       0.12928654       0.75405203 </v>
    <v>       0.11138654       0.63340911       0.25999820 </v>
    <v>       0.11889351       0.62605227       0.74397414 </v>
    <v>       0.61529416       0.13278648       0.25232291 </v>
    <v>       0.62646507       0.13071348       0.73378818 </v>
    <v>       0.61229140       0.63959904       0.24635085 </v>
    <v>       0.62378991       0.63221115       0.73876415 </v>
    <v>       0.75428998       0.24559994       0.12607216 </v>
    <v>       0.25422235       0.23838517       0.61981515 </v>
    <v>       0.12642398       0.38288369       0.73603796 </v>
    <v>       0.87192273       0.37134119       0.24998301 </v>
    <v>       0.87507239       0.36799191       0.73628330 </v>
    <v>       0.88673584       0.86357780       0.24870356 </v>
    <v>       0.87764503       0.87100164       0.74344360 </v>
    <v>       0.50466199       0.99052776       0.37413371 </v>
    <v>       0.75771409       0.75006163       0.12534539 </v>
    <v>       0.36084526       0.58085681       0.23780971 </v>
    <v>       0.37288193       0.62197711       0.75167709 </v>
    <v>       0.88612734       0.15835751       0.51354563 </v>
    <v>       0.87095904       0.12333796       0.73941631 </v>
    <v>       0.86134170       0.61578987       0.25201893 </v>
    <v>       0.86775975       0.62536588       0.74576019 </v>
    <v>       0.12591680       0.38504581       0.26042916 </v>
    <v>       0.61462260       0.86665398       0.00617766 </v>
    <v>       0.13508827       0.88253257       0.26109514 </v>
    <v>       0.27412968       0.27255157       0.37040800 </v>
    <v>       0.59965847       0.37883038       0.22804750 </v>
    <v>       0.37633540       0.12393191       0.75780805 </v>
    <v>       0.63732054       0.88747953       0.24437922 </v>
    <v>       0.63200563       0.87757924       0.73234491 </v>
    <v>       0.37048900       0.38638522       0.01057235 </v>
    <v>       0.37231234       0.38935733       0.50601784 </v>
    <v>       0.36710653       0.88414729       0.99704984 </v>
    <v>       0.35913760       0.89124577       0.49608047 </v>
    <v>       0.86449063       0.38317268       0.00062712 </v>
    <v>       0.15003448       0.61176490       0.49773179 </v>
    <v>       0.37941756       0.37552346       0.74812932 </v>
    <v>       0.86566733       0.84537789       0.52637857 </v>
    <v>       0.13682041       0.11966591       0.00204302 </v>
    <v>       0.13950501       0.11097917       0.48575652 </v>
    <v>       0.13018052       0.61730328       0.99740345 </v>
    <v>       0.38186081       0.87452531       0.75394076 </v>
    <v>       0.63354252       0.11575538       0.00445736 </v>
    <v>       0.64104520       0.10070419       0.49990751 </v>
    <v>       0.62895684       0.61498375       0.01571355 </v>
    <v>       0.66673938       0.60406937       0.50728296 </v>
    <v>       0.11501280       0.36711919       0.00408954 </v>
    <v>       0.11244006       0.35310114       0.49726639 </v>
    <v>       0.11737621       0.86693253       0.00004128 </v>
    <v>       0.62852954       0.37611261       0.74279865 </v>
    <v>       0.86126670       0.11694769       0.25301596 </v>
    <v>       0.64187366       0.35996126       0.52635876 </v>
    <v>       0.60381407       0.85596543       0.51124880 </v>
    <v>       0.38490159       0.13439018       0.99362089 </v>
    <v>       0.39233512       0.13948959       0.49128015 </v>
    <v>       0.38336968       0.63202013       0.01025870 </v>
    <v>       0.40578941       0.64208948       0.49821065 </v>
    <v>       0.87973879       0.63237415       0.99492091 </v>
    <v>       0.51243067       0.48546657       0.38022246 </v>
    <v>       0.00450338       0.00265041       0.13022271 </v>
    <v>       0.01334527       0.00207767       0.62173395 </v>
    <v>       0.99884014       0.50401224       0.12905418 </v>
    <v>       0.96823827       0.51184583       0.60878261 </v>
    <v>       0.25441272       0.75300586       0.62154316 </v>
    <v>       0.48406989       0.00613309       0.62297792 </v>
    <v>       0.61526549       0.36811419       0.01032214 </v>
    <v>       0.49789241       0.50714815       0.62503015 </v>
    <v>       0.97025883       0.99412841       0.38265084 </v>
    <v>       0.99394982       0.00166649       0.87342551 </v>
    <v>       0.96394422       0.50530324       0.39213714 </v>
    <v>       0.11438248       0.86097561       0.49082305 </v>
    <v>       0.51985857       0.99867276       0.87301318 </v>
    <v>       0.88290586       0.13494750       0.00068505 </v>
    <v>       0.51135660       0.50343913       0.87289714 </v>
    <v>       0.12845426       0.87934955       0.75115379 </v>
    <v>       0.24794359       0.26557474       0.87738580 </v>
    <v>       0.26753352       0.73959064       0.37245162 </v>
    <v>       0.25041608       0.74462841       0.87663011 </v>
    <v>       0.74222259       0.26697778       0.37240706 </v>
    <v>       0.74387427       0.25002282       0.87740044 </v>
    <v>       0.75034645       0.75492987       0.37292470 </v>
    <v>       0.73400276       0.75042860       0.87847253 </v>
    <v>       0.25488789       0.25640619       0.13232952 </v>
    <v>       0.99614982       0.49223762       0.86827840 </v>
    <v>       0.24095154       0.75067177       0.12812166 </v>
    <v>       0.36825464       0.11819971       0.25408485 </v>
    <v>       0.38757901       0.85702674       0.24771908 </v>
    <v>       0.49199189       0.00316409       0.12435958 </v>
    <v>       0.86421397       0.88215558       0.00044714 </v>
   </varray>
  </structure>
  <varray name="forces" >
   <v>      -0.00148334       0.00060865       0.00107725 </v>
   <v>       0.00546543      -0.00750275       0.00486443 </v>
   <v>      -0.00542776      -0.00200299       0.00196554 </v>
   <v>       0.00302850       0.00373585      -0.01111434 </v>
   <v>       0.00276040       0.00708401      -0.00207301 </v>
   <v>       0.00260325       0.00306356       0.00266689 </v>
   <v>      -0.00409958      -0.00260044       0.00121085 </v>
   <v>       0.00567252      -0.00462668       0.00311074 </v>
   <v>       0.00758884      -0.00300045       0.00313988 </v>
   <v>      -0.00073294       0.00711645      -0.00943334 </v>
   <v>      -0.00177635      -0.00622516       0.00106020 </v>
   <v>      -0.00235126      -0.00668080      -0.00405126 </v>
   <v>       0.00500023       0.00731925       0.00173253 </v>
   <v>       0.00240347      -0.00132286       0.00081695 </v>
   <v>       0.00077672      -0.01077468      -0.00243705 </v>
   <v>       0.00347547      -0.00300835       0.00719262 </v>
   <v>       0.00090851      -0.00072082      -0.00026726 </v>
   <v>      -0.00409754       0.00276452      -0.00704079 </v>
   <v>       0.00019159       0.00135104       0.00001684 </v>
   <v>      -0.00507546      -0.00850626      -0.00541630 </v>
   <v>       0.00512180       0.00315672      -0.00060213 </v>
   <v>      -0.00705516       0.00290747       0.00050934 </v>
   <v>      -0.00438798       0.00933231      -0.00151620 </v>
   <v>      -0.00564050      -0.00087358       0.00648541 </v>
   <v>       0.00117283       0.01260114      -0.00410876 </v>
   <v>       0.00248234       0.00135495      -0.00287369 </v>
   <v>      -0.01325868       0.00741743      -0.00305667 </v>
   <v>      -0.00076426       0.00172888       0.00401947 </v>
   <v>       0.01024796       0.00018324      -0.00025594 </v>
   <v>      -0.00475696       0.00789979       0.00601829 </v>
   <v>       0.00783984      -0.00211499      -0.00274114 </v>
   <v>       0.00139998      -0.00015012      -0.00186357 </v>
   <v>       0.00434119       0.00318295       0.02308343 </v>
   <v>      -0.00194304       0.00114779      -0.02088405 </v>
   <v>      -0.00414581      -0.00191593       0.00404940 </v>
   <v>      -0.02848827      -0.00623600       0.00248233 </v>
   <v>       0.00360499       0.00319231      -0.01508526 </v>
   <v>      -0.00196662      -0.00014500      -0.00867611 </v>
   <v>       0.01226817       0.00009475      -0.00628756 </v>
   <v>       0.00169269      -0.00377194       0.00417945 </v>
   <v>      -0.00353251       0.00144383      -0.01001047 </v>
   <v>       0.00314128      -0.00557336       0.01570687 </v>
   <v>       0.02032012       0.00026882      -0.01141491 </v>
   <v>       0.01356021      -0.00505685      -0.00256960 </v>
   <v>       0.00240539      -0.00047469       0.00088947 </v>
   <v>      -0.00273863      -0.01509698       0.00508199 </v>
   <v>      -0.00956473       0.00048235       0.00584970 </v>
   <v>       0.00559317      -0.00842879       0.00029786 </v>
   <v>      -0.01059550       0.00087952       0.02047021 </v>
   <v>       0.00038404       0.00441709      -0.00446931 </v>
   <v>       0.01301611       0.01046458      -0.00733993 </v>
   <v>      -0.00875611       0.00824292       0.00952771 </v>
   <v>      -0.00225180       0.00413901      -0.00440616 </v>
   <v>      -0.00176415      -0.00217327      -0.00879077 </v>
   <v>      -0.01228059      -0.00296941      -0.00698039 </v>
   <v>      -0.00568462      -0.00560109       0.00075737 </v>
   <v>       0.00551137       0.00524515      -0.00313391 </v>
   <v>      -0.00026140       0.00659335       0.00741074 </v>
   <v>      -0.00218423      -0.00209695      -0.00353395 </v>
   <v>      -0.00084686       0.00779641      -0.00078286 </v>
   <v>       0.00700745       0.00129373      -0.00424922 </v>
   <v>      -0.00534455       0.01322678       0.00307416 </v>
   <v>       0.00105272      -0.00141840       0.01278734 </v>
   <v>       0.00803869       0.00351767      -0.00719489 </v>
   <v>       0.00860856       0.00390557       0.00401781 </v>
   <v>      -0.01322363      -0.00305513      -0.00636621 </v>
   <v>       0.01041987      -0.00637205       0.00568373 </v>
   <v>      -0.00375359       0.00252065       0.01068172 </v>
   <v>       0.00975679      -0.00721445      -0.00270568 </v>
   <v>       0.00023138      -0.00553516       0.00940628 </v>
   <v>      -0.00759206      -0.00464967       0.00010114 </v>
   <v>       0.00289870      -0.00465747       0.01220147 </v>
   <v>       0.00268673       0.00578865      -0.00246941 </v>
   <v>       0.00795027      -0.00755016      -0.01133881 </v>
   <v>      -0.00196501       0.00083972       0.00033131 </v>
   <v>       0.00253592       0.00317441      -0.00115374 </v>
   <v>       0.00679390       0.00214963      -0.00104601 </v>
   <v>       0.00071302       0.00961462      -0.00579376 </v>
[...]
       <r>   -16.5968     0.0000    32.0000 </r>
       <r>   -16.4440     0.0000    32.0000 </r>
       <r>   -16.2912     0.0000    32.0000 </r>
       <r>   -16.1384     0.0000    32.0000 </r>
       <r>   -15.9855     0.0000    32.0000 </r>
       <r>   -15.8327     0.0000    32.0000 </r>
       <r>   -15.6799     0.0000    32.0000 </r>
       <r>   -15.5271     0.0000    32.0000 </r>
       <r>   -15.3743     0.0000    32.0000 </r>
       <r>   -15.2215     1.4869    32.2272 </r>
       <r>   -15.0687    20.1563    35.3072 </r>
       <r>   -14.9159    33.2618    40.3897 </r>
       <r>   -14.7631    48.9562    47.8703 </r>
       <r>   -14.6103    43.5344    54.5225 </r>
       <r>   -14.4575    35.2238    59.9049 </r>
       <r>   -14.3047    45.7595    66.8971 </r>
       <r>   -14.1519    70.5529    77.6778 </r>
       <r>   -13.9991   104.0323    93.5743 </r>
       <r>   -13.8463    88.2848   107.0645 </r>
       <r>   -13.6935    56.2713   115.6629 </r>
       <r>   -13.5407    35.2747   121.0530 </r>
       <r>   -13.3879     6.1974   122.0000 </r>
       <r>   -13.2351     0.0001   122.0000 </r>
       <r>   -13.0823     0.0000   122.0000 </r>
       <r>   -12.9295     0.0000   122.0000 </r>
       <r>   -12.7767     1.0873   122.1661 </r>
       <r>   -12.6239    63.5314   131.8740 </r>
       <r>   -12.4711   143.0452   153.7317 </r>
       <r>   -12.3183   128.8130   173.4148 </r>
       <r>   -12.1655   109.0959   190.0850 </r>
       <r>   -12.0127    95.6920   204.7071 </r>
       <r>   -11.8599    61.6351   214.1251 </r>
       <r>   -11.7071    20.1262   217.2005 </r>
       <r>   -11.5543     5.2321   218.0000 </r>
       <r>   -11.4014     0.0003   218.0000 </r>
       <r>   -11.2486     0.0000   218.0000 </r>
       <r>   -11.0958     0.0000   218.0000 </r>
       <r>   -10.9430     0.0000   218.0000 </r>
       <r>   -10.7902     0.0000   218.0000 </r>
       <r>   -10.6374     0.0000   218.0000 </r>
       <r>   -10.4846     0.0000   218.0000 </r>
       <r>   -10.3318     0.0000   218.0000 </r>
       <r>   -10.1790     0.0000   218.0000 </r>
       <r>   -10.0262     0.0000   218.0000 </r>
       <r>    -9.8734     0.0000   218.0000 </r>
       <r>    -9.7206     0.0000   218.0000 </r>
       <r>    -9.5678     0.0000   218.0000 </r>
       <r>    -9.4150     0.0000   218.0000 </r>
       <r>    -9.2622     0.0000   218.0000 </r>
       <r>    -9.1094     0.0000   218.0000 </r>
       <r>    -8.9566     0.0000   218.0000 </r>
       <r>    -8.8038     0.0000   218.0000 </r>
       <r>    -8.6510     0.0000   218.0000 </r>
       <r>    -8.4982     0.0000   218.0000 </r>
       <r>    -8.3454     0.0000   218.0000 </r>
       <r>    -8.1926     0.0000   218.0000 </r>
       <r>    -8.0398     0.0000   218.0000 </r>
       <r>    -7.8870     0.0000   218.0000 </r>
       <r>    -7.7342     0.0000   218.0000 </r>
       <r>    -7.5814     0.0000   218.0000 </r>
       <r>    -7.4286     0.0000   218.0000 </r>
       <r>    -7.2758     0.0000   218.0000 </r>
       <r>    -7.1230     0.0000   218.0000 </r>
       <r>    -6.9702     0.0000   218.0000 </r>
       <r>    -6.8173     0.0000   218.0000 </r>
       <r>    -6.6645     0.0000   218.0000 </r>
       <r>    -6.5117     0.0000   218.0000 </r>
       <r>    -6.3589     0.0000   218.0000 </r>
       <r>    -6.2061     0.0000   218.0000 </r>
       <r>    -6.0533     0.0000   218.0000 </r>
       <r>    -5.9005     0.0000   218.0000 </r>
       <r>    -5.7477     0.0000   218.0000 </r>
       <r>    -5.5949     0.0000   218.0000 </r>
       <r>    -5.4421     0.0000   218.0000 </r>
       <r>    -5.2893     0.0000   218.0000 </r>
       <r>    -5.1365     0.0000   218.0000 </r>
       <r>    -4.9837     0.0000   218.0000 </r>
       <r>    -4.8309     0.0000   218.0000 </r>
       <r>    -4.6781     3.3001   218.5043 </r>
       <r>    -4.5253     9.7019   219.9868 </r>
       <r>    -4.3725     6.0516   220.9115 </r>
       <r>    -4.2197    13.0291   222.9024 </r>
       <r>    -4.0669     0.6390   223.0000 </r>
       <r>    -3.9141     0.0000   223.0000 </r>
       <r>    -3.7613     0.0000   223.0000 </r>
       <r>    -3.6085     0.0000   223.0000 </r>
       <r>    -3.4557     0.0000   223.0000 </r>
       <r>    -3.3029     0.0000   223.0000 </r>
       <r>    -3.1501     0.0000   223.0000 </r>
       <r>    -2.9973     0.0000   223.0000 </r>
       <r>    -2.8445     0.0000   223.0000 </r>
       <r>    -2.6917     0.0000   223.0000 </r>
       <r>    -2.5389     0.0000   223.0000 </r>
       <r>    -2.3861     2.7555   223.4211 </r>
       <r>    -2.2333    14.9405   225.7040 </r>
       <r>    -2.0804    32.0958   230.6084 </r>
       <r>    -1.9276    26.8783   234.7155 </r>
       <r>    -1.7748    36.4795   240.2897 </r>
       <r>    -1.6220    38.4854   246.1703 </r>
       <r>    -1.4692    46.8987   253.3366 </r>
       <r>    -1.3164    46.8434   260.4944 </r>
       <r>    -1.1636    65.0590   270.4357 </r>
       <r>    -1.0108    80.9658   282.8075 </r>
       <r>    -0.8580    78.6663   294.8280 </r>
       <r>    -0.7052    83.2052   307.5420 </r>
       <r>    -0.5524    92.0011   321.6001 </r>
       <r>    -0.3996    97.8339   336.5494 </r>
       <r>    -0.2468    78.9887   348.6192 </r>
       <r>    -0.0940    51.2642   356.4525 </r>
       <r>     0.0588    53.9288   364.6930 </r>
       <r>     0.2116    47.2059   371.9063 </r>
       <r>     0.3644    49.8855   379.5289 </r>
       <r>     0.5172    57.8450   388.3679 </r>
       <r>     0.6700    57.0665   397.0878 </r>
       <r>     0.8228    53.1311   405.2064 </r>
       <r>     0.9756    55.9435   413.7548 </r>
       <r>     1.1284    64.4282   423.5996 </r>
       <r>     1.2812    75.5301   435.1409 </r>
       <r>     1.4340    78.7712   447.1774 </r>
       <r>     1.5868    78.7657   459.2130 </r>
       <r>     1.7396    78.1667   471.1571 </r>
       <r>     1.8924    54.7232   479.5190 </r>
       <r>     2.0452    47.4227   486.7654 </r>
       <r>     2.1980    26.4010   490.7995 </r>
       <r>     2.3508     6.0543   491.7246 </r>
       <r>     2.5037     8.3047   492.9936 </r>
       <r>     2.6565     0.0416   493.0000 </r>
       <r>     2.8093     0.0000   493.0000 </r>
       <r>     2.9621     0.0000   493.0000 </r>
       <r>     3.1149     0.0000   493.0000 </r>
       <r>     3.2677     0.0000   493.0000 </r>
       <r>     3.4205     0.0000   493.0000 </r>
       <r>     3.5733     0.0000   493.0000 </r>
       <r>     3.7261     0.0000   493.0000 </r>
       <r>     3.8789     0.0000   493.0000 </r>
       <r>     4.0317     0.0000   493.0000 </r>
       <r>     4.1845     0.0000   493.0000 </r>
       <r>     4.3373     0.0002   493.0000 </r>
       <r>     4.4901     5.4821   493.8377 </r>
       <r>     4.6429    38.8408   499.7727 </r>
       <r>     4.7957    44.9310   506.6383 </r>
       <r>     4.9485    45.5114   513.5926 </r>
       <r>     5.1013    45.8952   520.6056 </r>
       <r>     5.2541    60.1180   529.7918 </r>
       <r>     5.4069    82.0529   542.3297 </r>
       <r>     5.5597    65.9291   552.4039 </r>
       <r>     5.7125    72.8073   563.5291 </r>
       <r>     5.8653    55.5763   572.0214 </r>
       <r>     6.0181    70.1968   582.7477 </r>
       <r>     6.1709    89.3570   596.4017 </r>
       <r>     6.3237    66.1124   606.5039 </r>
       <r>     6.4765    29.5441   611.0183 </r>
       <r>     6.6293    14.4963   613.2334 </r>
       <r>     6.7821    10.9193   614.9019 </r>
       <r>     6.9349    13.8233   617.0142 </r>
       <r>     7.0878    20.7807   620.1896 </r>
       <r>     7.2406    18.5637   623.0262 </r>
       <r>     7.3934    16.2121   625.5034 </r>
       <r>     7.5462    14.2746   627.6846 </r>
       <r>     7.6990    14.7846   629.9438 </r>
       <r>     7.8518    19.8069   632.9703 </r>
       <r>     8.0046    26.0636   636.9529 </r>
       <r>     8.1574    26.0462   640.9329 </r>
       <r>     8.3102    26.5739   644.9935 </r>
       <r>     8.4630    23.5388   648.5903 </r>
       <r>     8.6158    28.1379   652.8898 </r>
       <r>     8.7686    31.8895   657.7626 </r>
       <r>     8.9214    32.8617   662.7840 </r>
       <r>     9.0742    35.8576   668.2632 </r>
       <r>     9.2270    34.0289   673.4629 </r>
       <r>     9.3798    37.7583   679.2325 </r>
       <r>     9.5326    46.2399   686.2981 </r>
       <r>     9.6854    50.1300   693.9581 </r>
       <r>     9.8382    62.3999   703.4930 </r>
       <r>     9.9910    61.7925   712.9351 </r>
       <r>    10.1438    62.1299   722.4288 </r>
       <r>    10.2966    55.3406   730.8850 </r>
       <r>    10.4494    55.1378   739.3103 </r>
       <r>    10.6022    59.4510   748.3946 </r>
       <r>    10.7550    54.4241   756.7108 </r>
       <r>    10.9078    51.3976   764.5645 </r>
       <r>    11.0606    22.4611   767.9966 </r>
       <r>    11.2134     0.0222   768.0000 </r>
       <r>    11.3662     0.0000   768.0000 </r>
       <r>    11.5190     0.0000   768.0000 </r>
       <r>    11.6719     0.0000   768.0000 </r>
       <r>    11.8247     0.0000   768.0000 </r>
       <r>    11.9775     0.0000   768.0000 </r>
       <r>    12.1303     0.0000   768.0000 </r>
       <r>    12.2831     0.0000   768.0000 </r>
       <r>    12.4359     0.0000   768.0000 </r>
       <r>    12.5887     0.0000   768.0000 </r>
       <r>    12.7415     0.0000   768.0000 </r>
       <r>    12.8943     0.0000   768.0000 </r>
       <r>    13.0471     0.0000   768.0000 </r>
      </set>
     </set>
    </array>
   </total>
  </dos>
 </calculation>
 <structure name="finalpos" >
  <crystal>
   <varray name="basis" >
    <v>      11.22302782       0.02972050       0.00836897 </v>
    <v>       0.02980686      11.20846544       0.00668970 </v>
    <v>       0.01230344       0.00973460      15.96475008 </v>
   </varray>
   <i name="volume">   2008.23649695 </i>
   <varray name="rec_basis" >
    <v>       0.08910319      -0.00023691      -0.00006852 </v>
    <v>      -0.00023623       0.08921894      -0.00005422 </v>
    <v>      -0.00004661      -0.00003726       0.06263806 </v>
   </varray>
  </crystal>
  <varray name="positions" >
   <v>       0.99897716       0.24902564       0.11858811 </v>
   <v>       0.01535947       0.24530535       0.63342528 </v>
   <v>       0.99845654       0.75045383       0.11697585 </v>
   <v>       0.01289537       0.75686349       0.63398122 </v>
   <v>       0.49921067       0.23944634       0.11627125 </v>
   <v>       0.49095035       0.25081639       0.63168642 </v>
   <v>       0.49817821       0.75627915       0.11973555 </v>
   <v>       0.48995146       0.75259237       0.63447249 </v>
   <v>       0.99584464       0.24914086       0.37437436 </v>
   <v>       0.00490807       0.24976473       0.87755285 </v>
   <v>       0.99805148       0.75463324       0.37176878 </v>
   <v>       0.00390084       0.75128727       0.87485793 </v>
   <v>       0.49849704       0.24163326       0.37194318 </v>
   <v>       0.49579245       0.25179502       0.87185071 </v>
   <v>       0.49812571       0.76016441       0.37424887 </v>
   <v>       0.49362150       0.75172899       0.87430413 </v>
   <v>       0.24717640       0.99866650       0.11860450 </v>
   <v>       0.25273117       0.00124406       0.63491844 </v>
   <v>       0.23459582       0.49979670       0.11596833 </v>
   <v>       0.25890655       0.50370244       0.63376054 </v>
   <v>       0.75290895       0.99927810       0.11911640 </v>
   <v>       0.75683155       0.99729531       0.63011206 </v>
   <v>       0.75724183       0.49836350       0.11958884 </v>
   <v>       0.74430373       0.49897254       0.63839287 </v>
   <v>       0.25592390       0.99772685       0.37272365 </v>
   <v>       0.24688976       0.00214071       0.87361350 </v>
   <v>       0.25526533       0.50167745       0.37476350 </v>
   <v>       0.24330148       0.50125871       0.87001115 </v>
   <v>       0.74304388       0.99760633       0.36461246 </v>
   <v>       0.75572291       0.00119484       0.87828559 </v>
   <v>       0.74732893       0.50316607       0.36782815 </v>
   <v>       0.75290073       0.50159745       0.87720383 </v>
   <v>       0.00974527       0.00168481       0.50064245 </v>
   <v>       0.75004178       0.25175408       0.00016067 </v>
   <v>       0.25622674       0.75161963       0.50030024 </v>
   <v>       0.74921809       0.74850495       0.00077185 </v>
   <v>       0.24944215       0.25451760       0.99986257 </v>
   <v>       0.99701351       0.99839894       0.24978268 </v>
   <v>       0.24734381       0.74739506       0.99766766 </v>
   <v>       0.74593637       0.24909260       0.24519920 </v>
   <v>       0.75109585       0.75161488       0.24537432 </v>
   <v>       0.50907763       0.50235614       0.50616405 </v>
   <v>       0.00005070       0.00146851       0.75247961 </v>
   <v>       0.50068302       0.99989060       0.99697380 </v>
   <v>       0.24712108       0.74686837       0.24950522 </v>
   <v>       0.50160443       0.50187269       0.75059765 </v>
   <v>       0.99685547       0.50013927       0.24877448 </v>
   <v>       0.99625044       0.50054240       0.74676053 </v>
   <v>       0.25838791       0.25238602       0.49828018 </v>
   <v>       0.49755960       0.99856781       0.50216290 </v>
   <v>       0.49688063       0.99960368       0.24719354 </v>
   <v>       0.50364934       0.00176278       0.74880783 </v>
   <v>       0.99781646       0.49967961       0.99615994 </v>
   <v>       0.25089779       0.25189664       0.75157967 </v>
   <v>       0.73471006       0.75782638       0.48987714 </v>
   <v>       0.74838759       0.75211128       0.76095700 </v>
   <v>       0.50016055       0.50086695       0.99126953 </v>
   <v>       0.00022508       0.00067561       0.99929481 </v>
   <v>       0.25073388       0.75120393       0.75204295 </v>
   <v>       0.75027282       0.24927612       0.75939982 </v>
   <v>       0.23492258       0.23983863       0.25251519 </v>
   <v>       0.73830806       0.23355627       0.48826643 </v>
   <v>       0.02840142       0.49807566       0.50066466 </v>
   <v>       0.50968034       0.51201945       0.26253476 </v>
   <v>       0.10987072       0.12918027       0.26555954 </v>
   <v>       0.12260286       0.12928654       0.75405203 </v>
   <v>       0.11138654       0.63340911       0.25999820 </v>
   <v>       0.11889351       0.62605227       0.74397414 </v>
   <v>       0.61529416       0.13278648       0.25232291 </v>
   <v>       0.62646507       0.13071348       0.73378818 </v>
   <v>       0.61229140       0.63959904       0.24635085 </v>
   <v>       0.62378991       0.63221115       0.73876415 </v>
   <v>       0.75428998       0.24559994       0.12607216 </v>
   <v>       0.25422235       0.23838517       0.61981515 </v>
   <v>       0.12642398       0.38288369       0.73603796 </v>
   <v>       0.87192273       0.37134119       0.24998301 </v>
   <v>       0.87507239       0.36799191       0.73628330 </v>
   <v>       0.88673584       0.86357780       0.24870356 </v>
   <v>       0.87764503       0.87100164       0.74344360 </v>
   <v>       0.50466199       0.99052776       0.37413371 </v>
   <v>       0.75771409       0.75006163       0.12534539 </v>
   <v>       0.36084526       0.58085681       0.23780971 </v>
   <v>       0.37288193       0.62197711       0.75167709 </v>
   <v>       0.88612734       0.15835751       0.51354563 </v>
   <v>       0.87095904       0.12333796       0.73941631 </v>
   <v>       0.86134170       0.61578987       0.25201893 </v>
   <v>       0.86775975       0.62536588       0.74576019 </v>
   <v>       0.12591680       0.38504581       0.26042916 </v>
   <v>       0.61462260       0.86665398       0.00617766 </v>
   <v>       0.13508827       0.88253257       0.26109514 </v>
   <v>       0.27412968       0.27255157       0.37040800 </v>
   <v>       0.59965847       0.37883038       0.22804750 </v>
   <v>       0.37633540       0.12393191       0.75780805 </v>
   <v>       0.63732054       0.88747953       0.24437922 </v>
   <v>       0.63200563       0.87757924       0.73234491 </v>
   <v>       0.37048900       0.38638522       0.01057235 </v>
   <v>       0.37231234       0.38935733       0.50601784 </v>
   <v>       0.36710653       0.88414729       0.99704984 </v>
   <v>       0.35913760       0.89124577       0.49608047 </v>
   <v>       0.86449063       0.38317268       0.00062712 </v>
   <v>       0.15003448       0.61176490       0.49773179 </v>
   <v>       0.37941756       0.37552346       0.74812932 </v>
   <v>       0.86566733       0.84537789       0.52637857 </v>
   <v>       0.13682041       0.11966591       0.00204302 </v>
   <v>       0.13950501       0.11097917       0.48575652 </v>
   <v>       0.13018052       0.61730328       0.99740345 </v>
   <v>       0.38186081       0.87452531       0.75394076 </v>
   <v>       0.63354252       0.11575538       0.00445736 </v>
   <v>       0.64104520       0.10070419       0.49990751 </v>
   <v>       0.62895684       0.61498375       0.01571355 </v>
   <v>       0.66673938       0.60406937       0.50728296 </v>
   <v>       0.11501280       0.36711919       0.00408954 </v>
   <v>       0.11244006       0.35310114       0.49726639 </v>
   <v>       0.11737621       0.86693253       0.00004128 </v>
   <v>       0.62852954       0.37611261       0.74279865 </v>
   <v>       0.86126670       0.11694769       0.25301596 </v>
   <v>       0.64187366       0.35996126       0.52635876 </v>
   <v>       0.60381407       0.85596543       0.51124880 </v>
   <v>       0.38490159       0.13439018       0.99362089 </v>
   <v>       0.39233512       0.13948959       0.49128015 </v>
   <v>       0.38336968       0.63202013       0.01025870 </v>
   <v>       0.40578941       0.64208948       0.49821065 </v>
   <v>       0.87973879       0.63237415       0.99492091 </v>
   <v>       0.51243067       0.48546657       0.38022246 </v>
   <v>       0.00450338       0.00265041       0.13022271 </v>
   <v>       0.01334527       0.00207767       0.62173395 </v>
   <v>       0.99884014       0.50401224       0.12905418 </v>
   <v>       0.96823827       0.51184583       0.60878261 </v>
   <v>       0.25441272       0.75300586       0.62154316 </v>
   <v>       0.48406989       0.00613309       0.62297792 </v>
   <v>       0.61526549       0.36811419       0.01032214 </v>
   <v>       0.49789241       0.50714815       0.62503015 </v>
   <v>       0.97025883       0.99412841       0.38265084 </v>
   <v>       0.99394982       0.00166649       0.87342551 </v>
   <v>       0.96394422       0.50530324       0.39213714 </v>
   <v>       0.11438248       0.86097561       0.49082305 </v>
   <v>       0.51985857       0.99867276       0.87301318 </v>
   <v>       0.88290586       0.13494750       0.00068505 </v>
   <v>       0.51135660       0.50343913       0.87289714 </v>
   <v>       0.12845426       0.87934955       0.75115379 </v>
   <v>       0.24794359       0.26557474       0.87738580 </v>
   <v>       0.26753352       0.73959064       0.37245162 </v>
   <v>       0.25041608       0.74462841       0.87663011 </v>
   <v>       0.74222259       0.26697778       0.37240706 </v>
   <v>       0.74387427       0.25002282       0.87740044 </v>
   <v>       0.75034645       0.75492987       0.37292470 </v>
   <v>       0.73400276       0.75042860       0.87847253 </v>
   <v>       0.25488789       0.25640619       0.13232952 </v>
   <v>       0.99614982       0.49223762       0.86827840 </v>
   <v>       0.24095154       0.75067177       0.12812166 </v>
   <v>       0.36825464       0.11819971       0.25408485 </v>
   <v>       0.38757901       0.85702674       0.24771908 </v>
   <v>       0.49199189       0.00316409       0.12435958 </v>
   <v>       0.86421397       0.88215558       0.00044714 </v>
  </varray>
 </structure>
</modeling>
