<?xml version="1.0" encoding="ISO-8859-1"?>
<modeling>
 <generator>
  <i name="program" type="string">vasp </i>
  <i name="version" type="string">5.4.1  </i>
  <i name="subversion" type="string">05Feb16 (build Jan 25 2017 20:16:33) complex                          parallel </i>
  <i name="platform" type="string">BWXE6 </i>
  <i name="date" type="string">2019 07 01 </i>
  <i name="time" type="string">15:06:48 </i>
 </generator>
 <incar>
  <i type="string" name="SYSTEM"> STF</i>
  <i type="string" name="PREC">normal</i>
  <i type="string" name="ALGO"> Fast</i>
  <i type="int" name="ISPIN">     2</i>
  <i type="int" name="NELM">    40</i>
  <i type="int" name="NELMIN">     8</i>
  <i type="int" name="IBRION">     2</i>
  <i name="EDIFF">      0.00010000</i>
  <i name="EDIFFG">     -0.03000000</i>
  <i type="int" name="NSW">    30</i>
  <i type="int" name="ISIF">     3</i>
  <i name="ENCUT">    520.00000000</i>
  <i type="int" name="NBANDS">   768</i>
  <v name="MAGMOM">      0.60000000      0.60000000      0.60000000      0.60000000      0.60000000      0.60000000      0.60000000      0.60000000      0.60000000      0.60000000      0.60000000      0.60000000      0.60000000      0.60000000      0.60000000      0.60000000      0.60000000      0.60000000      0.60000000      0.60000000
      0.60000000      0.60000000      0.60000000      0.60000000      0.60000000      0.60000000      0.60000000      0.60000000      0.60000000      0.60000000      0.60000000      0.60000000      0.60000000      0.60000000      0.60000000      0.60000000      0.60000000      0.60000000      0.60000000      0.60000000
      5.00000000      5.00000000      5.00000000      5.00000000      5.00000000      5.00000000      5.00000000      5.00000000      5.00000000      5.00000000      5.00000000      5.00000000      5.00000000      5.00000000      5.00000000      5.00000000      5.00000000      5.00000000      5.00000000      5.00000000
      5.00000000      5.00000000      5.00000000      5.00000000      0.60000000      0.60000000      0.60000000      0.60000000      0.60000000      0.60000000      0.60000000      0.60000000      0.60000000      0.60000000      0.60000000      0.60000000      0.60000000      0.60000000      0.60000000      0.60000000
      0.60000000      0.60000000      0.60000000      0.60000000      0.60000000      0.60000000      0.60000000      0.60000000      0.60000000      0.60000000      0.60000000      0.60000000      0.60000000      0.60000000      0.60000000      0.60000000      0.60000000      0.60000000      0.60000000      0.60000000
      0.60000000      0.60000000      0.60000000      0.60000000      0.60000000      0.60000000      0.60000000      0.60000000      0.60000000      0.60000000      0.60000000      0.60000000      0.60000000      0.60000000      0.60000000      0.60000000      0.60000000      0.60000000      0.60000000      0.60000000
      0.60000000      0.60000000      0.60000000      0.60000000      0.60000000      0.60000000      0.60000000      0.60000000      0.60000000      0.60000000      0.60000000      0.60000000      0.60000000      0.60000000      0.60000000      0.60000000      0.60000000      0.60000000      0.60000000      0.60000000
      0.60000000      0.60000000      0.60000000      0.60000000      0.60000000      0.60000000      0.60000000      0.60000000</v>
  <i type="string" name="LREAL"> Auto</i>
  <i type="int" name="ISMEAR">     0</i>
  <i name="SIGMA">      0.05000000</i>
  <i type="int" name="LMAXMIX">     4</i>
  <v type="int" name="KPOINT_BSE">    -1     0     0     0</v>
  <i type="int" name="NELM">    40</i>
  <i type="logical" name="LDAU"> T  </i>
  <v type="int" name="LDAUTYPE">     2</v>
  <v type="int" name="LDAUL">     0     2     2     0</v>
  <v name="LDAUU">      0.00000000      3.00000000      5.00000000      0.00000000</v>
  <v name="LDAUJ">      0.00000000      0.00000000      0.00000000      0.00000000</v>
  <i type="int" name="LDAUPRINT">     1</i>
 </incar>
 <kpoints>
  <generation param="Monkhorst-Pack">
   <v type="int" name="divisions">       2        2        2 </v>
   <v name="usershift">      0.00000000       0.00000000       0.00000000 </v>
   <v name="genvec1">      0.50000000      -0.00000000       0.00000000 </v>
   <v name="genvec2">      0.00000000       0.50000000       0.00000000 </v>
   <v name="genvec3">      0.00000000      -0.00000000       0.50000000 </v>
   <v name="shift">      0.50000000       0.50000000       0.50000000 </v>
  </generation>
  <varray name="kpointlist" >
   <v>       0.25000000       0.25000000       0.25000000 </v>
   <v>      -0.25000000       0.25000000       0.25000000 </v>
   <v>       0.25000000      -0.25000000       0.25000000 </v>
   <v>      -0.25000000      -0.25000000       0.25000000 </v>
  </varray>
  <varray name="weights" >
   <v>       0.25000000 </v>
   <v>       0.25000000 </v>
   <v>       0.25000000 </v>
   <v>       0.25000000 </v>
  </varray>
 </kpoints>
 <parameters>
  <separator name="general" >
   <i type="string" name="SYSTEM">STF</i>
   <i type="logical" name="LCOMPAT"> F  </i>
  </separator>
  <separator name="electronic" >
   <i type="string" name="PREC">normal</i>
   <i name="ENMAX">    520.00000000</i>
   <i name="ENAUG">    605.39200000</i>
   <i name="EDIFF">      0.00010000</i>
   <i type="int" name="IALGO">    68</i>
   <i type="int" name="IWAVPR">    11</i>
   <i type="int" name="NBANDS">   768</i>
   <i name="NELECT">   1048.00000000</i>
   <i type="int" name="TURBO">     0</i>
   <i type="int" name="IRESTART">     0</i>
   <i type="int" name="NREBOOT">     0</i>
   <i type="int" name="NMIN">     0</i>
   <i name="EREF">      0.00000000</i>
   <separator name="electronic smearing" >
    <i type="int" name="ISMEAR">     0</i>
    <i name="SIGMA">      0.05000000</i>
    <i name="KSPACING">      0.50000000</i>
    <i type="logical" name="KGAMMA"> T  </i>
   </separator>
   <separator name="electronic projectors" >
    <i type="logical" name="LREAL"> T  </i>
    <v name="ROPT">     -0.00050000     -0.00050000     -0.00050000     -0.00050000</v>
    <i type="int" name="LMAXPAW">  -100</i>
    <i type="int" name="LMAXMIX">     4</i>
    <i type="logical" name="NLSPLINE"> F  </i>
   </separator>
   <separator name="electronic startup" >
    <i type="int" name="ISTART">     1</i>
    <i type="int" name="ICHARG">     0</i>
    <i type="int" name="INIWAV">     1</i>
   </separator>
   <separator name="electronic spin" >
    <i type="int" name="ISPIN">     2</i>
    <i type="logical" name="LNONCOLLINEAR"> F  </i>
    <v name="MAGMOM">      0.60000000      0.60000000      0.60000000      0.60000000      0.60000000      0.60000000      0.60000000      0.60000000      0.60000000      0.60000000      0.60000000      0.60000000      0.60000000      0.60000000      0.60000000      0.60000000      0.60000000      0.60000000      0.60000000      0.60000000
      0.60000000      0.60000000      0.60000000      0.60000000      0.60000000      0.60000000      0.60000000      0.60000000      0.60000000      0.60000000      0.60000000      0.60000000      0.60000000      0.60000000      0.60000000      0.60000000      0.60000000      0.60000000      0.60000000      0.60000000
      5.00000000      5.00000000      5.00000000      5.00000000      5.00000000      5.00000000      5.00000000      5.00000000      5.00000000      5.00000000      5.00000000      5.00000000      5.00000000      5.00000000      5.00000000      5.00000000      5.00000000      5.00000000      5.00000000      5.00000000
      5.00000000      5.00000000      5.00000000      5.00000000      0.60000000      0.60000000      0.60000000      0.60000000      0.60000000      0.60000000      0.60000000      0.60000000      0.60000000      0.60000000      0.60000000      0.60000000      0.60000000      0.60000000      0.60000000      0.60000000
      0.60000000      0.60000000      0.60000000      0.60000000      0.60000000      0.60000000      0.60000000      0.60000000      0.60000000      0.60000000      0.60000000      0.60000000      0.60000000      0.60000000      0.60000000      0.60000000      0.60000000      0.60000000      0.60000000      0.60000000
      0.60000000      0.60000000      0.60000000      0.60000000      0.60000000      0.60000000      0.60000000      0.60000000      0.60000000      0.60000000      0.60000000      0.60000000      0.60000000      0.60000000      0.60000000      0.60000000      0.60000000      0.60000000      0.60000000      0.60000000
      0.60000000      0.60000000      0.60000000      0.60000000      0.60000000      0.60000000      0.60000000      0.60000000      0.60000000      0.60000000      0.60000000      0.60000000      0.60000000      0.60000000      0.60000000      0.60000000      0.60000000      0.60000000      0.60000000      0.60000000
      0.60000000      0.60000000      0.60000000      0.60000000      0.60000000      0.60000000      0.60000000      0.60000000</v>
    <i name="NUPDOWN">     -1.00000000</i>
    <i type="logical" name="LSORBIT"> F  </i>
    <v name="SAXIS">      0.00000000      0.00000000      1.00000000</v>
    <i type="logical" name="LSPIRAL"> F  </i>
    <v name="QSPIRAL">      0.00000000      0.00000000      0.00000000</v>
    <i type="logical" name="LZEROZ"> F  </i>
   </separator>
   <separator name="electronic exchange-correlation" >
    <i type="logical" name="LASPH"> F  </i>
    <i type="logical" name="LMETAGGA"> F  </i>
   </separator>
   <separator name="electronic convergence" >
    <i type="int" name="NELM">    40</i>
    <i type="int" name="NELMDL">     0</i>
    <i type="int" name="NELMIN">     8</i>
    <i name="ENINI">    520.00000000</i>
    <separator name="electronic convergence detail" >
     <i type="logical" name="LDIAG"> T  </i>
     <i type="logical" name="LSUBROT"> F  </i>
     <i name="WEIMIN">      0.00100000</i>
     <i name="EBREAK">      0.00000003</i>
     <i name="DEPER">      0.30000000</i>
     <i type="int" name="NRMM">     4</i>
     <i name="TIME">      0.40000000</i>
    </separator>
   </separator>
   <separator name="electronic mixer" >
    <i name="AMIX">      0.40000000</i>
    <i name="BMIX">      1.00000000</i>
    <i name="AMIN">      0.10000000</i>
    <i name="AMIX_MAG">      1.60000000</i>
    <i name="BMIX_MAG">      1.00000000</i>
    <separator name="electronic mixer details" >
     <i type="int" name="IMIX">     4</i>
     <i type="logical" name="MIXFIRST"> F  </i>
     <i type="int" name="MAXMIX">   -45</i>
     <i name="WC">    100.00000000</i>
     <i type="int" name="INIMIX">     1</i>
     <i type="int" name="MIXPRE">     1</i>
     <i type="int" name="MREMOVE">     5</i>
    </separator>
   </separator>
   <separator name="electronic dipolcorrection" >
    <i type="logical" name="LDIPOL"> F  </i>
    <i type="logical" name="LMONO"> F  </i>
    <i type="int" name="IDIPOL">     0</i>
    <i name="EPSILON">      1.00000000</i>
    <v name="DIPOL">   -100.00000000   -100.00000000   -100.00000000</v>
    <i name="EFIELD">      0.00000000</i>
   </separator>
  </separator>
  <separator name="grids" >
   <i type="int" name="NGX">    64</i>
   <i type="int" name="NGY">    64</i>
   <i type="int" name="NGZ">    90</i>
   <i type="int" name="NGXF">   128</i>
   <i type="int" name="NGYF">   128</i>
   <i type="int" name="NGZF">   180</i>
   <i type="logical" name="ADDGRID"> F  </i>
  </separator>
  <separator name="ionic" >
   <i type="int" name="NSW">    30</i>
   <i type="int" name="IBRION">     2</i>
   <i type="int" name="ISIF">     3</i>
   <i name="PSTRESS">      0.00000000</i>
   <i name="EDIFFG">     -0.03000000</i>
   <i type="int" name="NFREE">     1</i>
   <i name="POTIM">      0.50000000</i>
   <i name="SMASS">     -3.00000000</i>
   <i name="SCALEE">      1.00000000</i>
  </separator>
  <separator name="ionic md" >
   <i name="TEBEG">      0.00010000</i>
   <i name="TEEND">      0.00010000</i>
   <i type="int" name="NBLOCK">     1</i>
   <i type="int" name="KBLOCK">    30</i>
   <i type="int" name="NPACO">   256</i>
   <i name="APACO">     16.00000000</i>
  </separator>
  <separator name="symmetry" >
   <i type="int" name="ISYM">     2</i>
   <i name="SYMPREC">      0.00001000</i>
  </separator>
  <separator name="dos" >
   <i type="logical" name="LORBIT"> F  </i>
   <v name="RWIGS">     -1.00000000     -1.00000000     -1.00000000     -1.00000000</v>
   <i type="int" name="NEDOS">   301</i>
   <i name="EMIN">     10.00000000</i>
   <i name="EMAX">    -10.00000000</i>
   <i name="EFERMI">      0.00000000</i>
  </separator>
  <separator name="writing" >
   <i type="int" name="NWRITE">     2</i>
   <i type="logical" name="LWAVE"> T  </i>
   <i type="logical" name="LCHARG"> T  </i>
   <i type="logical" name="LPARD"> F  </i>
   <i type="logical" name="LVTOT"> F  </i>
   <i type="logical" name="LVHAR"> F  </i>
   <i type="logical" name="LELF"> F  </i>
   <i type="logical" name="LOPTICS"> F  </i>
   <v name="STM">      0.00000000      0.00000000      0.00000000      0.00000000      0.00000000      0.00000000      0.00000000</v>
  </separator>
  <separator name="performance" >
   <i type="int" name="NPAR">     2</i>
   <i type="int" name="NSIM">     4</i>
   <i type="int" name="NBLK">    -1</i>
   <i type="logical" name="LPLANE"> T  </i>
   <i type="logical" name="LSCALAPACK"> T  </i>
   <i type="logical" name="LSCAAWARE"> F  </i>
   <i type="logical" name="LSCALU"> F  </i>
   <i type="logical" name="LASYNC"> F  </i>
   <i type="logical" name="LORBITALREAL"> F  </i>
  </separator>
  <separator name="miscellaneous" >
   <i type="int" name="IDIOT">     3</i>
   <i type="logical" name="LMUSIC"> F  </i>
   <v name="POMASS">     87.62000000     47.88000000     55.84700000     16.00000000</v>
   <v name="DARWINR">      0.00000000      0.00000000      0.00000000      0.00000000</v>
   <v name="DARWINV">      1.00000000      1.00000000      1.00000000      1.00000000</v>
   <i type="logical" name="LCORR"> T  </i>
  </separator>
  <i type="logical" name="GGA_COMPAT"> T  </i>
  <i type="logical" name="LBERRY"> F  </i>
  <i type="int" name="ICORELEVEL">     0</i>
  <i type="logical" name="LDAU"> T  </i>
  <v type="int" name="LDAUTYPE">     2</v>
  <v type="int" name="LDAUL">     0</v>
  <v name="LDAUU">      0.00000000</v>
  <v name="LDAUJ">      0.00000000</v>
  <i type="int" name="LDAUPRINT">     1</i>
  <i type="int" name="I_CONSTRAINED_M">     0</i>
  <separator name="electronic exchange-correlation" >
   <i type="string" name="GGA">--</i>
   <i type="int" name="VOSKOWN">     0</i>
   <i type="logical" name="LHFCALC"> F  </i>
   <i type="string" name="PRECFOCK"></i>
   <i type="logical" name="LSYMGRAD"> F  </i>
   <i type="logical" name="LHFONE"> F  </i>
   <i type="logical" name="LRHFCALC"> F  </i>
   <i type="logical" name="LTHOMAS"> F  </i>
   <i type="logical" name="LMODELHF"> F  </i>
   <i name="ENCUT4O">     -1.00000000</i>
   <i type="int" name="EXXOEP">     0</i>
   <i type="int" name="FOURORBIT">     0</i>
   <i name="AEXX">      0.00000000</i>
   <i name="HFALPHA">      0.00000000</i>
   <i name="MCALPHA">      0.00000000</i>
   <i name="ALDAX">      1.00000000</i>
   <i name="AGGAX">      1.00000000</i>
   <i name="ALDAC">      1.00000000</i>
   <i name="AGGAC">      1.00000000</i>
   <i type="int" name="NKREDX">     1</i>
   <i type="int" name="NKREDY">     1</i>
   <i type="int" name="NKREDZ">     1</i>
   <i type="logical" name="SHIFTRED"> F  </i>
   <i type="logical" name="ODDONLY"> F  </i>
   <i type="logical" name="EVENONLY"> F  </i>
   <i type="int" name="LMAXFOCK">     0</i>
   <i type="int" name="NMAXFOCKAE">     0</i>
   <i type="logical" name="LFOCKAEDFT"> F  </i>
   <i name="HFSCREEN">      0.00000000</i>
   <i name="HFSCREENC">      0.00000000</i>
   <i type="int" name="NBANDSGWLOW">     0</i>
  </separator>
  <separator name="vdW DFT" >
   <i type="logical" name="LUSE_VDW"> F  </i>
   <i name="Zab_VDW">     -0.84910000</i>
   <i name="PARAM1">      0.12340000</i>
   <i name="PARAM2">      1.00000000</i>
   <i name="PARAM3">      0.00000000</i>
  </separator>
  <separator name="model GW" >
   <i type="int" name="MODEL_GW">     0</i>
   <i name="MODEL_EPS0">      8.00183073</i>
   <i name="MODEL_ALPHA">      1.00000000</i>
  </separator>
  <separator name="linear response parameters" >
   <i type="logical" name="LEPSILON"> F  </i>
   <i type="logical" name="LRPA"> F  </i>
   <i type="logical" name="LNABLA"> F  </i>
   <i type="logical" name="LVEL"> F  </i>
   <i type="int" name="KINTER">     0</i>
   <i name="CSHIFT">      0.10000000</i>
   <i name="OMEGAMAX">     -1.00000000</i>
   <i name="DEG_THRESHOLD">      0.00200000</i>
  </separator>
  <separator name="orbital magnetization" >
   <i type="logical" name="NUCIND"> F  </i>
   <v name="MAGPOS">      0.00000000      0.00000000      0.00000000</v>
   <i type="logical" name="LNICSALL"> T  </i>
   <i type="logical" name="ORBITALMAG"> F  </i>
   <i type="logical" name="LMAGBLOCH"> F  </i>
   <i type="logical" name="LCHIMAG"> F  </i>
   <i type="logical" name="LGAUGE"> T  </i>
   <i type="int" name="MAGATOM">     0</i>
   <v name="MAGDIPOL">      0.00000000      0.00000000      0.00000000</v>
   <v name="AVECCONST">      0.00000000      0.00000000      0.00000000</v>
  </separator>
  <separator name="response functions" >
   <i type="logical" name="LADDER"> F  </i>
   <i type="logical" name="LFXC"> F  </i>
   <i type="logical" name="LHARTREE"> T  </i>
   <i type="int" name="IBSE">     0</i>
   <v type="int" name="KPOINT">    -1     0     0     0</v>
   <i type="logical" name="LTCTE"> F  </i>
   <i type="logical" name="LTETE"> F  </i>
   <i type="logical" name="LTRIPLET"> F  </i>
   <i type="logical" name="LFXCEPS"> F  </i>
   <i type="logical" name="LFXHEG"> F  </i>
   <i type="int" name="NATURALO">     0</i>
   <i type="logical" name="L2ORDER"> F  </i>
   <i type="logical" name="LUSEW"> F  </i>
   <i name="ENCUTGW">     -2.00000000</i>
   <i name="ENCUTGWSOFT">     -2.00000000</i>
   <i name="ENCUTLF">     -1.00000000</i>
   <i type="int" name="LMAXMP2">    -1</i>
   <i name="SCISSOR">      0.00000000</i>
   <i type="int" name="NOMEGA">     0</i>
   <i type="int" name="NOMEGAR">     0</i>
   <i type="int" name="NBANDSGW">    -1</i>
   <i type="int" name="NBANDSO">    -1</i>
   <i type="int" name="NBANDSV">    -1</i>
   <i type="int" name="NELM">    40</i>
   <i type="int" name="NELMHF">     1</i>
   <i type="int" name="DIM">     3</i>
   <i type="int" name="ANTIRES">     0</i>
   <i name="OMEGAMAX">    -30.00000000</i>
   <i name="OMEGAMIN">    -30.00000000</i>
   <i name="OMEGATL">   -200.00000000</i>
   <i type="int" name="OMEGAGRID">     0</i>
   <i name="CSHIFT">     -0.10000000</i>
   <i type="logical" name="SELFENERGY"> F  </i>
   <i type="logical" name="LSPECTRAL"> F  </i>
   <i type="logical" name="LSPECTRALGW"> F  </i>
   <i type="logical" name="LSINGLES"> F  </i>
   <i type="logical" name="LFERMIGW"> F  </i>
   <i type="logical" name="ODDONLYGW"> F  </i>
   <i type="logical" name="EVENONLYGW"> F  </i>
   <i type="int" name="NKREDLFX">     1</i>
   <i type="int" name="NKREDLFY">     1</i>
   <i type="int" name="NKREDLFZ">     1</i>
   <i type="int" name="MAXMEM">  1800</i>
   <i type="int" name="TELESCOPE">     0</i>
   <i type="int" name="TAUPAR">     1</i>
   <i type="int" name="OMEGAPAR">    -1</i>
   <i name="LAMBDA">      1.00000000</i>
  </separator>
  <separator name="External order field" >
   <i name="OFIELD_KAPPA">      0.00000000</i>
   <v name="OFIELD_K">      0.00000000      0.00000000      0.00000000</v>
   <i name="OFIELD_Q6_NEAR">      0.00000000</i>
   <i name="OFIELD_Q6_FAR">      0.00000000</i>
   <i name="OFIELD_A">      0.00000000</i>
  </separator>
 </parameters>
 <atominfo>
  <atoms>     148 </atoms>
  <types>       4 </types>
  <array name="atoms" >
   <dimension dim="1">ion</dimension>
   <field type="string">element</field>
   <field type="int">atomtype</field>
   <set>
    <rc><c>Sr</c><c>   1</c></rc>
    <rc><c>Sr</c><c>   1</c></rc>
    <rc><c>Sr</c><c>   1</c></rc>
    <rc><c>Sr</c><c>   1</c></rc>
    <rc><c>Sr</c><c>   1</c></rc>
    <rc><c>Sr</c><c>   1</c></rc>
    <rc><c>Sr</c><c>   1</c></rc>
    <rc><c>Sr</c><c>   1</c></rc>
    <rc><c>Sr</c><c>   1</c></rc>
    <rc><c>Sr</c><c>   1</c></rc>
    <rc><c>Sr</c><c>   1</c></rc>
    <rc><c>Sr</c><c>   1</c></rc>
    <rc><c>Sr</c><c>   1</c></rc>
    <rc><c>Sr</c><c>   1</c></rc>
    <rc><c>Sr</c><c>   1</c></rc>
    <rc><c>Sr</c><c>   1</c></rc>
    <rc><c>Sr</c><c>   1</c></rc>
    <rc><c>Sr</c><c>   1</c></rc>
    <rc><c>Sr</c><c>   1</c></rc>
    <rc><c>Sr</c><c>   1</c></rc>
    <rc><c>Sr</c><c>   1</c></rc>
    <rc><c>Sr</c><c>   1</c></rc>
    <rc><c>Sr</c><c>   1</c></rc>
    <rc><c>Sr</c><c>   1</c></rc>
    <rc><c>Sr</c><c>   1</c></rc>
    <rc><c>Sr</c><c>   1</c></rc>
    <rc><c>Sr</c><c>   1</c></rc>
    <rc><c>Sr</c><c>   1</c></rc>
    <rc><c>Sr</c><c>   1</c></rc>
    <rc><c>Sr</c><c>   1</c></rc>
    <rc><c>Sr</c><c>   1</c></rc>
    <rc><c>Sr</c><c>   1</c></rc>
    <rc><c>Ti</c><c>   2</c></rc>
    <rc><c>Ti</c><c>   2</c></rc>
    <rc><c>Ti</c><c>   2</c></rc>
    <rc><c>Ti</c><c>   2</c></rc>
    <rc><c>Ti</c><c>   2</c></rc>
    <rc><c>Ti</c><c>   2</c></rc>
    <rc><c>Ti</c><c>   2</c></rc>
    <rc><c>Ti</c><c>   2</c></rc>
    <rc><c>Fe</c><c>   3</c></rc>
    <rc><c>Fe</c><c>   3</c></rc>
    <rc><c>Fe</c><c>   3</c></rc>
    <rc><c>Fe</c><c>   3</c></rc>
    <rc><c>Fe</c><c>   3</c></rc>
    <rc><c>Fe</c><c>   3</c></rc>
    <rc><c>Fe</c><c>   3</c></rc>
    <rc><c>Fe</c><c>   3</c></rc>
    <rc><c>Fe</c><c>   3</c></rc>
    <rc><c>Fe</c><c>   3</c></rc>
    <rc><c>Fe</c><c>   3</c></rc>
    <rc><c>Fe</c><c>   3</c></rc>
    <rc><c>Fe</c><c>   3</c></rc>
    <rc><c>Fe</c><c>   3</c></rc>
    <rc><c>Fe</c><c>   3</c></rc>
    <rc><c>Fe</c><c>   3</c></rc>
    <rc><c>Fe</c><c>   3</c></rc>
    <rc><c>Fe</c><c>   3</c></rc>
    <rc><c>Fe</c><c>   3</c></rc>
    <rc><c>Fe</c><c>   3</c></rc>
    <rc><c>Fe</c><c>   3</c></rc>
    <rc><c>Fe</c><c>   3</c></rc>
    <rc><c>Fe</c><c>   3</c></rc>
    <rc><c>Fe</c><c>   3</c></rc>
    <rc><c>O </c><c>   4</c></rc>
    <rc><c>O </c><c>   4</c></rc>
    <rc><c>O </c><c>   4</c></rc>
    <rc><c>O </c><c>   4</c></rc>
    <rc><c>O </c><c>   4</c></rc>
    <rc><c>O </c><c>   4</c></rc>
    <rc><c>O </c><c>   4</c></rc>
    <rc><c>O </c><c>   4</c></rc>
    <rc><c>O </c><c>   4</c></rc>
    <rc><c>O </c><c>   4</c></rc>
    <rc><c>O </c><c>   4</c></rc>
    <rc><c>O </c><c>   4</c></rc>
    <rc><c>O </c><c>   4</c></rc>
    <rc><c>O </c><c>   4</c></rc>
    <rc><c>O </c><c>   4</c></rc>
    <rc><c>O </c><c>   4</c></rc>
    <rc><c>O </c><c>   4</c></rc>
    <rc><c>O </c><c>   4</c></rc>
    <rc><c>O </c><c>   4</c></rc>
    <rc><c>O </c><c>   4</c></rc>
    <rc><c>O </c><c>   4</c></rc>
    <rc><c>O </c><c>   4</c></rc>
    <rc><c>O </c><c>   4</c></rc>
    <rc><c>O </c><c>   4</c></rc>
    <rc><c>O </c><c>   4</c></rc>
    <rc><c>O </c><c>   4</c></rc>
    <rc><c>O </c><c>   4</c></rc>
    <rc><c>O </c><c>   4</c></rc>
    <rc><c>O </c><c>   4</c></rc>
    <rc><c>O </c><c>   4</c></rc>
    <rc><c>O </c><c>   4</c></rc>
    <rc><c>O </c><c>   4</c></rc>
    <rc><c>O </c><c>   4</c></rc>
    <rc><c>O </c><c>   4</c></rc>
    <rc><c>O </c><c>   4</c></rc>
    <rc><c>O </c><c>   4</c></rc>
    <rc><c>O </c><c>   4</c></rc>
    <rc><c>O </c><c>   4</c></rc>
    <rc><c>O </c><c>   4</c></rc>
    <rc><c>O </c><c>   4</c></rc>
    <rc><c>O </c><c>   4</c></rc>
    <rc><c>O </c><c>   4</c></rc>
    <rc><c>O </c><c>   4</c></rc>
    <rc><c>O </c><c>   4</c></rc>
    <rc><c>O </c><c>   4</c></rc>
    <rc><c>O </c><c>   4</c></rc>
    <rc><c>O </c><c>   4</c></rc>
    <rc><c>O </c><c>   4</c></rc>
    <rc><c>O </c><c>   4</c></rc>
    <rc><c>O </c><c>   4</c></rc>
    <rc><c>O </c><c>   4</c></rc>
    <rc><c>O </c><c>   4</c></rc>
    <rc><c>O </c><c>   4</c></rc>
    <rc><c>O </c><c>   4</c></rc>
    <rc><c>O </c><c>   4</c></rc>
    <rc><c>O </c><c>   4</c></rc>
    <rc><c>O </c><c>   4</c></rc>
    <rc><c>O </c><c>   4</c></rc>
    <rc><c>O </c><c>   4</c></rc>
    <rc><c>O </c><c>   4</c></rc>
    <rc><c>O </c><c>   4</c></rc>
    <rc><c>O </c><c>   4</c></rc>
    <rc><c>O </c><c>   4</c></rc>
    <rc><c>O </c><c>   4</c></rc>
    <rc><c>O </c><c>   4</c></rc>
    <rc><c>O </c><c>   4</c></rc>
    <rc><c>O </c><c>   4</c></rc>
    <rc><c>O </c><c>   4</c></rc>
    <rc><c>O </c><c>   4</c></rc>
    <rc><c>O </c><c>   4</c></rc>
    <rc><c>O </c><c>   4</c></rc>
    <rc><c>O </c><c>   4</c></rc>
    <rc><c>O </c><c>   4</c></rc>
    <rc><c>O </c><c>   4</c></rc>
    <rc><c>O </c><c>   4</c></rc>
    <rc><c>O </c><c>   4</c></rc>
    <rc><c>O </c><c>   4</c></rc>
    <rc><c>O </c><c>   4</c></rc>
    <rc><c>O </c><c>   4</c></rc>
    <rc><c>O </c><c>   4</c></rc>
    <rc><c>O </c><c>   4</c></rc>
    <rc><c>O </c><c>   4</c></rc>
    <rc><c>O </c><c>   4</c></rc>
    <rc><c>O </c><c>   4</c></rc>
   </set>
  </array>
  <array name="atomtypes" >
   <dimension dim="1">type</dimension>
   <field type="int">atomspertype</field>
   <field type="string">element</field>
   <field>mass</field>
   <field>valence</field>
   <field type="string">pseudopotential</field>
   <set>
    <rc><c>  32</c><c>Sr</c><c>     87.62000000</c><c>     10.00000000</c><c>  PAW_PBE Sr_sv 07Sep2000               </c></rc>
    <rc><c>   8</c><c>Ti</c><c>     47.88000000</c><c>      4.00000000</c><c>  PAW_PBE Ti 08Apr2002                  </c></rc>
    <rc><c>  24</c><c>Fe</c><c>     55.84700000</c><c>      8.00000000</c><c>  PAW_PBE Fe 06Sep2000                  </c></rc>
    <rc><c>  84</c><c>O </c><c>     16.00000000</c><c>      6.00000000</c><c>  PAW_PBE O 08Apr2002                   </c></rc>
   </set>
  </array>
 </atominfo>
 <structure name="initialpos" >
  <crystal>
   <varray name="basis" >
    <v>      11.19605752       0.03339513       0.02848208 </v>
    <v>       0.03334963      11.19477838      -0.03010535 </v>
    <v>       0.04046031      -0.04252171      15.74813296 </v>
   </varray>
   <i name="volume">   1973.78491333 </i>
   <varray name="rec_basis" >
    <v>       0.08931854      -0.00026670      -0.00023020 </v>
    <v>      -0.00026706       0.08932881       0.00024188 </v>
    <v>      -0.00016205       0.00017125       0.06350047 </v>
   </varray>
  </crystal>
  <varray name="positions" >
   <v>       0.98460114       0.24790987       0.12471777 </v>
   <v>       0.99392540       0.24331249       0.62130977 </v>
   <v>       0.99702752       0.74527900       0.12873649 </v>
   <v>       0.98764126       0.75052132       0.61899877 </v>
   <v>       0.51272257       0.25288809       0.12488248 </v>
   <v>       0.50988158       0.23757360       0.62883203 </v>
   <v>       0.51065996       0.75038998       0.12421734 </v>
   <v>       0.52176128       0.76516072       0.62502516 </v>
   <v>       0.99273143       0.24274772       0.37641327 </v>
   <v>       0.99478157       0.24137853       0.87121807 </v>
   <v>       0.98926598       0.74677419       0.37259292 </v>
   <v>       0.00047725       0.75643389       0.88020246 </v>
   <v>       0.50938418       0.24466398       0.37662647 </v>
   <v>       0.50010189       0.23861667       0.88125259 </v>
   <v>       0.51471699       0.76284845       0.36859666 </v>
   <v>       0.49924683       0.76398854       0.88280807 </v>
   <v>       0.25164000       0.99563964       0.12474608 </v>
   <v>       0.25623172       0.00891089       0.62523755 </v>
   <v>       0.25021938       0.49672270       0.12872467 </v>
   <v>       0.23303226       0.50198137       0.61819036 </v>
   <v>       0.74835178       0.00797081       0.12400953 </v>
   <v>       0.75185327       0.99503405       0.62364543 </v>
   <v>       0.75261518       0.48972355       0.13728606 </v>
   <v>       0.75812129       0.50108632       0.61589432 </v>
   <v>       0.24733304       0.00078392       0.37427790 </v>
   <v>       0.26016498       0.00573552       0.87786016 </v>
   <v>       0.24482578       0.50317850       0.37355775 </v>
   <v>       0.23685118       0.49581485       0.88925649 </v>
   <v>       0.75637294       0.99536455       0.37268573 </v>
   <v>       0.73910629       0.00674035       0.88036796 </v>
   <v>       0.75894310       0.49910112       0.37118479 </v>
   <v>       0.74516143       0.49175572       0.87786968 </v>
   <v>       0.49961132       0.00218040       0.50058138 </v>
   <v>       0.49815507       0.50424506       0.00359301 </v>
   <v>       0.75106140       0.25013661       0.49965235 </v>
   <v>       0.26030355       0.73912113       0.74184330 </v>
   <v>       0.74647333       0.24831335       0.75137042 </v>
   <v>       0.00325357       0.99514096       0.24644382 </v>
   <v>       0.00729532       0.49544140       0.75147758 </v>
   <v>       0.49428038       0.49577169       0.75586135 </v>
   <v>       0.99290334       0.98764136       0.99913052 </v>
   <v>       0.99632115       0.00338668       0.50104547 </v>
   <v>       0.00631697       0.48463284       0.00430521 </v>
   <v>       0.00005896       0.49539689       0.49790823 </v>
   <v>       0.49261324       0.00342853       0.00531091 </v>
   <v>       0.50583457       0.49458241       0.49909402 </v>
   <v>       0.25772927       0.25941529       0.00560510 </v>
   <v>       0.24854119       0.25125926       0.48726247 </v>
   <v>       0.24946695       0.74996180       0.99001096 </v>
   <v>       0.24277973       0.75832398       0.50327113 </v>
   <v>       0.74874850       0.25433583       0.00010842 </v>
   <v>       0.74000613       0.75464185       0.99833379 </v>
   <v>       0.75326186       0.75016014       0.49571351 </v>
   <v>       0.24845227       0.25050044       0.24826812 </v>
   <v>       0.25637665       0.25133625       0.75810606 </v>
   <v>       0.25306634       0.74884794       0.26561829 </v>
   <v>       0.74933623       0.24744351       0.25327605 </v>
   <v>       0.75267710       0.74522376       0.24732657 </v>
   <v>       0.74419972       0.75812575       0.75384994 </v>
   <v>       0.99575374       0.00810679       0.74735933 </v>
   <v>       0.99658894       0.50413138       0.25124445 </v>
   <v>       0.51026509       0.99078195       0.24707045 </v>
   <v>       0.49681930       0.00381973       0.75232948 </v>
   <v>       0.50258182       0.50179301       0.24454797 </v>
   <v>       0.13886849       0.12538816       0.25767733 </v>
   <v>       0.13203289       0.13647004       0.73340605 </v>
   <v>       0.13895121       0.61554004       0.24500849 </v>
   <v>       0.10549350       0.65156693       0.74946891 </v>
   <v>       0.61415199       0.12988914       0.25470597 </v>
   <v>       0.63172071       0.11970454       0.75425728 </v>
   <v>       0.62391680       0.62154795       0.26428716 </v>
   <v>       0.62427774       0.60715631       0.74049345 </v>
   <v>       0.36576542       0.37096570       0.24608884 </v>
   <v>       0.37154971       0.38301639       0.71367238 </v>
   <v>       0.37312655       0.87366227       0.24149702 </v>
   <v>       0.34531350       0.88503447       0.74849273 </v>
   <v>       0.88502470       0.36653440       0.25196044 </v>
   <v>       0.86671225       0.39315138       0.74862592 </v>
   <v>       0.88227310       0.87350523       0.23852083 </v>
   <v>       0.89018709       0.86377788       0.75387630 </v>
   <v>       0.38048351       0.13583462       0.73949579 </v>
   <v>       0.37918234       0.62219285       0.26620836 </v>
   <v>       0.37966084       0.62756322       0.71436989 </v>
   <v>       0.87781634       0.11765617       0.25488520 </v>
   <v>       0.87796411       0.12949373       0.74553509 </v>
   <v>       0.87935153       0.62235981       0.25997994 </v>
   <v>       0.13050675       0.38591367       0.74740282 </v>
   <v>       0.13122850       0.86449006       0.23423612 </v>
   <v>       0.61800958       0.37834872       0.26745576 </v>
   <v>       0.60985139       0.36757370       0.75367339 </v>
   <v>       0.63154827       0.87455365       0.23612779 </v>
   <v>       0.61639357       0.86702710       0.76088022 </v>
   <v>       0.36908742       0.38193699       0.00945056 </v>
   <v>       0.36219731       0.41211031       0.49646198 </v>
   <v>       0.37868369       0.86409824       0.01199263 </v>
   <v>       0.36252915       0.87635139       0.50487635 </v>
   <v>       0.85625584       0.40436542       0.00462897 </v>
   <v>       0.87784531       0.36955294       0.50235423 </v>
   <v>       0.88087538       0.86206595       0.99946451 </v>
   <v>       0.88843551       0.86723609       0.50127016 </v>
   <v>       0.13646378       0.11330906       0.50041024 </v>
   <v>       0.11290184       0.62846575       0.00554035 </v>
   <v>       0.13496259       0.63150645       0.49833980 </v>
   <v>       0.62174542       0.12831740       0.99830854 </v>
   <v>       0.62410175       0.12376641       0.49801308 </v>
   <v>       0.61505002       0.62776582       0.98618635 </v>
   <v>       0.59361662       0.63545010       0.49850154 </v>
   <v>       0.10803573       0.34859988       0.99116444 </v>
   <v>       0.12592746       0.36259442       0.52274742 </v>
   <v>       0.13670574       0.88083266       0.00521432 </v>
   <v>       0.61159936       0.37577431       0.98844568 </v>
   <v>       0.62480316       0.37488750       0.50268866 </v>
   <v>       0.62730705       0.87987976       0.00334520 </v>
   <v>       0.62366534       0.88079766       0.49814973 </v>
   <v>       0.34704186       0.11679086       0.00316654 </v>
   <v>       0.37836871       0.14396686       0.51455408 </v>
   <v>       0.36138171       0.62426778       0.02108443 </v>
   <v>       0.89097849       0.13226452       0.99399032 </v>
   <v>       0.87501946       0.12096246       0.50560358 </v>
   <v>       0.87071116       0.61506414       0.48803118 </v>
   <v>       0.01458733       0.01873397       0.12138546 </v>
   <v>       0.02489114       0.97650660       0.62594246 </v>
   <v>       0.01149463       0.48669205       0.12899850 </v>
   <v>       0.98742488       0.52029362       0.63008676 </v>
   <v>       0.48419224       0.02667359       0.13032896 </v>
   <v>       0.50683242       0.99474779       0.62582887 </v>
   <v>       0.51668277       0.50330036       0.12509816 </v>
   <v>       0.01533232       0.98059023       0.37511724 </v>
   <v>       0.03329525       0.00256256       0.87058196 </v>
   <v>       0.02827468       0.47234899       0.37211918 </v>
   <v>       0.98783963       0.51899986       0.87391413 </v>
   <v>       0.47988117       0.00728075       0.37268495 </v>
   <v>       0.48798778       0.00141664       0.87765895 </v>
   <v>       0.46270758       0.50831074       0.87070118 </v>
   <v>       0.25907018       0.25377261       0.36775404 </v>
   <v>       0.25819464       0.25406874       0.87646325 </v>
   <v>       0.24221303       0.76317787       0.38586368 </v>
   <v>       0.26111308       0.73521564       0.86739135 </v>
   <v>       0.75412600       0.24635863       0.37811782 </v>
   <v>       0.75802935       0.25282190       0.87360032 </v>
   <v>       0.74877618       0.76488070       0.37297762 </v>
   <v>       0.77608585       0.71638426       0.87266640 </v>
   <v>       0.22833926       0.25270780       0.13109566 </v>
   <v>       0.22143962       0.77056820       0.62094761 </v>
   <v>       0.74479249       0.25116028       0.12666398 </v>
   <v>       0.74618431       0.25110784       0.62664724 </v>
   <v>       0.76425757       0.71260944       0.11613197 </v>
   <v>       0.75541196       0.74015019       0.62881354 </v>
  </varray>
 </structure>
 <calculation>
  <scstep>
   <time name="dav">  558.21  558.25</time>
   <time name="total">  565.45  565.55</time>
   <energy>
    <i name="alphaZ">   5693.33416143 </i>
    <i name="ewald"> -63538.01643669 </i>
    <i name="hartreedc"> -18321.39497435 </i>
    <i name="XCdc">   3404.56843535 </i>
    <i name="pawpsdc"> 116169.34344621 </i>
    <i name="pawaedc">-115673.05148512 </i>
    <i name="eentropy">     -0.01065403 </i>
    <i name="bandstr">  -7041.40411207 </i>
    <i name="atom">  78316.90445604 </i>
    <i name="e_fr_energy">   -989.72716323 </i>
    <i name="e_wo_entrp">   -989.71650920 </i>
    <i name="e_0_energy">   -989.72183621 </i>
   </energy>
  </scstep>
  <scstep>
   <time name="diag">   63.95   63.95</time>
   <time name="diis">   60.85   60.86</time>
   <time name="orth">   33.15   33.15</time>
   <time name="total">  165.08  165.12</time>
   <energy>
    <i name="e_fr_energy">   -989.72716421 </i>
    <i name="e_wo_entrp">   -989.71652724 </i>
    <i name="e_0_energy">   -989.72184572 </i>
   </energy>
  </scstep>
  <scstep>
   <time name="diag">   63.78   63.80</time>
   <time name="diis">   50.83   50.83</time>
   <time name="orth">   33.12   33.12</time>
   <time name="total">  154.85  154.88</time>
   <energy>
    <i name="e_fr_energy">   -989.72716438 </i>
    <i name="e_wo_entrp">   -989.71652352 </i>
    <i name="e_0_energy">   -989.72184395 </i>
   </energy>
  </scstep>
  <scstep>
   <time name="diag">   63.87   63.89</time>
   <time name="diis">   45.49   45.52</time>
   <time name="orth">   33.14   33.14</time>
   <time name="total">  149.63  149.70</time>
   <energy>
    <i name="e_fr_energy">   -989.72716469 </i>
    <i name="e_wo_entrp">   -989.71652041 </i>
    <i name="e_0_energy">   -989.72184255 </i>
   </energy>
  </scstep>
  <scstep>
   <time name="diag">   64.05   64.07</time>
   <time name="diis">   44.93   44.95</time>
   <time name="orth">   33.05   33.04</time>
   <time name="total">  149.15  149.23</time>
   <energy>
    <i name="e_fr_energy">   -989.72716508 </i>
    <i name="e_wo_entrp">   -989.71652084 </i>
    <i name="e_0_energy">   -989.72184296 </i>
   </energy>
  </scstep>
  <scstep>
   <time name="diag">   63.87   63.90</time>
   <time name="diis">   43.71   43.70</time>
   <time name="orth">   33.19   33.19</time>
   <time name="total">  147.90  147.95</time>
   <energy>
    <i name="e_fr_energy">   -989.72716539 </i>
    <i name="e_wo_entrp">   -989.71652232 </i>
    <i name="e_0_energy">   -989.72184385 </i>
   </energy>
  </scstep>
  <scstep>
   <time name="diag">   63.75   63.77</time>
   <time name="diis">   43.44   43.44</time>
   <time name="orth">   33.11   33.11</time>
   <time name="total">  147.55  147.57</time>
   <energy>
    <i name="e_fr_energy">   -989.72716561 </i>
    <i name="e_wo_entrp">   -989.71652175 </i>
    <i name="e_0_energy">   -989.72184368 </i>
   </energy>
  </scstep>
  <scstep>
   <time name="diag">   63.80   63.81</time>
   <time name="diis">   42.89   42.89</time>
   <time name="orth">   33.21   33.21</time>
   <time name="total">  140.97  140.99</time>
   <energy>
    <i name="alphaZ">   5693.33416143 </i>
    <i name="ewald"> -63538.01643669 </i>
    <i name="hartreedc"> -18321.38937160 </i>
    <i name="XCdc">   3404.56783084 </i>
    <i name="pawpsdc"> 116168.42206279 </i>
    <i name="pawaedc">-115672.12511181 </i>
    <i name="eentropy">     -0.01064414 </i>
    <i name="bandstr">  -7041.41411262 </i>
    <i name="atom">  78316.90445604 </i>
    <i name="e_fr_energy">   -989.72716575 </i>
    <i name="e_wo_entrp">   -989.71652161 </i>
    <i name="e_0_energy">   -989.72184368 </i>
   </energy>
  </scstep>
  <structure>
   <crystal>
    <varray name="basis" >
     <v>      11.19605752       0.03339513       0.02848208 </v>
     <v>       0.03334963      11.19477838      -0.03010535 </v>
     <v>       0.04046031      -0.04252171      15.74813296 </v>
    </varray>
    <i name="volume">   1973.78491333 </i>
    <varray name="rec_basis" >
     <v>       0.08931854      -0.00026670      -0.00023020 </v>
     <v>      -0.00026706       0.08932881       0.00024188 </v>
     <v>      -0.00016205       0.00017125       0.06350047 </v>
    </varray>
   </crystal>
   <varray name="positions" >
    <v>       0.98460114       0.24790987       0.12471777 </v>
    <v>       0.99392540       0.24331249       0.62130977 </v>
    <v>       0.99702752       0.74527900       0.12873649 </v>
    <v>       0.98764126       0.75052132       0.61899877 </v>
    <v>       0.51272257       0.25288809       0.12488248 </v>
    <v>       0.50988158       0.23757360       0.62883203 </v>
    <v>       0.51065996       0.75038998       0.12421734 </v>
    <v>       0.52176128       0.76516072       0.62502516 </v>
    <v>       0.99273143       0.24274772       0.37641327 </v>
    <v>       0.99478157       0.24137853       0.87121807 </v>
    <v>       0.98926598       0.74677419       0.37259292 </v>
    <v>       0.00047725       0.75643389       0.88020246 </v>
    <v>       0.50938418       0.24466398       0.37662647 </v>
    <v>       0.50010189       0.23861667       0.88125259 </v>
    <v>       0.51471699       0.76284845       0.36859666 </v>
    <v>       0.49924683       0.76398854       0.88280807 </v>
    <v>       0.25164000       0.99563964       0.12474608 </v>
    <v>       0.25623172       0.00891089       0.62523755 </v>
    <v>       0.25021938       0.49672270       0.12872467 </v>
    <v>       0.23303226       0.50198137       0.61819036 </v>
    <v>       0.74835178       0.00797081       0.12400953 </v>
    <v>       0.75185327       0.99503405       0.62364543 </v>
    <v>       0.75261518       0.48972355       0.13728606 </v>
    <v>       0.75812129       0.50108632       0.61589432 </v>
    <v>       0.24733304       0.00078392       0.37427790 </v>
    <v>       0.26016498       0.00573552       0.87786016 </v>
    <v>       0.24482578       0.50317850       0.37355775 </v>
    <v>       0.23685118       0.49581485       0.88925649 </v>
    <v>       0.75637294       0.99536455       0.37268573 </v>
    <v>       0.73910629       0.00674035       0.88036796 </v>
    <v>       0.75894310       0.49910112       0.37118479 </v>
    <v>       0.74516143       0.49175572       0.87786968 </v>
    <v>       0.49961132       0.00218040       0.50058138 </v>
    <v>       0.49815507       0.50424506       0.00359301 </v>
    <v>       0.75106140       0.25013661       0.49965235 </v>
    <v>       0.26030355       0.73912113       0.74184330 </v>
    <v>       0.74647333       0.24831335       0.75137042 </v>
    <v>       0.00325357       0.99514096       0.24644382 </v>
    <v>       0.00729532       0.49544140       0.75147758 </v>
    <v>       0.49428038       0.49577169       0.75586135 </v>
    <v>       0.99290334       0.98764136       0.99913052 </v>
    <v>       0.99632115       0.00338668       0.50104547 </v>
    <v>       0.00631697       0.48463284       0.00430521 </v>
    <v>       0.00005896       0.49539689       0.49790823 </v>
    <v>       0.49261324       0.00342853       0.00531091 </v>
    <v>       0.50583457       0.49458241       0.49909402 </v>
    <v>       0.25772927       0.25941529       0.00560510 </v>
    <v>       0.24854119       0.25125926       0.48726247 </v>
    <v>       0.24946695       0.74996180       0.99001096 </v>
    <v>       0.24277973       0.75832398       0.50327113 </v>
    <v>       0.74874850       0.25433583       0.00010842 </v>
    <v>       0.74000613       0.75464185       0.99833379 </v>
    <v>       0.75326186       0.75016014       0.49571351 </v>
    <v>       0.24845227       0.25050044       0.24826812 </v>
    <v>       0.25637665       0.25133625       0.75810606 </v>
    <v>       0.25306634       0.74884794       0.26561829 </v>
    <v>       0.74933623       0.24744351       0.25327605 </v>
    <v>       0.75267710       0.74522376       0.24732657 </v>
    <v>       0.74419972       0.75812575       0.75384994 </v>
    <v>       0.99575374       0.00810679       0.74735933 </v>
    <v>       0.99658894       0.50413138       0.25124445 </v>
    <v>       0.51026509       0.99078195       0.24707045 </v>
    <v>       0.49681930       0.00381973       0.75232948 </v>
    <v>       0.50258182       0.50179301       0.24454797 </v>
    <v>       0.13886849       0.12538816       0.25767733 </v>
    <v>       0.13203289       0.13647004       0.73340605 </v>
    <v>       0.13895121       0.61554004       0.24500849 </v>
    <v>       0.10549350       0.65156693       0.74946891 </v>
    <v>       0.61415199       0.12988914       0.25470597 </v>
    <v>       0.63172071       0.11970454       0.75425728 </v>
    <v>       0.62391680       0.62154795       0.26428716 </v>
    <v>       0.62427774       0.60715631       0.74049345 </v>
    <v>       0.36576542       0.37096570       0.24608884 </v>
    <v>       0.37154971       0.38301639       0.71367238 </v>
    <v>       0.37312655       0.87366227       0.24149702 </v>
    <v>       0.34531350       0.88503447       0.74849273 </v>
    <v>       0.88502470       0.36653440       0.25196044 </v>
    <v>       0.86671225       0.39315138       0.74862592 </v>
    <v>       0.88227310       0.87350523       0.23852083 </v>
    <v>       0.89018709       0.86377788       0.75387630 </v>
    <v>       0.38048351       0.13583462       0.73949579 </v>
    <v>       0.37918234       0.62219285       0.26620836 </v>
    <v>       0.37966084       0.62756322       0.71436989 </v>
    <v>       0.87781634       0.11765617       0.25488520 </v>
    <v>       0.87796411       0.12949373       0.74553509 </v>
    <v>       0.87935153       0.62235981       0.25997994 </v>
    <v>       0.13050675       0.38591367       0.74740282 </v>
    <v>       0.13122850       0.86449006       0.23423612 </v>
    <v>       0.61800958       0.37834872       0.26745576 </v>
    <v>       0.60985139       0.36757370       0.75367339 </v>
    <v>       0.63154827       0.87455365       0.23612779 </v>
    <v>       0.61639357       0.86702710       0.76088022 </v>
    <v>       0.36908742       0.38193699       0.00945056 </v>
    <v>       0.36219731       0.41211031       0.49646198 </v>
    <v>       0.37868369       0.86409824       0.01199263 </v>
    <v>       0.36252915       0.87635139       0.50487635 </v>
    <v>       0.85625584       0.40436542       0.00462897 </v>
    <v>       0.87784531       0.36955294       0.50235423 </v>
    <v>       0.88087538       0.86206595       0.99946451 </v>
    <v>       0.88843551       0.86723609       0.50127016 </v>
    <v>       0.13646378       0.11330906       0.50041024 </v>
    <v>       0.11290184       0.62846575       0.00554035 </v>
    <v>       0.13496259       0.63150645       0.49833980 </v>
    <v>       0.62174542       0.12831740       0.99830854 </v>
    <v>       0.62410175       0.12376641       0.49801308 </v>
    <v>       0.61505002       0.62776582       0.98618635 </v>
    <v>       0.59361662       0.63545010       0.49850154 </v>
    <v>       0.10803573       0.34859988       0.99116444 </v>
    <v>       0.12592746       0.36259442       0.52274742 </v>
    <v>       0.13670574       0.88083266       0.00521432 </v>
    <v>       0.61159936       0.37577431       0.98844568 </v>
    <v>       0.62480316       0.37488750       0.50268866 </v>
    <v>       0.62730705       0.87987976       0.00334520 </v>
    <v>       0.62366534       0.88079766       0.49814973 </v>
    <v>       0.34704186       0.11679086       0.00316654 </v>
    <v>       0.37836871       0.14396686       0.51455408 </v>
    <v>       0.36138171       0.62426778       0.02108443 </v>
    <v>       0.89097849       0.13226452       0.99399032 </v>
    <v>       0.87501946       0.12096246       0.50560358 </v>
    <v>       0.87071116       0.61506414       0.48803118 </v>
    <v>       0.01458733       0.01873397       0.12138546 </v>
    <v>       0.02489114       0.97650660       0.62594246 </v>
    <v>       0.01149463       0.48669205       0.12899850 </v>
    <v>       0.98742488       0.52029362       0.63008676 </v>
    <v>       0.48419224       0.02667359       0.13032896 </v>
    <v>       0.50683242       0.99474779       0.62582887 </v>
    <v>       0.51668277       0.50330036       0.12509816 </v>
    <v>       0.01533232       0.98059023       0.37511724 </v>
    <v>       0.03329525       0.00256256       0.87058196 </v>
    <v>       0.02827468       0.47234899       0.37211918 </v>
    <v>       0.98783963       0.51899986       0.87391413 </v>
    <v>       0.47988117       0.00728075       0.37268495 </v>
    <v>       0.48798778       0.00141664       0.87765895 </v>
    <v>       0.46270758       0.50831074       0.87070118 </v>
    <v>       0.25907018       0.25377261       0.36775404 </v>
    <v>       0.25819464       0.25406874       0.87646325 </v>
    <v>       0.24221303       0.76317787       0.38586368 </v>
    <v>       0.26111308       0.73521564       0.86739135 </v>
    <v>       0.75412600       0.24635863       0.37811782 </v>
    <v>       0.75802935       0.25282190       0.87360032 </v>
    <v>       0.74877618       0.76488070       0.37297762 </v>
    <v>       0.77608585       0.71638426       0.87266640 </v>
    <v>       0.22833926       0.25270780       0.13109566 </v>
    <v>       0.22143962       0.77056820       0.62094761 </v>
    <v>       0.74479249       0.25116028       0.12666398 </v>
    <v>       0.74618431       0.25110784       0.62664724 </v>
    <v>       0.76425757       0.71260944       0.11613197 </v>
    <v>       0.75541196       0.74015019       0.62881354 </v>
   </varray>
  </structure>
  <varray name="forces" >
   <v>       0.00166350       0.01121773       0.00940667 </v>
   <v>       0.00496969       0.00510824       0.00729528 </v>
   <v>       0.01227480       0.00199017       0.00236148 </v>
   <v>       0.00331701       0.00707571       0.00378625 </v>
   <v>      -0.00551325      -0.00225770       0.01277157 </v>
   <v>      -0.00445219       0.00964247      -0.01717834 </v>
   <v>      -0.00602865      -0.00604828       0.01525949 </v>
   <v>      -0.01829105      -0.00131665       0.02655686 </v>
   <v>      -0.00039794       0.00256006      -0.01004305 </v>
   <v>      -0.00553070       0.00547494       0.00189469 </v>
   <v>      -0.01398206      -0.00735736       0.01160343 </v>
   <v>       0.00697385      -0.01273525      -0.01934136 </v>
   <v>      -0.00825657      -0.00904357      -0.00135094 </v>
   <v>      -0.01151683      -0.01678789       0.01164127 </v>
   <v>       0.01866611       0.00262321      -0.02122043 </v>
   <v>       0.01516842      -0.01412926       0.00759808 </v>
   <v>       0.00443541      -0.00617420       0.00681687 </v>
   <v>       0.01405366      -0.01200078      -0.01093906 </v>
   <v>      -0.00777018      -0.00888064      -0.01301167 </v>
   <v>       0.01253897       0.00612337       0.01759847 </v>
   <v>      -0.01527112      -0.00085279       0.01282193 </v>
   <v>       0.00031826      -0.00615109       0.00271047 </v>
   <v>      -0.00275932      -0.00832770      -0.00689673 </v>
   <v>       0.00634536       0.00653518      -0.00073521 </v>
   <v>      -0.00043186      -0.00161668      -0.00220957 </v>
   <v>       0.01328877       0.01684740      -0.01438324 </v>
   <v>      -0.01285568      -0.01082051      -0.00876236 </v>
   <v>       0.00247339      -0.00501360       0.00069062 </v>
   <v>      -0.00022274       0.01040768       0.00644797 </v>
   <v>      -0.00159755       0.01547066       0.00420289 </v>
   <v>      -0.01162954      -0.01174358      -0.01232717 </v>
   <v>      -0.00093936      -0.00442373       0.01349799 </v>
   <v>      -0.01287102      -0.00987830       0.01241504 </v>
   <v>      -0.00631427      -0.00340090      -0.01230728 </v>
   <v>       0.02423860      -0.00697943      -0.05869215 </v>
   <v>      -0.04171657       0.01278987       0.00760581 </v>
   <v>       0.00355676      -0.00836833       0.04052674 </v>
   <v>       0.04324253      -0.00381755      -0.00970004 </v>
   <v>      -0.03780055       0.06109639       0.00505875 </v>
   <v>      -0.01921288       0.01682442      -0.06915468 </v>
   <v>       0.02570930      -0.01176320       0.00632536 </v>
   <v>      -0.00181148      -0.00656123       0.03267940 </v>
   <v>      -0.00300322       0.00612237      -0.03091448 </v>
   <v>      -0.00872253       0.00870812      -0.00605286 </v>
   <v>      -0.04286934       0.00467745      -0.01093731 </v>
   <v>       0.02998624       0.03487911      -0.00255419 </v>
   <v>       0.00055533      -0.01015199       0.01529761 </v>
   <v>      -0.02518926       0.02078653      -0.00273667 </v>
   <v>      -0.01523979       0.00496115      -0.01928560 </v>
   <v>       0.04483480       0.05246446       0.01753887 </v>
   <v>      -0.00559528       0.00765774      -0.00074226 </v>
   <v>      -0.01419169      -0.03391312      -0.01964425 </v>
   <v>      -0.00738906      -0.00945173       0.00287037 </v>
   <v>      -0.01424890      -0.01814797       0.01092243 </v>
   <v>       0.00397839      -0.00811519       0.01076358 </v>
   <v>       0.00486825       0.00581918      -0.02457466 </v>
   <v>      -0.00503022       0.00734563       0.00835131 </v>
   <v>      -0.03449574       0.01309623       0.01727150 </v>
   <v>       0.00089307      -0.00302637      -0.01703098 </v>
   <v>       0.02187122       0.00046999      -0.01308189 </v>
   <v>       0.01998842      -0.02299812       0.02029097 </v>
   <v>      -0.00770830      -0.00011836       0.02643637 </v>
   <v>       0.00640281      -0.01347390      -0.01601125 </v>
   <v>      -0.00152585       0.01980818       0.03668588 </v>
   <v>      -0.00334557      -0.01643763       0.00198280 </v>
   <v>      -0.00358055      -0.02406898       0.00647267 </v>
   <v>      -0.01165032      -0.01704259       0.00903061 </v>
   <v>      -0.00121091      -0.01701231      -0.00438499 </v>
   <v>       0.01931310      -0.01077564      -0.00161749 </v>
   <v>       0.03512110       0.02856137      -0.01087564 </v>
   <v>       0.00178327       0.00586988      -0.01708234 </v>
   <v>      -0.02999588      -0.00718581      -0.02091035 </v>
   <v>       0.02265377       0.01291407      -0.00757424 </v>
   <v>       0.01321935       0.01312472       0.00648496 </v>
   <v>      -0.01491357      -0.00622655      -0.00125076 </v>
   <v>       0.02877538       0.00163496      -0.01213402 </v>
   <v>      -0.00187697       0.01737808       0.00280198 </v>
   <v>      -0.02024770      -0.01071044      -0.01108738 </v>
   <v>      -0.02972079      -0.02550106      -0.00951781 </v>
   <v>       0.00469928       0.01603550       0.00404614 </v>
   <v>       0.01898188      -0.02049969       0.00355560 </v>
   <v>       0.00824879      -0.01279027       0.00540924 </v>
   <v>       0.02579703      -0.03623165       0.00808438 </v>
   <v>       0.01381196       0.01973572      -0.00793553 </v>
   <v>       0.01186228       0.02612995      -0.02663531 </v>
   <v>      -0.00788848       0.03003928       0.00208986 </v>
   <v>       0.02377386      -0.05098190      -0.00060219 </v>
   <v>      -0.00858390       0.00052022       0.01031211 </v>
   <v>      -0.01989798       0.00490904       0.01392243 </v>
   <v>       0.00720700      -0.02283882       0.00456678 </v>
   <v>       0.02029292      -0.02085554       0.00196138 </v>
   <v>      -0.01369881       0.02679852      -0.00280608 </v>
   <v>       0.01626979       0.00706860      -0.00211805 </v>
   <v>      -0.00097033       0.00956728       0.02564370 </v>
   <v>       0.00743893       0.00461172       0.00489023 </v>
   <v>       0.01172867       0.00288208      -0.00028342 </v>
   <v>      -0.00167915      -0.02158741      -0.00492966 </v>
   <v>       0.00072142      -0.01095239       0.00377210 </v>
   <v>      -0.00900331      -0.01909190      -0.01624068 </v>
   <v>       0.03507342       0.02862068      -0.00236421 </v>
   <v>      -0.02393138      -0.01831152      -0.00387351 </v>
   <v>       0.00520992      -0.00679247       0.01412717 </v>
   <v>      -0.03734942      -0.03065268       0.00066574 </v>
   <v>      -0.00453629      -0.00479293      -0.00016918 </v>
   <v>      -0.00776239       0.01687115       0.00217954 </v>
   <v>      -0.00661783       0.00247241       0.01622741 </v>
   <v>      -0.02219735      -0.03210074      -0.00822114 </v>
   <v>      -0.00234551      -0.01329495       0.01474619 </v>
   <v>       0.00614479       0.01259616      -0.00608151 </v>
   <v>      -0.01555435       0.01149771      -0.01172244 </v>
   <v>       0.01017173       0.01814256       0.00426625 </v>
   <v>      -0.01450593       0.02544407      -0.02285278 </v>
   <v>       0.01436110       0.03198674      -0.00296988 </v>
   <v>       0.01039812       0.01249922      -0.01266138 </v>
   <v>      -0.00322449      -0.02789582      -0.00224171 </v>
   <v>       0.00400565      -0.01449894       0.01500539 </v>
   <v>       0.01461981      -0.01961648      -0.00572213 </v>
   <v>      -0.01271317      -0.02362821       0.01061594 </v>
   <v>      -0.00324805       0.00967671       0.01656260 </v>
   <v>       0.01258426      -0.00917607      -0.00367727 </v>
   <v>       0.00296769      -0.00339640      -0.02939652 </v>
   <v>       0.02037066      -0.00299123      -0.00466606 </v>
   <v>      -0.00623456       0.01746110       0.01315839 </v>
   <v>       0.00650520       0.00528398      -0.00012576 </v>
   <v>      -0.00357193       0.01002552      -0.01659114 </v>
   <v>       0.00136084       0.00567645      -0.01035277 </v>
   <v>       0.00369673      -0.00455290      -0.01265724 </v>
   <v>      -0.00962174       0.01186465      -0.00436339 </v>
   <v>      -0.01991712      -0.00837560       0.00190890 </v>
   <v>       0.00656986       0.00480676      -0.00976213 </v>
   <v>      -0.00585549      -0.01053048      -0.00696882 </v>
   <v>      -0.00054931       0.00621034       0.01453436 </v>
   <v>       0.01279139       0.00245076       0.03088652 </v>
   <v>      -0.01378076       0.00864894       0.07357768 </v>
   <v>       0.01105514      -0.00727265      -0.01454724 </v>
   <v>      -0.01888412       0.01534116      -0.00131675 </v>
   <v>      -0.00495897       0.00650990       0.01859465 </v>
   <v>      -0.01316364       0.01756813       0.00109318 </v>
   <v>       0.02339010      -0.01863485       0.03009777 </v>
   <v>       0.00095542      -0.01399870      -0.00207985 </v>
   <v>       0.02651013       0.01423856      -0.00889280 </v>
   <v>      -0.00599486       0.00439409       0.00984283 </v>
   <v>      -0.01221228       0.01564311      -0.01410247 </v>
   <v>       0.02488600      -0.01664243      -0.01094665 </v>
   <v>       0.00051638      -0.00546734      -0.00853265 </v>
   <v>      -0.02180186       0.01757164       0.00647067 </v>
   <v>       0.00466600       0.01910761      -0.00452059 </v>
   <v>       0.00405657       0.00028617      -0.00340479 </v>
  </varray>
  <varray name="stress" >
   <v>       0.37330491      -0.12259048      -0.07512616 </v>
   <v>      -0.12259103       0.23505130      -0.00358358 </v>
   <v>      -0.07512603      -0.00358395       0.17035029 </v>
  </varray>
  <energy>
   <i name="e_fr_energy">   -989.72716575 </i>
   <i name="e_wo_entrp">   -989.72184368 </i>
   <i name="e_0_energy">     -0.01064414 </i>
  </energy>
  <time name="totalsc"> 1880.79 1882.86</time>
 </calculation>
 <calculation>
  <scstep>
   <time name="dav">  554.10  554.17</time>
   <time name="total">  561.33  561.46</time>
   <energy>
    <i name="alphaZ">   5691.55423672 </i>
    <i name="ewald"> -63532.88281473 </i>
    <i name="hartreedc"> -18318.27589489 </i>
    <i name="XCdc">   3404.12679142 </i>
    <i name="pawpsdc"> 116168.42056734 </i>
    <i name="pawaedc">-115672.12356306 </i>
    <i name="eentropy">     -0.01078629 </i>
    <i name="bandstr">  -7047.43734474 </i>
    <i name="atom">  78316.90445604 </i>
    <i name="e_fr_energy">   -989.72435218 </i>
    <i name="e_wo_entrp">   -989.71356589 </i>
    <i name="e_0_energy">   -989.71895903 </i>
   </energy>
  </scstep>
  <scstep>
   <time name="diag">   63.83   63.86</time>
   <time name="diis">  105.00  105.01</time>
   <time name="orth">   33.10   33.10</time>
   <time name="total">  209.19  209.24</time>
   <energy>
    <i name="e_fr_energy">   -989.72921921 </i>
    <i name="e_wo_entrp">   -989.71856937 </i>
    <i name="e_0_energy">   -989.72389429 </i>
   </energy>
  </scstep>
  <scstep>
   <time name="diag">   63.97   63.96</time>
   <time name="diis">  106.99  106.99</time>
   <time name="orth">   33.10   33.10</time>
   <time name="total">  211.33  211.43</time>
   <energy>
    <i name="e_fr_energy">   -989.72961617 </i>
    <i name="e_wo_entrp">   -989.71898424 </i>
    <i name="e_0_energy">   -989.72430020 </i>
   </energy>
  </scstep>
  <scstep>
   <time name="diag">   63.74   63.78</time>
   <time name="diis">   87.62   87.62</time>
   <time name="orth">   33.15   33.15</time>
   <time name="total">  191.78  191.86</time>
   <energy>
    <i name="e_fr_energy">   -989.72943249 </i>
    <i name="e_wo_entrp">   -989.71876423 </i>
    <i name="e_0_energy">   -989.72409836 </i>
   </energy>
  </scstep>
  <scstep>
   <time name="diag">   63.80   63.83</time>
   <time name="diis">   78.10   78.12</time>
   <time name="orth">   33.13   33.13</time>
   <time name="total">  182.29  182.60</time>
   <energy>
    <i name="e_fr_energy">   -989.72937065 </i>
    <i name="e_wo_entrp">   -989.71875993 </i>
    <i name="e_0_energy">   -989.72406529 </i>
   </energy>
  </scstep>
  <scstep>
   <time name="diag">   64.00   64.00</time>
   <time name="diis">   64.92   64.93</time>
   <time name="orth">   33.10   33.10</time>
   <time name="total">  169.28  169.37</time>
   <energy>
    <i name="e_fr_energy">   -989.72937170 </i>
    <i name="e_wo_entrp">   -989.71875109 </i>
    <i name="e_0_energy">   -989.72406139 </i>
   </energy>
  </scstep>
  <scstep>
   <time name="diag">   63.84   63.86</time>
   <time name="diis">   63.66   63.66</time>
   <time name="orth">   33.14   33.14</time>
   <time name="total">  167.90  167.99</time>
   <energy>
    <i name="e_fr_energy">   -989.72937082 </i>
    <i name="e_wo_entrp">   -989.71875054 </i>
    <i name="e_0_energy">   -989.72406068 </i>
   </energy>
  </scstep>
  <scstep>
   <time name="diag">   63.97   63.97</time>
   <time name="diis">   63.00   62.99</time>
   <time name="orth">   33.08   33.08</time>
   <time name="total">  161.11  161.15</time>
   <energy>
    <i name="alphaZ">   5691.55423672 </i>
    <i name="ewald"> -63532.88281473 </i>
    <i name="hartreedc"> -18322.95370043 </i>
    <i name="XCdc">   3404.44543580 </i>
    <i name="pawpsdc"> 116093.57889963 </i>
    <i name="pawaedc">-115597.21090888 </i>
    <i name="eentropy">     -0.01062589 </i>
    <i name="bandstr">  -7043.15434738 </i>
    <i name="atom">  78316.90445604 </i>
    <i name="e_fr_energy">   -989.72936910 </i>
    <i name="e_wo_entrp">   -989.71874321 </i>
    <i name="e_0_energy">   -989.72405616 </i>
   </energy>
  </scstep>
  <structure>
   <crystal>
    <varray name="basis" >
     <v>      11.19773338       0.03284708       0.02814622 </v>
     <v>       0.03280443      11.19583345      -0.03012453 </v>
     <v>       0.03999338      -0.04255038      15.74920908 </v>
    </varray>
    <i name="volume">   1974.40217680 </i>
    <varray name="rec_basis" >
     <v>       0.08930513      -0.00026228      -0.00022749 </v>
     <v>      -0.00026262       0.08932036       0.00024199 </v>
     <v>      -0.00016010       0.00017132       0.06349612 </v>
    </varray>
   </crystal>
   <varray name="positions" >
    <v>       0.98460806       0.24795830       0.12474666 </v>
    <v>       0.99394667       0.24333453       0.62133212 </v>
    <v>       0.99708036       0.74528745       0.12874365 </v>
    <v>       0.98765542       0.75055181       0.61901040 </v>
    <v>       0.51269870       0.25287858       0.12492163 </v>
    <v>       0.50986246       0.23761501       0.62877952 </v>
    <v>       0.51063389       0.75036418       0.12426409 </v>
    <v>       0.52168219       0.76515559       0.62510665 </v>
    <v>       0.99272980       0.24275864       0.37638253 </v>
    <v>       0.99475765       0.24140221       0.87122396 </v>
    <v>       0.98920569       0.74674280       0.37262851 </v>
    <v>       0.00050768       0.75637869       0.88014305 </v>
    <v>       0.50934873       0.24462510       0.37662232 </v>
    <v>       0.50005235       0.23854461       0.88128820 </v>
    <v>       0.51479763       0.76285927       0.36853152 </v>
    <v>       0.49931228       0.76392755       0.88283111 </v>
    <v>       0.25165912       0.99561305       0.12476687 </v>
    <v>       0.25629255       0.00885887       0.62520383 </v>
    <v>       0.25018616       0.49668438       0.12868480 </v>
    <v>       0.23308601       0.50200781       0.61824423 </v>
    <v>       0.74828585       0.00796748       0.12404892 </v>
    <v>       0.75185469       0.99500757       0.62365368 </v>
    <v>       0.75260347       0.48968761       0.13726488 </v>
    <v>       0.75814856       0.50111440       0.61589207 </v>
    <v>       0.24733123       0.00077694       0.37427112 </v>
    <v>       0.26022218       0.00580779       0.87781613 </v>
    <v>       0.24477062       0.50313193       0.37353092 </v>
    <v>       0.23686189       0.49579322       0.88925854 </v>
    <v>       0.75637177       0.99540948       0.37270557 </v>
    <v>       0.73909916       0.00680709       0.88038097 </v>
    <v>       0.75889328       0.49905051       0.37114703 </v>
    <v>       0.74515729       0.49173682       0.87791100 </v>
    <v>       0.49955585       0.00213814       0.50061943 </v>
    <v>       0.49812805       0.50423034       0.00355533 </v>
    <v>       0.75116658       0.25010554       0.49947230 </v>
    <v>       0.26012354       0.73917687       0.74186703 </v>
    <v>       0.74648831       0.24827771       0.75149448 </v>
    <v>       0.00344006       0.99512384       0.24641373 </v>
    <v>       0.00713160       0.49570524       0.75149388 </v>
    <v>       0.49419815       0.49584363       0.75564979 </v>
    <v>       0.99301420       0.98759041       0.99914960 </v>
    <v>       0.99631306       0.00335881       0.50114554 </v>
    <v>       0.00630429       0.48465891       0.00421058 </v>
    <v>       0.00002133       0.49543446       0.49788983 </v>
    <v>       0.49242858       0.00344912       0.00527778 </v>
    <v>       0.50596335       0.49473230       0.49908625 </v>
    <v>       0.25773162       0.25937171       0.00565188 </v>
    <v>       0.24843241       0.25134913       0.48725445 </v>
    <v>       0.24940143       0.74998315       0.98995204 </v>
    <v>       0.24297206       0.75854970       0.50332494 </v>
    <v>       0.74872430       0.25436889       0.00010626 </v>
    <v>       0.73994563       0.75449566       0.99827345 </v>
    <v>       0.75323011       0.75011954       0.49572228 </v>
    <v>       0.24839099       0.25042254       0.24830154 </v>
    <v>       0.25639378       0.25130135       0.75813893 </v>
    <v>       0.25308752       0.74887267       0.26554302 </v>
    <v>       0.74931437       0.24747533       0.25330174 </v>
    <v>       0.75252810       0.74528084       0.24737986 </v>
    <v>       0.74420380       0.75811250       0.75379773 </v>
    <v>       0.99584812       0.00810838       0.74731909 </v>
    <v>       0.99667514       0.50403225       0.25130626 </v>
    <v>       0.51023158       0.99078185       0.24715150 </v>
    <v>       0.49684724       0.00376139       0.75228027 </v>
    <v>       0.50257458       0.50187882       0.24466053 </v>
    <v>       0.13885426       0.12531739       0.25768329 </v>
    <v>       0.13201770       0.13636644       0.73342571 </v>
    <v>       0.13890113       0.61546685       0.24503610 </v>
    <v>       0.10548855       0.65149358       0.74945535 </v>
    <v>       0.61423537       0.12984244       0.25470077 </v>
    <v>       0.63187180       0.11982705       0.75422392 </v>
    <v>       0.62392460       0.62157303       0.26423487 </v>
    <v>       0.62414882       0.60712549       0.74042957 </v>
    <v>       0.36586295       0.37102097       0.24606557 </v>
    <v>       0.37160643       0.38307286       0.71369225 </v>
    <v>       0.37306238       0.87363562       0.24149325 </v>
    <v>       0.34543760       0.88504100       0.74845535 </v>
    <v>       0.88501636       0.36660935       0.25196918 </v>
    <v>       0.86662526       0.39310536       0.74859203 </v>
    <v>       0.88214547       0.87339561       0.23849169 </v>
    <v>       0.89020709       0.86384697       0.75388879 </v>
    <v>       0.38056553       0.13574608       0.73950636 </v>
    <v>       0.37921798       0.62213769       0.26622476 </v>
    <v>       0.37977238       0.62740684       0.71439416 </v>
    <v>       0.87787568       0.11774095       0.25486095 </v>
    <v>       0.87801518       0.12960587       0.74545362 </v>
    <v>       0.87931712       0.62248939       0.25998665 </v>
    <v>       0.13060986       0.38569365       0.74740037 </v>
    <v>       0.13119139       0.86449253       0.23426778 </v>
    <v>       0.61792362       0.37837030       0.26749861 </v>
    <v>       0.60988269       0.36747524       0.75368714 </v>
    <v>       0.63163595       0.87446353       0.23613347 </v>
    <v>       0.61633422       0.86714273       0.76087195 </v>
    <v>       0.36915746       0.38196722       0.00944400 </v>
    <v>       0.36219272       0.41215185       0.49654062 </v>
    <v>       0.37871563       0.86411807       0.01200759 </v>
    <v>       0.36257966       0.87636366       0.50487541 </v>
    <v>       0.85624894       0.40427236       0.00461371 </v>
    <v>       0.87784852       0.36950578       0.50236569 </v>
    <v>       0.88083702       0.86198360       0.99941467 </v>
    <v>       0.88858630       0.86735895       0.50126288 </v>
    <v>       0.13636094       0.11323041       0.50039841 </v>
    <v>       0.11292422       0.62843658       0.00558353 </v>
    <v>       0.13480204       0.63137485       0.49834188 </v>
    <v>       0.62172594       0.12829680       0.99830802 </v>
    <v>       0.62406806       0.12383924       0.49801996 </v>
    <v>       0.61502130       0.62777675       0.98623614 </v>
    <v>       0.59352148       0.63531195       0.49847627 </v>
    <v>       0.10802563       0.34854279       0.99120952 </v>
    <v>       0.12595384       0.36264855       0.52272884 </v>
    <v>       0.13663870       0.88088227       0.00517863 </v>
    <v>       0.61164291       0.37585241       0.98845881 </v>
    <v>       0.62474058       0.37499707       0.50261897 </v>
    <v>       0.62736856       0.88001739       0.00333625 </v>
    <v>       0.62371013       0.88085124       0.49811097 </v>
    <v>       0.34702835       0.11667066       0.00315946 </v>
    <v>       0.37838599       0.14390450       0.51459990 </v>
    <v>       0.36144502       0.62418298       0.02106663 </v>
    <v>       0.89092389       0.13216298       0.99402275 </v>
    <v>       0.87500515       0.12100440       0.50565442 </v>
    <v>       0.87076554       0.61502439       0.48801974 </v>
    <v>       0.01460049       0.01871896       0.12129536 </v>
    <v>       0.02497901       0.97649339       0.62592798 </v>
    <v>       0.01146739       0.48676753       0.12903900 </v>
    <v>       0.98745284       0.52031631       0.63008636 </v>
    <v>       0.48417690       0.02671665       0.13027824 </v>
    <v>       0.50683832       0.99477211       0.62579720 </v>
    <v>       0.51669890       0.50328054       0.12505931 </v>
    <v>       0.01529075       0.98064143       0.37510404 </v>
    <v>       0.03320951       0.00252674       0.87058790 </v>
    <v>       0.02830303       0.47236951       0.37208926 </v>
    <v>       0.98781461       0.51895447       0.87389274 </v>
    <v>       0.47987856       0.00730769       0.37272953 </v>
    <v>       0.48804252       0.00142739       0.87775349 </v>
    <v>       0.46264727       0.50834905       0.87092676 </v>
    <v>       0.25911807       0.25374096       0.36770933 </v>
    <v>       0.25811309       0.25413508       0.87645949 </v>
    <v>       0.24219137       0.76320621       0.38592073 </v>
    <v>       0.26105612       0.73529154       0.86739495 </v>
    <v>       0.75422669       0.24627837       0.37820969 </v>
    <v>       0.75803367       0.25276154       0.87359382 </v>
    <v>       0.74889033       0.76494162       0.37295028 </v>
    <v>       0.77605985       0.71640338       0.87269663 </v>
    <v>       0.22828659       0.25277521       0.13105268 </v>
    <v>       0.22154718       0.77049603       0.62091375 </v>
    <v>       0.74479488       0.25113662       0.12663779 </v>
    <v>       0.74609007       0.25118392       0.62666738 </v>
    <v>       0.76427748       0.71269167       0.11611824 </v>
    <v>       0.75542947       0.74015133       0.62880308 </v>
   </varray>
  </structure>
  <varray name="forces" >
   <v>      -0.00456311       0.00643916       0.00344434 </v>
   <v>      -0.00640144       0.01034822       0.01267039 </v>
   <v>      -0.01007435      -0.00115732       0.00760227 </v>
   <v>       0.00078155       0.00782370      -0.00915956 </v>
   <v>      -0.00108770       0.00367492       0.01067719 </v>
   <v>       0.01553445       0.01343857      -0.01600947 </v>
   <v>       0.00103965      -0.00663559       0.00428625 </v>
   <v>      -0.01475189      -0.00245687       0.02088181 </v>
   <v>      -0.00168531      -0.00413396      -0.00819941 </v>
   <v>      -0.00413967       0.00041846       0.00013347 </v>
   <v>      -0.01028650      -0.00477824       0.00609040 </v>
   <v>      -0.00907308       0.00600341      -0.00167111 </v>
   <v>      -0.01039036      -0.00428278       0.00592293 </v>
   <v>      -0.00568564      -0.00312441       0.00957595 </v>
   <v>       0.01555611      -0.00025731      -0.01778182 </v>
   <v>       0.01514738      -0.01510584       0.01362497 </v>
   <v>       0.00835881      -0.00555580      -0.00006505 </v>
   <v>       0.01086153       0.00151883      -0.00859789 </v>
   <v>      -0.00340383      -0.00951554      -0.01430001 </v>
   <v>       0.00720202      -0.00114097       0.00933324 </v>
   <v>      -0.01055434      -0.00596558       0.00127788 </v>
   <v>      -0.00123492       0.01255980       0.00171962 </v>
   <v>      -0.00605375       0.00357734      -0.00710468 </v>
   <v>       0.00123563      -0.01831585      -0.00363190 </v>
   <v>      -0.00610814      -0.00156789       0.00244687 </v>
   <v>       0.00800137       0.01711981      -0.01665749 </v>
   <v>      -0.00674566      -0.00342756       0.00021455 </v>
   <v>       0.01641375      -0.01473250      -0.00093830 </v>
   <v>       0.00868667       0.00587011       0.00155226 </v>
   <v>      -0.00023534       0.01065243       0.01657717 </v>
   <v>      -0.00786484      -0.00466554      -0.01463718 </v>
   <v>      -0.01714485      -0.00956788       0.01173601 </v>
   <v>       0.02665908       0.02216969       0.00461279 </v>
   <v>      -0.00301843      -0.00192778      -0.01709718 </v>
   <v>      -0.01755347      -0.00488840       0.05637231 </v>
   <v>       0.06799459      -0.02011959      -0.00818502 </v>
   <v>      -0.00955624       0.01130749      -0.04885907 </v>
   <v>      -0.02937325      -0.02270492      -0.00730977 </v>
   <v>       0.06227770      -0.09436295      -0.02259075 </v>
   <v>      -0.00981177      -0.02220511       0.09796017 </v>
   <v>      -0.01599641      -0.01432760      -0.00589793 </v>
   <v>      -0.00356216       0.00832776       0.00760432 </v>
   <v>      -0.00120743      -0.01028005       0.00342440 </v>
   <v>       0.00504480       0.00740465      -0.00314776 </v>
   <v>      -0.00078880      -0.00522187       0.00493417 </v>
   <v>      -0.02672245      -0.02387046      -0.00322657 </v>
   <v>       0.01282583       0.00336982       0.00988205 </v>
   <v>       0.00064717      -0.00175884       0.00006882 </v>
   <v>       0.00254719      -0.00019455       0.00169525 </v>
   <v>      -0.01200661      -0.02072617      -0.01439208 </v>
   <v>      -0.01292441      -0.00636894       0.00212387 </v>
   <v>      -0.01540125       0.00192459       0.00786856 </v>
   <v>       0.00146917       0.00318330      -0.00965312 </v>
   <v>       0.00701833       0.01054555      -0.01377562 </v>
   <v>      -0.00328995      -0.00991263       0.00325797 </v>
   <v>      -0.00243785      -0.00724363       0.00932154 </v>
   <v>       0.00216561      -0.00225288      -0.00789522 </v>
   <v>       0.00960880       0.00300725      -0.00571823 </v>
   <v>      -0.00840073       0.01611283       0.00559681 </v>
   <v>       0.00703461       0.02342066       0.00083022 </v>
   <v>      -0.02139444       0.02500122       0.00098330 </v>
   <v>       0.01094634      -0.00434689      -0.00673870 </v>
   <v>       0.01579431       0.00743807       0.00403515 </v>
   <v>      -0.00309760       0.00391523      -0.01165359 </v>
   <v>      -0.00323031      -0.01869247      -0.00287334 </v>
   <v>       0.01635542      -0.02342803       0.00657457 </v>
   <v>       0.00542924      -0.00721702       0.00857108 </v>
   <v>      -0.00328689       0.00148247      -0.00234369 </v>
   <v>       0.01600044      -0.00803140       0.00593167 </v>
   <v>      -0.00527678      -0.01518812      -0.00258834 </v>
   <v>      -0.00386749       0.00371335      -0.00654030 </v>
   <v>      -0.01321605       0.00943403      -0.02867964 </v>
   <v>      -0.00185946      -0.00695016      -0.00178737 </v>
   <v>       0.00730113      -0.00169033      -0.00139618 </v>
   <v>      -0.01147879      -0.00454471      -0.00078474 </v>
   <v>       0.00946173      -0.02470865      -0.01339973 </v>
   <v>      -0.00938814       0.00833674       0.00889203 </v>
   <v>       0.00964264       0.02847425      -0.00265004 </v>
   <v>       0.00978661       0.01775498      -0.00748190 </v>
   <v>      -0.00281480       0.00170249      -0.00232024 </v>
   <v>       0.00544852      -0.00861844       0.00542164 </v>
   <v>      -0.00341868       0.00313575       0.00746433 </v>
   <v>      -0.04174424       0.03002545       0.01305388 </v>
   <v>       0.02041465       0.01147599      -0.00843728 </v>
   <v>       0.03277413      -0.00000419      -0.01917680 </v>
   <v>       0.01906714      -0.01069800       0.00794247 </v>
   <v>      -0.06740245       0.04320941      -0.00198017 </v>
   <v>      -0.00407775      -0.00036977       0.00656224 </v>
   <v>      -0.00172909      -0.00155431       0.01930861 </v>
   <v>      -0.02342100       0.01863561       0.00791119 </v>
   <v>      -0.02409646       0.00940110       0.00777550 </v>
   <v>       0.00714460      -0.00006135      -0.00596839 </v>
   <v>      -0.01228632      -0.02577150       0.00373719 </v>
   <v>       0.01285030       0.01824250       0.02148695 </v>
   <v>      -0.01046509      -0.00989632       0.00217225 </v>
   <v>       0.02089235       0.01390492       0.00467406 </v>
   <v>       0.01226936      -0.01015048      -0.00811332 </v>
   <v>       0.01461997       0.00478231      -0.00267507 </v>
   <v>       0.01245344      -0.01182026      -0.01699828 </v>
   <v>       0.00824231      -0.00166990       0.00365056 </v>
   <v>      -0.00607747      -0.00187815      -0.00349973 </v>
   <v>       0.00523601      -0.00641117       0.00362436 </v>
   <v>       0.00221668       0.01168835       0.00516072 </v>
   <v>      -0.00622042       0.00791474      -0.00068064 </v>
   <v>      -0.01642964      -0.00041000      -0.00002381 </v>
   <v>       0.00104167       0.01044559       0.01176461 </v>
   <v>       0.01223528       0.03104097      -0.00825917 </v>
   <v>      -0.00736780      -0.00056968       0.00974728 </v>
   <v>       0.00186396       0.00819803      -0.00791746 </v>
[...]
       <r>   -17.7436     0.0000    32.0000 </r>
       <r>   -17.5886     0.0000    32.0000 </r>
       <r>   -17.4337     0.0000    32.0000 </r>
       <r>   -17.2787     0.0000    32.0000 </r>
       <r>   -17.1237     0.0000    32.0000 </r>
       <r>   -16.9687     0.0000    32.0000 </r>
       <r>   -16.8137     0.0000    32.0000 </r>
       <r>   -16.6587     0.0000    32.0000 </r>
       <r>   -16.5037     0.0000    32.0000 </r>
       <r>   -16.3487     0.0000    32.0000 </r>
       <r>   -16.1937     0.0000    32.0000 </r>
       <r>   -16.0387     0.0000    32.0000 </r>
       <r>   -15.8838     0.0000    32.0000 </r>
       <r>   -15.7288     0.0000    32.0000 </r>
       <r>   -15.5738     0.0000    32.0000 </r>
       <r>   -15.4188     0.0000    32.0000 </r>
       <r>   -15.2638     0.0823    32.0128 </r>
       <r>   -15.1088     9.8835    33.5446 </r>
       <r>   -14.9538    21.6436    36.8991 </r>
       <r>   -14.7988    29.3554    41.4489 </r>
       <r>   -14.6438    39.8687    47.6282 </r>
       <r>   -14.4888    47.0241    54.9165 </r>
       <r>   -14.3339    35.5218    60.4220 </r>
       <r>   -14.1789    45.9708    67.5470 </r>
       <r>   -14.0239    68.0813    78.0989 </r>
       <r>   -13.8689    73.8518    89.5452 </r>
       <r>   -13.7139    66.0981    99.7898 </r>
       <r>   -13.5589    46.7226   107.0313 </r>
       <r>   -13.4039    40.0422   113.2374 </r>
       <r>   -13.2489    17.4576   115.9432 </r>
       <r>   -13.0939     0.3665   116.0000 </r>
       <r>   -12.9389     0.0002   116.0000 </r>
       <r>   -12.7840     4.2176   116.6537 </r>
       <r>   -12.6290    32.1010   121.6291 </r>
       <r>   -12.4740    84.9292   134.7922 </r>
       <r>   -12.3190   119.0070   153.2371 </r>
       <r>   -12.1640   114.8614   171.0395 </r>
       <r>   -12.0090    88.2918   184.7239 </r>
       <r>   -11.8540    83.3677   197.6450 </r>
       <r>   -11.6990    62.2375   207.2912 </r>
       <r>   -11.5440    25.1570   211.1903 </r>
       <r>   -11.3890     5.2234   211.9999 </r>
       <r>   -11.2341     0.0008   212.0000 </r>
       <r>   -11.0791     0.0000   212.0000 </r>
       <r>   -10.9241     0.0000   212.0000 </r>
       <r>   -10.7691     0.0000   212.0000 </r>
       <r>   -10.6141     0.0000   212.0000 </r>
       <r>   -10.4591     0.0000   212.0000 </r>
       <r>   -10.3041     0.0000   212.0000 </r>
       <r>   -10.1491     0.0000   212.0000 </r>
       <r>    -9.9941     0.0000   212.0000 </r>
       <r>    -9.8391     0.0000   212.0000 </r>
       <r>    -9.6842     0.0000   212.0000 </r>
       <r>    -9.5292     0.0000   212.0000 </r>
       <r>    -9.3742     0.0000   212.0000 </r>
       <r>    -9.2192     0.0000   212.0000 </r>
       <r>    -9.0642     0.0000   212.0000 </r>
       <r>    -8.9092     0.0000   212.0000 </r>
       <r>    -8.7542     0.0000   212.0000 </r>
       <r>    -8.5992     0.0000   212.0000 </r>
       <r>    -8.4442     0.0000   212.0000 </r>
       <r>    -8.2892     0.0000   212.0000 </r>
       <r>    -8.1343     0.0000   212.0000 </r>
       <r>    -7.9793     0.0000   212.0000 </r>
       <r>    -7.8243     0.0000   212.0000 </r>
       <r>    -7.6693     0.0000   212.0000 </r>
       <r>    -7.5143     0.0000   212.0000 </r>
       <r>    -7.3593     0.0000   212.0000 </r>
       <r>    -7.2043     0.0000   212.0000 </r>
       <r>    -7.0493     0.0000   212.0000 </r>
       <r>    -6.8943     0.0000   212.0000 </r>
       <r>    -6.7393     0.0000   212.0000 </r>
       <r>    -6.5844     0.0000   212.0000 </r>
       <r>    -6.4294     0.0000   212.0000 </r>
       <r>    -6.2744     0.0000   212.0000 </r>
       <r>    -6.1194     0.0000   212.0000 </r>
       <r>    -5.9644     0.0000   212.0000 </r>
       <r>    -5.8094     0.0000   212.0000 </r>
       <r>    -5.6544     0.0000   212.0000 </r>
       <r>    -5.4994     0.0000   212.0000 </r>
       <r>    -5.3444     0.0000   212.0000 </r>
       <r>    -5.1894     0.0000   212.0000 </r>
       <r>    -5.0345     0.0000   212.0000 </r>
       <r>    -4.8795     0.0000   212.0000 </r>
       <r>    -4.7245     0.0000   212.0000 </r>
       <r>    -4.5695     0.0000   212.0000 </r>
       <r>    -4.4145     0.0000   212.0000 </r>
       <r>    -4.2595     0.0000   212.0000 </r>
       <r>    -4.1045     0.0000   212.0000 </r>
       <r>    -3.9495     0.0000   212.0000 </r>
       <r>    -3.7945     0.0000   212.0000 </r>
       <r>    -3.6395     0.0000   212.0000 </r>
       <r>    -3.4846     0.0000   212.0000 </r>
       <r>    -3.3296     0.0000   212.0000 </r>
       <r>    -3.1746     0.0000   212.0000 </r>
       <r>    -3.0196     0.0000   212.0000 </r>
       <r>    -2.8646     0.0034   212.0005 </r>
       <r>    -2.7096     5.4250   212.8414 </r>
       <r>    -2.5546     6.8659   213.9055 </r>
       <r>    -2.3996     6.6843   214.9415 </r>
       <r>    -2.2446    12.1071   216.8180 </r>
       <r>    -2.0896    19.3285   219.8137 </r>
       <r>    -1.9346    28.4348   224.2208 </r>
       <r>    -1.7797    26.4441   228.3194 </r>
       <r>    -1.6247    27.7562   232.6213 </r>
       <r>    -1.4697    30.2926   237.3164 </r>
       <r>    -1.3147    43.0029   243.9814 </r>
       <r>    -1.1597    45.4079   251.0192 </r>
       <r>    -1.0047    56.2502   259.7374 </r>
       <r>    -0.8497    72.2796   270.9400 </r>
       <r>    -0.6947    83.3597   283.8599 </r>
       <r>    -0.5397    93.2598   298.3143 </r>
       <r>    -0.3847    91.2216   312.4527 </r>
       <r>    -0.2298    71.0354   323.4625 </r>
       <r>    -0.0748    54.7615   331.9500 </r>
       <r>     0.0802    52.6374   340.1083 </r>
       <r>     0.2352    50.2830   347.9016 </r>
       <r>     0.3902    54.9266   356.4147 </r>
       <r>     0.5452    57.2994   365.2956 </r>
       <r>     0.7002    56.1720   374.0017 </r>
       <r>     0.8552    57.0141   382.8383 </r>
       <r>     1.0102    57.5073   391.7513 </r>
       <r>     1.1652    56.8535   400.5631 </r>
       <r>     1.3201    61.4955   410.0943 </r>
       <r>     1.4751    68.6420   420.7331 </r>
       <r>     1.6301    62.9325   430.4870 </r>
       <r>     1.7851    69.7163   441.2923 </r>
       <r>     1.9401    55.7714   449.9363 </r>
       <r>     2.0951    44.7351   456.8698 </r>
       <r>     2.2501    36.6245   462.5463 </r>
       <r>     2.4051    19.4041   465.5537 </r>
       <r>     2.5601     9.3123   466.9970 </r>
       <r>     2.7151     0.0192   467.0000 </r>
       <r>     2.8700     0.0000   467.0000 </r>
       <r>     3.0250     0.0000   467.0000 </r>
       <r>     3.1800     0.0000   467.0000 </r>
       <r>     3.3350     0.0000   467.0000 </r>
       <r>     3.4900     0.0000   467.0000 </r>
       <r>     3.6450     0.0000   467.0000 </r>
       <r>     3.8000     0.0000   467.0000 </r>
       <r>     3.9550     0.0000   467.0000 </r>
       <r>     4.1100     0.0000   467.0000 </r>
       <r>     4.2650     0.8503   467.1318 </r>
       <r>     4.4199    11.6135   468.9318 </r>
       <r>     4.5749    45.8952   476.0451 </r>
       <r>     4.7299    67.2693   486.4712 </r>
       <r>     4.8849    62.2619   496.1211 </r>
       <r>     5.0399    66.2468   506.3887 </r>
       <r>     5.1949    65.5078   516.5418 </r>
       <r>     5.3499    73.7718   527.9757 </r>
       <r>     5.5049    87.4674   541.5322 </r>
       <r>     5.6599    87.6467   555.1166 </r>
       <r>     5.8149    69.0504   565.8187 </r>
       <r>     5.9698    57.7721   574.7729 </r>
       <r>     6.1248    53.0879   583.0009 </r>
       <r>     6.2798    52.6320   591.1584 </r>
       <r>     6.4348    43.4083   597.8862 </r>
       <r>     6.5898    24.7075   601.7156 </r>
       <r>     6.7448    20.4406   604.8837 </r>
       <r>     6.8998    20.8536   608.1158 </r>
       <r>     7.0548    16.7868   610.7176 </r>
       <r>     7.2098    14.2094   612.9199 </r>
       <r>     7.3648    18.5104   615.7889 </r>
       <r>     7.5197    15.4832   618.1886 </r>
       <r>     7.6747    14.9168   620.5006 </r>
       <r>     7.8297    15.4793   622.8997 </r>
       <r>     7.9847    15.4797   625.2989 </r>
       <r>     8.1397    17.5930   628.0256 </r>
       <r>     8.2947    22.3692   631.4926 </r>
       <r>     8.4497    23.5153   635.1373 </r>
       <r>     8.6047    22.1313   638.5674 </r>
       <r>     8.7597    19.6819   641.6179 </r>
       <r>     8.9147    26.7153   645.7585 </r>
       <r>     9.0696    32.0844   650.7313 </r>
       <r>     9.2246    33.4453   655.9149 </r>
       <r>     9.3796    39.0515   661.9675 </r>
       <r>     9.5346    40.3536   668.2219 </r>
       <r>     9.6896    46.4824   675.4262 </r>
       <r>     9.8446    51.7768   683.4511 </r>
       <r>     9.9996    55.5641   692.0630 </r>
       <r>    10.1546    55.2316   700.6234 </r>
       <r>    10.3096    52.8825   708.8196 </r>
       <r>    10.4646    53.1874   717.0632 </r>
       <r>    10.6195    53.6229   725.3742 </r>
       <r>    10.7745    53.7609   733.7066 </r>
       <r>    10.9295    48.4441   741.2149 </r>
       <r>    11.0845    49.3752   748.8676 </r>
       <r>    11.2395    51.9201   756.9147 </r>
       <r>    11.3945    53.9116   765.2705 </r>
       <r>    11.5495    17.5995   767.9982 </r>
       <r>    11.7045     0.0114   768.0000 </r>
       <r>    11.8595     0.0000   768.0000 </r>
       <r>    12.0145     0.0000   768.0000 </r>
       <r>    12.1694     0.0000   768.0000 </r>
       <r>    12.3244     0.0000   768.0000 </r>
       <r>    12.4794     0.0000   768.0000 </r>
       <r>    12.6344     0.0000   768.0000 </r>
       <r>    12.7894     0.0000   768.0000 </r>
       <r>    12.9444     0.0000   768.0000 </r>
       <r>    13.0994     0.0000   768.0000 </r>
       <r>    13.2544     0.0000   768.0000 </r>
       <r>    13.4094     0.0000   768.0000 </r>
       <r>    13.5644     0.0000   768.0000 </r>
      </set>
     </set>
    </array>
   </total>
  </dos>
 </calculation>
 <structure name="finalpos" >
  <crystal>
   <varray name="basis" >
    <v>      11.19956971       0.03350208       0.02800082 </v>
    <v>       0.03347087      11.19415360      -0.03044526 </v>
    <v>       0.03979600      -0.04299445      15.74842693 </v>
   </varray>
   <i name="volume">   1974.33074199 </i>
   <varray name="rec_basis" >
    <v>       0.08929051      -0.00026760      -0.00022637 </v>
    <v>      -0.00026784       0.08933381       0.00024457 </v>
    <v>      -0.00015928       0.00017318       0.06349928 </v>
   </varray>
  </crystal>
  <varray name="positions" >
   <v>       0.98403135       0.24769504       0.12481660 </v>
   <v>       0.99448792       0.24460530       0.62146019 </v>
   <v>       0.99673190       0.74473588       0.12872758 </v>
   <v>       0.98819992       0.75062484       0.61893800 </v>
   <v>       0.51285218       0.25319249       0.12564727 </v>
   <v>       0.50955281       0.23834411       0.62841055 </v>
   <v>       0.51041615       0.74992844       0.12472199 </v>
   <v>       0.52089118       0.76491089       0.62575086 </v>
   <v>       0.99294057       0.24246934       0.37614621 </v>
   <v>       0.99429325       0.24148473       0.87184680 </v>
   <v>       0.98888971       0.74694203       0.37322054 </v>
   <v>       0.00024936       0.75613445       0.87956951 </v>
   <v>       0.50900139       0.24438661       0.37671630 </v>
   <v>       0.49964341       0.23841884       0.88175779 </v>
   <v>       0.51551128       0.76316260       0.36819280 </v>
   <v>       0.49980819       0.76379341       0.88286070 </v>
   <v>       0.25145856       0.99481786       0.12476732 </v>
   <v>       0.25736685       0.00865128       0.62496340 </v>
   <v>       0.24929117       0.49629325       0.12807738 </v>
   <v>       0.23311348       0.50226210       0.61842960 </v>
   <v>       0.74752505       0.00787870       0.12447350 </v>
   <v>       0.75160901       0.99531451       0.62387943 </v>
   <v>       0.75243248       0.48996232       0.13681602 </v>
   <v>       0.75826212       0.50129219       0.61572341 </v>
   <v>       0.24703255       0.00056803       0.37426344 </v>
   <v>       0.26011680       0.00616135       0.87667187 </v>
   <v>       0.24470508       0.50251814       0.37381869 </v>
   <v>       0.23710356       0.49516847       0.88919292 </v>
   <v>       0.75737535       0.99615807       0.37286455 </v>
   <v>       0.73920681       0.00734554       0.88116429 </v>
   <v>       0.75865420       0.49859704       0.37095996 </v>
   <v>       0.74477752       0.49127990       0.87804153 </v>
   <v>       0.50000680       0.00221015       0.50057818 </v>
   <v>       0.49798255       0.50425053       0.00365583 </v>
   <v>       0.75122508       0.25025866       0.49951080 </v>
   <v>       0.26025170       0.73917446       0.74194276 </v>
   <v>       0.74644836       0.24860940       0.75126447 </v>
   <v>       0.00353199       0.99497564       0.24607852 </v>
   <v>       0.00698818       0.49546939       0.75137666 </v>
   <v>       0.49386488       0.49555073       0.75612004 </v>
   <v>       0.99301152       0.98683762       0.99903834 </v>
   <v>       0.99628162       0.00350316       0.50167884 </v>
   <v>       0.00612891       0.48461015       0.00408833 </v>
   <v>       0.00002632       0.49558607       0.49776269 </v>
   <v>       0.49183072       0.00332680       0.00544720 </v>
   <v>       0.50620934       0.49555996       0.49874815 </v>
   <v>       0.25745245       0.25888532       0.00600772 </v>
   <v>       0.24829274       0.25107696       0.48735214 </v>
   <v>       0.24928465       0.75003799       0.98971802 </v>
   <v>       0.24348935       0.75828057       0.50326062 </v>
   <v>       0.74813742       0.25406224       0.00026791 </v>
   <v>       0.73982980       0.75460835       0.99828974 </v>
   <v>       0.75322667       0.75016837       0.49575005 </v>
   <v>       0.24855119       0.25022662       0.24822379 </v>
   <v>       0.25658899       0.25104497       0.75822891 </v>
   <v>       0.25293894       0.74846373       0.26584181 </v>
   <v>       0.74950482       0.24747913       0.25338603 </v>
   <v>       0.75265443       0.74557455       0.24745127 </v>
   <v>       0.74459328       0.75875385       0.75349453 </v>
   <v>       0.99633024       0.00884201       0.74700967 </v>
   <v>       0.99647599       0.50442895       0.25140129 </v>
   <v>       0.50996191       0.99077634       0.24732249 </v>
   <v>       0.49769247       0.00386038       0.75231138 </v>
   <v>       0.50246284       0.50187748       0.24488246 </v>
   <v>       0.13985084       0.12444748       0.25752468 </v>
   <v>       0.13346468       0.13473795       0.73387372 </v>
   <v>       0.13925328       0.61437071       0.24531543 </v>
   <v>       0.10550542       0.65096865       0.74928010 </v>
   <v>       0.61563447       0.12908824       0.25490842 </v>
   <v>       0.63306307       0.11939118       0.75388716 </v>
   <v>       0.62417166       0.62151374       0.26379215 </v>
   <v>       0.62236580       0.60707988       0.73886627 </v>
   <v>       0.36580583       0.37057288       0.24569824 </v>
   <v>       0.37099221       0.38265047       0.71411607 </v>
   <v>       0.37253328       0.87336287       0.24138900 </v>
   <v>       0.34736053       0.88419375       0.74771090 </v>
   <v>       0.88411337       0.36782657       0.25199341 </v>
   <v>       0.86565487       0.39436106       0.74847172 </v>
   <v>       0.88143326       0.87453301       0.23768563 </v>
   <v>       0.88985319       0.86473599       0.75354726 </v>
   <v>       0.38143490       0.13569664       0.74009739 </v>
   <v>       0.37931842       0.62200855       0.26677737 </v>
   <v>       0.37870965       0.62652433       0.71548039 </v>
   <v>       0.87921369       0.11887291       0.25367206 </v>
   <v>       0.87957401       0.13164505       0.74389587 </v>
   <v>       0.87983300       0.62330955       0.26015723 </v>
   <v>       0.12910495       0.38427157       0.74691403 </v>
   <v>       0.13041841       0.86367685       0.23469119 </v>
   <v>       0.61735005       0.37803780       0.26848748 </v>
   <v>       0.60937980       0.36724633       0.75499669 </v>
   <v>       0.63074240       0.87397710       0.23645945 </v>
   <v>       0.61655575       0.86717786       0.76079707 </v>
   <v>       0.36972317       0.38079455       0.00952614 </v>
   <v>       0.36274706       0.41273497       0.49749219 </v>
   <v>       0.37930863       0.86332099       0.01225896 </v>
   <v>       0.36332148       0.87599597       0.50498699 </v>
   <v>       0.85676981       0.40292243       0.00430968 </v>
   <v>       0.87843073       0.36920898       0.50241364 </v>
   <v>       0.88166657       0.86037170       0.99845911 </v>
   <v>       0.88921990       0.86730854       0.50146115 </v>
   <v>       0.13582445       0.11374957       0.50020674 </v>
   <v>       0.11340348       0.62784673       0.00565449 </v>
   <v>       0.13447213       0.63191006       0.49830239 </v>
   <v>       0.62036365       0.12932454       0.99868934 </v>
   <v>       0.62347399       0.12482510       0.49787685 </v>
   <v>       0.61481090       0.62826775       0.98689761 </v>
   <v>       0.59364916       0.63641307       0.49810527 </v>
   <v>       0.10788176       0.34847838       0.99176453 </v>
   <v>       0.12643166       0.36331794       0.52246252 </v>
   <v>       0.13669409       0.88059142       0.00469298 </v>
   <v>       0.61229344       0.37651061       0.98847077 </v>
   <v>       0.62543124       0.37589241       0.50025164 </v>
   <v>       0.62837153       0.88108948       0.00327209 </v>
   <v>       0.62455521       0.88170156       0.49776153 </v>
   <v>       0.34552114       0.11563206       0.00305508 </v>
   <v>       0.37787598       0.14381219       0.51518567 </v>
   <v>       0.36112304       0.62357582       0.02049304 </v>
   <v>       0.88919392       0.13046961       0.99443166 </v>
   <v>       0.87464697       0.12081429       0.50748750 </v>
   <v>       0.87057646       0.61485891       0.48781411 </v>
   <v>       0.01548044       0.01821161       0.12094526 </v>
   <v>       0.02715091       0.97528041       0.62606902 </v>
   <v>       0.01009734       0.48793781       0.12889009 </v>
   <v>       0.98738097       0.52041901       0.62999513 </v>
   <v>       0.48363449       0.02745221       0.13065190 </v>
   <v>       0.50765052       0.99508322       0.62564778 </v>
   <v>       0.51639627       0.50293112       0.12526768 </v>
   <v>       0.01409297       0.98169432       0.37501947 </v>
   <v>       0.03263217       0.00262460       0.87051868 </v>
   <v>       0.02827819       0.47210572       0.37203816 </v>
   <v>       0.98783433       0.51855325       0.87396236 </v>
   <v>       0.47924919       0.00790418       0.37276834 </v>
   <v>       0.48828365       0.00149457       0.87786152 </v>
   <v>       0.46285219       0.50913749       0.87121586 </v>
   <v>       0.25994515       0.25333674       0.36783586 </v>
   <v>       0.25749248       0.25475840       0.87656251 </v>
   <v>       0.24196414       0.76380183       0.38601935 </v>
   <v>       0.25992163       0.73666880       0.86718318 </v>
   <v>       0.75648944       0.24429718       0.37812831 </v>
   <v>       0.75845228       0.25194281       0.87358869 </v>
   <v>       0.74985936       0.76566795       0.37293987 </v>
   <v>       0.77482000       0.71577785       0.87204577 </v>
   <v>       0.22700598       0.25358151       0.13123084 </v>
   <v>       0.22321251       0.76905216       0.62086594 </v>
   <v>       0.74441066       0.25175355       0.12685583 </v>
   <v>       0.74432377       0.25346828       0.62644857 </v>
   <v>       0.76420302       0.71322895       0.11618905 </v>
   <v>       0.75562633       0.74034755       0.62860323 </v>
  </varray>
 </structure>
</modeling>
