       N       E                     dE             d eps       ncg     rms          rms(c)
DAV:   1    -0.105424188571E+04   -0.10542E+04   -0.17508E-02 13296   0.313E-01    0.305E-02
RMM:   2    -0.105424188668E+04   -0.97026E-06   -0.25582E-05  6780   0.934E-03    0.621E-02
RMM:   3    -0.105424188545E+04    0.12337E-05   -0.69212E-06  6259   0.539E-03    0.122E-02
RMM:   4    -0.105424188555E+04   -0.97003E-07   -0.22050E-06  4292   0.264E-03    0.659E-03
RMM:   5    -0.105424188566E+04   -0.11660E-06   -0.12527E-06  3582   0.254E-03    0.312E-03
RMM:   6    -0.105424188579E+04   -0.13226E-06   -0.54090E-07  2563   0.203E-03    0.224E-03
RMM:   7    -0.105424188593E+04   -0.13213E-06   -0.41031E-07  2383   0.206E-03    0.128E-03
RMM:   8    -0.105424188600E+04   -0.78639E-07   -0.19253E-07  1977   0.194E-03
   1 F= -.10542419E+04 E0= -.10542418E+04  d E =-.105424E+04  mag=    68.0000
       N       E                     dE             d eps       ncg     rms          rms(c)
DAV:   1    -0.105424180580E+04    0.80127E-04   -0.18090E-01 12576   0.502E-01    0.186E-01
RMM:   2    -0.105424239198E+04   -0.58618E-03   -0.51868E-03 12337   0.102E-01    0.135E-01
RMM:   3    -0.105424242810E+04   -0.36122E-04   -0.29709E-04  8900   0.417E-02    0.772E-02
RMM:   4    -0.105424240543E+04    0.22671E-04   -0.10130E-04  7344   0.162E-02    0.487E-02
RMM:   5    -0.105424240140E+04    0.40220E-05   -0.46646E-05  7116   0.113E-02    0.436E-02
RMM:   6    -0.105424240214E+04   -0.73532E-06   -0.17860E-05  6848   0.775E-03    0.873E-03
RMM:   7    -0.105424240266E+04   -0.52192E-06   -0.69355E-06  6473   0.442E-03    0.669E-03
RMM:   8    -0.105424240299E+04   -0.33178E-06   -0.37314E-06  5179   0.335E-03
   2 F= -.10542424E+04 E0= -.10542424E+04  d E =-.516989E-03  mag=    68.0000
       N       E                     dE             d eps       ncg     rms          rms(c)
DAV:   1    -0.105424240278E+04   -0.12161E-06   -0.42741E-04 12224   0.247E-02    0.961E-03
RMM:   2    -0.105424240434E+04   -0.15595E-05   -0.14305E-05  6275   0.625E-03    0.797E-03
RMM:   3    -0.105424240475E+04   -0.40339E-06   -0.26702E-06  5870   0.349E-03    0.450E-03
RMM:   4    -0.105424240473E+04    0.12980E-07   -0.46490E-07  2488   0.195E-03    0.342E-03
RMM:   5    -0.105424240472E+04    0.11700E-07   -0.27107E-07  2287   0.191E-03    0.133E-03
RMM:   6    -0.105424240472E+04    0.20373E-08   -0.81524E-08  1551   0.184E-03    0.535E-04
RMM:   7    -0.105424240473E+04   -0.10215E-07   -0.43752E-08  1440   0.184E-03    0.368E-04
RMM:   8    -0.105424240474E+04   -0.11074E-07   -0.38954E-08  1332   0.183E-03
   3 F= -.10542424E+04 E0= -.10542424E+04  d E =-.518736E-03  mag=    68.0000
       N       E                     dE             d eps       ncg     rms          rms(c)
DAV:   1    -0.105424238596E+04    0.18773E-04   -0.15315E-01 12800   0.461E-01    0.137E-01
RMM:   2    -0.105424279095E+04   -0.40499E-03   -0.40565E-03 12456   0.884E-02    0.950E-02
RMM:   3    -0.105424280403E+04   -0.13076E-04   -0.23452E-04  8042   0.378E-02    0.547E-02
RMM:   4    -0.105424279533E+04    0.87016E-05   -0.72610E-05  7037   0.139E-02    0.388E-02
RMM:   5    -0.105424279542E+04   -0.94093E-07   -0.27869E-05  6702   0.928E-03    0.326E-02
RMM:   6    -0.105424279731E+04   -0.18918E-05   -0.12416E-05  6508   0.625E-03    0.865E-03
RMM:   7    -0.105424279874E+04   -0.14331E-05   -0.57589E-06  6118   0.426E-03    0.617E-03
RMM:   8    -0.105424279973E+04   -0.98981E-06   -0.32940E-06  4707   0.323E-03
   4 F= -.10542428E+04 E0= -.10542427E+04  d E =-.394993E-03  mag=    68.0000
