<?xml version="1.0" encoding="ISO-8859-1"?>
<modeling>
 <generator>
  <i name="program" type="string">vasp </i>
  <i name="version" type="string">5.4.1  </i>
  <i name="subversion" type="string">05Feb16 (build Jan 25 2017 20:16:33) complex                          parallel </i>
  <i name="platform" type="string">BWXE6 </i>
  <i name="date" type="string">2019 06 26 </i>
  <i name="time" type="string">08:45:37 </i>
 </generator>
 <incar>
  <i type="string" name="SYSTEM"> STF</i>
  <i type="string" name="PREC">normal</i>
  <i type="string" name="ALGO"> Fast</i>
  <i type="int" name="ISPIN">     2</i>
  <i type="int" name="NELM">    40</i>
  <i type="int" name="NELMIN">     8</i>
  <i type="int" name="IBRION">     2</i>
  <i name="EDIFF">      0.00010000</i>
  <i name="EDIFFG">     -0.03000000</i>
  <i type="int" name="NSW">    30</i>
  <i type="int" name="ISIF">     3</i>
  <i name="ENCUT">    520.00000000</i>
  <i type="int" name="NBANDS">   768</i>
  <v name="MAGMOM">      0.60000000      0.60000000      0.60000000      0.60000000      0.60000000      0.60000000      0.60000000      0.60000000      0.60000000      0.60000000      0.60000000      0.60000000      0.60000000      0.60000000      0.60000000      0.60000000      0.60000000      0.60000000      0.60000000      0.60000000
      0.60000000      0.60000000      0.60000000      0.60000000      0.60000000      0.60000000      0.60000000      0.60000000      0.60000000      0.60000000      0.60000000      0.60000000      0.60000000      0.60000000      0.60000000      0.60000000      0.60000000      0.60000000      0.60000000      0.60000000
      0.60000000      0.60000000      0.60000000      0.60000000      0.60000000      0.60000000      0.60000000      0.60000000      5.00000000      5.00000000      5.00000000      5.00000000      5.00000000      5.00000000      5.00000000      5.00000000      5.00000000      5.00000000      5.00000000      5.00000000
      5.00000000      5.00000000      5.00000000      5.00000000      0.60000000      0.60000000      0.60000000      0.60000000      0.60000000      0.60000000      0.60000000      0.60000000      0.60000000      0.60000000      0.60000000      0.60000000      0.60000000      0.60000000      0.60000000      0.60000000
      0.60000000      0.60000000      0.60000000      0.60000000      0.60000000      0.60000000      0.60000000      0.60000000      0.60000000      0.60000000      0.60000000      0.60000000      0.60000000      0.60000000      0.60000000      0.60000000      0.60000000      0.60000000      0.60000000      0.60000000
      0.60000000      0.60000000      0.60000000      0.60000000      0.60000000      0.60000000      0.60000000      0.60000000      0.60000000      0.60000000      0.60000000      0.60000000      0.60000000      0.60000000      0.60000000      0.60000000      0.60000000      0.60000000      0.60000000      0.60000000
      0.60000000      0.60000000      0.60000000      0.60000000      0.60000000      0.60000000      0.60000000      0.60000000      0.60000000      0.60000000      0.60000000      0.60000000      0.60000000      0.60000000      0.60000000      0.60000000      0.60000000      0.60000000      0.60000000      0.60000000
      0.60000000      0.60000000      0.60000000      0.60000000      0.60000000      0.60000000      0.60000000      0.60000000      0.60000000      0.60000000      0.60000000      0.60000000</v>
  <i type="string" name="LREAL"> Auto</i>
  <i type="int" name="ISMEAR">     0</i>
  <i name="SIGMA">      0.05000000</i>
  <i type="int" name="LMAXMIX">     4</i>
  <v type="int" name="KPOINT_BSE">    -1     0     0     0</v>
  <i type="int" name="NELM">    40</i>
  <i type="logical" name="LDAU"> T  </i>
  <v type="int" name="LDAUTYPE">     2</v>
  <v type="int" name="LDAUL">     0     2     2     0</v>
  <v name="LDAUU">      0.00000000      3.00000000      5.00000000      0.00000000</v>
  <v name="LDAUJ">      0.00000000      0.00000000      0.00000000      0.00000000</v>
  <i type="int" name="LDAUPRINT">     1</i>
 </incar>
 <kpoints>
  <generation param="Monkhorst-Pack">
   <v type="int" name="divisions">       2        2        2 </v>
   <v name="usershift">      0.00000000       0.00000000       0.00000000 </v>
   <v name="genvec1">      0.50000000       0.00000000       0.00000000 </v>
   <v name="genvec2">      0.00000000       0.50000000       0.00000000 </v>
   <v name="genvec3">      0.00000000       0.00000000       0.50000000 </v>
   <v name="shift">      0.50000000       0.50000000       0.50000000 </v>
  </generation>
  <varray name="kpointlist" >
   <v>       0.25000000       0.25000000       0.25000000 </v>
   <v>      -0.25000000       0.25000000       0.25000000 </v>
   <v>       0.25000000      -0.25000000       0.25000000 </v>
   <v>      -0.25000000      -0.25000000       0.25000000 </v>
  </varray>
  <varray name="weights" >
   <v>       0.25000000 </v>
   <v>       0.25000000 </v>
   <v>       0.25000000 </v>
   <v>       0.25000000 </v>
  </varray>
 </kpoints>
 <parameters>
  <separator name="general" >
   <i type="string" name="SYSTEM">STF</i>
   <i type="logical" name="LCOMPAT"> F  </i>
  </separator>
  <separator name="electronic" >
   <i type="string" name="PREC">normal</i>
   <i name="ENMAX">    520.00000000</i>
   <i name="ENAUG">    605.39200000</i>
   <i name="EDIFF">      0.00010000</i>
   <i type="int" name="IALGO">    68</i>
   <i type="int" name="IWAVPR">    11</i>
   <i type="int" name="NBANDS">   768</i>
   <i name="NELECT">   1040.00000000</i>
   <i type="int" name="TURBO">     0</i>
   <i type="int" name="IRESTART">     0</i>
   <i type="int" name="NREBOOT">     0</i>
   <i type="int" name="NMIN">     0</i>
   <i name="EREF">      0.00000000</i>
   <separator name="electronic smearing" >
    <i type="int" name="ISMEAR">     0</i>
    <i name="SIGMA">      0.05000000</i>
    <i name="KSPACING">      0.50000000</i>
    <i type="logical" name="KGAMMA"> T  </i>
   </separator>
   <separator name="electronic projectors" >
    <i type="logical" name="LREAL"> T  </i>
    <v name="ROPT">     -0.00050000     -0.00050000     -0.00050000     -0.00050000</v>
    <i type="int" name="LMAXPAW">  -100</i>
    <i type="int" name="LMAXMIX">     4</i>
    <i type="logical" name="NLSPLINE"> F  </i>
   </separator>
   <separator name="electronic startup" >
    <i type="int" name="ISTART">     1</i>
    <i type="int" name="ICHARG">     0</i>
    <i type="int" name="INIWAV">     1</i>
   </separator>
   <separator name="electronic spin" >
    <i type="int" name="ISPIN">     2</i>
    <i type="logical" name="LNONCOLLINEAR"> F  </i>
    <v name="MAGMOM">      0.60000000      0.60000000      0.60000000      0.60000000      0.60000000      0.60000000      0.60000000      0.60000000      0.60000000      0.60000000      0.60000000      0.60000000      0.60000000      0.60000000      0.60000000      0.60000000      0.60000000      0.60000000      0.60000000      0.60000000
      0.60000000      0.60000000      0.60000000      0.60000000      0.60000000      0.60000000      0.60000000      0.60000000      0.60000000      0.60000000      0.60000000      0.60000000      0.60000000      0.60000000      0.60000000      0.60000000      0.60000000      0.60000000      0.60000000      0.60000000
      0.60000000      0.60000000      0.60000000      0.60000000      0.60000000      0.60000000      0.60000000      0.60000000      5.00000000      5.00000000      5.00000000      5.00000000      5.00000000      5.00000000      5.00000000      5.00000000      5.00000000      5.00000000      5.00000000      5.00000000
      5.00000000      5.00000000      5.00000000      5.00000000      0.60000000      0.60000000      0.60000000      0.60000000      0.60000000      0.60000000      0.60000000      0.60000000      0.60000000      0.60000000      0.60000000      0.60000000      0.60000000      0.60000000      0.60000000      0.60000000
      0.60000000      0.60000000      0.60000000      0.60000000      0.60000000      0.60000000      0.60000000      0.60000000      0.60000000      0.60000000      0.60000000      0.60000000      0.60000000      0.60000000      0.60000000      0.60000000      0.60000000      0.60000000      0.60000000      0.60000000
      0.60000000      0.60000000      0.60000000      0.60000000      0.60000000      0.60000000      0.60000000      0.60000000      0.60000000      0.60000000      0.60000000      0.60000000      0.60000000      0.60000000      0.60000000      0.60000000      0.60000000      0.60000000      0.60000000      0.60000000
      0.60000000      0.60000000      0.60000000      0.60000000      0.60000000      0.60000000      0.60000000      0.60000000      0.60000000      0.60000000      0.60000000      0.60000000      0.60000000      0.60000000      0.60000000      0.60000000      0.60000000      0.60000000      0.60000000      0.60000000
      0.60000000      0.60000000      0.60000000      0.60000000      0.60000000      0.60000000      0.60000000      0.60000000      0.60000000      0.60000000      0.60000000      0.60000000</v>
    <i name="NUPDOWN">     -1.00000000</i>
    <i type="logical" name="LSORBIT"> F  </i>
    <v name="SAXIS">      0.00000000      0.00000000      1.00000000</v>
    <i type="logical" name="LSPIRAL"> F  </i>
    <v name="QSPIRAL">      0.00000000      0.00000000      0.00000000</v>
    <i type="logical" name="LZEROZ"> F  </i>
   </separator>
   <separator name="electronic exchange-correlation" >
    <i type="logical" name="LASPH"> F  </i>
    <i type="logical" name="LMETAGGA"> F  </i>
   </separator>
   <separator name="electronic convergence" >
    <i type="int" name="NELM">    40</i>
    <i type="int" name="NELMDL">     0</i>
    <i type="int" name="NELMIN">     8</i>
    <i name="ENINI">    520.00000000</i>
    <separator name="electronic convergence detail" >
     <i type="logical" name="LDIAG"> T  </i>
     <i type="logical" name="LSUBROT"> F  </i>
     <i name="WEIMIN">      0.00100000</i>
     <i name="EBREAK">      0.00000003</i>
     <i name="DEPER">      0.30000000</i>
     <i type="int" name="NRMM">     4</i>
     <i name="TIME">      0.40000000</i>
    </separator>
   </separator>
   <separator name="electronic mixer" >
    <i name="AMIX">      0.40000000</i>
    <i name="BMIX">      1.00000000</i>
    <i name="AMIN">      0.10000000</i>
    <i name="AMIX_MAG">      1.60000000</i>
    <i name="BMIX_MAG">      1.00000000</i>
    <separator name="electronic mixer details" >
     <i type="int" name="IMIX">     4</i>
     <i type="logical" name="MIXFIRST"> F  </i>
     <i type="int" name="MAXMIX">   -45</i>
     <i name="WC">    100.00000000</i>
     <i type="int" name="INIMIX">     1</i>
     <i type="int" name="MIXPRE">     1</i>
     <i type="int" name="MREMOVE">     5</i>
    </separator>
   </separator>
   <separator name="electronic dipolcorrection" >
    <i type="logical" name="LDIPOL"> F  </i>
    <i type="logical" name="LMONO"> F  </i>
    <i type="int" name="IDIPOL">     0</i>
    <i name="EPSILON">      1.00000000</i>
    <v name="DIPOL">   -100.00000000   -100.00000000   -100.00000000</v>
    <i name="EFIELD">      0.00000000</i>
   </separator>
  </separator>
  <separator name="grids" >
   <i type="int" name="NGX">    64</i>
   <i type="int" name="NGY">    64</i>
   <i type="int" name="NGZ">    90</i>
   <i type="int" name="NGXF">   128</i>
   <i type="int" name="NGYF">   128</i>
   <i type="int" name="NGZF">   180</i>
   <i type="logical" name="ADDGRID"> F  </i>
  </separator>
  <separator name="ionic" >
   <i type="int" name="NSW">    30</i>
   <i type="int" name="IBRION">     2</i>
   <i type="int" name="ISIF">     3</i>
   <i name="PSTRESS">      0.00000000</i>
   <i name="EDIFFG">     -0.03000000</i>
   <i type="int" name="NFREE">     1</i>
   <i name="POTIM">      0.50000000</i>
   <i name="SMASS">     -3.00000000</i>
   <i name="SCALEE">      1.00000000</i>
  </separator>
  <separator name="ionic md" >
   <i name="TEBEG">      0.00010000</i>
   <i name="TEEND">      0.00010000</i>
   <i type="int" name="NBLOCK">     1</i>
   <i type="int" name="KBLOCK">    30</i>
   <i type="int" name="NPACO">   256</i>
   <i name="APACO">     16.00000000</i>
  </separator>
  <separator name="symmetry" >
   <i type="int" name="ISYM">     2</i>
   <i name="SYMPREC">      0.00001000</i>
  </separator>
  <separator name="dos" >
   <i type="logical" name="LORBIT"> F  </i>
   <v name="RWIGS">     -1.00000000     -1.00000000     -1.00000000     -1.00000000</v>
   <i type="int" name="NEDOS">   301</i>
   <i name="EMIN">     10.00000000</i>
   <i name="EMAX">    -10.00000000</i>
   <i name="EFERMI">      0.00000000</i>
  </separator>
  <separator name="writing" >
   <i type="int" name="NWRITE">     2</i>
   <i type="logical" name="LWAVE"> T  </i>
   <i type="logical" name="LCHARG"> T  </i>
   <i type="logical" name="LPARD"> F  </i>
   <i type="logical" name="LVTOT"> F  </i>
   <i type="logical" name="LVHAR"> F  </i>
   <i type="logical" name="LELF"> F  </i>
   <i type="logical" name="LOPTICS"> F  </i>
   <v name="STM">      0.00000000      0.00000000      0.00000000      0.00000000      0.00000000      0.00000000      0.00000000</v>
  </separator>
  <separator name="performance" >
   <i type="int" name="NPAR">     2</i>
   <i type="int" name="NSIM">     4</i>
   <i type="int" name="NBLK">    -1</i>
   <i type="logical" name="LPLANE"> T  </i>
   <i type="logical" name="LSCALAPACK"> T  </i>
   <i type="logical" name="LSCAAWARE"> F  </i>
   <i type="logical" name="LSCALU"> F  </i>
   <i type="logical" name="LASYNC"> F  </i>
   <i type="logical" name="LORBITALREAL"> F  </i>
  </separator>
  <separator name="miscellaneous" >
   <i type="int" name="IDIOT">     3</i>
   <i type="logical" name="LMUSIC"> F  </i>
   <v name="POMASS">     87.62000000     47.88000000     55.84700000     16.00000000</v>
   <v name="DARWINR">      0.00000000      0.00000000      0.00000000      0.00000000</v>
   <v name="DARWINV">      1.00000000      1.00000000      1.00000000      1.00000000</v>
   <i type="logical" name="LCORR"> T  </i>
  </separator>
  <i type="logical" name="GGA_COMPAT"> T  </i>
  <i type="logical" name="LBERRY"> F  </i>
  <i type="int" name="ICORELEVEL">     0</i>
  <i type="logical" name="LDAU"> T  </i>
  <v type="int" name="LDAUTYPE">     2</v>
  <v type="int" name="LDAUL">     0</v>
  <v name="LDAUU">      0.00000000</v>
  <v name="LDAUJ">      0.00000000</v>
  <i type="int" name="LDAUPRINT">     1</i>
  <i type="int" name="I_CONSTRAINED_M">     0</i>
  <separator name="electronic exchange-correlation" >
   <i type="string" name="GGA">--</i>
   <i type="int" name="VOSKOWN">     0</i>
   <i type="logical" name="LHFCALC"> F  </i>
   <i type="string" name="PRECFOCK"></i>
   <i type="logical" name="LSYMGRAD"> F  </i>
   <i type="logical" name="LHFONE"> F  </i>
   <i type="logical" name="LRHFCALC"> F  </i>
   <i type="logical" name="LTHOMAS"> F  </i>
   <i type="logical" name="LMODELHF"> F  </i>
   <i name="ENCUT4O">     -1.00000000</i>
   <i type="int" name="EXXOEP">     0</i>
   <i type="int" name="FOURORBIT">     0</i>
   <i name="AEXX">      0.00000000</i>
   <i name="HFALPHA">      0.00000000</i>
   <i name="MCALPHA">      0.00000000</i>
   <i name="ALDAX">      1.00000000</i>
   <i name="AGGAX">      1.00000000</i>
   <i name="ALDAC">      1.00000000</i>
   <i name="AGGAC">      1.00000000</i>
   <i type="int" name="NKREDX">     1</i>
   <i type="int" name="NKREDY">     1</i>
   <i type="int" name="NKREDZ">     1</i>
   <i type="logical" name="SHIFTRED"> F  </i>
   <i type="logical" name="ODDONLY"> F  </i>
   <i type="logical" name="EVENONLY"> F  </i>
   <i type="int" name="LMAXFOCK">     0</i>
   <i type="int" name="NMAXFOCKAE">     0</i>
   <i type="logical" name="LFOCKAEDFT"> F  </i>
   <i name="HFSCREEN">      0.00000000</i>
   <i name="HFSCREENC">      0.00000000</i>
   <i type="int" name="NBANDSGWLOW">     0</i>
  </separator>
  <separator name="vdW DFT" >
   <i type="logical" name="LUSE_VDW"> F  </i>
   <i name="Zab_VDW">     -0.84910000</i>
   <i name="PARAM1">      0.12340000</i>
   <i name="PARAM2">      1.00000000</i>
   <i name="PARAM3">      0.00000000</i>
  </separator>
  <separator name="model GW" >
   <i type="int" name="MODEL_GW">     0</i>
   <i name="MODEL_EPS0">      7.87377344</i>
   <i name="MODEL_ALPHA">      1.00000000</i>
  </separator>
  <separator name="linear response parameters" >
   <i type="logical" name="LEPSILON"> F  </i>
   <i type="logical" name="LRPA"> F  </i>
   <i type="logical" name="LNABLA"> F  </i>
   <i type="logical" name="LVEL"> F  </i>
   <i type="int" name="KINTER">     0</i>
   <i name="CSHIFT">      0.10000000</i>
   <i name="OMEGAMAX">     -1.00000000</i>
   <i name="DEG_THRESHOLD">      0.00200000</i>
  </separator>
  <separator name="orbital magnetization" >
   <i type="logical" name="NUCIND"> F  </i>
   <v name="MAGPOS">      0.00000000      0.00000000      0.00000000</v>
   <i type="logical" name="LNICSALL"> T  </i>
   <i type="logical" name="ORBITALMAG"> F  </i>
   <i type="logical" name="LMAGBLOCH"> F  </i>
   <i type="logical" name="LCHIMAG"> F  </i>
   <i type="logical" name="LGAUGE"> T  </i>
   <i type="int" name="MAGATOM">     0</i>
   <v name="MAGDIPOL">      0.00000000      0.00000000      0.00000000</v>
   <v name="AVECCONST">      0.00000000      0.00000000      0.00000000</v>
  </separator>
  <separator name="response functions" >
   <i type="logical" name="LADDER"> F  </i>
   <i type="logical" name="LFXC"> F  </i>
   <i type="logical" name="LHARTREE"> T  </i>
   <i type="int" name="IBSE">     0</i>
   <v type="int" name="KPOINT">    -1     0     0     0</v>
   <i type="logical" name="LTCTE"> F  </i>
   <i type="logical" name="LTETE"> F  </i>
   <i type="logical" name="LTRIPLET"> F  </i>
   <i type="logical" name="LFXCEPS"> F  </i>
   <i type="logical" name="LFXHEG"> F  </i>
   <i type="int" name="NATURALO">     0</i>
   <i type="logical" name="L2ORDER"> F  </i>
   <i type="logical" name="LUSEW"> F  </i>
   <i name="ENCUTGW">     -2.00000000</i>
   <i name="ENCUTGWSOFT">     -2.00000000</i>
   <i name="ENCUTLF">     -1.00000000</i>
   <i type="int" name="LMAXMP2">    -1</i>
   <i name="SCISSOR">      0.00000000</i>
   <i type="int" name="NOMEGA">     0</i>
   <i type="int" name="NOMEGAR">     0</i>
   <i type="int" name="NBANDSGW">    -1</i>
   <i type="int" name="NBANDSO">    -1</i>
   <i type="int" name="NBANDSV">    -1</i>
   <i type="int" name="NELM">    40</i>
   <i type="int" name="NELMHF">     1</i>
   <i type="int" name="DIM">     3</i>
   <i type="int" name="ANTIRES">     0</i>
   <i name="OMEGAMAX">    -30.00000000</i>
   <i name="OMEGAMIN">    -30.00000000</i>
   <i name="OMEGATL">   -200.00000000</i>
   <i type="int" name="OMEGAGRID">     0</i>
   <i name="CSHIFT">     -0.10000000</i>
   <i type="logical" name="SELFENERGY"> F  </i>
   <i type="logical" name="LSPECTRAL"> F  </i>
   <i type="logical" name="LSPECTRALGW"> F  </i>
   <i type="logical" name="LSINGLES"> F  </i>
   <i type="logical" name="LFERMIGW"> F  </i>
   <i type="logical" name="ODDONLYGW"> F  </i>
   <i type="logical" name="EVENONLYGW"> F  </i>
   <i type="int" name="NKREDLFX">     1</i>
   <i type="int" name="NKREDLFY">     1</i>
   <i type="int" name="NKREDLFZ">     1</i>
   <i type="int" name="MAXMEM">  1800</i>
   <i type="int" name="TELESCOPE">     0</i>
   <i type="int" name="TAUPAR">     1</i>
   <i type="int" name="OMEGAPAR">    -1</i>
   <i name="LAMBDA">      1.00000000</i>
  </separator>
  <separator name="External order field" >
   <i name="OFIELD_KAPPA">      0.00000000</i>
   <v name="OFIELD_K">      0.00000000      0.00000000      0.00000000</v>
   <i name="OFIELD_Q6_NEAR">      0.00000000</i>
   <i name="OFIELD_Q6_FAR">      0.00000000</i>
   <i name="OFIELD_A">      0.00000000</i>
  </separator>
 </parameters>
 <atominfo>
  <atoms>     152 </atoms>
  <types>       4 </types>
  <array name="atoms" >
   <dimension dim="1">ion</dimension>
   <field type="string">element</field>
   <field type="int">atomtype</field>
   <set>
    <rc><c>Sr</c><c>   1</c></rc>
    <rc><c>Sr</c><c>   1</c></rc>
    <rc><c>Sr</c><c>   1</c></rc>
    <rc><c>Sr</c><c>   1</c></rc>
    <rc><c>Sr</c><c>   1</c></rc>
    <rc><c>Sr</c><c>   1</c></rc>
    <rc><c>Sr</c><c>   1</c></rc>
    <rc><c>Sr</c><c>   1</c></rc>
    <rc><c>Sr</c><c>   1</c></rc>
    <rc><c>Sr</c><c>   1</c></rc>
    <rc><c>Sr</c><c>   1</c></rc>
    <rc><c>Sr</c><c>   1</c></rc>
    <rc><c>Sr</c><c>   1</c></rc>
    <rc><c>Sr</c><c>   1</c></rc>
    <rc><c>Sr</c><c>   1</c></rc>
    <rc><c>Sr</c><c>   1</c></rc>
    <rc><c>Sr</c><c>   1</c></rc>
    <rc><c>Sr</c><c>   1</c></rc>
    <rc><c>Sr</c><c>   1</c></rc>
    <rc><c>Sr</c><c>   1</c></rc>
    <rc><c>Sr</c><c>   1</c></rc>
    <rc><c>Sr</c><c>   1</c></rc>
    <rc><c>Sr</c><c>   1</c></rc>
    <rc><c>Sr</c><c>   1</c></rc>
    <rc><c>Sr</c><c>   1</c></rc>
    <rc><c>Sr</c><c>   1</c></rc>
    <rc><c>Sr</c><c>   1</c></rc>
    <rc><c>Sr</c><c>   1</c></rc>
    <rc><c>Sr</c><c>   1</c></rc>
    <rc><c>Sr</c><c>   1</c></rc>
    <rc><c>Sr</c><c>   1</c></rc>
    <rc><c>Sr</c><c>   1</c></rc>
    <rc><c>Ti</c><c>   2</c></rc>
    <rc><c>Ti</c><c>   2</c></rc>
    <rc><c>Ti</c><c>   2</c></rc>
    <rc><c>Ti</c><c>   2</c></rc>
    <rc><c>Ti</c><c>   2</c></rc>
    <rc><c>Ti</c><c>   2</c></rc>
    <rc><c>Ti</c><c>   2</c></rc>
    <rc><c>Ti</c><c>   2</c></rc>
    <rc><c>Ti</c><c>   2</c></rc>
    <rc><c>Ti</c><c>   2</c></rc>
    <rc><c>Ti</c><c>   2</c></rc>
    <rc><c>Ti</c><c>   2</c></rc>
    <rc><c>Ti</c><c>   2</c></rc>
    <rc><c>Ti</c><c>   2</c></rc>
    <rc><c>Ti</c><c>   2</c></rc>
    <rc><c>Ti</c><c>   2</c></rc>
    <rc><c>Fe</c><c>   3</c></rc>
    <rc><c>Fe</c><c>   3</c></rc>
    <rc><c>Fe</c><c>   3</c></rc>
    <rc><c>Fe</c><c>   3</c></rc>
    <rc><c>Fe</c><c>   3</c></rc>
    <rc><c>Fe</c><c>   3</c></rc>
    <rc><c>Fe</c><c>   3</c></rc>
    <rc><c>Fe</c><c>   3</c></rc>
    <rc><c>Fe</c><c>   3</c></rc>
    <rc><c>Fe</c><c>   3</c></rc>
    <rc><c>Fe</c><c>   3</c></rc>
    <rc><c>Fe</c><c>   3</c></rc>
    <rc><c>Fe</c><c>   3</c></rc>
    <rc><c>Fe</c><c>   3</c></rc>
    <rc><c>Fe</c><c>   3</c></rc>
    <rc><c>Fe</c><c>   3</c></rc>
    <rc><c>O </c><c>   4</c></rc>
    <rc><c>O </c><c>   4</c></rc>
    <rc><c>O </c><c>   4</c></rc>
    <rc><c>O </c><c>   4</c></rc>
    <rc><c>O </c><c>   4</c></rc>
    <rc><c>O </c><c>   4</c></rc>
    <rc><c>O </c><c>   4</c></rc>
    <rc><c>O </c><c>   4</c></rc>
    <rc><c>O </c><c>   4</c></rc>
    <rc><c>O </c><c>   4</c></rc>
    <rc><c>O </c><c>   4</c></rc>
    <rc><c>O </c><c>   4</c></rc>
    <rc><c>O </c><c>   4</c></rc>
    <rc><c>O </c><c>   4</c></rc>
    <rc><c>O </c><c>   4</c></rc>
    <rc><c>O </c><c>   4</c></rc>
    <rc><c>O </c><c>   4</c></rc>
    <rc><c>O </c><c>   4</c></rc>
    <rc><c>O </c><c>   4</c></rc>
    <rc><c>O </c><c>   4</c></rc>
    <rc><c>O </c><c>   4</c></rc>
    <rc><c>O </c><c>   4</c></rc>
    <rc><c>O </c><c>   4</c></rc>
    <rc><c>O </c><c>   4</c></rc>
    <rc><c>O </c><c>   4</c></rc>
    <rc><c>O </c><c>   4</c></rc>
    <rc><c>O </c><c>   4</c></rc>
    <rc><c>O </c><c>   4</c></rc>
    <rc><c>O </c><c>   4</c></rc>
    <rc><c>O </c><c>   4</c></rc>
    <rc><c>O </c><c>   4</c></rc>
    <rc><c>O </c><c>   4</c></rc>
    <rc><c>O </c><c>   4</c></rc>
    <rc><c>O </c><c>   4</c></rc>
    <rc><c>O </c><c>   4</c></rc>
    <rc><c>O </c><c>   4</c></rc>
    <rc><c>O </c><c>   4</c></rc>
    <rc><c>O </c><c>   4</c></rc>
    <rc><c>O </c><c>   4</c></rc>
    <rc><c>O </c><c>   4</c></rc>
    <rc><c>O </c><c>   4</c></rc>
    <rc><c>O </c><c>   4</c></rc>
    <rc><c>O </c><c>   4</c></rc>
    <rc><c>O </c><c>   4</c></rc>
    <rc><c>O </c><c>   4</c></rc>
    <rc><c>O </c><c>   4</c></rc>
    <rc><c>O </c><c>   4</c></rc>
    <rc><c>O </c><c>   4</c></rc>
    <rc><c>O </c><c>   4</c></rc>
    <rc><c>O </c><c>   4</c></rc>
    <rc><c>O </c><c>   4</c></rc>
    <rc><c>O </c><c>   4</c></rc>
    <rc><c>O </c><c>   4</c></rc>
    <rc><c>O </c><c>   4</c></rc>
    <rc><c>O </c><c>   4</c></rc>
    <rc><c>O </c><c>   4</c></rc>
    <rc><c>O </c><c>   4</c></rc>
    <rc><c>O </c><c>   4</c></rc>
    <rc><c>O </c><c>   4</c></rc>
    <rc><c>O </c><c>   4</c></rc>
    <rc><c>O </c><c>   4</c></rc>
    <rc><c>O </c><c>   4</c></rc>
    <rc><c>O </c><c>   4</c></rc>
    <rc><c>O </c><c>   4</c></rc>
    <rc><c>O </c><c>   4</c></rc>
    <rc><c>O </c><c>   4</c></rc>
    <rc><c>O </c><c>   4</c></rc>
    <rc><c>O </c><c>   4</c></rc>
    <rc><c>O </c><c>   4</c></rc>
    <rc><c>O </c><c>   4</c></rc>
    <rc><c>O </c><c>   4</c></rc>
    <rc><c>O </c><c>   4</c></rc>
    <rc><c>O </c><c>   4</c></rc>
    <rc><c>O </c><c>   4</c></rc>
    <rc><c>O </c><c>   4</c></rc>
    <rc><c>O </c><c>   4</c></rc>
    <rc><c>O </c><c>   4</c></rc>
    <rc><c>O </c><c>   4</c></rc>
    <rc><c>O </c><c>   4</c></rc>
    <rc><c>O </c><c>   4</c></rc>
    <rc><c>O </c><c>   4</c></rc>
    <rc><c>O </c><c>   4</c></rc>
    <rc><c>O </c><c>   4</c></rc>
    <rc><c>O </c><c>   4</c></rc>
    <rc><c>O </c><c>   4</c></rc>
    <rc><c>O </c><c>   4</c></rc>
    <rc><c>O </c><c>   4</c></rc>
    <rc><c>O </c><c>   4</c></rc>
   </set>
  </array>
  <array name="atomtypes" >
   <dimension dim="1">type</dimension>
   <field type="int">atomspertype</field>
   <field type="string">element</field>
   <field>mass</field>
   <field>valence</field>
   <field type="string">pseudopotential</field>
   <set>
    <rc><c>  32</c><c>Sr</c><c>     87.62000000</c><c>     10.00000000</c><c>  PAW_PBE Sr_sv 07Sep2000               </c></rc>
    <rc><c>  16</c><c>Ti</c><c>     47.88000000</c><c>      4.00000000</c><c>  PAW_PBE Ti 08Apr2002                  </c></rc>
    <rc><c>  16</c><c>Fe</c><c>     55.84700000</c><c>      8.00000000</c><c>  PAW_PBE Fe 06Sep2000                  </c></rc>
    <rc><c>  88</c><c>O </c><c>     16.00000000</c><c>      6.00000000</c><c>  PAW_PBE O 08Apr2002                   </c></rc>
   </set>
  </array>
 </atominfo>
 <structure name="initialpos" >
  <crystal>
   <varray name="basis" >
    <v>      11.19450824       0.02188590      -0.02752503 </v>
    <v>       0.02187767      11.20391699       0.01719411 </v>
    <v>      -0.03945590       0.02484329      15.90397572 </v>
   </varray>
   <i name="volume">   1994.68927165 </i>
   <varray name="rec_basis" >
    <v>       0.08933040      -0.00017477       0.00022189 </v>
    <v>      -0.00017484       0.08925506      -0.00013986 </v>
    <v>       0.00015479      -0.00009680       0.06287789 </v>
   </varray>
  </crystal>
  <varray name="positions" >
   <v>       0.99718411       0.24517709       0.12729011 </v>
   <v>       0.00660381       0.25201118       0.61912597 </v>
   <v>       0.99627554       0.75259991       0.12662250 </v>
   <v>       0.01184846       0.74351214       0.61838492 </v>
   <v>       0.50135823       0.25267728       0.12643748 </v>
   <v>       0.49485468       0.27492800       0.62636430 </v>
   <v>       0.50105557       0.75157989       0.12569425 </v>
   <v>       0.48819009       0.74607047       0.62108674 </v>
   <v>       0.00340694       0.24783361       0.37359509 </v>
   <v>       0.99738514       0.25105273       0.87870975 </v>
   <v>       0.01051365       0.74882606       0.36976680 </v>
   <v>       0.99656744       0.74832109       0.88439834 </v>
   <v>       0.49841170       0.26729710       0.38348495 </v>
   <v>       0.49865522       0.24595368       0.87869628 </v>
   <v>       0.48753580       0.73664919       0.36480263 </v>
   <v>       0.49819834       0.75805187       0.88868057 </v>
   <v>       0.23867108       0.99762679       0.12618599 </v>
   <v>       0.24651475       0.00437517       0.61779884 </v>
   <v>       0.24070484       0.50105626       0.12910671 </v>
   <v>       0.24781123       0.49636839       0.61637213 </v>
   <v>       0.75742983       0.99546099       0.12447368 </v>
   <v>       0.76786302       0.00716592       0.62257526 </v>
   <v>       0.75739804       0.50343335       0.12616930 </v>
   <v>       0.75403905       0.49064263       0.61880380 </v>
   <v>       0.23924168       0.99509228       0.37091015 </v>
   <v>       0.24668883       0.99988063       0.88520782 </v>
   <v>       0.25310601       0.50500658       0.37629811 </v>
   <v>       0.23920178       0.49750597       0.87699779 </v>
   <v>       0.76033348       0.00375184       0.36776606 </v>
   <v>       0.75160734       0.00355390       0.89033931 </v>
   <v>       0.75048294       0.49319325       0.36882686 </v>
   <v>       0.75399026       0.49706117       0.87715077 </v>
   <v>       0.00459669       0.99858590       0.49916106 </v>
   <v>       0.99758178       0.49999268       0.99925456 </v>
   <v>       0.00417855       0.50157008       0.49779545 </v>
   <v>       0.49681132       0.50320824       0.98592323 </v>
   <v>       0.24909161       0.24604289       0.00253221 </v>
   <v>       0.24929227       0.75117858       0.00519688 </v>
   <v>       0.74927467       0.24888149       0.00288079 </v>
   <v>       0.74736340       0.75375154       0.48962864 </v>
   <v>       0.25201518       0.24944336       0.25090293 </v>
   <v>       0.74004556       0.24786850       0.74795056 </v>
   <v>       0.74403361       0.75077769       0.75739670 </v>
   <v>       0.99708860       0.99791071       0.24873909 </v>
   <v>       0.99266733       0.00620925       0.75181330 </v>
   <v>       0.99817369       0.49939556       0.25254280 </v>
   <v>       0.99498265       0.49921366       0.74853979 </v>
   <v>       0.50160322       0.00147941       0.25608387 </v>
   <v>       0.99898662       0.99688240       0.99994631 </v>
   <v>       0.49698760       0.00305241       0.99323752 </v>
   <v>       0.49418339       0.98577543       0.49104934 </v>
   <v>       0.49847313       0.50565088       0.50462722 </v>
   <v>       0.25489143       0.25179724       0.50053123 </v>
   <v>       0.25198460       0.74909624       0.49640200 </v>
   <v>       0.75812052       0.26129079       0.49824474 </v>
   <v>       0.74858540       0.75301972       0.00595047 </v>
   <v>       0.24412298       0.25955123       0.75248663 </v>
   <v>       0.24830427       0.75009689       0.24753742 </v>
   <v>       0.25150680       0.75284525       0.75108028 </v>
   <v>       0.74741823       0.24819130       0.24891773 </v>
   <v>       0.74760436       0.74880561       0.24498109 </v>
   <v>       0.51398268       0.98293750       0.75585374 </v>
   <v>       0.50210796       0.49937014       0.25787544 </v>
   <v>       0.50828460       0.49476144       0.74783150 </v>
   <v>       0.12200244       0.12892845       0.25309837 </v>
   <v>       0.13993211       0.10458113       0.75414107 </v>
   <v>       0.11839500       0.62638766       0.24837268 </v>
   <v>       0.12477169       0.64086335       0.75667130 </v>
   <v>       0.61815462       0.12243519       0.22787086 </v>
   <v>       0.60304190       0.13591918       0.74052856 </v>
   <v>       0.61335371       0.62209687       0.23203750 </v>
   <v>       0.60610599       0.64400562       0.74937716 </v>
   <v>       0.38483499       0.37426443       0.24306836 </v>
   <v>       0.38466876       0.36525415       0.75724892 </v>
   <v>       0.38265262       0.87628227       0.23798325 </v>
   <v>       0.36788904       0.87812722       0.74130238 </v>
   <v>       0.87903434       0.36837889       0.26084774 </v>
   <v>       0.88274996       0.36450657       0.74728577 </v>
   <v>       0.87706186       0.86993105       0.25646920 </v>
   <v>       0.89209563       0.85852047       0.73903260 </v>
   <v>       0.37366569       0.11814191       0.23059896 </v>
   <v>       0.37670455       0.61401628       0.24448654 </v>
   <v>       0.86986327       0.12013118       0.25300607 </v>
   <v>       0.86788411       0.11578286       0.75687659 </v>
   <v>       0.86795983       0.61641008       0.25375085 </v>
   <v>       0.85611358       0.61836989       0.73633703 </v>
   <v>       0.13198087       0.37830266       0.26231847 </v>
   <v>       0.12684660       0.38137306       0.75564277 </v>
   <v>       0.12709505       0.88000386       0.25009204 </v>
   <v>       0.62459421       0.38483603       0.23859019 </v>
   <v>       0.63991340       0.38961440       0.74551449 </v>
   <v>       0.62357515       0.88153224       0.23523127 </v>
   <v>       0.64330485       0.87499453       0.71073728 </v>
   <v>       0.37267982       0.38371822       0.00856827 </v>
   <v>       0.36835617       0.38327882       0.49782737 </v>
   <v>       0.36956219       0.88038333       0.00964515 </v>
   <v>       0.36743663       0.88518404       0.51058794 </v>
   <v>       0.86923577       0.37976674       0.99068685 </v>
   <v>       0.87313112       0.38281258       0.49635441 </v>
   <v>       0.86838616       0.88093532       0.99779621 </v>
   <v>       0.87114907       0.87457235       0.50966118 </v>
   <v>       0.12967303       0.11934723       0.99902489 </v>
   <v>       0.13768839       0.11538777       0.49788934 </v>
   <v>       0.13107966       0.61621109       0.99523259 </v>
   <v>       0.13236848       0.61821175       0.50030087 </v>
   <v>       0.62782311       0.12132638       0.00987318 </v>
   <v>       0.62488941       0.61698750       0.00518004 </v>
   <v>       0.63495956       0.63878973       0.52737157 </v>
   <v>       0.12029635       0.36979324       0.98597722 </v>
   <v>       0.11929001       0.36649648       0.49958687 </v>
   <v>       0.12110309       0.86544036       0.99878676 </v>
   <v>       0.11978441       0.86705503       0.50070298 </v>
   <v>       0.61511713       0.37494248       0.00025880 </v>
   <v>       0.62031476       0.37313298       0.51045213 </v>
   <v>       0.61359295       0.87526320       0.00979586 </v>
   <v>       0.63238779       0.89490780       0.51837942 </v>
   <v>       0.38025878       0.12763996       0.02078929 </v>
   <v>       0.43239148       0.13139650       0.52160340 </v>
   <v>       0.38318925       0.62686923       0.01541012 </v>
   <v>       0.38379287       0.63670636       0.49473068 </v>
   <v>       0.87889184       0.13097212       0.99078921 </v>
   <v>       0.87569496       0.12435297       0.49984209 </v>
   <v>       0.87964179       0.62799874       0.99736911 </v>
   <v>       0.87586094       0.63476663       0.50561913 </v>
   <v>       0.99655291       0.00090760       0.12599421 </v>
   <v>       0.01224670       0.99874962       0.62822506 </v>
   <v>       0.99984199       0.48834704       0.12416964 </v>
   <v>       0.00489582       0.49939845       0.62509849 </v>
   <v>       0.47213580       0.51504200       0.63251845 </v>
   <v>       0.99960035       0.99673616       0.37702326 </v>
   <v>       0.01094144       0.97801205       0.86898751 </v>
   <v>       0.00072397       0.50873747       0.37731966 </v>
   <v>       0.98897928       0.50864325       0.87020428 </v>
   <v>       0.51091272       0.00705764       0.37336286 </v>
   <v>       0.48606869       0.01160577       0.87501159 </v>
   <v>       0.51747186       0.50716870       0.37768320 </v>
   <v>       0.48082341       0.52148530       0.86994784 </v>
   <v>       0.27112803       0.23301258       0.37406494 </v>
   <v>       0.26872973       0.23277746       0.87651831 </v>
   <v>       0.25556651       0.75438975       0.37125068 </v>
   <v>       0.26717186       0.74940652       0.87063893 </v>
   <v>       0.72287805       0.23443441       0.37856887 </v>
   <v>       0.73558584       0.24809831       0.87230081 </v>
   <v>       0.72539258       0.74990256       0.37425762 </v>
   <v>       0.73836927       0.76397930       0.87324678 </v>
   <v>       0.23186226       0.26243434       0.12585722 </v>
   <v>       0.25790750       0.23854175       0.63054228 </v>
   <v>       0.24009307       0.74567599       0.12474387 </v>
   <v>       0.24639745       0.74243487       0.63519524 </v>
   <v>       0.76285519       0.25963018       0.12263962 </v>
   <v>       0.74989303       0.23765499       0.62332375 </v>
   <v>       0.76122831       0.74674708       0.12567603 </v>
  </varray>
 </structure>
 <calculation>
  <scstep>
   <time name="dav">  590.16  590.27</time>
   <time name="total">  597.40  597.56</time>
   <energy>
    <i name="alphaZ">   5646.11122773 </i>
    <i name="ewald"> -62122.01779139 </i>
    <i name="hartreedc"> -17545.54732615 </i>
    <i name="XCdc">   3182.44682725 </i>
    <i name="pawpsdc"> 113918.05242305 </i>
    <i name="pawaedc">-113118.60182882 </i>
    <i name="eentropy">     -0.00011130 </i>
    <i name="bandstr">  -7064.86143245 </i>
    <i name="atom">  76050.17612637 </i>
    <i name="e_fr_energy">  -1054.24188571 </i>
    <i name="e_wo_entrp">  -1054.24177441 </i>
    <i name="e_0_energy">  -1054.24183006 </i>
   </energy>
  </scstep>
  <scstep>
   <time name="diag">   64.46   64.51</time>
   <time name="diis">   61.89   61.94</time>
   <time name="orth">   33.08   33.10</time>
   <time name="total">  166.69  166.87</time>
   <energy>
    <i name="e_fr_energy">  -1054.24188668 </i>
    <i name="e_wo_entrp">  -1054.24178128 </i>
    <i name="e_0_energy">  -1054.24183398 </i>
   </energy>
  </scstep>
  <scstep>
   <time name="diag">   64.59   64.61</time>
   <time name="diis">   58.07   58.10</time>
   <time name="orth">   33.12   33.11</time>
   <time name="total">  163.05  163.17</time>
   <energy>
    <i name="e_fr_energy">  -1054.24188545 </i>
    <i name="e_wo_entrp">  -1054.24177826 </i>
    <i name="e_0_energy">  -1054.24183185 </i>
   </energy>
  </scstep>
  <scstep>
   <time name="diag">   64.52   64.58</time>
   <time name="diis">   51.15   51.18</time>
   <time name="orth">   33.12   33.11</time>
   <time name="total">  156.05  156.18</time>
   <energy>
    <i name="e_fr_energy">  -1054.24188555 </i>
    <i name="e_wo_entrp">  -1054.24177788 </i>
    <i name="e_0_energy">  -1054.24183171 </i>
   </energy>
  </scstep>
  <scstep>
   <time name="diag">   64.58   64.58</time>
   <time name="diis">   49.04   49.07</time>
   <time name="orth">   33.10   33.10</time>
   <time name="total">  153.98  154.14</time>
   <energy>
    <i name="e_fr_energy">  -1054.24188566 </i>
    <i name="e_wo_entrp">  -1054.24177765 </i>
    <i name="e_0_energy">  -1054.24183165 </i>
   </energy>
  </scstep>
  <scstep>
   <time name="diag">   64.53   64.55</time>
   <time name="diis">   45.75   45.78</time>
   <time name="orth">   33.12   33.12</time>
   <time name="total">  150.67  150.73</time>
   <energy>
    <i name="e_fr_energy">  -1054.24188579 </i>
    <i name="e_wo_entrp">  -1054.24177780 </i>
    <i name="e_0_energy">  -1054.24183180 </i>
   </energy>
  </scstep>
  <scstep>
   <time name="diag">   64.37   64.39</time>
   <time name="diis">   44.88   44.89</time>
   <time name="orth">   33.08   33.08</time>
   <time name="total">  149.59  149.65</time>
   <energy>
    <i name="e_fr_energy">  -1054.24188593 </i>
    <i name="e_wo_entrp">  -1054.24177794 </i>
    <i name="e_0_energy">  -1054.24183194 </i>
   </energy>
  </scstep>
  <scstep>
   <time name="diag">   64.50   64.52</time>
   <time name="diis">   43.61   43.65</time>
   <time name="orth">   33.04   33.06</time>
   <time name="total">  142.21  142.38</time>
   <energy>
    <i name="alphaZ">   5646.11122773 </i>
    <i name="ewald"> -62122.01779139 </i>
    <i name="hartreedc"> -17545.54329391 </i>
    <i name="XCdc">   3182.44670592 </i>
    <i name="pawpsdc"> 113917.64320737 </i>
    <i name="pawaedc">-113118.18701552 </i>
    <i name="eentropy">     -0.00010805 </i>
    <i name="bandstr">  -7064.87094452 </i>
    <i name="atom">  76050.17612637 </i>
    <i name="e_fr_energy">  -1054.24188600 </i>
    <i name="e_wo_entrp">  -1054.24177796 </i>
    <i name="e_0_energy">  -1054.24183198 </i>
   </energy>
  </scstep>
  <structure>
   <crystal>
    <varray name="basis" >
     <v>      11.19450824       0.02188590      -0.02752503 </v>
     <v>       0.02187767      11.20391699       0.01719411 </v>
     <v>      -0.03945590       0.02484329      15.90397572 </v>
    </varray>
    <i name="volume">   1994.68927165 </i>
    <varray name="rec_basis" >
     <v>       0.08933040      -0.00017477       0.00022189 </v>
     <v>      -0.00017484       0.08925506      -0.00013986 </v>
     <v>       0.00015479      -0.00009680       0.06287789 </v>
    </varray>
   </crystal>
   <varray name="positions" >
    <v>       0.99718411       0.24517709       0.12729011 </v>
    <v>       0.00660381       0.25201118       0.61912597 </v>
    <v>       0.99627554       0.75259991       0.12662250 </v>
    <v>       0.01184846       0.74351214       0.61838492 </v>
    <v>       0.50135823       0.25267728       0.12643748 </v>
    <v>       0.49485468       0.27492800       0.62636430 </v>
    <v>       0.50105557       0.75157989       0.12569425 </v>
    <v>       0.48819009       0.74607047       0.62108674 </v>
    <v>       0.00340694       0.24783361       0.37359509 </v>
    <v>       0.99738514       0.25105273       0.87870975 </v>
    <v>       0.01051365       0.74882606       0.36976680 </v>
    <v>       0.99656744       0.74832109       0.88439834 </v>
    <v>       0.49841170       0.26729710       0.38348495 </v>
    <v>       0.49865522       0.24595368       0.87869628 </v>
    <v>       0.48753580       0.73664919       0.36480263 </v>
    <v>       0.49819834       0.75805187       0.88868057 </v>
    <v>       0.23867108       0.99762679       0.12618599 </v>
    <v>       0.24651475       0.00437517       0.61779884 </v>
    <v>       0.24070484       0.50105626       0.12910671 </v>
    <v>       0.24781123       0.49636839       0.61637213 </v>
    <v>       0.75742983       0.99546099       0.12447368 </v>
    <v>       0.76786302       0.00716592       0.62257526 </v>
    <v>       0.75739804       0.50343335       0.12616930 </v>
    <v>       0.75403905       0.49064263       0.61880380 </v>
    <v>       0.23924168       0.99509228       0.37091015 </v>
    <v>       0.24668883       0.99988063       0.88520782 </v>
    <v>       0.25310601       0.50500658       0.37629811 </v>
    <v>       0.23920178       0.49750597       0.87699779 </v>
    <v>       0.76033348       0.00375184       0.36776606 </v>
    <v>       0.75160734       0.00355390       0.89033931 </v>
    <v>       0.75048294       0.49319325       0.36882686 </v>
    <v>       0.75399026       0.49706117       0.87715077 </v>
    <v>       0.00459669       0.99858590       0.49916106 </v>
    <v>       0.99758178       0.49999268       0.99925456 </v>
    <v>       0.00417855       0.50157008       0.49779545 </v>
    <v>       0.49681132       0.50320824       0.98592323 </v>
    <v>       0.24909161       0.24604289       0.00253221 </v>
    <v>       0.24929227       0.75117858       0.00519688 </v>
    <v>       0.74927467       0.24888149       0.00288079 </v>
    <v>       0.74736340       0.75375154       0.48962864 </v>
    <v>       0.25201518       0.24944336       0.25090293 </v>
    <v>       0.74004556       0.24786850       0.74795056 </v>
    <v>       0.74403361       0.75077769       0.75739670 </v>
    <v>       0.99708860       0.99791071       0.24873909 </v>
    <v>       0.99266733       0.00620925       0.75181330 </v>
    <v>       0.99817369       0.49939556       0.25254280 </v>
    <v>       0.99498265       0.49921366       0.74853979 </v>
    <v>       0.50160322       0.00147941       0.25608387 </v>
    <v>       0.99898662       0.99688240       0.99994631 </v>
    <v>       0.49698760       0.00305241       0.99323752 </v>
    <v>       0.49418339       0.98577543       0.49104934 </v>
    <v>       0.49847313       0.50565088       0.50462722 </v>
    <v>       0.25489143       0.25179724       0.50053123 </v>
    <v>       0.25198460       0.74909624       0.49640200 </v>
    <v>       0.75812052       0.26129079       0.49824474 </v>
    <v>       0.74858540       0.75301972       0.00595047 </v>
    <v>       0.24412298       0.25955123       0.75248663 </v>
    <v>       0.24830427       0.75009689       0.24753742 </v>
    <v>       0.25150680       0.75284525       0.75108028 </v>
    <v>       0.74741823       0.24819130       0.24891773 </v>
    <v>       0.74760436       0.74880561       0.24498109 </v>
    <v>       0.51398268       0.98293750       0.75585374 </v>
    <v>       0.50210796       0.49937014       0.25787544 </v>
    <v>       0.50828460       0.49476144       0.74783150 </v>
    <v>       0.12200244       0.12892845       0.25309837 </v>
    <v>       0.13993211       0.10458113       0.75414107 </v>
    <v>       0.11839500       0.62638766       0.24837268 </v>
    <v>       0.12477169       0.64086335       0.75667130 </v>
    <v>       0.61815462       0.12243519       0.22787086 </v>
    <v>       0.60304190       0.13591918       0.74052856 </v>
    <v>       0.61335371       0.62209687       0.23203750 </v>
    <v>       0.60610599       0.64400562       0.74937716 </v>
    <v>       0.38483499       0.37426443       0.24306836 </v>
    <v>       0.38466876       0.36525415       0.75724892 </v>
    <v>       0.38265262       0.87628227       0.23798325 </v>
    <v>       0.36788904       0.87812722       0.74130238 </v>
    <v>       0.87903434       0.36837889       0.26084774 </v>
    <v>       0.88274996       0.36450657       0.74728577 </v>
    <v>       0.87706186       0.86993105       0.25646920 </v>
    <v>       0.89209563       0.85852047       0.73903260 </v>
    <v>       0.37366569       0.11814191       0.23059896 </v>
    <v>       0.37670455       0.61401628       0.24448654 </v>
    <v>       0.86986327       0.12013118       0.25300607 </v>
    <v>       0.86788411       0.11578286       0.75687659 </v>
    <v>       0.86795983       0.61641008       0.25375085 </v>
    <v>       0.85611358       0.61836989       0.73633703 </v>
    <v>       0.13198087       0.37830266       0.26231847 </v>
    <v>       0.12684660       0.38137306       0.75564277 </v>
    <v>       0.12709505       0.88000386       0.25009204 </v>
    <v>       0.62459421       0.38483603       0.23859019 </v>
    <v>       0.63991340       0.38961440       0.74551449 </v>
    <v>       0.62357515       0.88153224       0.23523127 </v>
    <v>       0.64330485       0.87499453       0.71073728 </v>
    <v>       0.37267982       0.38371822       0.00856827 </v>
    <v>       0.36835617       0.38327882       0.49782737 </v>
    <v>       0.36956219       0.88038333       0.00964515 </v>
    <v>       0.36743663       0.88518404       0.51058794 </v>
    <v>       0.86923577       0.37976674       0.99068685 </v>
    <v>       0.87313112       0.38281258       0.49635441 </v>
    <v>       0.86838616       0.88093532       0.99779621 </v>
    <v>       0.87114907       0.87457235       0.50966118 </v>
    <v>       0.12967303       0.11934723       0.99902489 </v>
    <v>       0.13768839       0.11538777       0.49788934 </v>
    <v>       0.13107966       0.61621109       0.99523259 </v>
    <v>       0.13236848       0.61821175       0.50030087 </v>
    <v>       0.62782311       0.12132638       0.00987318 </v>
    <v>       0.62488941       0.61698750       0.00518004 </v>
    <v>       0.63495956       0.63878973       0.52737157 </v>
    <v>       0.12029635       0.36979324       0.98597722 </v>
    <v>       0.11929001       0.36649648       0.49958687 </v>
    <v>       0.12110309       0.86544036       0.99878676 </v>
    <v>       0.11978441       0.86705503       0.50070298 </v>
    <v>       0.61511713       0.37494248       0.00025880 </v>
    <v>       0.62031476       0.37313298       0.51045213 </v>
    <v>       0.61359295       0.87526320       0.00979586 </v>
    <v>       0.63238779       0.89490780       0.51837942 </v>
    <v>       0.38025878       0.12763996       0.02078929 </v>
    <v>       0.43239148       0.13139650       0.52160340 </v>
    <v>       0.38318925       0.62686923       0.01541012 </v>
    <v>       0.38379287       0.63670636       0.49473068 </v>
    <v>       0.87889184       0.13097212       0.99078921 </v>
    <v>       0.87569496       0.12435297       0.49984209 </v>
    <v>       0.87964179       0.62799874       0.99736911 </v>
    <v>       0.87586094       0.63476663       0.50561913 </v>
    <v>       0.99655291       0.00090760       0.12599421 </v>
    <v>       0.01224670       0.99874962       0.62822506 </v>
    <v>       0.99984199       0.48834704       0.12416964 </v>
    <v>       0.00489582       0.49939845       0.62509849 </v>
    <v>       0.47213580       0.51504200       0.63251845 </v>
    <v>       0.99960035       0.99673616       0.37702326 </v>
    <v>       0.01094144       0.97801205       0.86898751 </v>
    <v>       0.00072397       0.50873747       0.37731966 </v>
    <v>       0.98897928       0.50864325       0.87020428 </v>
    <v>       0.51091272       0.00705764       0.37336286 </v>
    <v>       0.48606869       0.01160577       0.87501159 </v>
    <v>       0.51747186       0.50716870       0.37768320 </v>
    <v>       0.48082341       0.52148530       0.86994784 </v>
    <v>       0.27112803       0.23301258       0.37406494 </v>
    <v>       0.26872973       0.23277746       0.87651831 </v>
    <v>       0.25556651       0.75438975       0.37125068 </v>
    <v>       0.26717186       0.74940652       0.87063893 </v>
    <v>       0.72287805       0.23443441       0.37856887 </v>
    <v>       0.73558584       0.24809831       0.87230081 </v>
    <v>       0.72539258       0.74990256       0.37425762 </v>
    <v>       0.73836927       0.76397930       0.87324678 </v>
    <v>       0.23186226       0.26243434       0.12585722 </v>
    <v>       0.25790750       0.23854175       0.63054228 </v>
    <v>       0.24009307       0.74567599       0.12474387 </v>
    <v>       0.24639745       0.74243487       0.63519524 </v>
    <v>       0.76285519       0.25963018       0.12263962 </v>
    <v>       0.74989303       0.23765499       0.62332375 </v>
    <v>       0.76122831       0.74674708       0.12567603 </v>
   </varray>
  </structure>
  <varray name="forces" >
   <v>       0.00388373       0.00661503      -0.00119001 </v>
   <v>       0.00249254       0.00600964       0.00171383 </v>
   <v>      -0.00761809      -0.00758628       0.00113764 </v>
   <v>      -0.00261647      -0.00326616       0.00183862 </v>
   <v>      -0.01276328      -0.00943040       0.00011321 </v>
   <v>       0.00223664      -0.01236844       0.00813117 </v>
   <v>       0.00282605       0.00151372      -0.00352487 </v>
   <v>      -0.00227044       0.00327697      -0.00087205 </v>
   <v>      -0.00099339       0.00161810      -0.00131272 </v>
   <v>       0.00028606      -0.00583252       0.00277095 </v>
   <v>      -0.00271223       0.00594366      -0.00155176 </v>
   <v>      -0.00618782      -0.00583403       0.00150844 </v>
   <v>      -0.00676032      -0.01012077      -0.00186397 </v>
   <v>       0.00215506       0.00000658      -0.00569911 </v>
   <v>       0.00790247       0.00100126       0.00638010 </v>
   <v>       0.01467014      -0.00328858       0.00307688 </v>
   <v>       0.01024151       0.00418734      -0.00275162 </v>
   <v>       0.00432834       0.00073839      -0.00014075 </v>
   <v>      -0.00098547      -0.00627704       0.00163164 </v>
   <v>      -0.00851200      -0.00045456      -0.00431448 </v>
   <v>      -0.00881414      -0.00331050       0.00264882 </v>
   <v>      -0.00469391      -0.00242722       0.00834858 </v>
   <v>       0.00563678       0.00355053       0.00113595 </v>
   <v>      -0.00106304       0.00629887      -0.00288118 </v>
   <v>       0.00893230      -0.00497421       0.00228828 </v>
   <v>      -0.00066809      -0.00035839      -0.00593002 </v>
   <v>      -0.00296972      -0.00270229      -0.00349878 </v>
   <v>       0.00062835       0.00521374       0.00242730 </v>
   <v>      -0.00429212      -0.00738086       0.00537938 </v>
   <v>       0.00121123      -0.00425802      -0.00324894 </v>
   <v>       0.00795187       0.00746504      -0.00207345 </v>
   <v>       0.00365733       0.00243577      -0.00692635 </v>
   <v>      -0.01233842      -0.00202108       0.01502787 </v>
   <v>      -0.00265728       0.00189856       0.01243590 </v>
   <v>      -0.00092060       0.00714723       0.01567214 </v>
   <v>      -0.00135493       0.02024365      -0.00180948 </v>
   <v>       0.00708245      -0.00537780      -0.00431890 </v>
   <v>       0.01545350       0.00169770      -0.03597605 </v>
   <v>       0.00528143      -0.01001881      -0.00438726 </v>
   <v>      -0.01943984      -0.00178918      -0.01019945 </v>
   <v>       0.00627075       0.00851755       0.00282387 </v>
   <v>      -0.00818064       0.00616361      -0.01048251 </v>
   <v>      -0.00562579      -0.00139093       0.00043641 </v>
   <v>      -0.00583085      -0.01303957       0.00122399 </v>
   <v>       0.00705537      -0.00934576       0.00216433 </v>
   <v>      -0.00303298      -0.00474225      -0.01212342 </v>
   <v>      -0.00595774      -0.00504536      -0.00829711 </v>
   <v>      -0.00023592       0.00515834      -0.01001907 </v>
   <v>      -0.00767370      -0.00319231      -0.00110406 </v>
   <v>      -0.00168244      -0.00335020       0.01187174 </v>
   <v>       0.00374704       0.00935148      -0.01185381 </v>
   <v>       0.00391151       0.00483887       0.00068769 </v>
   <v>      -0.00318271      -0.00019146       0.00212301 </v>
   <v>       0.00052768       0.00193624      -0.00079256 </v>
   <v>       0.00055976      -0.00370529       0.00228477 </v>
   <v>      -0.00726973       0.00022632      -0.00926132 </v>
   <v>      -0.00301144      -0.01008060       0.00203135 </v>
   <v>       0.00374716       0.00283828       0.00764887 </v>
   <v>       0.00045354      -0.00066367       0.00070464 </v>
   <v>      -0.00299034       0.00092869       0.00646398 </v>
   <v>      -0.00052682       0.00818013       0.00672511 </v>
   <v>       0.00943974       0.01032685      -0.00960107 </v>
   <v>       0.00216693       0.00716172       0.01531541 </v>
   <v>       0.00261196       0.00613023       0.01190435 </v>
   <v>       0.00276948      -0.00939619       0.00113484 </v>
   <v>       0.00274850       0.00606965      -0.00171871 </v>
   <v>       0.00360708      -0.00015856      -0.00080546 </v>
   <v>       0.00780236       0.00536538       0.00617255 </v>
   <v>       0.00784964      -0.00222953      -0.00031725 </v>
   <v>      -0.00062987       0.00585472      -0.00177001 </v>
   <v>       0.00779801      -0.00406482       0.00451517 </v>
   <v>      -0.00510864       0.00750498      -0.00242102 </v>
   <v>      -0.00343203       0.00519933      -0.00727699 </v>
   <v>       0.00098544      -0.00010528       0.00382032 </v>
   <v>      -0.00726359      -0.00374695      -0.00383332 </v>
   <v>      -0.00304650      -0.01747173       0.00657881 </v>
   <v>      -0.00449868       0.00472794      -0.00613150 </v>
   <v>      -0.00102940       0.00269538       0.00375223 </v>
   <v>       0.00183480       0.00437915      -0.00154688 </v>
   <v>      -0.00433442      -0.00170826       0.00001785 </v>
   <v>       0.00505114       0.00738243      -0.00344792 </v>
   <v>      -0.00250815       0.00778525      -0.00927407 </v>
   <v>      -0.00116642       0.00573814      -0.00313997 </v>
   <v>      -0.00684087       0.00981343      -0.00317091 </v>
   <v>       0.01067550       0.00006821      -0.00781509 </v>
   <v>      -0.00782850       0.00728148       0.00573018 </v>
   <v>      -0.00011386      -0.00979781      -0.00113599 </v>
   <v>      -0.00181231      -0.00408591       0.01000676 </v>
   <v>       0.00202145      -0.00362702      -0.00185312 </v>
   <v>       0.00313909      -0.00747023      -0.00020831 </v>
   <v>      -0.00213368      -0.01110541      -0.00148186 </v>
   <v>       0.00214230      -0.00201283       0.00495550 </v>
   <v>       0.00913629      -0.01735415       0.01808944 </v>
   <v>       0.00259046      -0.00367668      -0.00011137 </v>
   <v>       0.01644222      -0.00181724       0.00137238 </v>
   <v>       0.00379315      -0.00818753      -0.00145032 </v>
   <v>      -0.00201230      -0.01294367      -0.00180645 </v>
   <v>      -0.00124663      -0.00305404       0.00450579 </v>
   <v>       0.00379030      -0.00026766       0.00288039 </v>
   <v>       0.01293468       0.00348290       0.00182623 </v>
   <v>      -0.00964041       0.01323141       0.00797593 </v>
   <v>      -0.00316029       0.00261520       0.00362936 </v>
   <v>      -0.00609825       0.00118799       0.00332271 </v>
   <v>      -0.00256611       0.00621110       0.00416423 </v>
   <v>      -0.00591437       0.00879368      -0.00356382 </v>
   <v>       0.01049616       0.01250206      -0.00120070 </v>
   <v>      -0.01835494       0.00006294       0.00689601 </v>
   <v>       0.00063768      -0.00498419      -0.01073376 </v>
   <v>       0.00308549       0.00566499      -0.00618036 </v>
   <v>       0.00499615      -0.00336658      -0.00415496 </v>
   <v>       0.00062613       0.00392598       0.00168036 </v>
   <v>       0.00237928       0.00674711      -0.00608021 </v>
   <v>       0.00395075       0.00533906       0.00758345 </v>
   <v>       0.00053922       0.00480402      -0.00762210 </v>
   <v>       0.01015359       0.00438041       0.00295346 </v>
   <v>       0.00994457       0.00856583      -0.02122882 </v>
   <v>      -0.00657607      -0.00148174      -0.00154241 </v>
   <v>      -0.01676089       0.00765850       0.01053383 </v>
   <v>      -0.01876503       0.00137441       0.00846845 </v>
   <v>      -0.00839071      -0.01353032       0.00088739 </v>
   <v>      -0.01300242       0.00408563       0.00399936 </v>
   <v>       0.00988784      -0.00217238      -0.00639808 </v>
   <v>      -0.01133112      -0.00565682      -0.00016097 </v>
   <v>       0.00961283      -0.00812164       0.00510342 </v>
   <v>       0.00019442      -0.00232031      -0.00692167 </v>
   <v>       0.00001291       0.00307154      -0.01705151 </v>
   <v>       0.00800872      -0.00101527      -0.00386739 </v>
   <v>       0.00193333      -0.00498203       0.00374289 </v>
   <v>       0.00369888      -0.00251474      -0.00539689 </v>
   <v>       0.00173711      -0.00174469       0.00193159 </v>
   <v>       0.00313030       0.00090233      -0.00530834 </v>
   <v>      -0.00723302       0.00154649      -0.00400115 </v>
   <v>       0.00122429       0.00163354       0.00776561 </v>
   <v>      -0.01028537       0.00722214       0.00922471 </v>
   <v>       0.00658664       0.00605684      -0.00701491 </v>
   <v>      -0.00379694      -0.00544514      -0.00437704 </v>
   <v>       0.00622578      -0.00793323      -0.00165803 </v>
   <v>       0.00182948      -0.00378789       0.00029967 </v>
   <v>      -0.00575284      -0.00664753       0.01190356 </v>
   <v>       0.00529617       0.00154825       0.00164010 </v>
   <v>      -0.00926563      -0.00375621      -0.01885144 </v>
   <v>       0.00585740       0.00397011      -0.00141322 </v>
   <v>      -0.00154947      -0.01402755       0.00416338 </v>
   <v>       0.00772868      -0.00484527       0.00018276 </v>
   <v>       0.00361856      -0.00621924       0.00766768 </v>
   <v>       0.00273484      -0.00068031       0.00245211 </v>
   <v>      -0.00556952       0.00640108       0.00052019 </v>
   <v>      -0.00459633       0.00453526       0.01102981 </v>
   <v>       0.00984631       0.00547511      -0.00433668 </v>
   <v>      -0.00842621      -0.00372865       0.00913884 </v>
   <v>       0.00628742       0.00891108       0.00342809 </v>
   <v>       0.00115242       0.00667527       0.00206351 </v>
  </varray>
  <varray name="stress" >
   <v>       0.00373257       0.01397206      -0.01187430 </v>
   <v>       0.01397248       0.05613542       0.00249658 </v>
   <v>      -0.01187391       0.00249629      -0.03938385 </v>
  </varray>
  <energy>
   <i name="e_fr_energy">  -1054.24188600 </i>
   <i name="e_wo_entrp">  -1054.24183198 </i>
   <i name="e_0_energy">     -0.00010805 </i>
  </energy>
  <time name="totalsc"> 1943.03 1945.80</time>
 </calculation>
 <calculation>
  <scstep>
   <time name="dav">  561.71  561.69</time>
   <time name="total">  568.93  569.05</time>
   <energy>
    <i name="alphaZ">   5646.06552993 </i>
    <i name="ewald"> -62122.30279657 </i>
    <i name="hartreedc"> -17545.13010472 </i>
    <i name="XCdc">   3182.43251516 </i>
    <i name="pawpsdc"> 113917.64123948 </i>
    <i name="pawaedc">-113118.18503419 </i>
    <i name="eentropy">     -0.00011333 </i>
    <i name="bandstr">  -7064.93916793 </i>
    <i name="atom">  76050.17612637 </i>
    <i name="e_fr_energy">  -1054.24180580 </i>
    <i name="e_wo_entrp">  -1054.24169247 </i>
    <i name="e_0_energy">  -1054.24174914 </i>
   </energy>
  </scstep>
  <scstep>
   <time name="diag">   64.66   64.69</time>
   <time name="diis">  104.10  104.09</time>
   <time name="orth">   33.13   33.13</time>
   <time name="total">  209.13  209.20</time>
   <energy>
    <i name="e_fr_energy">  -1054.24239198 </i>
    <i name="e_wo_entrp">  -1054.24228316 </i>
    <i name="e_0_energy">  -1054.24233757 </i>
   </energy>
  </scstep>
  <scstep>
   <time name="diag">   64.58   64.65</time>
   <time name="diis">   77.22   77.24</time>
   <time name="orth">   33.17   33.17</time>
   <time name="total">  182.24  182.39</time>
   <energy>
    <i name="e_fr_energy">  -1054.24242810 </i>
    <i name="e_wo_entrp">  -1054.24232046 </i>
    <i name="e_0_energy">  -1054.24237428 </i>
   </energy>
  </scstep>
  <scstep>
   <time name="diag">   64.58   64.61</time>
   <time name="diis">   64.82   64.88</time>
   <time name="orth">   33.17   33.20</time>
   <time name="total">  169.80  169.98</time>
   <energy>
    <i name="e_fr_energy">  -1054.24240543 </i>
    <i name="e_wo_entrp">  -1054.24229870 </i>
    <i name="e_0_energy">  -1054.24235206 </i>
   </energy>
  </scstep>
  <scstep>
   <time name="diag">   64.57   64.63</time>
   <time name="diis">   63.30   63.36</time>
   <time name="orth">   33.19   33.18</time>
   <time name="total">  168.30  168.53</time>
   <energy>
    <i name="e_fr_energy">  -1054.24240140 </i>
    <i name="e_wo_entrp">  -1054.24229479 </i>
    <i name="e_0_energy">  -1054.24234810 </i>
   </energy>
  </scstep>
  <scstep>
   <time name="diag">   64.77   64.77</time>
   <time name="diis">   61.88   61.88</time>
   <time name="orth">   33.23   33.23</time>
   <time name="total">  167.13  167.14</time>
   <energy>
    <i name="e_fr_energy">  -1054.24240214 </i>
    <i name="e_wo_entrp">  -1054.24229611 </i>
    <i name="e_0_energy">  -1054.24234913 </i>
   </energy>
  </scstep>
  <scstep>
   <time name="diag">   64.29   64.31</time>
   <time name="diis">   59.84   59.88</time>
   <time name="orth">   33.23   33.24</time>
   <time name="total">  164.65  164.82</time>
   <energy>
    <i name="e_fr_energy">  -1054.24240266 </i>
    <i name="e_wo_entrp">  -1054.24229674 </i>
    <i name="e_0_energy">  -1054.24234970 </i>
   </energy>
  </scstep>
  <scstep>
   <time name="diag">   64.30   64.31</time>
   <time name="diis">   55.52   55.56</time>
   <time name="orth">   33.24   33.25</time>
   <time name="total">  154.13  154.22</time>
   <energy>
    <i name="alphaZ">   5646.06552993 </i>
    <i name="ewald"> -62122.30279657 </i>
    <i name="hartreedc"> -17545.32572855 </i>
    <i name="XCdc">   3182.43798140 </i>
    <i name="pawpsdc"> 113906.17828845 </i>
    <i name="pawaedc">-113106.71985254 </i>
    <i name="eentropy">     -0.00010587 </i>
    <i name="bandstr">  -7064.75184560 </i>
    <i name="atom">  76050.17612637 </i>
    <i name="e_fr_energy">  -1054.24240299 </i>
    <i name="e_wo_entrp">  -1054.24229712 </i>
    <i name="e_0_energy">  -1054.24235006 </i>
   </energy>
  </scstep>
  <structure>
   <crystal>
    <varray name="basis" >
     <v>      11.19452500       0.02194816      -0.02757710 </v>
     <v>       0.02193948      11.20416565       0.01720479 </v>
     <v>      -0.03953044       0.02485931      15.90372843 </v>
    </varray>
    <i name="volume">   1994.70541615 </i>
    <varray name="rec_basis" >
     <v>       0.08933027      -0.00017526       0.00022231 </v>
     <v>      -0.00017534       0.08925308      -0.00013995 </v>
     <v>       0.00015509      -0.00009686       0.06287887 </v>
    </varray>
   </crystal>
   <varray name="positions" >
    <v>       0.99720078       0.24520555       0.12728650 </v>
    <v>       0.00661452       0.25203702       0.61913116 </v>
    <v>       0.99624278       0.75256730       0.12662593 </v>
    <v>       0.01183724       0.74349809       0.61839049 </v>
    <v>       0.50130331       0.25263678       0.12643778 </v>
    <v>       0.49486451       0.27487467       0.62638904 </v>
    <v>       0.50106770       0.75158641       0.12568357 </v>
    <v>       0.48818027       0.74608461       0.62108406 </v>
    <v>       0.00340263       0.24784060       0.37359109 </v>
    <v>       0.99738645       0.25102760       0.87871818 </v>
    <v>       0.01050189       0.74885169       0.36976205 </v>
    <v>       0.99654084       0.74829601       0.88440289 </v>
    <v>       0.49838263       0.26725359       0.38347929 </v>
    <v>       0.49866444       0.24595373       0.87867901 </v>
    <v>       0.48756992       0.73665339       0.36482204 </v>
    <v>       0.49826162       0.75803757       0.88869003 </v>
    <v>       0.23871515       0.99764475       0.12617770 </v>
    <v>       0.24653340       0.00437831       0.61779844 </v>
    <v>       0.24070067       0.50102923       0.12911169 </v>
    <v>       0.24777451       0.49636653       0.61635898 </v>
    <v>       0.75739190       0.99544679       0.12448167 </v>
    <v>       0.76784290       0.00715545       0.62260056 </v>
    <v>       0.75742232       0.50344859       0.12617277 </v>
    <v>       0.75403439       0.49066978       0.61879502 </v>
    <v>       0.23928024       0.99507078       0.37091718 </v>
    <v>       0.24668589       0.99987913       0.88518982 </v>
    <v>       0.25309319       0.50499500       0.37628748 </v>
    <v>       0.23920447       0.49752840       0.87700513 </v>
    <v>       0.76031510       0.00372006       0.36778238 </v>
    <v>       0.75161256       0.00353558       0.89032948 </v>
    <v>       0.75051713       0.49322534       0.36882059 </v>
    <v>       0.75400592       0.49707167       0.87712978 </v>
    <v>       0.00454369       0.99857720       0.49920656 </v>
    <v>       0.99757045       0.50000079       0.99929225 </v>
    <v>       0.00417469       0.50160076       0.49784295 </v>
    <v>       0.49680529       0.50329543       0.98591763 </v>
    <v>       0.24912213       0.24601970       0.00251918 </v>
    <v>       0.24935847       0.75118600       0.00508786 </v>
    <v>       0.74929746       0.24883833       0.00286757 </v>
    <v>       0.74727953       0.75374407       0.48959756 </v>
    <v>       0.25204216       0.24947996       0.25091150 </v>
    <v>       0.74001014       0.24789518       0.74791868 </v>
    <v>       0.74400938       0.75077175       0.75739799 </v>
    <v>       0.99706360       0.99785460       0.24874283 </v>
    <v>       0.99269784       0.00616893       0.75181996 </v>
    <v>       0.99816053       0.49937524       0.25250603 </v>
    <v>       0.99495693       0.49919204       0.74851460 </v>
    <v>       0.50160205       0.00150169       0.25605345 </v>
    <v>       0.99895357       0.99686873       0.99994292 </v>
    <v>       0.49698051       0.00303792       0.99327353 </v>
    <v>       0.49419933       0.98581574       0.49101337 </v>
    <v>       0.49848995       0.50567168       0.50462932 </v>
    <v>       0.25487774       0.25179643       0.50053764 </v>
    <v>       0.25198685       0.74910457       0.49639959 </v>
    <v>       0.75812299       0.26127482       0.49825169 </v>
    <v>       0.74855397       0.75302082       0.00592232 </v>
    <v>       0.24411011       0.25950784       0.75249281 </v>
    <v>       0.24832048       0.75010903       0.24756064 </v>
    <v>       0.25150876       0.75284238       0.75108242 </v>
    <v>       0.74740540       0.24819528       0.24893731 </v>
    <v>       0.74760209       0.74884079       0.24500145 </v>
    <v>       0.51402317       0.98298195       0.75582464 </v>
    <v>       0.50211740       0.49940086       0.25792188 </v>
    <v>       0.50829593       0.49478773       0.74786761 </v>
    <v>       0.12201447       0.12888796       0.25310188 </v>
    <v>       0.13994389       0.10460725       0.75413585 </v>
    <v>       0.11841054       0.62638695       0.24837026 </v>
    <v>       0.12480533       0.64088635       0.75669006 </v>
    <v>       0.61818846       0.12242553       0.22786996 </v>
    <v>       0.60303911       0.13594441       0.74052316 </v>
    <v>       0.61338740       0.62207927       0.23205127 </v>
    <v>       0.60608389       0.64403800       0.74936974 </v>
    <v>       0.38482008       0.37428689       0.24304623 </v>
    <v>       0.38467304       0.36525367       0.75726052 </v>
    <v>       0.38262130       0.87626622       0.23797159 </v>
    <v>       0.36787613       0.87805197       0.74132239 </v>
    <v>       0.87901485       0.36839933       0.26082908 </v>
    <v>       0.88274554       0.36451816       0.74729713 </v>
    <v>       0.87706972       0.86994990       0.25646451 </v>
    <v>       0.89207696       0.85851315       0.73903263 </v>
    <v>       0.37368736       0.11817368       0.23058850 </v>
    <v>       0.37669357       0.61404988       0.24445835 </v>
    <v>       0.86985816       0.12015592       0.25299650 </v>
    <v>       0.86785452       0.11582520       0.75686688 </v>
    <v>       0.86800575       0.61641033       0.25372722 </v>
    <v>       0.85607984       0.61840127       0.73635432 </v>
    <v>       0.13198045       0.37826048       0.26231507 </v>
    <v>       0.12683893       0.38135542       0.75567313 </v>
    <v>       0.12710377       0.87998824       0.25008645 </v>
    <v>       0.62460780       0.38480384       0.23858962 </v>
    <v>       0.63990429       0.38956660       0.74551003 </v>
    <v>       0.62358446       0.88152352       0.23524633 </v>
    <v>       0.64334456       0.87491961       0.71079231 </v>
    <v>       0.37269101       0.38370237       0.00856797 </v>
    <v>       0.36842706       0.38327085       0.49783167 </v>
    <v>       0.36957859       0.88034805       0.00964081 </v>
    <v>       0.36742805       0.88512833       0.51058250 </v>
    <v>       0.86923048       0.37975357       0.99070052 </v>
    <v>       0.87314749       0.38281138       0.49636317 </v>
    <v>       0.86844189       0.88095020       0.99780183 </v>
    <v>       0.87110750       0.87462935       0.50968524 </v>
    <v>       0.12965943       0.11935850       0.99903586 </v>
    <v>       0.13766213       0.11539291       0.49789937 </v>
    <v>       0.13106860       0.61623783       0.99524517 </v>
    <v>       0.13234288       0.61824969       0.50028997 </v>
    <v>       0.62786823       0.12138013       0.00986956 </v>
    <v>       0.62481038       0.61698788       0.00520082 </v>
    <v>       0.63496224       0.63876834       0.52733904 </v>
    <v>       0.12030953       0.36981765       0.98595847 </v>
    <v>       0.11931153       0.36648197       0.49957432 </v>
    <v>       0.12110577       0.86545725       0.99879184 </v>
    <v>       0.11979454       0.86708410       0.50068452 </v>
    <v>       0.61513419       0.37496539       0.00028181 </v>
    <v>       0.62031696       0.37315371       0.51042899 </v>
    <v>       0.61363670       0.87528195       0.00980488 </v>
    <v>       0.63243035       0.89494474       0.51831506 </v>
    <v>       0.38023044       0.12763365       0.02078457 </v>
    <v>       0.43231929       0.13142955       0.52163520 </v>
    <v>       0.38310846       0.62687525       0.01543567 </v>
    <v>       0.38375683       0.63664816       0.49473337 </v>
    <v>       0.87883581       0.13098979       0.99080122 </v>
    <v>       0.87573752       0.12434358       0.49982276 </v>
    <v>       0.87959301       0.62797448       0.99736857 </v>
    <v>       0.87590249       0.63473154       0.50563472 </v>
    <v>       0.99655369       0.00089765       0.12597323 </v>
    <v>       0.01224655       0.99876296       0.62817332 </v>
    <v>       0.99987647       0.48834263       0.12415798 </v>
    <v>       0.00490423       0.49937695       0.62510989 </v>
    <v>       0.47215170       0.51503117       0.63250212 </v>
    <v>       0.99960788       0.99672862       0.37702914 </v>
    <v>       0.01095486       0.97801594       0.86897143 </v>
    <v>       0.00069275       0.50874421       0.37730747 </v>
    <v>       0.98898463       0.50865023       0.87022783 </v>
    <v>       0.51086843       0.00708876       0.37339073 </v>
    <v>       0.48609695       0.01163185       0.87499034 </v>
    <v>       0.51745550       0.50714531       0.37766992 </v>
    <v>       0.48085029       0.52145110       0.86994289 </v>
    <v>       0.27113595       0.23299625       0.37406588 </v>
    <v>       0.26870512       0.23274881       0.87655441 </v>
    <v>       0.25558933       0.75439636       0.37125569 </v>
    <v>       0.26713176       0.74939055       0.87058170 </v>
    <v>       0.72290325       0.23445147       0.37856461 </v>
    <v>       0.73557933       0.24803790       0.87231349 </v>
    <v>       0.72542593       0.74988163       0.37425825 </v>
    <v>       0.73838500       0.76395243       0.87327010 </v>
    <v>       0.23187408       0.26243137       0.12586468 </v>
    <v>       0.25788345       0.23856936       0.63054378 </v>
    <v>       0.24007334       0.74569549       0.12477727 </v>
    <v>       0.24643979       0.74245839       0.63518213 </v>
    <v>       0.76281901       0.25961414       0.12266730 </v>
    <v>       0.74992009       0.23769328       0.62333416 </v>
    <v>       0.76123324       0.74677580       0.12568226 </v>
   </varray>
  </structure>
  <varray name="forces" >
   <v>       0.00253427       0.00089708       0.00077824 </v>
   <v>       0.00316407       0.00165654      -0.00045520 </v>
   <v>       0.00294532      -0.00367145       0.00107766 </v>
   <v>      -0.00087736       0.00000851      -0.00027316 </v>
   <v>      -0.00615353      -0.00065047      -0.00135442 </v>
   <v>      -0.00267605      -0.00476012       0.00225180 </v>
   <v>      -0.00037807      -0.00160509       0.00222814 </v>
   <v>      -0.00562991       0.00025586      -0.00175005 </v>
   <v>       0.00011640      -0.00119723      -0.00271299 </v>
   <v>      -0.00055949      -0.00252831       0.00362570 </v>
   <v>       0.00274670       0.00258368      -0.00108915 </v>
   <v>      -0.00560367      -0.00845647       0.00341715 </v>
   <v>      -0.00239781      -0.00297292      -0.00174468 </v>
   <v>       0.00308099       0.00283857      -0.00035231 </v>
   <v>       0.00207732       0.00040939       0.00391557 </v>
   <v>       0.01314811      -0.00003438      -0.00239216 </v>
   <v>       0.00056796      -0.00007310       0.00036419 </v>
   <v>       0.00330670       0.00065429      -0.00543626 </v>
   <v>       0.00154993       0.00071269       0.00248399 </v>
   <v>      -0.00060205      -0.00140770      -0.00507512 </v>
   <v>      -0.00227176       0.00069637       0.00253365 </v>
   <v>      -0.00024253      -0.00128152       0.00691581 </v>
   <v>       0.00139148      -0.00225751       0.00250455 </v>
   <v>      -0.00383314       0.00334457      -0.00540597 </v>
   <v>       0.00128816      -0.00320954       0.00102487 </v>
   <v>      -0.00216271       0.00197325      -0.00375439 </v>
   <v>      -0.00379884      -0.00199570      -0.00273251 </v>
   <v>      -0.00493005       0.00076673       0.00231762 </v>
   <v>       0.00066547      -0.00251016       0.00377471 </v>
   <v>       0.00143915      -0.00023140      -0.00285401 </v>
   <v>       0.00840632       0.00264221      -0.00419411 </v>
   <v>       0.00438501      -0.00178879      -0.00024426 </v>
   <v>      -0.00176085      -0.00211256      -0.00564386 </v>
   <v>       0.01096280      -0.00911690      -0.00586181 </v>
   <v>      -0.00351780       0.00619740      -0.01843963 </v>
   <v>      -0.00987441      -0.02479880       0.00796564 </v>
   <v>      -0.00435476       0.00377857       0.00154031 </v>
   <v>      -0.01445948       0.00722212       0.03890279 </v>
   <v>      -0.01270653       0.01609232       0.00740690 </v>
   <v>       0.02268056       0.01274984       0.01034048 </v>
   <v>      -0.00882955      -0.00386072       0.00121870 </v>
   <v>       0.00285301      -0.00011166       0.00163841 </v>
   <v>       0.00419442      -0.00867075       0.00943752 </v>
   <v>       0.00541785       0.00151466       0.00078924 </v>
   <v>      -0.00186474       0.01527620      -0.00516777 </v>
   <v>       0.00387680      -0.00056810       0.00157123 </v>
   <v>      -0.00243559      -0.00716951       0.01440216 </v>
   <v>       0.00048274      -0.00573181       0.00406353 </v>
   <v>       0.00337079       0.00370920       0.00768106 </v>
   <v>       0.00087962       0.00473262      -0.00262249 </v>
   <v>      -0.01624664       0.00422821       0.00103677 </v>
   <v>      -0.00234776      -0.00416295      -0.00005650 </v>
   <v>      -0.00134555      -0.00046924      -0.00056462 </v>
   <v>      -0.00284799       0.00211572      -0.00193143 </v>
   <v>       0.00350991       0.00220103      -0.00339751 </v>
   <v>       0.00321723       0.00135296       0.00055936 </v>
   <v>      -0.00238485      -0.00275816       0.00259231 </v>
   <v>       0.00022869      -0.00135543      -0.00889312 </v>
   <v>      -0.00130686      -0.00291432      -0.01230353 </v>
   <v>       0.00109123       0.00207508      -0.00153421 </v>
   <v>       0.00249312       0.00123019      -0.00388475 </v>
   <v>       0.00097350       0.00390207      -0.00631672 </v>
   <v>       0.00007739       0.00144447       0.00013685 </v>
   <v>      -0.00114257       0.00045748      -0.00357733 </v>
   <v>       0.00654636      -0.00632618       0.00039040 </v>
   <v>      -0.00005301      -0.00069753      -0.00110255 </v>
   <v>      -0.00039190      -0.00623149       0.00113768 </v>
   <v>       0.00116079       0.00045511       0.00247723 </v>
   <v>       0.00036134      -0.00933969       0.00156013 </v>
   <v>      -0.00403186       0.00096955      -0.00597675 </v>
   <v>       0.00924092      -0.00014114       0.00559210 </v>
   <v>      -0.00534767       0.00180398       0.00173188 </v>
   <v>      -0.00277924       0.00554161      -0.00473278 </v>
   <v>       0.00024705      -0.00157567       0.00429647 </v>
   <v>       0.00502711       0.00754312      -0.00151083 </v>
   <v>       0.00827728      -0.00755548       0.00677467 </v>
   <v>      -0.00238276       0.00649248      -0.00676476 </v>
   <v>      -0.00181061       0.00608609       0.00216717 </v>
   <v>      -0.00537255      -0.00256490       0.00043848 </v>
   <v>      -0.00072826       0.00261874      -0.00059912 </v>
   <v>       0.01177868       0.00160846      -0.00335611 </v>
   <v>       0.00418913       0.00236173      -0.00268919 </v>
   <v>       0.00081395       0.00069665      -0.00111761 </v>
   <v>       0.01082362      -0.00915270      -0.00359325 </v>
   <v>       0.00506572       0.00607444      -0.00940220 </v>
   <v>      -0.00273415       0.00233536       0.00118833 </v>
   <v>      -0.00293918      -0.00606577      -0.00147474 </v>
   <v>      -0.00276055      -0.00326824       0.00784080 </v>
[...]
       <r>   -17.0856     0.0000    32.0000 </r>
       <r>   -16.9318     0.0000    32.0000 </r>
       <r>   -16.7779     0.0000    32.0000 </r>
       <r>   -16.6241     0.0000    32.0000 </r>
       <r>   -16.4703     0.0000    32.0000 </r>
       <r>   -16.3165     0.0000    32.0000 </r>
       <r>   -16.1627     0.0000    32.0000 </r>
       <r>   -16.0088     0.0000    32.0000 </r>
       <r>   -15.8550     0.0000    32.0000 </r>
       <r>   -15.7012     0.0000    32.0000 </r>
       <r>   -15.5474     0.0000    32.0000 </r>
       <r>   -15.3935     0.0000    32.0000 </r>
       <r>   -15.2397     0.0425    32.0065 </r>
       <r>   -15.0859    11.0208    33.7018 </r>
       <r>   -14.9321    37.1632    39.4183 </r>
       <r>   -14.7783    45.9584    46.4876 </r>
       <r>   -14.6244    41.5355    52.8767 </r>
       <r>   -14.4706    35.1041    58.2764 </r>
       <r>   -14.3168    34.8200    63.6325 </r>
       <r>   -14.1630    54.7279    72.0508 </r>
       <r>   -14.0092    87.5276    85.5144 </r>
       <r>   -13.8553    97.5433   100.5186 </r>
       <r>   -13.7015    68.3050   111.0253 </r>
       <r>   -13.5477    35.4852   116.4837 </r>
       <r>   -13.3939    21.3577   119.7690 </r>
       <r>   -13.2401     1.5020   120.0000 </r>
       <r>   -13.0862     0.0000   120.0000 </r>
       <r>   -12.9324     0.0001   120.0000 </r>
       <r>   -12.7786     8.1163   121.2485 </r>
       <r>   -12.6248    59.9189   130.4653 </r>
       <r>   -12.4709   106.3235   146.8201 </r>
       <r>   -12.3171   121.9748   165.5824 </r>
       <r>   -12.1633   109.2975   182.3946 </r>
       <r>   -12.0095   103.4187   198.3026 </r>
       <r>   -11.8557    65.2598   208.3409 </r>
       <r>   -11.7018    37.8146   214.1576 </r>
       <r>   -11.5480    11.4712   215.9221 </r>
       <r>   -11.3942     0.5062   216.0000 </r>
       <r>   -11.2404     0.0000   216.0000 </r>
       <r>   -11.0866     0.0000   216.0000 </r>
       <r>   -10.9327     0.0000   216.0000 </r>
       <r>   -10.7789     0.0000   216.0000 </r>
       <r>   -10.6251     0.0000   216.0000 </r>
       <r>   -10.4713     0.0000   216.0000 </r>
       <r>   -10.3175     0.0000   216.0000 </r>
       <r>   -10.1636     0.0000   216.0000 </r>
       <r>   -10.0098     0.0000   216.0000 </r>
       <r>    -9.8560     0.0000   216.0000 </r>
       <r>    -9.7022     0.0000   216.0000 </r>
       <r>    -9.5483     0.0000   216.0000 </r>
       <r>    -9.3945     0.0000   216.0000 </r>
       <r>    -9.2407     0.0000   216.0000 </r>
       <r>    -9.0869     0.0000   216.0000 </r>
       <r>    -8.9331     0.0000   216.0000 </r>
       <r>    -8.7792     0.0000   216.0000 </r>
       <r>    -8.6254     0.0000   216.0000 </r>
       <r>    -8.4716     0.0000   216.0000 </r>
       <r>    -8.3178     0.0000   216.0000 </r>
       <r>    -8.1640     0.0000   216.0000 </r>
       <r>    -8.0101     0.0000   216.0000 </r>
       <r>    -7.8563     0.0000   216.0000 </r>
       <r>    -7.7025     0.0000   216.0000 </r>
       <r>    -7.5487     0.0000   216.0000 </r>
       <r>    -7.3949     0.0000   216.0000 </r>
       <r>    -7.2410     0.0000   216.0000 </r>
       <r>    -7.0872     0.0000   216.0000 </r>
       <r>    -6.9334     0.0000   216.0000 </r>
       <r>    -6.7796     0.0000   216.0000 </r>
       <r>    -6.6257     0.0000   216.0000 </r>
       <r>    -6.4719     0.0000   216.0000 </r>
       <r>    -6.3181     0.0000   216.0000 </r>
       <r>    -6.1643     0.0000   216.0000 </r>
       <r>    -6.0105     0.0000   216.0000 </r>
       <r>    -5.8566     0.0000   216.0000 </r>
       <r>    -5.7028     0.0000   216.0000 </r>
       <r>    -5.5490     0.0000   216.0000 </r>
       <r>    -5.3952     0.0000   216.0000 </r>
       <r>    -5.2414     0.0000   216.0000 </r>
       <r>    -5.0875     0.0000   216.0000 </r>
       <r>    -4.9337     0.0000   216.0000 </r>
       <r>    -4.7799     0.0000   216.0000 </r>
       <r>    -4.6261     0.0000   216.0000 </r>
       <r>    -4.4723     0.0000   216.0000 </r>
       <r>    -4.3184     0.0000   216.0000 </r>
       <r>    -4.1646     0.0000   216.0000 </r>
       <r>    -4.0108     0.0000   216.0000 </r>
       <r>    -3.8570     0.0000   216.0000 </r>
       <r>    -3.7031     0.0000   216.0000 </r>
       <r>    -3.5493     0.0000   216.0000 </r>
       <r>    -3.3955     1.8987   216.2921 </r>
       <r>    -3.2417     4.6018   216.9999 </r>
       <r>    -3.0879     0.0005   217.0000 </r>
       <r>    -2.9340     0.0000   217.0000 </r>
       <r>    -2.7802     1.0719   217.1649 </r>
       <r>    -2.6264     7.3978   218.3028 </r>
       <r>    -2.4726    16.1554   220.7879 </r>
       <r>    -2.3188    15.8988   223.2334 </r>
       <r>    -2.1649    17.0367   225.8540 </r>
       <r>    -2.0111    22.9260   229.3805 </r>
       <r>    -1.8573    30.9583   234.1426 </r>
       <r>    -1.7035    29.9765   238.7536 </r>
       <r>    -1.5496    32.9511   243.8222 </r>
       <r>    -1.3958    49.4879   251.4345 </r>
       <r>    -1.2420    63.1729   261.1518 </r>
       <r>    -1.0882    65.2240   271.1846 </r>
       <r>    -0.9344    72.2503   282.2982 </r>
       <r>    -0.7805    79.1762   294.4772 </r>
       <r>    -0.6267    92.0394   308.6348 </r>
       <r>    -0.4729    95.5445   323.3315 </r>
       <r>    -0.3191    85.0695   336.4170 </r>
       <r>    -0.1653    62.8663   346.0872 </r>
       <r>    -0.0114    48.3923   353.5309 </r>
       <r>     0.1424    46.3797   360.6651 </r>
       <r>     0.2962    51.9249   368.6523 </r>
       <r>     0.4500    54.6436   377.0576 </r>
       <r>     0.6038    57.0404   385.8316 </r>
       <r>     0.7577    55.8357   394.4203 </r>
       <r>     0.9115    53.8338   402.7011 </r>
       <r>     1.0653    56.7463   411.4299 </r>
       <r>     1.2191    60.1570   420.6833 </r>
       <r>     1.3730    73.2277   431.9473 </r>
       <r>     1.5268    80.8172   444.3786 </r>
       <r>     1.6806    78.5328   456.4586 </r>
       <r>     1.8344    61.5924   465.9329 </r>
       <r>     1.9882    56.7181   474.6573 </r>
       <r>     2.1421    29.4274   479.1838 </r>
       <r>     2.2959    26.4114   483.2465 </r>
       <r>     2.4497    17.6177   485.9564 </r>
       <r>     2.6035     0.2832   486.0000 </r>
       <r>     2.7573     0.0000   486.0000 </r>
       <r>     2.9112     0.0000   486.0000 </r>
       <r>     3.0650     0.0000   486.0000 </r>
       <r>     3.2188     0.0000   486.0000 </r>
       <r>     3.3726     0.0000   486.0000 </r>
       <r>     3.5264     0.0000   486.0000 </r>
       <r>     3.6803     0.0000   486.0000 </r>
       <r>     3.8341     0.0000   486.0000 </r>
       <r>     3.9879     0.0000   486.0000 </r>
       <r>     4.1417     0.0000   486.0000 </r>
       <r>     4.2956     0.0100   486.0015 </r>
       <r>     4.4494     7.7004   487.1860 </r>
       <r>     4.6032    34.6842   492.5212 </r>
       <r>     4.7570    48.6874   500.0103 </r>
       <r>     4.9108    46.8262   507.2132 </r>
       <r>     5.0647    49.3167   514.7991 </r>
       <r>     5.2185    64.0967   524.6586 </r>
       <r>     5.3723    69.3794   535.3306 </r>
       <r>     5.5261    72.8176   546.5315 </r>
       <r>     5.6799    71.5108   557.5313 </r>
       <r>     5.8338    61.1735   566.9411 </r>
       <r>     5.9876    70.5080   577.7867 </r>
       <r>     6.1414    74.9267   589.3120 </r>
       <r>     6.2952    72.7487   600.5023 </r>
       <r>     6.4490    45.5424   607.5077 </r>
       <r>     6.6029    21.5051   610.8156 </r>
       <r>     6.7567    16.8144   613.4021 </r>
       <r>     6.9105    10.9653   615.0888 </r>
       <r>     7.0643    14.3168   617.2910 </r>
       <r>     7.2182    18.9306   620.2029 </r>
       <r>     7.3720    17.2883   622.8622 </r>
       <r>     7.5258    15.8249   625.2964 </r>
       <r>     7.6796    11.9014   627.1271 </r>
       <r>     7.8334    17.2701   629.7836 </r>
       <r>     7.9873    19.8926   632.8435 </r>
       <r>     8.1411    20.3597   635.9752 </r>
       <r>     8.2949    21.7689   639.3237 </r>
       <r>     8.4487    24.4223   643.0804 </r>
       <r>     8.6025    27.4288   647.2995 </r>
       <r>     8.7564    28.1287   651.6263 </r>
       <r>     8.9102    37.5192   657.3976 </r>
       <r>     9.0640    34.0552   662.6360 </r>
       <r>     9.2178    34.1868   667.8946 </r>
       <r>     9.3716    38.0952   673.7544 </r>
       <r>     9.5255    42.0527   680.2230 </r>
       <r>     9.6793    45.3114   687.1929 </r>
       <r>     9.8331    53.5354   695.4278 </r>
       <r>     9.9869    57.8174   704.3213 </r>
       <r>    10.1408    62.0434   713.8649 </r>
       <r>    10.2946    57.5501   722.7173 </r>
       <r>    10.4484    56.9523   731.4778 </r>
       <r>    10.6022    54.4027   739.8461 </r>
       <r>    10.7560    53.2723   748.0405 </r>
       <r>    10.9099    55.1907   756.5300 </r>
       <r>    11.0637    54.0151   764.8386 </r>
       <r>    11.2175    20.5382   767.9978 </r>
       <r>    11.3713     0.0141   768.0000 </r>
       <r>    11.5251     0.0000   768.0000 </r>
       <r>    11.6790     0.0000   768.0000 </r>
       <r>    11.8328     0.0000   768.0000 </r>
       <r>    11.9866     0.0000   768.0000 </r>
       <r>    12.1404     0.0000   768.0000 </r>
       <r>    12.2942     0.0000   768.0000 </r>
       <r>    12.4481     0.0000   768.0000 </r>
       <r>    12.6019     0.0000   768.0000 </r>
       <r>    12.7557     0.0000   768.0000 </r>
       <r>    12.9095     0.0000   768.0000 </r>
       <r>    13.0634     0.0000   768.0000 </r>
       <r>    13.2172     0.0000   768.0000 </r>
      </set>
     </set>
    </array>
   </total>
  </dos>
 </calculation>
 <structure name="finalpos" >
  <crystal>
   <varray name="basis" >
    <v>      11.19434349       0.02204514      -0.02754399 </v>
    <v>       0.02203623      11.20411272       0.01716262 </v>
    <v>      -0.03948454       0.02480023      15.90286738 </v>
   </varray>
   <i name="volume">   1994.55564016 </i>
   <varray name="rec_basis" >
    <v>       0.08933172      -0.00017604       0.00022207 </v>
    <v>      -0.00017611       0.08925350      -0.00013963 </v>
    <v>       0.00015491      -0.00009663       0.06288228 </v>
   </varray>
  </crystal>
  <varray name="positions" >
   <v>       0.99721770       0.24522328       0.12728637 </v>
   <v>       0.00663035       0.25205589       0.61913303 </v>
   <v>       0.99623535       0.75253797       0.12663006 </v>
   <v>       0.01182833       0.74349078       0.61839269 </v>
   <v>       0.50125476       0.25261351       0.12643505 </v>
   <v>       0.49486141       0.27483118       0.62640745 </v>
   <v>       0.50107241       0.75158451       0.12568334 </v>
   <v>       0.48815666       0.74609272       0.62107919 </v>
   <v>       0.00340073       0.24784034       0.37358310 </v>
   <v>       0.99738583       0.25100632       0.87873052 </v>
   <v>       0.01050426       0.74887318       0.36975713 </v>
   <v>       0.99650895       0.74825579       0.88441278 </v>
   <v>       0.49835954       0.26722041       0.38347250 </v>
   <v>       0.49867964       0.24596258       0.87866887 </v>
   <v>       0.48759460       0.73665741       0.36484138 </v>
   <v>       0.49833730       0.75802994       0.88868952 </v>
   <v>       0.23874021       0.99765336       0.12617426 </v>
   <v>       0.24655380       0.00438191       0.61778596 </v>
   <v>       0.24070368       0.50101767       0.12911975 </v>
   <v>       0.24775407       0.49636102       0.61634070 </v>
   <v>       0.75736447       0.99544136       0.12449155 </v>
   <v>       0.76783227       0.00714544       0.62262927 </v>
   <v>       0.75743938       0.50344917       0.12618036 </v>
   <v>       0.75401974       0.49069488       0.61877811 </v>
   <v>       0.23930510       0.99504917       0.37092346 </v>
   <v>       0.24667763       0.99988469       0.88517153 </v>
   <v>       0.25307439       0.50498263       0.37627585 </v>
   <v>       0.23919016       0.49754272       0.87701418 </v>
   <v>       0.76030760       0.00369505       0.36779991 </v>
   <v>       0.75161966       0.00352536       0.89031755 </v>
   <v>       0.75056234       0.49325090       0.36880816 </v>
   <v>       0.75402899       0.49707177       0.87711777 </v>
   <v>       0.00450781       0.99856584       0.49922038 </v>
   <v>       0.99759776       0.49997676       0.99930116 </v>
   <v>       0.00416142       0.50163774       0.49782939 </v>
   <v>       0.49677289       0.50326345       0.98593399 </v>
   <v>       0.24912594       0.24601848       0.00251488 </v>
   <v>       0.24933288       0.75122540       0.00510946 </v>
   <v>       0.74927201       0.24886297       0.00287631 </v>
   <v>       0.74730123       0.75377870       0.48960257 </v>
   <v>       0.25203016       0.24948957       0.25091897 </v>
   <v>       0.73999952       0.24791002       0.74790414 </v>
   <v>       0.74400912       0.75074089       0.75741965 </v>
   <v>       0.99706665       0.99782745       0.24874677 </v>
   <v>       0.99270819       0.00619327       0.75181227 </v>
   <v>       0.99816529       0.49936180       0.25248868 </v>
   <v>       0.99493482       0.49915670       0.74853244 </v>
   <v>       0.50160256       0.00149753       0.25604484 </v>
   <v>       0.99894559       0.99687173       0.99995873 </v>
   <v>       0.49697968       0.00304485       0.99328795 </v>
   <v>       0.49415709       0.98585181       0.49099476 </v>
   <v>       0.49849177       0.50566953       0.50463049 </v>
   <v>       0.25486578       0.25179417       0.50054001 </v>
   <v>       0.25197912       0.74911607       0.49639394 </v>
   <v>       0.75813568       0.26127322       0.49824772 </v>
   <v>       0.74854700       0.75302576       0.00590791 </v>
   <v>       0.24409512       0.25947474       0.75250187 </v>
   <v>       0.24833027       0.75011153       0.24755343 </v>
   <v>       0.25150596       0.75283149       0.75105648 </v>
   <v>       0.74740175       0.24820418       0.24894445 </v>
   <v>       0.74760858       0.74886428       0.24500387 </v>
   <v>       0.51405048       0.98302088       0.75579467 </v>
   <v>       0.50212335       0.49942218       0.25794821 </v>
   <v>       0.50829833       0.49480359       0.74787980 </v>
   <v>       0.12204238       0.12884366       0.25310474 </v>
   <v>       0.13995052       0.10462031       0.75413034 </v>
   <v>       0.11841896       0.62636698       0.24837112 </v>
   <v>       0.12482922       0.64090163       0.75670672 </v>
   <v>       0.61820972       0.12238983       0.22787287 </v>
   <v>       0.60302442       0.13596194       0.74050700 </v>
   <v>       0.61343683       0.62206885       0.23207139 </v>
   <v>       0.60605370       0.64406323       0.74936889 </v>
   <v>       0.38480272       0.37431762       0.24302228 </v>
   <v>       0.38467689       0.36524853       0.75727680 </v>
   <v>       0.38261895       0.87628040       0.23796096 </v>
   <v>       0.36789475       0.87798358       0.74134933 </v>
   <v>       0.87899944       0.36843256       0.26080620 </v>
   <v>       0.88273747       0.36454424       0.74730867 </v>
   <v>       0.87705749       0.86995304       0.25646254 </v>
   <v>       0.89206352       0.85851726       0.73903137 </v>
   <v>       0.37373784       0.11819726       0.23057485 </v>
   <v>       0.37669999       0.61407783       0.24443502 </v>
   <v>       0.86985767       0.12017282       0.25298820 </v>
   <v>       0.86787117       0.11582125       0.75685322 </v>
   <v>       0.86804430       0.61642696       0.25369028 </v>
   <v>       0.85605115       0.61842717       0.73636746 </v>
   <v>       0.13197124       0.37821623       0.26230976 </v>
   <v>       0.12682595       0.38133454       0.75570852 </v>
   <v>       0.12710447       0.87997081       0.25008514 </v>
   <v>       0.62461080       0.38477424       0.23859597 </v>
   <v>       0.63987341       0.38953677       0.74550490 </v>
   <v>       0.62358617       0.88151893       0.23527091 </v>
   <v>       0.64335676       0.87488239       0.71083780 </v>
   <v>       0.37271775       0.38370259       0.00856363 </v>
   <v>       0.36849877       0.38324354       0.49783717 </v>
   <v>       0.36961680       0.88032527       0.00962445 </v>
   <v>       0.36747420       0.88509981       0.51057254 </v>
   <v>       0.86924069       0.37975151       0.99071704 </v>
   <v>       0.87315682       0.38280240       0.49638151 </v>
   <v>       0.86848400       0.88094543       0.99780052 </v>
   <v>       0.87103517       0.87465181       0.50971398 </v>
   <v>       0.12963839       0.11937083       0.99904450 </v>
   <v>       0.13763683       0.11540526       0.49791537 </v>
   <v>       0.13105214       0.61627860       0.99525540 </v>
   <v>       0.13230812       0.61829069       0.50028250 </v>
   <v>       0.62787853       0.12140110       0.00986416 </v>
   <v>       0.62472694       0.61702796       0.00522750 </v>
   <v>       0.63495537       0.63875280       0.52729995 </v>
   <v>       0.12032665       0.36984318       0.98594081 </v>
   <v>       0.11931798       0.36649468       0.49956460 </v>
   <v>       0.12113495       0.86546677       0.99878464 </v>
   <v>       0.11980955       0.86710900       0.50066540 </v>
   <v>       0.61513144       0.37501952       0.00030094 </v>
   <v>       0.62033609       0.37316591       0.51040661 </v>
   <v>       0.61367708       0.87531102       0.00981500 </v>
   <v>       0.63246952       0.89497940       0.51823217 </v>
   <v>       0.38022066       0.12759474       0.02077830 </v>
   <v>       0.43225092       0.13142798       0.52166814 </v>
   <v>       0.38302601       0.62686983       0.01544922 </v>
   <v>       0.38371803       0.63658743       0.49473388 </v>
   <v>       0.87879950       0.13098464       0.99081010 </v>
   <v>       0.87575262       0.12434683       0.49980563 </v>
   <v>       0.87951651       0.62795285       0.99737001 </v>
   <v>       0.87591890       0.63472054       0.50565758 </v>
   <v>       0.99654920       0.00088249       0.12595371 </v>
   <v>       0.01224647       0.99877844       0.62815307 </v>
   <v>       0.99991765       0.48833602       0.12414835 </v>
   <v>       0.00491722       0.49935320       0.62512330 </v>
   <v>       0.47218223       0.51502005       0.63250613 </v>
   <v>       0.99960419       0.99671788       0.37703451 </v>
   <v>       0.01097201       0.97802037       0.86895143 </v>
   <v>       0.00065496       0.50874792       0.37731217 </v>
   <v>       0.98898749       0.50866378       0.87023057 </v>
   <v>       0.51081106       0.00713443       0.37338216 </v>
   <v>       0.48613658       0.01165745       0.87498134 </v>
   <v>       0.51743721       0.50712426       0.37766857 </v>
   <v>       0.48088112       0.52143555       0.86993286 </v>
   <v>       0.27115295       0.23297800       0.37407156 </v>
   <v>       0.26868706       0.23270807       0.87658041 </v>
   <v>       0.25562443       0.75440375       0.37126917 </v>
   <v>       0.26709765       0.74937511       0.87054463 </v>
   <v>       0.72293315       0.23446773       0.37856964 </v>
   <v>       0.73556825       0.24796664       0.87230977 </v>
   <v>       0.72546009       0.74985554       0.37424501 </v>
   <v>       0.73838879       0.76391641       0.87329279 </v>
   <v>       0.23189425       0.26242513       0.12586716 </v>
   <v>       0.25785125       0.23860129       0.63055120 </v>
   <v>       0.24006059       0.74572020       0.12474743 </v>
   <v>       0.24647995       0.74248205       0.63518021 </v>
   <v>       0.76277860       0.25959293       0.12268835 </v>
   <v>       0.74995188       0.23773658       0.62333707 </v>
   <v>       0.76123377       0.74681446       0.12567945 </v>
  </varray>
 </structure>
</modeling>
