       N       E                     dE             d eps       ncg     rms          rms(c)
DAV:   1    -0.115191909326E+04   -0.11519E+04   -0.46565E-02 13064   0.494E-01    0.216E-02
RMM:   2    -0.115191909407E+04   -0.80858E-06   -0.15911E-05  6972   0.692E-03    0.316E-02
RMM:   3    -0.115191909459E+04   -0.52003E-06   -0.55415E-06  6264   0.454E-03    0.428E-03
RMM:   4    -0.115191909534E+04   -0.74465E-06   -0.24034E-06  3653   0.248E-03    0.283E-03
RMM:   5    -0.115191909598E+04   -0.64501E-06   -0.13091E-06  3246   0.243E-03    0.281E-03
RMM:   6    -0.115191909625E+04   -0.26741E-06   -0.59103E-07  2372   0.198E-03    0.100E-03
RMM:   7    -0.115191909637E+04   -0.12208E-06   -0.32253E-07  1967   0.197E-03    0.539E-04
RMM:   8    -0.115191909640E+04   -0.27168E-07   -0.61429E-08  1402   0.181E-03
   1 F= -.11519191E+04 E0= -.11519191E+04  d E =-.115192E+04  mag=    20.0000
       N       E                     dE             d eps       ncg     rms          rms(c)
DAV:   1    -0.115191981543E+04   -0.71906E-03   -0.40006E-01 12400   0.749E-01    0.290E-01
RMM:   2    -0.115192021971E+04   -0.40428E-03   -0.13821E-02 12295   0.152E-01    0.259E-01
RMM:   3    -0.115192001339E+04    0.20632E-03   -0.69782E-04 11556   0.474E-02    0.159E-01
RMM:   4    -0.115191989813E+04    0.11525E-03   -0.43825E-04 10544   0.238E-02    0.977E-02
RMM:   5    -0.115191986214E+04    0.35991E-04   -0.67461E-05  7363   0.136E-02    0.488E-02
RMM:   6    -0.115191986075E+04    0.13968E-05   -0.30262E-05  7097   0.710E-03    0.293E-02
RMM:   7    -0.115191985978E+04    0.97037E-06   -0.10414E-05  6839   0.587E-03    0.209E-02
RMM:   8    -0.115191985795E+04    0.18276E-05   -0.67231E-06  6322   0.319E-03
   2 F= -.11519199E+04 E0= -.11519199E+04  d E =-.761548E-03  mag=    20.0000
       N       E                     dE             d eps       ncg     rms          rms(c)
DAV:   1    -0.115192000725E+04   -0.14747E-03   -0.35291E-02 12800   0.222E-01    0.857E-02
RMM:   2    -0.115192004292E+04   -0.35673E-04   -0.12053E-03 12205   0.451E-02    0.769E-02
RMM:   3    -0.115192002288E+04    0.20041E-04   -0.50070E-05  6728   0.147E-02    0.483E-02
RMM:   4    -0.115192001337E+04    0.95108E-05   -0.37762E-05  6588   0.806E-03    0.364E-02
RMM:   5    -0.115192001215E+04    0.12192E-05   -0.81034E-06  5739   0.485E-03    0.203E-02
RMM:   6    -0.115192001267E+04   -0.51552E-06   -0.29162E-06  4358   0.259E-03    0.654E-03
RMM:   7    -0.115192001327E+04   -0.60770E-06   -0.76858E-07  2936   0.232E-03    0.459E-03
RMM:   8    -0.115192001375E+04   -0.47106E-06   -0.31356E-07  2008   0.187E-03
   3 F= -.11519200E+04 E0= -.11519200E+04  d E =-.917346E-03  mag=    20.0000
       N       E                     dE             d eps       ncg     rms          rms(c)
DAV:   1    -0.115192006803E+04   -0.54756E-04   -0.39434E-01 12728   0.745E-01    0.180E-01
RMM:   2    -0.115192097238E+04   -0.90435E-03   -0.10366E-02 12322   0.131E-01    0.142E-01
RMM:   3    -0.115192096354E+04    0.88415E-05   -0.47398E-04 10024   0.426E-02    0.901E-02
RMM:   4    -0.115192093017E+04    0.33367E-04   -0.12667E-04  7183   0.145E-02    0.520E-02
RMM:   5    -0.115192092518E+04    0.49948E-05   -0.56119E-05  7019   0.104E-02    0.546E-02
RMM:   6    -0.115192092676E+04   -0.15851E-05   -0.21882E-05  6850   0.780E-03    0.131E-02
RMM:   7    -0.115192092758E+04   -0.81414E-06   -0.97071E-06  6410   0.425E-03    0.108E-02
RMM:   8    -0.115192092800E+04   -0.41985E-06   -0.50508E-06  5591   0.400E-03
   4 F= -.11519209E+04 E0= -.11519209E+04  d E =-.914253E-03  mag=    20.0000
       N       E                     dE             d eps       ncg     rms          rms(c)
DAV:   1    -0.115192077198E+04    0.15560E-03   -0.13423E-01 12480   0.435E-01    0.106E-01
RMM:   2    -0.115192108797E+04   -0.31599E-03   -0.36058E-03 12314   0.766E-02    0.840E-02
RMM:   3    -0.115192108134E+04    0.66229E-05   -0.13948E-04  7271   0.242E-02    0.535E-02
RMM:   4    -0.115192107221E+04    0.91305E-05   -0.55225E-05  7016   0.979E-03    0.343E-02
RMM:   5    -0.115192107104E+04    0.11768E-05   -0.26780E-05  6863   0.793E-03    0.474E-02
RMM:   6    -0.115192107165E+04   -0.61168E-06   -0.13371E-05  6458   0.518E-03    0.635E-03
RMM:   7    -0.115192107211E+04   -0.45987E-06   -0.49569E-06  5611   0.375E-03    0.931E-03
RMM:   8    -0.115192107237E+04   -0.26269E-06   -0.32291E-06  4649   0.267E-03
   5 F= -.11519211E+04 E0= -.11519211E+04  d E =-.105862E-02  mag=    20.0000
       N       E                     dE             d eps       ncg     rms          rms(c)
DAV:   1    -0.115192123964E+04   -0.16753E-03   -0.21753E-01 12760   0.552E-01    0.119E-01
RMM:   2    -0.115192174003E+04   -0.50039E-03   -0.56421E-03 12354   0.953E-02    0.886E-02
RMM:   3    -0.115192173072E+04    0.93097E-05   -0.24139E-04  7935   0.316E-02    0.572E-02
RMM:   4    -0.115192171728E+04    0.13443E-04   -0.84244E-05  7009   0.117E-02    0.362E-02
RMM:   5    -0.115192171722E+04    0.54817E-07   -0.26394E-05  6920   0.800E-03    0.312E-02
RMM:   6    -0.115192171893E+04   -0.17073E-05   -0.12757E-05  6719   0.494E-03    0.741E-03
RMM:   7    -0.115192171995E+04   -0.10164E-05   -0.62518E-06  5904   0.407E-03    0.820E-03
RMM:   8    -0.115192172059E+04   -0.63963E-06   -0.38898E-06  4469   0.291E-03
   6 F= -.11519217E+04 E0= -.11519217E+04  d E =-.648216E-03  mag=    20.0000
       N       E                     dE             d eps       ncg     rms          rms(c)
DAV:   1    -0.115192102600E+04    0.69395E-03   -0.48390E-01 12712   0.823E-01    0.179E-01
RMM:   2    -0.115192213388E+04   -0.11079E-02   -0.12522E-02 12331   0.142E-01    0.133E-01
RMM:   3    -0.115192211994E+04    0.13940E-04   -0.58846E-04 10501   0.465E-02    0.855E-02
RMM:   4    -0.115192208736E+04    0.32579E-04   -0.17264E-04  7430   0.157E-02    0.520E-02
RMM:   5    -0.115192208423E+04    0.31356E-05   -0.50693E-05  7043   0.103E-02    0.481E-02
RMM:   6    -0.115192208691E+04   -0.26823E-05   -0.22109E-05  6972   0.723E-03    0.121E-02
RMM:   7    -0.115192208869E+04   -0.17773E-05   -0.11740E-05  6737   0.503E-03    0.124E-02
RMM:   8    -0.115192208963E+04   -0.94228E-06   -0.70032E-06  6145   0.421E-03
   7 F= -.11519221E+04 E0= -.11519221E+04  d E =-.101726E-02  mag=    20.0000
