       N       E                     dE             d eps       ncg     rms          rms(c)
DAV:   1    -0.115226402435E+04   -0.11523E+04   -0.38719E-02 13176   0.450E-01    0.185E-02
RMM:   2    -0.115226402475E+04   -0.40747E-06   -0.13254E-05  6953   0.649E-03    0.297E-02
RMM:   3    -0.115226402511E+04   -0.35639E-06   -0.42886E-06  5800   0.414E-03    0.362E-03
RMM:   4    -0.115226402559E+04   -0.47690E-06   -0.16553E-06  3344   0.230E-03    0.232E-03
RMM:   5    -0.115226402606E+04   -0.47610E-06   -0.10357E-06  3124   0.230E-03    0.292E-03
RMM:   6    -0.115226402628E+04   -0.22078E-06   -0.30622E-07  1945   0.182E-03    0.119E-03
RMM:   7    -0.115226402638E+04   -0.97018E-07   -0.18590E-07  1732   0.184E-03    0.410E-04
RMM:   8    -0.115226402641E+04   -0.31403E-07   -0.27579E-08  1360   0.173E-03
   1 F= -.11522640E+04 E0= -.11522640E+04  d E =-.115226E+04  mag=    20.0000
       N       E                     dE             d eps       ncg     rms          rms(c)
DAV:   1    -0.115226423442E+04   -0.20804E-03   -0.26547E-01 12896   0.611E-01    0.190E-01
RMM:   2    -0.115226467213E+04   -0.43771E-03   -0.85030E-03 12304   0.119E-01    0.166E-01
RMM:   3    -0.115226460174E+04    0.70383E-04   -0.36616E-04  9898   0.346E-02    0.106E-01
RMM:   4    -0.115226451761E+04    0.84136E-04   -0.30588E-04 10077   0.185E-02    0.538E-02
RMM:   5    -0.115226450468E+04    0.12926E-04   -0.47579E-05  7152   0.108E-02    0.285E-02
RMM:   6    -0.115226450618E+04   -0.14929E-05   -0.16312E-05  6825   0.524E-03    0.153E-02
RMM:   7    -0.115226450671E+04   -0.53451E-06   -0.69891E-06  6291   0.428E-03    0.114E-02
RMM:   8    -0.115226450716E+04   -0.44773E-06   -0.39069E-06  5432   0.282E-03
   2 F= -.11522645E+04 E0= -.11522645E+04  d E =-.480745E-03  mag=    20.0000
       N       E                     dE             d eps       ncg     rms          rms(c)
DAV:   1    -0.115226460511E+04   -0.98397E-04   -0.23959E-02 13056   0.184E-01    0.572E-02
RMM:   2    -0.115226464413E+04   -0.39021E-04   -0.76188E-04 11948   0.364E-02    0.496E-02
RMM:   3    -0.115226463771E+04    0.64175E-05   -0.28951E-05  6696   0.107E-02    0.316E-02
RMM:   4    -0.115226462983E+04    0.78780E-05   -0.23324E-05  6545   0.590E-03    0.191E-02
RMM:   5    -0.115226462889E+04    0.94237E-06   -0.54559E-06  5517   0.377E-03    0.139E-02
RMM:   6    -0.115226462886E+04    0.30996E-07   -0.14306E-06  3339   0.211E-03    0.462E-03
RMM:   7    -0.115226462886E+04    0.37398E-08   -0.36825E-07  2439   0.196E-03    0.326E-03
RMM:   8    -0.115226462885E+04    0.96770E-08   -0.30921E-07  2080   0.179E-03
   3 F= -.11522646E+04 E0= -.11522646E+04  d E =-.602434E-03  mag=    20.0000
